<event>
 7    1  0.3891761E-009  0.9162695E+02  0.7818608E-02  0.1298959E+00
         -2   -1    0    0    0  501 -0.00000000000E+00  0.00000000000E+00  0.76294054944E+02  0.76294054986E+02  0.25500000000E-02 0. -1.
          2   -1    0    0  501    0  0.00000000000E+00 -0.00000000000E+00 -0.27510330604E+02  0.27510330722E+02  0.25500000000E-02 0.  1.
         23    2    1    2    0    0  0.00000000000E+00  0.00000000000E+00  0.48783724340E+02  0.10380438571E+03  0.91626954178E+02 0.  0.
    9000005    2    3    3    0    0  0.12465471621E+01 -0.30734449350E+02  0.62306370436E+02  0.70203459916E+02  0.10014076623E+02 0.  0.
         22    1    3    3    0    0 -0.12465471621E+01  0.30734449350E+02 -0.13522646097E+02  0.33600925792E+02  0.00000000000E+00 0.  1.
         22    1    4    4    0    0  0.27180197361E+01 -0.20128191584E+01  0.44102074502E+01  0.55577875098E+01  0.00000000000E+00 0. -1.
         22    1    4    4    0    0 -0.14714725739E+01 -0.28721630191E+02  0.57896162986E+02  0.64645672406E+02  0.00000000000E+00 0. -1.
<mgrwt>
<rscale>  0 0.91626954E+02</rscale>
<asrwt>0</asrwt>
<pdfrwt beam="2">  1        2 0.42323586E-02 0.91626954E+02</pdfrwt>
<pdfrwt beam="1">  1       -2 0.11737547E-01 0.91626954E+02</pdfrwt>
<totfact> 0.85159047E+04</totfact>
</mgrwt>
</event>
<event>
 7    1  0.3891761E-009  0.9150951E+02  0.7818608E-02  0.1299237E+00
          2   -1    0    0  501    0  0.00000000000E+00  0.00000000000E+00  0.49320892068E+03  0.49320892069E+03  0.25500000000E-02 0. -1.
         -2   -1    0    0    0  501 -0.00000000000E+00 -0.00000000000E+00 -0.42446464319E+01  0.42446471979E+01  0.25500000000E-02 0.  1.
         23    2    1    2    0    0  0.00000000000E+00  0.00000000000E+00  0.48896427425E+03  0.49745356789E+03  0.91509511583E+02 0.  0.
    9000005    2    3    3    0    0  0.93647975065E+00 -0.43563354199E+02  0.31028949627E+03  0.31354239609E+03  0.11428903282E+02 0.  0.
         22    1    3    3    0    0 -0.93647975065E+00  0.43563354199E+02  0.17867477799E+03  0.18391117180E+03  0.00000000000E+00 0.  1.
         22    1    4    4    0    0  0.46072849765E+01 -0.32769354807E+02  0.25042179555E+03  0.25259875964E+03  0.00000000000E+00 0.  1.
         22    1    4    4    0    0 -0.36708052259E+01 -0.10793999393E+02  0.59867700720E+02  0.60943636447E+02  0.00000000000E+00 0.  1.
<mgrwt>
<rscale>  0 0.91509512E+02</rscale>
<asrwt>0</asrwt>
<pdfrwt beam="1">  1        2 0.75878306E-01 0.91509512E+02</pdfrwt>
<pdfrwt beam="2">  1       -2 0.65302249E-03 0.91509512E+02</pdfrwt>
<totfact> 0.21247802E+05</totfact>
</mgrwt>
</event>
<event>
 7    1  0.3891761E-009  0.1095499E+03  0.7818608E-02  0.1261406E+00
         -2   -1    0    0    0  501 -0.00000000000E+00  0.00000000000E+00  0.17084263736E+01  0.17084282767E+01  0.25500000000E-02 0.  1.
          2   -1    0    0  501    0  0.00000000000E+00 -0.00000000000E+00 -0.17561731018E+04  0.17561731018E+04  0.25500000000E-02 0. -1.
         23    2    1    2    0    0  0.00000000000E+00 -0.35527136788E-14 -0.17544646755E+04  0.17578815301E+04  0.10954988121E+03 0.  0.
    9000005    2    3    3    0    0  0.23565283140E+02 -0.25183875932E+02 -0.15585738386E+04  0.15589776082E+04  0.83200001652E+01 0.  0.
         22    1    3    3    0    0 -0.23565283140E+02  0.25183875932E+02 -0.19589083689E+03  0.19890392191E+03  0.00000000000E+00 0.  1.
         22    1    4    4    0    0  0.98712660122E+01 -0.61546511654E+01 -0.41244898192E+03  0.41261299581E+03  0.00000000000E+00 0. -1.
         22    1    4    4    0    0  0.13694017128E+02 -0.19029224766E+02 -0.11461248566E+04  0.11463646124E+04  0.00000000000E+00 0. -1.
<mgrwt>
<rscale>  0 0.10954988E+03</rscale>
<asrwt>0</asrwt>
<pdfrwt beam="2">  1        2 0.27017903E+00 0.10954988E+03</pdfrwt>
<pdfrwt beam="1">  1       -2 0.26283638E-03 0.10954988E+03</pdfrwt>
<totfact> 0.13366943E+05</totfact>
</mgrwt>
</event>
<event>
 7    1  0.3891761E-009  0.9337881E+02  0.7818608E-02  0.1294870E+00
         -2   -1    0    0    0  501 -0.00000000000E+00  0.00000000000E+00  0.88360424512E+02  0.88360424548E+02  0.25500000000E-02 0.  1.
          2   -1    0    0  501    0  0.00000000000E+00 -0.00000000000E+00 -0.24670554416E+02  0.24670554548E+02  0.25500000000E-02 0. -1.
         23    2    1    2    0    0  0.00000000000E+00 -0.35527136788E-14  0.63689870095E+02  0.11303097910E+03  0.93378812815E+02 0.  0.
    9000005    2    3    3    0    0  0.51962434395E+01  0.18484015755E+02  0.82668561430E+02  0.86033747589E+02  0.14108681404E+02 0.  0.
         22    1    3    3    0    0 -0.51962434395E+01 -0.18484015755E+02 -0.18978691335E+02  0.26997231508E+02  0.00000000000E+00 0. -1.
         22    1    4    4    0    0  0.72561609577E+00  0.17087931634E+02  0.46173298647E+02  0.49239185962E+02  0.00000000000E+00 0. -1.
         22    1    4    4    0    0  0.44706273437E+01  0.13960841213E+01  0.36495262782E+02  0.36794561626E+02  0.00000000000E+00 0. -1.
<mgrwt>
<rscale>  0 0.93378813E+02</rscale>
<asrwt>0</asrwt>
<pdfrwt beam="2">  1        2 0.37954699E-02 0.93378813E+02</pdfrwt>
<pdfrwt beam="1">  1       -2 0.13593912E-01 0.93378813E+02</pdfrwt>
<totfact> 0.77997015E+04</totfact>
</mgrwt>
</event>
<event>
 7    1  0.3891761E-009  0.9165553E+02  0.7818608E-02  0.1298891E+00
         -2   -1    0    0    0  501 -0.00000000000E+00  0.00000000000E+00  0.36711387897E+02  0.36711387986E+02  0.25500000000E-02 0.  1.
          2   -1    0    0  501    0  0.00000000000E+00 -0.00000000000E+00 -0.57207972775E+02  0.57207972832E+02  0.25500000000E-02 0. -1.
         23    2    1    2    0    0  0.00000000000E+00  0.00000000000E+00 -0.20496584878E+02  0.93919360818E+02  0.91655530902E+02 0.  0.
    9000005    2    3    3    0    0  0.29969114327E+02  0.32223010198E+02  0.21962212693E+01  0.44407406195E+02  0.55429358123E+01 0.  0.
         22    1    3    3    0    0 -0.29969114327E+02 -0.32223010198E+02 -0.22692806147E+02  0.49511954623E+02  0.00000000000E+00 0. -1.
         22    1    4    4    0    0 -0.22572025904E+00  0.35066092478E+00 -0.14330478783E+00  0.44096369661E+00  0.00000000000E+00 0. -1.
         22    1    4    4    0    0  0.30194834586E+02  0.31872349273E+02  0.23395260571E+01  0.43966442499E+02  0.00000000000E+00 0. -1.
<mgrwt>
<rscale>  0 0.91655531E+02</rscale>
<asrwt>0</asrwt>
<pdfrwt beam="2">  1        2 0.88012266E-02 0.91655531E+02</pdfrwt>
<pdfrwt beam="1">  1       -2 0.56479058E-02 0.91655531E+02</pdfrwt>
<totfact> 0.10318581E+05</totfact>
</mgrwt>
</event>
<event>
 7    1  0.3891761E-009  0.9469103E+02  0.7818608E-02  0.1291873E+00
          2   -1    0    0  501    0  0.00000000000E+00  0.00000000000E+00  0.60753044334E+02  0.60753044387E+02  0.25500000000E-02 0. -1.
         -2   -1    0    0    0  501 -0.00000000000E+00 -0.00000000000E+00 -0.36896878807E+02  0.36896878895E+02  0.25500000000E-02 0.  1.
         23    2    1    2    0    0 -0.71054273576E-14  0.00000000000E+00  0.23856165527E+02  0.97649923282E+02  0.94691028526E+02 0.  0.
    9000005    2    3    3    0    0 -0.42164065262E+02  0.19609554665E+02  0.80340773774E+01  0.48530868864E+02  0.11329421864E+02 0.  0.
         22    1    3    3    0    0  0.42164065262E+02 -0.19609554665E+02  0.15822088150E+02  0.49119054419E+02  0.00000000000E+00 0.  1.
         22    1    4    4    0    0 -0.36933139492E+02  0.18449621611E+02  0.10549991818E+02  0.42611590650E+02  0.00000000000E+00 0.  1.
         22    1    4    4    0    0 -0.52309257698E+01  0.11599330542E+01 -0.25159144408E+01  0.59192782138E+01  0.00000000000E+00 0.  1.
<mgrwt>
<rscale>  0 0.94691029E+02</rscale>
<asrwt>0</asrwt>
<pdfrwt beam="1">  1        2 0.93466221E-02 0.94691029E+02</pdfrwt>
<pdfrwt beam="2">  1       -2 0.56764430E-02 0.94691029E+02</pdfrwt>
<totfact> 0.95620507E+04</totfact>
</mgrwt>
</event>
<event>
 7    1  0.3891761E-009  0.9258418E+02  0.7818608E-02  0.1296712E+00
         -2   -1    0    0    0  501 -0.00000000000E+00  0.00000000000E+00  0.63931059590E+02  0.63931059641E+02  0.25500000000E-02 0. -1.
          2   -1    0    0  501    0  0.00000000000E+00 -0.00000000000E+00 -0.33519817810E+02  0.33519817907E+02  0.25500000000E-02 0.  1.
         23    2    1    2    0    0  0.00000000000E+00 -0.55511151231E-16  0.30411241780E+02  0.97450877548E+02  0.92584177419E+02 0.  0.
    9000005    2    3    3    0    0  0.25060603378E+02 -0.14676111196E+00 -0.24082869007E+02  0.37470351617E+02  0.13999546071E+02 0.  0.
         22    1    3    3    0    0 -0.25060603378E+02  0.14676111196E+00  0.54494110787E+02  0.59980525931E+02  0.00000000000E+00 0. -1.
         22    1    4    4    0    0  0.26514738072E+02 -0.41405659296E+00 -0.20260501740E+02  0.33372004864E+02  0.00000000000E+00 0.  1.
         22    1    4    4    0    0 -0.14541346941E+01  0.26729548100E+00 -0.38223672674E+01  0.40983467532E+01  0.00000000000E+00 0.  1.
<mgrwt>
<rscale>  0 0.92584177E+02</rscale>
<asrwt>0</asrwt>
<pdfrwt beam="2">  1        2 0.51568951E-02 0.92584177E+02</pdfrwt>
<pdfrwt beam="1">  1       -2 0.98355475E-02 0.92584177E+02</pdfrwt>
<totfact> 0.87080411E+04</totfact>
</mgrwt>
</event>
<event>
 7    1  0.3891761E-009  0.1041524E+03  0.7818608E-02  0.1271799E+00
         -2   -1    0    0    0  501 -0.00000000000E+00  0.00000000000E+00  0.13851945361E+03  0.13851945363E+03  0.25500000000E-02 0.  1.
          2   -1    0    0  501    0  0.00000000000E+00 -0.00000000000E+00 -0.19577962633E+02  0.19577962799E+02  0.25500000000E-02 0. -1.
         23    2    1    2    0    0  0.00000000000E+00  0.00000000000E+00  0.11894149097E+03  0.15809741643E+03  0.10415236342E+03 0.  0.
    9000005    2    3    3    0    0 -0.48616195778E+02 -0.16589836277E+02  0.71586876143E+02  0.88231711641E+02  0.46256830360E+01 0.  0.
         22    1    3    3    0    0  0.48616195778E+02  0.16589836277E+02  0.47354614829E+02  0.69865704786E+02  0.00000000000E+00 0.  1.
         22    1    4    4    0    0 -0.26890912683E+02 -0.99096650679E+01  0.36146778224E+02  0.46129298962E+02  0.00000000000E+00 0. -1.
         22    1    4    4    0    0 -0.21725283095E+02 -0.66801712095E+01  0.35440097919E+02  0.42102412680E+02  0.00000000000E+00 0. -1.
<mgrwt>
<rscale>  0 0.10415236E+03</rscale>
<asrwt>0</asrwt>
<pdfrwt beam="2">  1        2 0.30119943E-02 0.10415236E+03</pdfrwt>
<pdfrwt beam="1">  1       -2 0.21310685E-01 0.10415236E+03</pdfrwt>
<totfact> 0.51358863E+04</totfact>
</mgrwt>
</event>
<event>
 7    1  0.3891761E-009  0.9248783E+02  0.7818608E-02  0.1296936E+00
          2   -1    0    0  501    0  0.00000000000E+00  0.00000000000E+00  0.18611789217E+03  0.18611789219E+03  0.25500000000E-02 0. -1.
         -2   -1    0    0    0  501 -0.00000000000E+00 -0.00000000000E+00 -0.11490026248E+02  0.11490026531E+02  0.25500000000E-02 0.  1.
         23    2    1    2    0    0  0.00000000000E+00  0.00000000000E+00  0.17462786592E+03  0.19760791872E+03  0.92487826137E+02 0.  0.
    9000005    2    3    3    0    0  0.34033550655E+02  0.95431127887E+01  0.15059017100E+03  0.15486257571E+03  0.74608431419E+01 0.  0.
         22    1    3    3    0    0 -0.34033550655E+02 -0.95431127887E+01  0.24037694916E+02  0.42745343007E+02  0.00000000000E+00 0.  1.
         22    1    4    4    0    0  0.17645911778E+02  0.88000335158E+01  0.81377925630E+02  0.83732822550E+02  0.00000000000E+00 0. -1.
         22    1    4    4    0    0  0.16387638878E+02  0.74307927285E+00  0.69212245374E+02  0.71129753159E+02  0.00000000000E+00 0. -1.
<mgrwt>
<rscale>  0 0.92487826E+02</rscale>
<asrwt>0</asrwt>
<pdfrwt beam="1">  1        2 0.28633522E-01 0.92487826E+02</pdfrwt>
<pdfrwt beam="2">  1       -2 0.17676964E-02 0.92487826E+02</pdfrwt>
<totfact> 0.14502730E+05</totfact>
</mgrwt>
</event>
<event>
 7    1  0.3891761E-009  0.8980628E+02  0.7818608E-02  0.1303322E+00
         -2   -1    0    0    0  501 -0.00000000000E+00  0.00000000000E+00  0.13577460931E+03  0.13577460934E+03  0.25500000000E-02 0.  1.
          2   -1    0    0  501    0  0.00000000000E+00 -0.00000000000E+00 -0.14850286400E+02  0.14850286619E+02  0.25500000000E-02 0. -1.
         23    2    1    2    0    0  0.17763568394E-14  0.00000000000E+00  0.12092432291E+03  0.15062489596E+03  0.89806277118E+02 0.  0.
    9000005    2    3    3    0    0  0.14707510196E+02  0.29998783937E+02  0.11057748165E+03  0.11564926132E+03  0.55798120476E+01 0.  0.
         22    1    3    3    0    0 -0.14707510196E+02 -0.29998783937E+02  0.10346841263E+02  0.34975634633E+02  0.00000000000E+00 0. -1.
         22    1    4    4    0    0  0.11484570423E+02  0.26834351768E+02  0.91425064829E+02  0.95971455505E+02  0.00000000000E+00 0. -1.
         22    1    4    4    0    0  0.32229397735E+01  0.31644321695E+01  0.19152416821E+02  0.19677805819E+02  0.00000000000E+00 0. -1.
<mgrwt>
<rscale>  0 0.89806277E+02</rscale>
<asrwt>0</asrwt>
<pdfrwt beam="2">  1        2 0.22846594E-02 0.89806277E+02</pdfrwt>
<pdfrwt beam="1">  1       -2 0.20888402E-01 0.89806277E+02</pdfrwt>
<totfact> 0.75182800E+04</totfact>
</mgrwt>
</event>
<event>
 7    1  0.3891761E-009  0.8518578E+02  0.7818608E-02  0.1314947E+00
          2   -1    0    0  501    0  0.00000000000E+00  0.00000000000E+00  0.30449412079E+03  0.30449412080E+03  0.25500000000E-02 0. -1.
         -2   -1    0    0    0  501 -0.00000000000E+00 -0.00000000000E+00 -0.59579289577E+01  0.59579295034E+01  0.25500000000E-02 0.  1.
         23    2    1    2    0    0  0.00000000000E+00  0.00000000000E+00  0.29853619183E+03  0.31045205030E+03  0.85185783463E+02 0.  0.
    9000005    2    3    3    0    0  0.25825303430E+02 -0.28595762395E+02  0.21369211240E+03  0.21726845873E+03  0.75233192128E+01 0.  0.
         22    1    3    3    0    0 -0.25825303430E+02  0.28595762395E+02  0.84844079431E+02  0.93183591575E+02  0.00000000000E+00 0.  1.
         22    1    4    4    0    0  0.13929860074E+02 -0.12833204833E+02  0.12314295303E+03  0.12459100701E+03  0.00000000000E+00 0.  1.
         22    1    4    4    0    0  0.11895443355E+02 -0.15762557562E+02  0.90549159372E+02  0.92677451716E+02  0.00000000000E+00 0.  1.
<mgrwt>
<rscale>  0 0.85185783E+02</rscale>
<asrwt>0</asrwt>
<pdfrwt beam="1">  1        2 0.46845259E-01 0.85185783E+02</pdfrwt>
<pdfrwt beam="2">  1       -2 0.91660430E-03 0.85185783E+02</pdfrwt>
<totfact> 0.21639968E+05</totfact>
</mgrwt>
</event>
<event>
 7    1  0.3891761E-009  0.9032105E+02  0.7818608E-02  0.1302076E+00
          2   -1    0    0  501    0  0.00000000000E+00  0.00000000000E+00  0.35316356101E+03  0.35316356102E+03  0.25500000000E-02 0. -1.
         -2   -1    0    0    0  501 -0.00000000000E+00 -0.00000000000E+00 -0.57748676253E+01  0.57748681883E+01  0.25500000000E-02 0.  1.
         23    2    1    2    0    0  0.00000000000E+00  0.35527136788E-14  0.34738869339E+03  0.35893842921E+03  0.90321047771E+02 0.  0.
    9000005    2    3    3    0    0  0.12444771171E+02 -0.25702229091E+02  0.31090181901E+03  0.31260519156E+03  0.15703114775E+02 0.  0.
         22    1    3    3    0    0 -0.12444771171E+02  0.25702229091E+02  0.36486874376E+02  0.46333237654E+02  0.00000000000E+00 0.  1.
         22    1    4    4    0    0 -0.32066097607E+01 -0.81475373323E+01  0.10503060580E+03  0.10539493757E+03  0.00000000000E+00 0.  1.
         22    1    4    4    0    0  0.15651380932E+02 -0.17554691759E+02  0.20587121321E+03  0.20721025398E+03  0.00000000000E+00 0.  1.
<mgrwt>
<rscale>  0 0.90321048E+02</rscale>
<asrwt>0</asrwt>
<pdfrwt beam="1">  1        2 0.54332846E-01 0.90321048E+02</pdfrwt>
<pdfrwt beam="2">  1       -2 0.88844137E-03 0.90321048E+02</pdfrwt>
<totfact> 0.19566686E+05</totfact>
</mgrwt>
</event>
<event>
 7    1  0.3891761E-009  0.9072718E+02  0.7818608E-02  0.1301100E+00
         -2   -1    0    0    0  501 -0.00000000000E+00  0.00000000000E+00  0.34431249349E+02  0.34431249443E+02  0.25500000000E-02 0.  1.
          2   -1    0    0  501    0  0.00000000000E+00 -0.00000000000E+00 -0.59767083471E+02  0.59767083525E+02  0.25500000000E-02 0. -1.
         23    2    1    2    0    0 -0.71054273576E-14 -0.35527136788E-14 -0.25335834122E+02  0.94198332968E+02  0.90727181392E+02 0.  0.
    9000005    2    3    3    0    0  0.36572234607E+02  0.23868752099E+02 -0.33606393053E+01  0.45309122930E+02  0.11592111683E+02 0.  0.
         22    1    3    3    0    0 -0.36572234607E+02 -0.23868752099E+02 -0.21975194817E+02  0.48889210038E+02  0.00000000000E+00 0. -1.
         22    1    4    4    0    0  0.34886378191E+00  0.14954250806E+01 -0.22434753569E+01  0.27186731666E+01  0.00000000000E+00 0. -1.
         22    1    4    4    0    0  0.36223370825E+02  0.22373327018E+02 -0.11171639484E+01  0.42590449764E+02  0.00000000000E+00 0. -1.
<mgrwt>
<rscale>  0 0.90727181E+02</rscale>
<asrwt>0</asrwt>
<pdfrwt beam="2">  1        2 0.91949359E-02 0.90727181E+02</pdfrwt>
<pdfrwt beam="1">  1       -2 0.52971153E-02 0.90727181E+02</pdfrwt>
<totfact> 0.10744580E+05</totfact>
</mgrwt>
</event>
<event>
 7    1  0.3891761E-009  0.9269732E+02  0.7818608E-02  0.1296448E+00
         -2   -1    0    0    0  501 -0.00000000000E+00  0.00000000000E+00  0.36352746276E+03  0.36352746277E+03  0.25500000000E-02 0.  1.
          2   -1    0    0  501    0  0.00000000000E+00 -0.00000000000E+00 -0.59093150001E+01  0.59093155503E+01  0.25500000000E-02 0. -1.
         23    2    1    2    0    0  0.00000000000E+00 -0.17763568394E-14  0.35761814776E+03  0.36943677832E+03  0.92697322333E+02 0.  0.
    9000005    2    3    3    0    0 -0.19197725893E+02 -0.99766247742E+01  0.34173106598E+03  0.34259492501E+03  0.11093938408E+02 0.  0.
         22    1    3    3    0    0  0.19197725893E+02  0.99766247742E+01  0.15887081782E+02  0.26841853306E+02  0.00000000000E+00 0. -1.
         22    1    4    4    0    0 -0.71760173693E+01  0.15494993797E+00  0.16821786269E+03  0.16837092553E+03  0.00000000000E+00 0.  1.
         22    1    4    4    0    0 -0.12021708523E+02 -0.10131574712E+02  0.17351320329E+03  0.17422399949E+03  0.00000000000E+00 0.  1.
<mgrwt>
<rscale>  0 0.92697322E+02</rscale>
<asrwt>0</asrwt>
<pdfrwt beam="2">  1        2 0.90912526E-03 0.92697322E+02</pdfrwt>
<pdfrwt beam="1">  1       -2 0.55927312E-01 0.92697322E+02</pdfrwt>
<totfact> 0.43555333E+04</totfact>
</mgrwt>
</event>
<event>
 7    1  0.3891761E-009  0.1009733E+03  0.7818608E-02  0.1278263E+00
          2   -1    0    0  501    0  0.00000000000E+00  0.00000000000E+00  0.83516201035E+02  0.83516201074E+02  0.25500000000E-02 0. -1.
         -2   -1    0    0    0  501 -0.00000000000E+00 -0.00000000000E+00 -0.30519827045E+02  0.30519827151E+02  0.25500000000E-02 0.  1.
         23    2    1    2    0    0 -0.44408920985E-15  0.00000000000E+00  0.52996373990E+02  0.11403602823E+03  0.10097326417E+03 0.  0.
    9000005    2    3    3    0    0  0.25105846383E+01 -0.31425140822E+02  0.71025756002E+02  0.77719349872E+02  0.13404544155E+01 0.  0.
         22    1    3    3    0    0 -0.25105846383E+01  0.31425140822E+02 -0.18029382012E+02  0.36316678353E+02  0.00000000000E+00 0.  1.
         22    1    4    4    0    0 -0.11680153182E+00 -0.88544500848E+00  0.17349099846E+01  0.19512990841E+01  0.00000000000E+00 0.  1.
         22    1    4    4    0    0  0.26273861701E+01 -0.30539695813E+02  0.69290846017E+02  0.75768050788E+02  0.00000000000E+00 0.  1.
<mgrwt>
<rscale>  0 0.10097326E+03</rscale>
<asrwt>0</asrwt>
<pdfrwt beam="1">  1        2 0.12848646E-01 0.10097326E+03</pdfrwt>
<pdfrwt beam="2">  1       -2 0.46953580E-02 0.10097326E+03</pdfrwt>
<totfact> 0.87393857E+04</totfact>
</mgrwt>
</event>
<event>
 7    1  0.3891761E-009  0.9231705E+02  0.7818608E-02  0.1297336E+00
          2   -1    0    0  501    0  0.00000000000E+00  0.00000000000E+00  0.10477712556E+03  0.10477712560E+03  0.25500000000E-02 0. -1.
         -2   -1    0    0    0  501 -0.00000000000E+00 -0.00000000000E+00 -0.20334680528E+02  0.20334680688E+02  0.25500000000E-02 0.  1.
         23    2    1    2    0    0  0.71054273576E-14  0.00000000000E+00  0.84442445037E+02  0.12511180628E+03  0.92317049064E+02 0.  0.
    9000005    2    3    3    0    0 -0.39412243848E+02 -0.22436283252E+02  0.35787981332E+02  0.58598885662E+02  0.98151934132E+01 0.  0.
         22    1    3    3    0    0  0.39412243848E+02  0.22436283252E+02  0.48654463705E+02  0.66512920622E+02  0.00000000000E+00 0.  1.
         22    1    4    4    0    0 -0.16692225685E+02 -0.64595902850E+01  0.19194090743E+02  0.26244424635E+02  0.00000000000E+00 0.  1.
         22    1    4    4    0    0 -0.22720018162E+02 -0.15976692967E+02  0.16593890589E+02  0.32354461027E+02  0.00000000000E+00 0.  1.
<mgrwt>
<rscale>  0 0.92317049E+02</rscale>
<asrwt>0</asrwt>
<pdfrwt beam="1">  1        2 0.16119558E-01 0.92317049E+02</pdfrwt>
<pdfrwt beam="2">  1       -2 0.31284124E-02 0.92317049E+02</pdfrwt>
<totfact> 0.12025781E+05</totfact>
</mgrwt>
</event>
<event>
 7    1  0.3891761E-009  0.9068538E+02  0.7818608E-02  0.1301200E+00
          2   -1    0    0  501    0  0.00000000000E+00  0.00000000000E+00  0.83276105696E+02  0.83276105735E+02  0.25500000000E-02 0. -1.
         -2   -1    0    0    0  501 -0.00000000000E+00 -0.00000000000E+00 -0.24688468515E+02  0.24688468647E+02  0.25500000000E-02 0.  1.
         23    2    1    2    0    0 -0.17763568394E-14  0.17763568394E-14  0.58587637181E+02  0.10796457438E+03  0.90685379698E+02 0.  0.
    9000005    2    3    3    0    0  0.15233661772E+02  0.89394267703E+01 -0.19463901061E+02  0.27939450677E+02  0.94758460140E+01 0.  0.
         22    1    3    3    0    0 -0.15233661772E+02 -0.89394267703E+01  0.78051538242E+02  0.80025123704E+02  0.00000000000E+00 0. -1.
         22    1    4    4    0    0  0.65411289314E+01  0.14345193166E+00 -0.11498774425E+02  0.13229843515E+02  0.00000000000E+00 0.  1.
         22    1    4    4    0    0  0.86925328403E+01  0.87959748387E+01 -0.79651266360E+01  0.14709607162E+02  0.00000000000E+00 0.  1.
<mgrwt>
<rscale>  0 0.90685380E+02</rscale>
<asrwt>0</asrwt>
<pdfrwt beam="1">  1        2 0.12811708E-01 0.90685380E+02</pdfrwt>
<pdfrwt beam="2">  1       -2 0.37982260E-02 0.90685380E+02</pdfrwt>
<totfact> 0.11794273E+05</totfact>
</mgrwt>
</event>
<event>
 7    1  0.3891761E-009  0.9282534E+02  0.7818608E-02  0.1296150E+00
          2   -1    0    0  501    0  0.00000000000E+00  0.00000000000E+00  0.79906774762E+03  0.79906774762E+03  0.25500000000E-02 0.  1.
         -2   -1    0    0    0  501 -0.00000000000E+00 -0.00000000000E+00 -0.26958107887E+01  0.26958119947E+01  0.25500000000E-02 0. -1.
         23    2    1    2    0    0  0.00000000000E+00  0.00000000000E+00  0.79637193683E+03  0.80176355962E+03  0.92825340076E+02 0.  0.
    9000005    2    3    3    0    0  0.21117741030E+02  0.30109212108E+02  0.63606128558E+03  0.63728855074E+03  0.14498767365E+02 0.  0.
         22    1    3    3    0    0 -0.21117741030E+02 -0.30109212108E+02  0.16031065125E+03  0.16447500888E+03  0.00000000000E+00 0. -1.
         22    1    4    4    0    0  0.14248590600E+02  0.12215082406E+02  0.40457921833E+03  0.40501428923E+03  0.00000000000E+00 0. -1.
         22    1    4    4    0    0  0.68691504294E+01  0.17894129702E+02  0.23148206724E+03  0.23227426151E+03  0.00000000000E+00 0. -1.
<mgrwt>
<rscale>  0 0.92825340E+02</rscale>
<asrwt>0</asrwt>
<pdfrwt beam="1">  1        2 0.12293375E+00 0.92825340E+02</pdfrwt>
<pdfrwt beam="2">  1       -2 0.41473936E-03 0.92825340E+02</pdfrwt>
<totfact> 0.23243801E+05</totfact>
</mgrwt>
</event>
<event>
 7    1  0.3891761E-009  0.9064866E+02  0.7818608E-02  0.1301288E+00
         -2   -1    0    0    0  501 -0.00000000000E+00  0.00000000000E+00  0.32605405850E+01  0.32605415822E+01  0.25500000000E-02 0.  1.
          2   -1    0    0  501    0  0.00000000000E+00 -0.00000000000E+00 -0.63004727626E+03  0.63004727626E+03  0.25500000000E-02 0. -1.
         23    2    1    2    0    0 -0.71054273576E-14  0.00000000000E+00 -0.62678673567E+03  0.63330781785E+03  0.90648663137E+02 0.  0.
    9000005    2    3    3    0    0 -0.39295631678E+02  0.18256423191E+02 -0.39958646516E+03  0.40201275396E+03  0.82138633141E+01 0.  0.
         22    1    3    3    0    0  0.39295631678E+02 -0.18256423191E+02 -0.22720027052E+03  0.23129506389E+03  0.00000000000E+00 0.  1.
         22    1    4    4    0    0 -0.36584800896E+02  0.16954369440E+02 -0.34593627706E+03  0.34827834570E+03  0.00000000000E+00 0. -1.
         22    1    4    4    0    0 -0.27108307813E+01  0.13020537512E+01 -0.53650188102E+02  0.53734408258E+02  0.00000000000E+00 0. -1.
<mgrwt>
<rscale>  0 0.90648663E+02</rscale>
<asrwt>0</asrwt>
<pdfrwt beam="2">  1        2 0.96930254E-01 0.90648663E+02</pdfrwt>
<pdfrwt beam="1">  1       -2 0.50162220E-03 0.90648663E+02</pdfrwt>
<totfact> 0.23451444E+05</totfact>
</mgrwt>
</event>
<event>
 7    1  0.3891761E-009  0.9277446E+02  0.7818608E-02  0.1296269E+00
         -2   -1    0    0    0  501 -0.00000000000E+00  0.00000000000E+00  0.82808735905E+02  0.82808735945E+02  0.25500000000E-02 0. -1.
          2   -1    0    0  501    0  0.00000000000E+00 -0.00000000000E+00 -0.25984882681E+02  0.25984882806E+02  0.25500000000E-02 0.  1.
         23    2    1    2    0    0  0.00000000000E+00  0.00000000000E+00  0.56823853225E+02  0.10879361875E+03  0.92774464081E+02 0.  0.
    9000005    2    3    3    0    0 -0.20773129810E+02 -0.18655019227E+02 -0.13117278533E+02  0.33485620663E+02  0.13026554823E+02 0.  0.
         22    1    3    3    0    0  0.20773129810E+02  0.18655019227E+02  0.69941131758E+02  0.75307998088E+02  0.00000000000E+00 0. -1.
         22    1    4    4    0    0 -0.49837639819E+01 -0.30718505124E+01 -0.92794479690E+01  0.10971887878E+02  0.00000000000E+00 0. -1.
         22    1    4    4    0    0 -0.15789365829E+02 -0.15583168715E+02 -0.38378305638E+01  0.22513732785E+02  0.00000000000E+00 0. -1.
<mgrwt>
<rscale>  0 0.92774464E+02</rscale>
<asrwt>0</asrwt>
<pdfrwt beam="2">  1        2 0.39976743E-02 0.92774464E+02</pdfrwt>
<pdfrwt beam="1">  1       -2 0.12739805E-01 0.92774464E+02</pdfrwt>
<totfact> 0.80737418E+04</totfact>
</mgrwt>
</event>
<event>
 7    1  0.3891761E-009  0.8936614E+02  0.7818608E-02  0.1304394E+00
         -2   -1    0    0    0  501 -0.00000000000E+00  0.00000000000E+00  0.44245594991E+02  0.44245595065E+02  0.25500000000E-02 0.  1.
          2   -1    0    0  501    0  0.00000000000E+00 -0.00000000000E+00 -0.45124866868E+02  0.45124866940E+02  0.25500000000E-02 0. -1.
         23    2    1    2    0    0  0.00000000000E+00  0.00000000000E+00 -0.87927187709E+00  0.89370462005E+02  0.89366136540E+02 0.  0.
    9000005    2    3    3    0    0 -0.26684930439E+02  0.34796734885E+02  0.56620884236E+00  0.45495780403E+02  0.12109796481E+02 0.  0.
         22    1    3    3    0    0  0.26684930439E+02 -0.34796734885E+02 -0.14454807194E+01  0.43874681602E+02  0.00000000000E+00 0. -1.
         22    1    4    4    0    0 -0.16506117289E+02  0.14140136759E+02  0.43303842493E+01  0.22161850177E+02  0.00000000000E+00 0.  1.
         22    1    4    4    0    0 -0.10178813150E+02  0.20656598126E+02 -0.37641754069E+01  0.23333930226E+02  0.00000000000E+00 0.  1.
<mgrwt>
<rscale>  0 0.89366137E+02</rscale>
<asrwt>0</asrwt>
<pdfrwt beam="2">  1        2 0.69422872E-02 0.89366137E+02</pdfrwt>
<pdfrwt beam="1">  1       -2 0.68070146E-02 0.89366137E+02</pdfrwt>
<totfact> 0.10423170E+05</totfact>
</mgrwt>
</event>
<event>
 7    1  0.3891761E-009  0.9079997E+02  0.7818608E-02  0.1300926E+00
         -2   -1    0    0    0  501 -0.00000000000E+00  0.00000000000E+00  0.14379668714E+01  0.14379691324E+01  0.25500000000E-02 0.  1.
          2   -1    0    0  501    0  0.00000000000E+00 -0.00000000000E+00 -0.14333827142E+04  0.14333827142E+04  0.25500000000E-02 0. -1.
         23    2    1    2    0    0  0.00000000000E+00  0.00000000000E+00 -0.14319447474E+04  0.14348206834E+04  0.90799966536E+02 0.  0.
    9000005    2    3    3    0    0  0.21515037050E+01  0.17964882888E+02 -0.13724699687E+04  0.13726546534E+04  0.13402108744E+02 0.  0.
         22    1    3    3    0    0 -0.21515037050E+01 -0.17964882888E+02 -0.59474778607E+02  0.62166029918E+02  0.00000000000E+00 0.  1.
         22    1    4    4    0    0  0.63331792223E+01  0.34691616916E+01 -0.36144512975E+03  0.36151725555E+03  0.00000000000E+00 0. -1.
         22    1    4    4    0    0 -0.41816755173E+01  0.14495721197E+02 -0.10110248390E+04  0.10111373979E+04  0.00000000000E+00 0. -1.
<mgrwt>
<rscale>  0 0.90799967E+02</rscale>
<asrwt>0</asrwt>
<pdfrwt beam="2">  1        2 0.22051927E+00 0.90799967E+02</pdfrwt>
<pdfrwt beam="1">  1       -2 0.22122699E-03 0.90799967E+02</pdfrwt>
<totfact> 0.24233387E+05</totfact>
</mgrwt>
</event>
<event>
 7    1  0.3891761E-009  0.8519011E+02  0.7818608E-02  0.1314936E+00
          2   -1    0    0  501    0  0.00000000000E+00  0.00000000000E+00  0.84856255647E+03  0.84856255647E+03  0.25500000000E-02 0. -1.
         -2   -1    0    0    0  501 -0.00000000000E+00 -0.00000000000E+00 -0.21381313905E+01  0.21381329111E+01  0.25500000000E-02 0.  1.
         23    2    1    2    0    0 -0.35527136788E-14  0.00000000000E+00  0.84642442508E+03  0.85070068938E+03  0.85190114149E+02 0.  0.
    9000005    2    3    3    0    0 -0.30291988437E+02 -0.20722326264E+02  0.63443743048E+03  0.63556002552E+03  0.88698068978E+01 0.  0.
         22    1    3    3    0    0  0.30291988437E+02  0.20722326264E+02  0.21198699460E+03  0.21514066386E+03  0.00000000000E+00 0.  1.
         22    1    4    4    0    0 -0.28727293846E+02 -0.21617751174E+02  0.60581353183E+03  0.60687941135E+03  0.00000000000E+00 0.  1.
         22    1    4    4    0    0 -0.15646945915E+01  0.89542491016E+00  0.28623898648E+02  0.28680614163E+02  0.00000000000E+00 0.  1.
<mgrwt>
<rscale>  0 0.85190114E+02</rscale>
<asrwt>0</asrwt>
<pdfrwt beam="1">  1        2 0.13054835E+00 0.85190114E+02</pdfrwt>
<pdfrwt beam="2">  1       -2 0.32894274E-03 0.85190114E+02</pdfrwt>
<totfact> 0.29408913E+05</totfact>
</mgrwt>
</event>
<event>
 7    1  0.3891761E-009  0.9038394E+02  0.7818608E-02  0.1301925E+00
         -2   -1    0    0    0  501 -0.00000000000E+00  0.00000000000E+00  0.36520019934E+02  0.36520020023E+02  0.25500000000E-02 0.  1.
          2   -1    0    0  501    0  0.00000000000E+00 -0.00000000000E+00 -0.55923143337E+02  0.55923143395E+02  0.25500000000E-02 0. -1.
         23    2    1    2    0    0  0.00000000000E+00 -0.88817841970E-15 -0.19403123403E+02  0.92443163418E+02  0.90383943624E+02 0.  0.
    9000005    2    3    3    0    0  0.35426969692E+02 -0.57934534915E+01  0.16650694169E+02  0.41565741644E+02  0.12721280485E+02 0.  0.
         22    1    3    3    0    0 -0.35426969692E+02  0.57934534915E+01 -0.36053817571E+02  0.50877421774E+02  0.00000000000E+00 0. -1.
         22    1    4    4    0    0  0.21025307388E+02 -0.97115087354E+01  0.10157224816E+02  0.25289250061E+02  0.00000000000E+00 0. -1.
         22    1    4    4    0    0  0.14401662305E+02  0.39180552439E+01  0.64934693524E+01  0.16276491583E+02  0.00000000000E+00 0. -1.
<mgrwt>
<rscale>  0 0.90383944E+02</rscale>
<asrwt>0</asrwt>
<pdfrwt beam="2">  1        2 0.86035605E-02 0.90383944E+02</pdfrwt>
<pdfrwt beam="1">  1       -2 0.56184646E-02 0.90383944E+02</pdfrwt>
<totfact> 0.10670140E+05</totfact>
</mgrwt>
</event>
<event>
 7    1  0.3891761E-009  0.9216785E+02  0.7818608E-02  0.1297685E+00
          2   -1    0    0  501    0  0.00000000000E+00  0.00000000000E+00  0.20385194495E+03  0.20385194497E+03  0.25500000000E-02 0.  1.
         -2   -1    0    0    0  501 -0.00000000000E+00 -0.00000000000E+00 -0.10417993092E+02  0.10417993404E+02  0.25500000000E-02 0. -1.
         23    2    1    2    0    0  0.00000000000E+00 -0.35527136788E-14  0.19343395186E+03  0.21426993837E+03  0.92167851000E+02 0.  0.
    9000005    2    3    3    0    0 -0.33806664218E+02  0.21055299259E+02  0.45681379819E+02  0.61243670310E+02  0.88194398055E+01 0.  0.
         22    1    3    3    0    0  0.33806664218E+02 -0.21055299259E+02  0.14775257204E+03  0.15302626806E+03  0.00000000000E+00 0.  1.
         22    1    4    4    0    0  0.71893313807E-01 -0.36766206889E-01  0.22875427929E+01  0.22889675471E+01  0.00000000000E+00 0. -1.
         22    1    4    4    0    0 -0.33878557531E+02  0.21092065466E+02  0.43393837026E+02  0.58954702763E+02  0.00000000000E+00 0. -1.
<mgrwt>
<rscale>  0 0.92167851E+02</rscale>
<asrwt>0</asrwt>
<pdfrwt beam="1">  1        2 0.31361837E-01 0.92167851E+02</pdfrwt>
<pdfrwt beam="2">  1       -2 0.16027682E-02 0.92167851E+02</pdfrwt>
<totfact> 0.15127982E+05</totfact>
</mgrwt>
</event>
<event>
 7    1  0.3891761E-009  0.9059345E+02  0.7818608E-02  0.1301421E+00
         -2   -1    0    0    0  501 -0.00000000000E+00  0.00000000000E+00  0.49554541643E+02  0.49554541709E+02  0.25500000000E-02 0.  1.
          2   -1    0    0  501    0  0.00000000000E+00 -0.00000000000E+00 -0.41404750722E+02  0.41404750800E+02  0.25500000000E-02 0. -1.
         23    2    1    2    0    0  0.00000000000E+00  0.00000000000E+00  0.81497909214E+01  0.90959292509E+02  0.90593453415E+02 0.  0.
    9000005    2    3    3    0    0 -0.38948303973E+02  0.65097685409E+00 -0.17955509893E+02  0.44067066246E+02  0.10105040265E+02 0.  0.
         22    1    3    3    0    0  0.38948303973E+02 -0.65097685409E+00  0.26105300814E+02  0.46892226263E+02  0.00000000000E+00 0. -1.
         22    1    4    4    0    0 -0.78809380145E+00  0.79099808010E+00 -0.27871203989E+01  0.30024673055E+01  0.00000000000E+00 0. -1.
         22    1    4    4    0    0 -0.38160210172E+02 -0.14002122601E+00 -0.15168389494E+02  0.41064598941E+02  0.00000000000E+00 0. -1.
<mgrwt>
<rscale>  0 0.90593453E+02</rscale>
<asrwt>0</asrwt>
<pdfrwt beam="2">  1        2 0.63699617E-02 0.90593453E+02</pdfrwt>
<pdfrwt beam="1">  1       -2 0.76237756E-02 0.90593453E+02</pdfrwt>
<totfact> 0.98043803E+04</totfact>
</mgrwt>
</event>
<event>
 7    1  0.3891761E-009  0.8708920E+02  0.7818608E-02  0.1310058E+00
         -2   -1    0    0    0  501 -0.00000000000E+00  0.00000000000E+00  0.15145107069E+02  0.15145107283E+02  0.25500000000E-02 0. -1.
          2   -1    0    0  501    0  0.00000000000E+00 -0.00000000000E+00 -0.12519768220E+03  0.12519768223E+03  0.25500000000E-02 0.  1.
         23    2    1    2    0    0 -0.17763568394E-14  0.00000000000E+00 -0.11005257513E+03  0.14034278951E+03  0.87089202973E+02 0.  0.
    9000005    2    3    3    0    0  0.12450868817E+02  0.25820869368E+02 -0.10659875010E+03  0.11146943958E+03  0.15504870414E+02 0.  0.
         22    1    3    3    0    0 -0.12450868817E+02 -0.25820869368E+02 -0.34538250309E+01  0.28873349937E+02  0.00000000000E+00 0. -1.
         22    1    4    4    0    0  0.18570988890E+01  0.57734863019E+01 -0.51959473766E+02  0.52312224904E+02  0.00000000000E+00 0. -1.
         22    1    4    4    0    0  0.10593769928E+02  0.20047383066E+02 -0.54639276338E+02  0.59157214673E+02  0.00000000000E+00 0. -1.
<mgrwt>
<rscale>  0 0.87089203E+02</rscale>
<asrwt>0</asrwt>
<pdfrwt beam="2">  1        2 0.19261181E-01 0.87089203E+02</pdfrwt>
<pdfrwt beam="1">  1       -2 0.23300166E-02 0.87089203E+02</pdfrwt>
<totfact> 0.14914303E+05</totfact>
</mgrwt>
</event>
<event>
 7    1  0.3891761E-009  0.9163156E+02  0.7818608E-02  0.1298948E+00
          2   -1    0    0  501    0  0.00000000000E+00  0.00000000000E+00  0.18216842890E+04  0.18216842890E+04  0.25500000000E-02 0.  1.
         -2   -1    0    0    0  501 -0.00000000000E+00 -0.00000000000E+00 -0.11522760150E+01  0.11522788366E+01  0.25500000000E-02 0. -1.
         23    2    1    2    0    0  0.00000000000E+00 -0.88817841970E-15  0.18205320130E+04  0.18228365678E+04  0.91631559768E+02 0.  0.
    9000005    2    3    3    0    0 -0.23063484630E+02 -0.52981214074E+01  0.16872761152E+04  0.16874957806E+04  0.13465733551E+02 0.  0.
         22    1    3    3    0    0  0.23063484630E+02  0.52981214074E+01  0.13325589776E+03  0.13534078728E+03  0.00000000000E+00 0. -1.
         22    1    4    4    0    0 -0.24483226987E+02 -0.43829704009E+01  0.16416502989E+04  0.16418387079E+04  0.00000000000E+00 0.  1.
         22    1    4    4    0    0  0.14197423572E+01 -0.91515100646E+00  0.45625816345E+02  0.45657072693E+02  0.00000000000E+00 0.  1.
<mgrwt>
<rscale>  0 0.91631560E+02</rscale>
<asrwt>0</asrwt>
<pdfrwt beam="1">  1        2 0.28025993E+00 0.91631560E+02</pdfrwt>
<pdfrwt beam="2">  1       -2 0.17727294E-03 0.91631560E+02</pdfrwt>
<totfact> 0.20975170E+05</totfact>
</mgrwt>
</event>
<event>
 7    1  0.3891761E-009  0.9084029E+02  0.7818608E-02  0.1300829E+00
          2   -1    0    0  501    0  0.00000000000E+00  0.00000000000E+00  0.43787310091E+02  0.43787310165E+02  0.25500000000E-02 0. -1.
         -2   -1    0    0    0  501 -0.00000000000E+00 -0.00000000000E+00 -0.47113864382E+02  0.47113864451E+02  0.25500000000E-02 0.  1.
         23    2    1    2    0    0 -0.88817841970E-15  0.00000000000E+00 -0.33265542908E+01  0.90901174616E+02  0.90840286124E+02 0.  0.
    9000005    2    3    3    0    0  0.66581816710E+01  0.34986036647E+02  0.26372495183E+02  0.44528901833E+02  0.43543602144E+01 0.  0.
         22    1    3    3    0    0 -0.66581816710E+01 -0.34986036647E+02 -0.29699049473E+02  0.46372272783E+02  0.00000000000E+00 0.  1.
         22    1    4    4    0    0  0.38225518278E+01  0.15204403005E+02  0.14044833062E+02  0.21048589239E+02  0.00000000000E+00 0. -1.
         22    1    4    4    0    0  0.28356298432E+01  0.19781633642E+02  0.12327662120E+02  0.23480312594E+02  0.00000000000E+00 0. -1.
<mgrwt>
<rscale>  0 0.90840286E+02</rscale>
<asrwt>0</asrwt>
<pdfrwt beam="1">  1        2 0.67365093E-02 0.90840286E+02</pdfrwt>
<pdfrwt beam="2">  1       -2 0.72482868E-02 0.90840286E+02</pdfrwt>
<totfact> 0.98692764E+04</totfact>
</mgrwt>
</event>
<event>
 7    1  0.3891761E-009  0.9034245E+02  0.7818608E-02  0.1302025E+00
          2   -1    0    0  501    0  0.00000000000E+00  0.00000000000E+00  0.47974632292E+02  0.47974632359E+02  0.25500000000E-02 0. -1.
         -2   -1    0    0    0  501 -0.00000000000E+00 -0.00000000000E+00 -0.42531636844E+02  0.42531636920E+02  0.25500000000E-02 0.  1.
         23    2    1    2    0    0  0.00000000000E+00 -0.71054273576E-14  0.54429954477E+01  0.90506269280E+02  0.90342451702E+02 0.  0.
    9000005    2    3    3    0    0  0.93384891676E+01  0.42723822004E+02 -0.58911624599E+01  0.45328891290E+02  0.10366785609E+02 0.  0.
         22    1    3    3    0    0 -0.93384891676E+01 -0.42723822004E+02  0.11334157908E+02  0.45177377990E+02  0.00000000000E+00 0. -1.
         22    1    4    4    0    0  0.10082883093E+02  0.36485364728E+02 -0.19309015469E+01  0.37902173441E+02  0.00000000000E+00 0.  1.
         22    1    4    4    0    0 -0.74439392523E+00  0.62384572764E+01 -0.39602609130E+01  0.74267178487E+01  0.00000000000E+00 0.  1.
<mgrwt>
<rscale>  0 0.90342452E+02</rscale>
<asrwt>0</asrwt>
<pdfrwt beam="1">  1        2 0.73807126E-02 0.90342452E+02</pdfrwt>
<pdfrwt beam="2">  1       -2 0.65433288E-02 0.90342452E+02</pdfrwt>
<totfact> 0.10265197E+05</totfact>
</mgrwt>
</event>
<event>
 7    1  0.3891761E-009  0.9098204E+02  0.7818608E-02  0.1300491E+00
          2   -1    0    0  501    0  0.00000000000E+00  0.00000000000E+00  0.45941987148E+02  0.45941987218E+02  0.25500000000E-02 0. -1.
         -2   -1    0    0    0  501 -0.00000000000E+00 -0.00000000000E+00 -0.45044476619E+02  0.45044476692E+02  0.25500000000E-02 0.  1.
         23    2    1    2    0    0 -0.17763568394E-14  0.00000000000E+00  0.89751052817E+00  0.90986463910E+02  0.90982037182E+02 0.  0.
    9000005    2    3    3    0    0  0.90971363554E+01 -0.38516358341E+02  0.22163743819E+02  0.46058516838E+02  0.79929771349E+01 0.  0.
         22    1    3    3    0    0 -0.90971363554E+01  0.38516358341E+02 -0.21266233291E+02  0.44927947072E+02  0.00000000000E+00 0.  1.
         22    1    4    4    0    0  0.93702604606E+01 -0.31261451133E+02  0.20716650278E+02  0.38655655560E+02  0.00000000000E+00 0. -1.
         22    1    4    4    0    0 -0.27312410512E+00 -0.72549072088E+01  0.14470935407E+01  0.74028612780E+01  0.00000000000E+00 0. -1.
<mgrwt>
<rscale>  0 0.90982037E+02</rscale>
<asrwt>0</asrwt>
<pdfrwt beam="1">  1        2 0.70679980E-02 0.90982037E+02</pdfrwt>
<pdfrwt beam="2">  1       -2 0.69299195E-02 0.90982037E+02</pdfrwt>
<totfact> 0.99481318E+04</totfact>
</mgrwt>
</event>
<event>
 7    1  0.3891761E-009  0.9094659E+02  0.7818608E-02  0.1300575E+00
         -2   -1    0    0    0  501 -0.00000000000E+00  0.00000000000E+00  0.21441100383E+01  0.21441115547E+01  0.25500000000E-02 0.  1.
          2   -1    0    0  501    0  0.00000000000E+00 -0.00000000000E+00 -0.96441872361E+03  0.96441872362E+03  0.25500000000E-02 0. -1.
         23    2    1    2    0    0  0.00000000000E+00  0.71054273576E-14 -0.96227461358E+03  0.96656283517E+03  0.90946590940E+02 0.  0.
    9000005    2    3    3    0    0  0.46497441793E+01  0.28973348431E+02 -0.84662297226E+03  0.84724654467E+03  0.13970513820E+02 0.  0.
         22    1    3    3    0    0 -0.46497441793E+01 -0.28973348431E+02 -0.11565164132E+03  0.11931629051E+03  0.00000000000E+00 0.  1.
         22    1    4    4    0    0  0.13940609995E+01  0.29139121701E+02 -0.74362969380E+03  0.74420168861E+03  0.00000000000E+00 0. -1.
         22    1    4    4    0    0  0.32556831799E+01 -0.16577326999E+00 -0.10299327845E+03  0.10304485606E+03  0.00000000000E+00 0. -1.
<mgrwt>
<rscale>  0 0.90946591E+02</rscale>
<asrwt>0</asrwt>
<pdfrwt beam="2">  1        2 0.14837177E+00 0.90946591E+02</pdfrwt>
<pdfrwt beam="1">  1       -2 0.32986397E-03 0.90946591E+02</pdfrwt>
<totfact> 0.25117208E+05</totfact>
</mgrwt>
</event>
<event>
 7    1  0.3891761E-009  0.9961670E+02  0.7818608E-02  0.1281104E+00
         -2   -1    0    0    0  501 -0.00000000000E+00  0.00000000000E+00  0.64515331083E+01  0.64515336123E+01  0.25500000000E-02 0.  1.
          2   -1    0    0  501    0  0.00000000000E+00 -0.00000000000E+00 -0.38453983106E+03  0.38453983107E+03  0.25500000000E-02 0. -1.
         23    2    1    2    0    0  0.00000000000E+00  0.00000000000E+00 -0.37808829795E+03  0.39099136468E+03  0.99616696427E+02 0.  0.
    9000005    2    3    3    0    0  0.29456846141E+02  0.35603745370E+02 -0.12238317830E+03  0.13114440840E+03  0.92672032743E+01 0.  0.
         22    1    3    3    0    0 -0.29456846141E+02 -0.35603745370E+02 -0.25570511966E+03  0.25984695628E+03  0.00000000000E+00 0. -1.
         22    1    4    4    0    0  0.11214910694E+02  0.20261521069E+02 -0.55344438910E+02  0.59994252859E+02  0.00000000000E+00 0. -1.
         22    1    4    4    0    0  0.18241935447E+02  0.15342224301E+02 -0.67038739387E+02  0.71150155545E+02  0.00000000000E+00 0. -1.
<mgrwt>
<rscale>  0 0.99616696E+02</rscale>
<asrwt>0</asrwt>
<pdfrwt beam="2">  1        2 0.59159956E-01 0.99616696E+02</pdfrwt>
<pdfrwt beam="1">  1       -2 0.99254389E-03 0.99616696E+02</pdfrwt>
<totfact> 0.15538267E+05</totfact>
</mgrwt>
</event>
<event>
 7    1  0.3891761E-009  0.9375246E+02  0.7818608E-02  0.1294011E+00
          2   -1    0    0  501    0  0.00000000000E+00  0.00000000000E+00  0.70782170895E+03  0.70782170896E+03  0.25500000000E-02 0. -1.
         -2   -1    0    0    0  501 -0.00000000000E+00 -0.00000000000E+00 -0.31044267263E+01  0.31044277736E+01  0.25500000000E-02 0.  1.
         23    2    1    2    0    0  0.00000000000E+00  0.00000000000E+00  0.70471728223E+03  0.71092613673E+03  0.93752461400E+02 0.  0.
    9000005    2    3    3    0    0 -0.21341078238E+02  0.15127833726E+02  0.64713873316E+03  0.64768388594E+03  0.46457685060E+01 0.  0.
         22    1    3    3    0    0  0.21341078238E+02 -0.15127833726E+02  0.57578549063E+02  0.63242250797E+02  0.00000000000E+00 0.  1.
         22    1    4    4    0    0 -0.10759276637E+02  0.52114285446E+01  0.32215591239E+03  0.32237765572E+03  0.00000000000E+00 0. -1.
         22    1    4    4    0    0 -0.10581801601E+02  0.99164051817E+01  0.32498282077E+03  0.32530623021E+03  0.00000000000E+00 0. -1.
<mgrwt>
<rscale>  0 0.93752461E+02</rscale>
<asrwt>0</asrwt>
<pdfrwt beam="1">  1        2 0.10889557E+00 0.93752461E+02</pdfrwt>
<pdfrwt beam="2">  1       -2 0.47760452E-03 0.93752461E+02</pdfrwt>
<totfact> 0.22088337E+05</totfact>
</mgrwt>
</event>
<event>
 7    1  0.3891761E-009  0.9570400E+02  0.7818608E-02  0.1289598E+00
         -2   -1    0    0    0  501 -0.00000000000E+00  0.00000000000E+00  0.19512013050E+02  0.19512013216E+02  0.25500000000E-02 0.  1.
          2   -1    0    0  501    0  0.00000000000E+00 -0.00000000000E+00 -0.11735406403E+03  0.11735406406E+03  0.25500000000E-02 0. -1.
         23    2    1    2    0    0  0.00000000000E+00  0.00000000000E+00 -0.97842050984E+02  0.13686607728E+03  0.95704002887E+02 0.  0.
    9000005    2    3    3    0    0 -0.23456181901E+02  0.34678481243E+02 -0.80803171882E+02  0.91665270518E+02  0.10980878939E+02 0.  0.
         22    1    3    3    0    0  0.23456181901E+02 -0.34678481243E+02 -0.17038879102E+02  0.45200806760E+02  0.00000000000E+00 0. -1.
         22    1    4    4    0    0 -0.45832220151E+01  0.72428805767E+01 -0.85445981432E+01  0.12102702199E+02  0.00000000000E+00 0. -1.
         22    1    4    4    0    0 -0.18872959886E+02  0.27435600666E+02 -0.72258573739E+02  0.79562568319E+02  0.00000000000E+00 0. -1.
<mgrwt>
<rscale>  0 0.95704003E+02</rscale>
<asrwt>0</asrwt>
<pdfrwt beam="2">  1        2 0.18054471E-01 0.95704003E+02</pdfrwt>
<pdfrwt beam="1">  1       -2 0.30018483E-02 0.95704003E+02</pdfrwt>
<totfact> 0.11286821E+05</totfact>
</mgrwt>
</event>
<event>
 7    1  0.3891761E-009  0.9027012E+02  0.7818608E-02  0.1302199E+00
          2   -1    0    0  501    0  0.00000000000E+00  0.00000000000E+00  0.37921380093E+02  0.37921380178E+02  0.25500000000E-02 0.  1.
         -2   -1    0    0    0  501 -0.00000000000E+00 -0.00000000000E+00 -0.53720977827E+02  0.53720977888E+02  0.25500000000E-02 0. -1.
         23    2    1    2    0    0  0.17763568394E-14  0.00000000000E+00 -0.15799597734E+02  0.91642358066E+02  0.90270119659E+02 0.  0.
    9000005    2    3    3    0    0 -0.14975303253E+02  0.34163062230E+02 -0.32141729294E+02  0.50918411887E+02  0.12969941352E+02 0.  0.
         22    1    3    3    0    0  0.14975303253E+02 -0.34163062230E+02  0.16342131560E+02  0.40723946179E+02  0.00000000000E+00 0.  1.
         22    1    4    4    0    0  0.23099879967E+01  0.50992529364E+01 -0.57306931066E+01  0.80111964484E+01  0.00000000000E+00 0. -1.
         22    1    4    4    0    0 -0.17285291249E+02  0.29063809294E+02 -0.26411036188E+02  0.42907215439E+02  0.00000000000E+00 0. -1.
<mgrwt>
<rscale>  0 0.90270120E+02</rscale>
<asrwt>0</asrwt>
<pdfrwt beam="1">  1        2 0.58340585E-02 0.90270120E+02</pdfrwt>
<pdfrwt beam="2">  1       -2 0.82647659E-02 0.90270120E+02</pdfrwt>
<totfact> 0.96848835E+04</totfact>
</mgrwt>
</event>
<event>
 7    1  0.3891761E-009  0.9064375E+02  0.7818608E-02  0.1301300E+00
         -2   -1    0    0    0  501 -0.00000000000E+00  0.00000000000E+00  0.39502488703E+01  0.39502496933E+01  0.25500000000E-02 0.  1.
          2   -1    0    0  501    0  0.00000000000E+00 -0.00000000000E+00 -0.51998551217E+03  0.51998551218E+03  0.25500000000E-02 0. -1.
         23    2    1    2    0    0  0.00000000000E+00 -0.35527136788E-14 -0.51603526330E+03  0.52393576187E+03  0.90643751009E+02 0.  0.
    9000005    2    3    3    0    0  0.39366111061E+02 -0.19091426062E+02 -0.30996117848E+03  0.31326848467E+03  0.12125925633E+02 0.  0.
         22    1    3    3    0    0 -0.39366111061E+02  0.19091426062E+02 -0.20607408482E+03  0.21066727720E+03  0.00000000000E+00 0. -1.
         22    1    4    4    0    0  0.12552710403E+02 -0.10510817170E+02 -0.14510492752E+03  0.14602564092E+03  0.00000000000E+00 0. -1.
         22    1    4    4    0    0  0.26813400658E+02 -0.85806088923E+01 -0.16485625096E+03  0.16724284375E+03  0.00000000000E+00 0. -1.
<mgrwt>
<rscale>  0 0.90643751E+02</rscale>
<asrwt>0</asrwt>
<pdfrwt beam="2">  1        2 0.79997717E-01 0.90643751E+02</pdfrwt>
<pdfrwt beam="1">  1       -2 0.60773107E-03 0.90643751E+02</pdfrwt>
<totfact> 0.22163603E+05</totfact>
</mgrwt>
</event>
<event>
 7    1  0.3891761E-009  0.9244010E+02  0.7818608E-02  0.1297048E+00
         -2   -1    0    0    0  501 -0.00000000000E+00  0.00000000000E+00  0.12859543507E+02  0.12859543760E+02  0.25500000000E-02 0.  1.
          2   -1    0    0  501    0  0.00000000000E+00 -0.00000000000E+00 -0.16612509075E+03  0.16612509077E+03  0.25500000000E-02 0. -1.
         23    2    1    2    0    0  0.00000000000E+00  0.00000000000E+00 -0.15326554724E+03  0.17898463453E+03  0.92440096418E+02 0.  0.
    9000005    2    3    3    0    0 -0.33376512766E+02 -0.29603724733E+02 -0.89441122248E+02  0.10111339883E+03  0.15291597449E+02 0.  0.
         22    1    3    3    0    0  0.33376512766E+02  0.29603724733E+02 -0.63824424991E+02  0.77871235691E+02  0.00000000000E+00 0.  1.
         22    1    4    4    0    0  0.13077692830E+01 -0.23059751090E+01 -0.26757744318E+01  0.37666364984E+01  0.00000000000E+00 0.  1.
         22    1    4    4    0    0 -0.34684282049E+02 -0.27297749624E+02 -0.86765347816E+02  0.97346762337E+02  0.00000000000E+00 0.  1.
<mgrwt>
<rscale>  0 0.92440096E+02</rscale>
<asrwt>0</asrwt>
<pdfrwt beam="2">  1        2 0.25557705E-01 0.92440096E+02</pdfrwt>
<pdfrwt beam="1">  1       -2 0.19783914E-02 0.92440096E+02</pdfrwt>
<totfact> 0.13950832E+05</totfact>
</mgrwt>
</event>
<event>
 7    1  0.3891761E-009  0.9167835E+02  0.7818608E-02  0.1298837E+00
          2   -1    0    0  501    0  0.00000000000E+00  0.00000000000E+00  0.47646164776E+01  0.47646171600E+01  0.25500000000E-02 0. -1.
         -2   -1    0    0    0  501 -0.00000000000E+00 -0.00000000000E+00 -0.44100712778E+03  0.44100712779E+03  0.25500000000E-02 0.  1.
         23    2    1    2    0    0  0.00000000000E+00  0.00000000000E+00 -0.43624251130E+03  0.44577174495E+03  0.91678350367E+02 0.  0.
    9000005    2    3    3    0    0 -0.28435343047E+02 -0.28826347315E+02 -0.32175984197E+03  0.32433942383E+03  0.52095022967E+01 0.  0.
         22    1    3    3    0    0  0.28435343047E+02  0.28826347315E+02 -0.11448266933E+03  0.12143232111E+03  0.00000000000E+00 0. -1.
         22    1    4    4    0    0 -0.14757104639E+02 -0.13177303216E+02 -0.17510322030E+03  0.17621734086E+03  0.00000000000E+00 0.  1.
         22    1    4    4    0    0 -0.13678238409E+02 -0.15649044098E+02 -0.14665662166E+03  0.14812208298E+03  0.00000000000E+00 0.  1.
<mgrwt>
<rscale>  0 0.91678350E+02</rscale>
<asrwt>0</asrwt>
<pdfrwt beam="1">  1        2 0.73301832E-03 0.91678350E+02</pdfrwt>
<pdfrwt beam="2">  1       -2 0.67847218E-01 0.91678350E+02</pdfrwt>
<totfact> 0.39319111E+04</totfact>
</mgrwt>
</event>
<event>
 7    1  0.3891761E-009  0.9118553E+02  0.7818608E-02  0.1300006E+00
          2   -1    0    0  501    0  0.00000000000E+00  0.00000000000E+00  0.13221644199E+03  0.13221644202E+03  0.25500000000E-02 0. -1.
         -2   -1    0    0    0  501 -0.00000000000E+00 -0.00000000000E+00 -0.15721950604E+02  0.15721950810E+02  0.25500000000E-02 0.  1.
         23    2    1    2    0    0 -0.17763568394E-14  0.00000000000E+00  0.11649449139E+03  0.14793839283E+03  0.91185533658E+02 0.  0.
    9000005    2    3    3    0    0  0.11839515392E+02 -0.33488211714E+02  0.16608649034E+02  0.41925110870E+02  0.14840257753E+02 0.  0.
         22    1    3    3    0    0 -0.11839515392E+02  0.33488211714E+02  0.99885842357E+02  0.10601328196E+03  0.00000000000E+00 0. -1.
         22    1    4    4    0    0  0.51467062523E+01 -0.30216571074E+02  0.10872449266E+02  0.32522913550E+02  0.00000000000E+00 0. -1.
         22    1    4    4    0    0  0.66928091399E+01 -0.32716406395E+01  0.57361997683E+01  0.94021973197E+01  0.00000000000E+00 0. -1.
<mgrwt>
<rscale>  0 0.91185534E+02</rscale>
<asrwt>0</asrwt>
<pdfrwt beam="1">  1        2 0.20340990E-01 0.91185534E+02</pdfrwt>
<pdfrwt beam="2">  1       -2 0.24187618E-02 0.91185534E+02</pdfrwt>
<totfact> 0.13398877E+05</totfact>
</mgrwt>
</event>
<event>
 7    1  0.3891761E-009  0.9075531E+02  0.7818608E-02  0.1301033E+00
          2   -1    0    0  501    0  0.00000000000E+00  0.00000000000E+00  0.61980835481E+02  0.61980835534E+02  0.25500000000E-02 0. -1.
         -2   -1    0    0    0  501 -0.00000000000E+00 -0.00000000000E+00 -0.33222066566E+02  0.33222066664E+02  0.25500000000E-02 0.  1.
         23    2    1    2    0    0  0.00000000000E+00  0.00000000000E+00  0.28758768915E+02  0.95202902198E+02  0.90755307268E+02 0.  0.
    9000005    2    3    3    0    0  0.32915972727E+02 -0.19478211830E+02 -0.86351507060E+01  0.41713022583E+02  0.14231950977E+02 0.  0.
         22    1    3    3    0    0 -0.32915972727E+02  0.19478211830E+02  0.37393919621E+02  0.53489879615E+02  0.00000000000E+00 0. -1.
         22    1    4    4    0    0  0.23034989191E+02 -0.55184411257E+01 -0.43733938738E+01  0.24087143738E+02  0.00000000000E+00 0.  1.
         22    1    4    4    0    0  0.98809835361E+01 -0.13959770704E+02 -0.42617568321E+01  0.17625878845E+02  0.00000000000E+00 0.  1.
<mgrwt>
<rscale>  0 0.90755307E+02</rscale>
<asrwt>0</asrwt>
<pdfrwt beam="1">  1        2 0.95355132E-02 0.90755307E+02</pdfrwt>
<pdfrwt beam="2">  1       -2 0.51110872E-02 0.90755307E+02</pdfrwt>
<totfact> 0.10840476E+05</totfact>
</mgrwt>
</event>
<event>
 7    1  0.3891761E-009  0.9111752E+02  0.7818608E-02  0.1300168E+00
         -2   -1    0    0    0  501 -0.00000000000E+00  0.00000000000E+00  0.98075675932E+00  0.98076007436E+00  0.25500000000E-02 0.  1.
          2   -1    0    0  501    0  0.00000000000E+00 -0.00000000000E+00 -0.21163218221E+04  0.21163218221E+04  0.25500000000E-02 0. -1.
         23    2    1    2    0    0 -0.17763568394E-14  0.35527136788E-14 -0.21153410653E+04  0.21173025821E+04  0.91117516274E+02 0.  0.
    9000005    2    3    3    0    0  0.10579926665E+02 -0.16280685800E+02 -0.20146747704E+04  0.20147808844E+04  0.71123881664E+01 0.  0.
         22    1    3    3    0    0 -0.10579926665E+02  0.16280685800E+02 -0.10066629492E+03  0.10252169776E+03  0.00000000000E+00 0.  1.
         22    1    4    4    0    0  0.60685813616E+01 -0.32965639316E+01 -0.72256569881E+03  0.72259870198E+03  0.00000000000E+00 0. -1.
         22    1    4    4    0    0  0.45113453034E+01 -0.12984121869E+02 -0.12921090716E+04  0.12921821824E+04  0.00000000000E+00 0. -1.
<mgrwt>
<rscale>  0 0.91117516E+02</rscale>
<asrwt>0</asrwt>
<pdfrwt beam="2">  1        2 0.32558432E+00 0.91117516E+02</pdfrwt>
<pdfrwt beam="1">  1       -2 0.15088760E-03 0.91117516E+02</pdfrwt>
<totfact> 0.18624138E+05</totfact>
</mgrwt>
</event>
<event>
 7    1  0.3891761E-009  0.9044518E+02  0.7818608E-02  0.1301777E+00
         -2   -1    0    0    0  501 -0.00000000000E+00  0.00000000000E+00  0.17248832259E+02  0.17248832448E+02  0.25500000000E-02 0.  1.
          2   -1    0    0  501    0  0.00000000000E+00 -0.00000000000E+00 -0.11856355080E+03  0.11856355083E+03  0.25500000000E-02 0. -1.
         23    2    1    2    0    0  0.35527136788E-14  0.00000000000E+00 -0.10131471854E+03  0.13581238328E+03  0.90445183719E+02 0.  0.
    9000005    2    3    3    0    0  0.21465404966E+02 -0.38822221096E+02 -0.48449544558E+02  0.66800390975E+02  0.12124578565E+02 0.  0.
         22    1    3    3    0    0 -0.21465404966E+02  0.38822221096E+02 -0.52865173983E+02  0.69011992302E+02  0.00000000000E+00 0. -1.
         22    1    4    4    0    0  0.15579180112E+02 -0.16091392455E+02 -0.21343139235E+02  0.30938218380E+02  0.00000000000E+00 0.  1.
         22    1    4    4    0    0  0.58862248538E+01 -0.22730828640E+02 -0.27106405323E+02  0.35862172595E+02  0.00000000000E+00 0.  1.
<mgrwt>
<rscale>  0 0.90445184E+02</rscale>
<asrwt>0</asrwt>
<pdfrwt beam="2">  1        2 0.18240546E-01 0.90445184E+02</pdfrwt>
<pdfrwt beam="1">  1       -2 0.26536666E-02 0.90445184E+02</pdfrwt>
<totfact> 0.13224429E+05</totfact>
</mgrwt>
</event>
<event>
 7    1  0.3891761E-009  0.9415839E+02  0.7818608E-02  0.1293083E+00
         -2   -1    0    0    0  501 -0.00000000000E+00  0.00000000000E+00  0.72292477756E+02  0.72292477801E+02  0.25500000000E-02 0.  1.
          2   -1    0    0  501    0  0.00000000000E+00 -0.00000000000E+00 -0.30659490906E+02  0.30659491012E+02  0.25500000000E-02 0. -1.
         23    2    1    2    0    0  0.00000000000E+00  0.00000000000E+00  0.41632986850E+02  0.10295196881E+03  0.94158389368E+02 0.  0.
    9000005    2    3    3    0    0  0.32638204144E+02 -0.19494042280E+02 -0.84145410733E+01  0.40102743635E+02  0.95997651747E+01 0.  0.
         22    1    3    3    0    0 -0.32638204144E+02  0.19494042280E+02  0.50047527923E+02  0.62849225178E+02  0.00000000000E+00 0.  1.
         22    1    4    4    0    0  0.29660393095E+02 -0.20331844335E+02 -0.67435695476E+01  0.36586862982E+02  0.00000000000E+00 0.  1.
         22    1    4    4    0    0  0.29778110494E+01  0.83780205482E+00 -0.16709715257E+01  0.35158806534E+01  0.00000000000E+00 0.  1.
<mgrwt>
<rscale>  0 0.94158389E+02</rscale>
<asrwt>0</asrwt>
<pdfrwt beam="2">  1        2 0.47168448E-02 0.94158389E+02</pdfrwt>
<pdfrwt beam="1">  1       -2 0.11121920E-01 0.94158389E+02</pdfrwt>
<totfact> 0.80853805E+04</totfact>
</mgrwt>
</event>
<event>
 7    1  0.3891761E-009  0.8556564E+02  0.7818608E-02  0.1313960E+00
          2   -1    0    0  501    0  0.00000000000E+00  0.00000000000E+00  0.16691900828E+03  0.16691900830E+03  0.25500000000E-02 0. -1.
         -2   -1    0    0    0  501 -0.00000000000E+00 -0.00000000000E+00 -0.10965615026E+02  0.10965615322E+02  0.25500000000E-02 0.  1.
         23    2    1    2    0    0  0.00000000000E+00 -0.35527136788E-14  0.15595339325E+03  0.17788462362E+03  0.85565638276E+02 0.  0.
    9000005    2    3    3    0    0 -0.19858985563E+02  0.18701024140E+02  0.13368197630E+02  0.32713532758E+02  0.12139147671E+02 0.  0.
         22    1    3    3    0    0  0.19858985563E+02 -0.18701024140E+02  0.14258519562E+03  0.14517109086E+03  0.00000000000E+00 0. -1.
         22    1    4    4    0    0 -0.26792433230E+01  0.34582604572E+01 -0.22693932844E+01  0.49282913929E+01  0.00000000000E+00 0. -1.
         22    1    4    4    0    0 -0.17179742240E+02  0.15242763682E+02  0.15637590915E+02  0.27785241365E+02  0.00000000000E+00 0. -1.
<mgrwt>
<rscale>  0 0.85565638E+02</rscale>
<asrwt>0</asrwt>
<pdfrwt beam="1">  1        2 0.25679846E-01 0.85565638E+02</pdfrwt>
<pdfrwt beam="2">  1       -2 0.16870178E-02 0.85565638E+02</pdfrwt>
<totfact> 0.17210792E+05</totfact>
</mgrwt>
</event>
<event>
 7    1  0.5506148E-009  0.9148868E+02  0.7818608E-02  0.1299286E+00
         -2   -1    0    0    0  501 -0.00000000000E+00  0.00000000000E+00  0.20274872665E+01  0.20274888701E+01  0.25500000000E-02 0.  1.
          2   -1    0    0  501    0  0.00000000000E+00 -0.00000000000E+00 -0.10320872181E+04  0.10320872181E+04  0.25500000000E-02 0. -1.
         23    2    1    2    0    0  0.35527136788E-14  0.00000000000E+00 -0.10300597308E+04  0.10341147069E+04  0.91488677404E+02 0.  0.
    9000005    2    3    3    0    0  0.20704032335E+02  0.28370044944E+02 -0.83722214364E+03  0.83810488212E+03  0.15663946601E+02 0.  0.
         22    1    3    3    0    0 -0.20704032335E+02 -0.28370044944E+02 -0.19283758716E+03  0.19600982482E+03  0.00000000000E+00 0.  1.
         22    1    4    4    0    0  0.22534537958E+02  0.24200873139E+02 -0.78053649061E+03  0.78123664842E+03  0.00000000000E+00 0.  1.
         22    1    4    4    0    0 -0.18305056230E+01  0.41691718053E+01 -0.56685653024E+02  0.56868233691E+02  0.00000000000E+00 0.  1.
<mgrwt>
<rscale>  0 0.91488677E+02</rscale>
<asrwt>0</asrwt>
<pdfrwt beam="2">  1        2 0.15878223E+00 0.91488677E+02</pdfrwt>
<pdfrwt beam="1">  1       -2 0.31192207E-03 0.91488677E+02</pdfrwt>
<totfact> 0.24802663E+05</totfact>
</mgrwt>
</event>
<event>
 7    1  0.3891761E-009  0.9268628E+02  0.7818608E-02  0.1296474E+00
          2   -1    0    0  501    0  0.00000000000E+00  0.00000000000E+00  0.20129073337E+02  0.20129073498E+02  0.25500000000E-02 0. -1.
         -2   -1    0    0    0  501 -0.00000000000E+00 -0.00000000000E+00 -0.10669576051E+03  0.10669576054E+03  0.25500000000E-02 0.  1.
         23    2    1    2    0    0  0.00000000000E+00 -0.88817841970E-15 -0.86566687169E+02  0.12682483403E+03  0.92686283777E+02 0.  0.
    9000005    2    3    3    0    0 -0.26831443874E+02 -0.78632555269E+01  0.58192918388E+01  0.30300607619E+02  0.10124499825E+02 0.  0.
         22    1    3    3    0    0  0.26831443874E+02  0.78632555269E+01 -0.92385979008E+02  0.96524226415E+02  0.00000000000E+00 0.  1.
         22    1    4    4    0    0 -0.27692237896E+00  0.67049830254E+00  0.20257744783E+01  0.21517472469E+01  0.00000000000E+00 0. -1.
         22    1    4    4    0    0 -0.26554521495E+02 -0.85337538295E+01  0.37935173605E+01  0.28148860372E+02  0.00000000000E+00 0. -1.
<mgrwt>
<rscale>  0 0.92686284E+02</rscale>
<asrwt>0</asrwt>
<pdfrwt beam="1">  1        2 0.30967806E-02 0.92686284E+02</pdfrwt>
<pdfrwt beam="2">  1       -2 0.16414732E-01 0.92686284E+02</pdfrwt>
<totfact> 0.75112138E+04</totfact>
</mgrwt>
</event>
<event>
 7    1  0.3891761E-009  0.9262435E+02  0.7818608E-02  0.1296618E+00
          2   -1    0    0  501    0  0.00000000000E+00  0.00000000000E+00  0.15123663629E+03  0.15123663631E+03  0.25500000000E-02 0. -1.
         -2   -1    0    0    0  501 -0.00000000000E+00 -0.00000000000E+00 -0.14181865186E+02  0.14181865415E+02  0.25500000000E-02 0.  1.
         23    2    1    2    0    0 -0.88817841970E-15  0.00000000000E+00  0.13705477110E+03  0.16541850173E+03  0.92624351176E+02 0.  0.
    9000005    2    3    3    0    0  0.67776060459E+01 -0.26333807280E+02  0.21240975596E+01  0.27775150950E+02  0.52480348996E+01 0.  0.
         22    1    3    3    0    0 -0.67776060459E+01  0.26333807280E+02  0.13493067354E+03  0.13764335078E+03  0.00000000000E+00 0. -1.
         22    1    4    4    0    0  0.18924045317E+01 -0.17239697522E+02  0.19282420232E+01  0.17450114121E+02  0.00000000000E+00 0. -1.
         22    1    4    4    0    0  0.48852015142E+01 -0.90941097582E+01  0.19585553634E+00  0.10325036829E+02  0.00000000000E+00 0. -1.
<mgrwt>
<rscale>  0 0.92624351E+02</rscale>
<asrwt>0</asrwt>
<pdfrwt beam="1">  1        2 0.23267172E-01 0.92624351E+02</pdfrwt>
<pdfrwt beam="2">  1       -2 0.21818257E-02 0.92624351E+02</pdfrwt>
<totfact> 0.13432437E+05</totfact>
</mgrwt>
</event>
<event>
 7    1  0.3891761E-009  0.8650093E+02  0.7818608E-02  0.1311553E+00
          2   -1    0    0  501    0  0.00000000000E+00  0.00000000000E+00  0.99379242238E+03  0.99379242238E+03  0.25500000000E-02 0. -1.
         -2   -1    0    0    0  501 -0.00000000000E+00 -0.00000000000E+00 -0.18822862906E+01  0.18822880179E+01  0.25500000000E-02 0.  1.
         23    2    1    2    0    0  0.00000000000E+00  0.00000000000E+00  0.99191013609E+03  0.99567471040E+03  0.86500929796E+02 0.  0.
    9000005    2    3    3    0    0  0.23236513930E+02  0.16425294964E+02  0.86927072597E+03  0.86977732835E+03  0.84427471454E+01 0.  0.
         22    1    3    3    0    0 -0.23236513930E+02 -0.16425294964E+02  0.12263941011E+03  0.12589738205E+03  0.00000000000E+00 0.  1.
         22    1    4    4    0    0  0.12860627119E+02  0.39470997424E+01  0.39140008357E+03  0.39163120502E+03  0.00000000000E+00 0.  1.
         22    1    4    4    0    0  0.10375886811E+02  0.12478195221E+02  0.47787064240E+03  0.47814612333E+03  0.00000000000E+00 0.  1.
<mgrwt>
<rscale>  0 0.86500930E+02</rscale>
<asrwt>0</asrwt>
<pdfrwt beam="1">  1        2 0.15289105E+00 0.86500930E+02</pdfrwt>
<pdfrwt beam="2">  1       -2 0.28958282E-03 0.86500930E+02</pdfrwt>
<totfact> 0.28700035E+05</totfact>
</mgrwt>
</event>
<event>
 7    1  0.3891761E-009  0.9216589E+02  0.7818608E-02  0.1297690E+00
         -2   -1    0    0    0  501 -0.00000000000E+00  0.00000000000E+00  0.86483242937E+01  0.86483246696E+01  0.25500000000E-02 0.  1.
          2   -1    0    0  501    0  0.00000000000E+00 -0.00000000000E+00 -0.24555484191E+03  0.24555484192E+03  0.25500000000E-02 0. -1.
         23    2    1    2    0    0  0.00000000000E+00  0.00000000000E+00 -0.23690651762E+03  0.25420316659E+03  0.92165892915E+02 0.  0.
    9000005    2    3    3    0    0  0.28657406850E+02 -0.35027434312E+02 -0.11457141122E+03  0.12376526421E+03  0.11960946177E+02 0.  0.
         22    1    3    3    0    0 -0.28657406850E+02  0.35027434312E+02 -0.12233510640E+03  0.13043790239E+03  0.00000000000E+00 0. -1.
         22    1    4    4    0    0  0.15486313705E+02 -0.23752309794E+02 -0.83510702386E+02  0.88193171764E+02  0.00000000000E+00 0.  1.
         22    1    4    4    0    0  0.13171093146E+02 -0.11275124517E+02 -0.31060708835E+02  0.35572092444E+02  0.00000000000E+00 0.  1.
<mgrwt>
<rscale>  0 0.92165893E+02</rscale>
<asrwt>0</asrwt>
<pdfrwt beam="2">  1        2 0.37777663E-01 0.92165893E+02</pdfrwt>
<pdfrwt beam="1">  1       -2 0.13305116E-02 0.92165893E+02</pdfrwt>
<totfact> 0.16199302E+05</totfact>
</mgrwt>
</event>
<event>
 7    1  0.3891761E-009  0.9281549E+02  0.7818608E-02  0.1296173E+00
          2   -1    0    0  501    0  0.00000000000E+00  0.00000000000E+00  0.23237354082E+02  0.23237354222E+02  0.25500000000E-02 0. -1.
         -2   -1    0    0    0  501 -0.00000000000E+00 -0.00000000000E+00 -0.92681761250E+02  0.92681761285E+02  0.25500000000E-02 0.  1.
         23    2    1    2    0    0  0.00000000000E+00  0.00000000000E+00 -0.69444407168E+02  0.11591911551E+03  0.92815492527E+02 0.  0.
    9000005    2    3    3    0    0  0.20343420380E+02  0.16458748689E+02 -0.82334013927E+02  0.86749145956E+02  0.78599817796E+01 0.  0.
         22    1    3    3    0    0 -0.20343420380E+02 -0.16458748689E+02  0.12889606759E+02  0.29169969551E+02  0.00000000000E+00 0. -1.
         22    1    4    4    0    0  0.51318313580E+00 -0.73217554061E+00 -0.51045202801E+01  0.51822355450E+01  0.00000000000E+00 0.  1.
         22    1    4    4    0    0  0.19830237244E+02  0.17190924229E+02 -0.77229493647E+02  0.81566910411E+02  0.00000000000E+00 0.  1.
<mgrwt>
<rscale>  0 0.92815493E+02</rscale>
<asrwt>0</asrwt>
<pdfrwt beam="1">  1        2 0.35749776E-02 0.92815493E+02</pdfrwt>
<pdfrwt beam="2">  1       -2 0.14258732E-01 0.92815493E+02</pdfrwt>
<totfact> 0.78083236E+04</totfact>
</mgrwt>
</event>
<event>
 7    1  0.3891761E-009  0.1166216E+03  0.7818608E-02  0.1248777E+00
         -2   -1    0    0    0  501 -0.00000000000E+00  0.00000000000E+00  0.44839008968E+01  0.44839016219E+01  0.25500000000E-02 0.  1.
          2   -1    0    0  501    0  0.00000000000E+00 -0.00000000000E+00 -0.75830167408E+03  0.75830167408E+03  0.25500000000E-02 0. -1.
         23    2    1    2    0    0  0.17763568394E-14  0.71054273576E-14 -0.75381777318E+03  0.76278557570E+03  0.11662160751E+03 0.  0.
    9000005    2    3    3    0    0  0.94296815293E+01  0.51472860997E+02 -0.54436382557E+03  0.54689363403E+03  0.47220792509E+01 0.  0.
         22    1    3    3    0    0 -0.94296815293E+01 -0.51472860997E+02 -0.20945394760E+03  0.21589194167E+03  0.00000000000E+00 0.  1.
         22    1    4    4    0    0  0.20299777880E+01  0.55137323087E+01 -0.73408201912E+02  0.73642964102E+02  0.00000000000E+00 0.  1.
         22    1    4    4    0    0  0.73997037414E+01  0.45959128688E+02 -0.47095562366E+03  0.47325066992E+03  0.00000000000E+00 0.  1.
<mgrwt>
<rscale>  0 0.11662161E+03</rscale>
<asrwt>0</asrwt>
<pdfrwt beam="2">  1        2 0.11666169E+00 0.11662161E+03</pdfrwt>
<pdfrwt beam="1">  1       -2 0.68983156E-03 0.11662161E+03</pdfrwt>
<totfact> 0.12509932E+05</totfact>
</mgrwt>
</event>
<event>
 7    1  0.3891761E-009  0.9113522E+02  0.7818608E-02  0.1300126E+00
          2   -1    0    0  501    0  0.00000000000E+00  0.00000000000E+00  0.87170562902E+02  0.87170562939E+02  0.25500000000E-02 0. -1.
         -2   -1    0    0    0  501 -0.00000000000E+00 -0.00000000000E+00 -0.23820047317E+02  0.23820047454E+02  0.25500000000E-02 0.  1.
         23    2    1    2    0    0 -0.35527136788E-14  0.00000000000E+00  0.63350515584E+02  0.11099061039E+03  0.91135216961E+02 0.  0.
    9000005    2    3    3    0    0  0.18709497070E+02 -0.73121672159E+01 -0.17915261834E+02  0.27278964551E+02  0.44353388120E+01 0.  0.
         22    1    3    3    0    0 -0.18709497070E+02  0.73121672159E+01  0.81265777419E+02  0.83711645841E+02  0.00000000000E+00 0. -1.
         22    1    4    4    0    0  0.17974861811E+02 -0.76194922810E+01 -0.17893052837E+02  0.26482327307E+02  0.00000000000E+00 0. -1.
         22    1    4    4    0    0  0.73463525910E+00  0.30732506517E+00 -0.22208997168E-01  0.79663724439E+00  0.00000000000E+00 0. -1.
<mgrwt>
<rscale>  0 0.91135217E+02</rscale>
<asrwt>0</asrwt>
<pdfrwt beam="1">  1        2 0.13410856E-01 0.91135217E+02</pdfrwt>
<pdfrwt beam="2">  1       -2 0.36646227E-02 0.91135217E+02</pdfrwt>
<totfact> 0.11789492E+05</totfact>
</mgrwt>
</event>
<event>
 7    1  0.3891761E-009  0.8134274E+02  0.7818608E-02  0.1325284E+00
          2   -1    0    0  501    0  0.00000000000E+00  0.00000000000E+00  0.12617929007E+02  0.12617929265E+02  0.25500000000E-02 0. -1.
         -2   -1    0    0    0  501 -0.00000000000E+00 -0.00000000000E+00 -0.13109601620E+03  0.13109601623E+03  0.25500000000E-02 0.  1.
         23    2    1    2    0    0  0.00000000000E+00  0.35527136788E-14 -0.11847808719E+03  0.14371394549E+03  0.81342737742E+02 0.  0.
    9000005    2    3    3    0    0  0.11023424276E+02  0.22866012125E+02 -0.11451401312E+03  0.11802184016E+03  0.13089123743E+02 0.  0.
         22    1    3    3    0    0 -0.11023424276E+02 -0.22866012125E+02 -0.39640740767E+01  0.25692105335E+02  0.00000000000E+00 0. -1.
         22    1    4    4    0    0  0.87398227759E+01  0.17900975475E+02 -0.10633624375E+03  0.10818607193E+03  0.00000000000E+00 0.  1.
         22    1    4    4    0    0  0.22836014999E+01  0.49650366500E+01 -0.81777693679E+01  0.98357682253E+01  0.00000000000E+00 0.  1.
<mgrwt>
<rscale>  0 0.81342738E+02</rscale>
<asrwt>0</asrwt>
<pdfrwt beam="1">  1        2 0.19412200E-02 0.81342738E+02</pdfrwt>
<pdfrwt beam="2">  1       -2 0.20168617E-01 0.81342738E+02</pdfrwt>
<totfact> 0.97604086E+04</totfact>
</mgrwt>
</event>
<event>
 7    1  0.3891761E-009  0.9208709E+02  0.7818608E-02  0.1297875E+00
         -2   -1    0    0    0  501 -0.00000000000E+00  0.00000000000E+00  0.76209773817E+02  0.76209773860E+02  0.25500000000E-02 0. -1.
          2   -1    0    0  501    0  0.00000000000E+00 -0.00000000000E+00 -0.27818062300E+02  0.27818062417E+02  0.25500000000E-02 0.  1.
         23    2    1    2    0    0  0.00000000000E+00  0.00000000000E+00  0.48391711517E+02  0.10402783628E+03  0.92087094519E+02 0.  0.
    9000005    2    3    3    0    0 -0.31674120713E+02  0.30144202965E+02  0.11266637332E+02  0.46667623337E+02  0.11790125349E+02 0.  0.
         22    1    3    3    0    0  0.31674120713E+02 -0.30144202965E+02  0.37125074184E+02  0.57360212940E+02  0.00000000000E+00 0. -1.
         22    1    4    4    0    0 -0.17641778207E+02  0.13008369884E+02  0.10984688363E+02  0.24517614153E+02  0.00000000000E+00 0.  1.
         22    1    4    4    0    0 -0.14032342506E+02  0.17135833082E+02  0.28194896978E+00  0.22150009184E+02  0.00000000000E+00 0.  1.
<mgrwt>
<rscale>  0 0.92087095E+02</rscale>
<asrwt>0</asrwt>
<pdfrwt beam="2">  1        2 0.42797019E-02 0.92087095E+02</pdfrwt>
<pdfrwt beam="1">  1       -2 0.11724581E-01 0.92087095E+02</pdfrwt>
<totfact> 0.84145178E+04</totfact>
</mgrwt>
</event>
<event>
 7    1  0.3891761E-009  0.9032380E+02  0.7818608E-02  0.1302069E+00
          2   -1    0    0  501    0  0.00000000000E+00  0.00000000000E+00  0.31862144911E+03  0.31862144912E+03  0.25500000000E-02 0. -1.
         -2   -1    0    0    0  501 -0.00000000000E+00 -0.00000000000E+00 -0.64013183601E+01  0.64013188680E+01  0.25500000000E-02 0.  1.
         23    2    1    2    0    0  0.00000000000E+00  0.00000000000E+00  0.31222013075E+03  0.32502276799E+03  0.90323804532E+02 0.  0.
    9000005    2    3    3    0    0 -0.11474860261E+02  0.26014972720E+02  0.28103940738E+03  0.28282456028E+03  0.14075943144E+02 0.  0.
         22    1    3    3    0    0  0.11474860261E+02 -0.26014972720E+02  0.31180723371E+02  0.42198207705E+02  0.00000000000E+00 0.  1.
         22    1    4    4    0    0 -0.11038828413E+02  0.79044353561E+01  0.11397246341E+03  0.11477830041E+03  0.00000000000E+00 0. -1.
         22    1    4    4    0    0 -0.43603184752E+00  0.18110537364E+02  0.16706694397E+03  0.16804625987E+03  0.00000000000E+00 0. -1.
<mgrwt>
<rscale>  0 0.90323805E+02</rscale>
<asrwt>0</asrwt>
<pdfrwt beam="1">  1        2 0.49018674E-01 0.90323805E+02</pdfrwt>
<pdfrwt beam="2">  1       -2 0.98481846E-03 0.90323805E+02</pdfrwt>
<totfact> 0.18838232E+05</totfact>
</mgrwt>
</event>
<event>
 7    1  0.3891761E-009  0.8991694E+02  0.7818608E-02  0.1303053E+00
          2   -1    0    0  501    0  0.00000000000E+00  0.00000000000E+00  0.41815153133E+02  0.41815153211E+02  0.25500000000E-02 0. -1.
         -2   -1    0    0    0  501 -0.00000000000E+00 -0.00000000000E+00 -0.48338080276E+02  0.48338080344E+02  0.25500000000E-02 0.  1.
         23    2    1    2    0    0  0.00000000000E+00  0.00000000000E+00 -0.65229271432E+01  0.90153233554E+02  0.89916944687E+02 0.  0.
    9000005    2    3    3    0    0 -0.20657029720E+02  0.96924951279E+01  0.35210760492E+02  0.42588982038E+02  0.73052308648E+01 0.  0.
         22    1    3    3    0    0  0.20657029720E+02 -0.96924951279E+01 -0.41733687635E+02  0.47564251516E+02  0.00000000000E+00 0.  1.
         22    1    4    4    0    0 -0.69543932563E+01  0.45346873836E+01  0.19059675086E+02  0.20789376845E+02  0.00000000000E+00 0.  1.
         22    1    4    4    0    0 -0.13702636464E+02  0.51578077443E+01  0.16151085406E+02  0.21799605193E+02  0.00000000000E+00 0.  1.
<mgrwt>
<rscale>  0 0.89916945E+02</rscale>
<asrwt>0</asrwt>
<pdfrwt beam="1">  1        2 0.64331005E-02 0.89916945E+02</pdfrwt>
<pdfrwt beam="2">  1       -2 0.74366277E-02 0.89916945E+02</pdfrwt>
<totfact> 0.10043670E+05</totfact>
</mgrwt>
</event>
<event>
 7    1  0.3891761E-009  0.9121580E+02  0.7818608E-02  0.1299934E+00
          2   -1    0    0  501    0  0.00000000000E+00  0.00000000000E+00  0.11775667426E+03  0.11775667429E+03  0.25500000000E-02 0. -1.
         -2   -1    0    0    0  501 -0.00000000000E+00 -0.00000000000E+00 -0.17664226585E+02  0.17664226769E+02  0.25500000000E-02 0.  1.
         23    2    1    2    0    0  0.00000000000E+00  0.00000000000E+00  0.10009244768E+03  0.13542090106E+03  0.91215801053E+02 0.  0.
    9000005    2    3    3    0    0  0.25234838363E+02 -0.34098578321E+02  0.73025617935E+02  0.85100692564E+02  0.10482217773E+02 0.  0.
         22    1    3    3    0    0 -0.25234838363E+02  0.34098578321E+02  0.27066829743E+02  0.50320208496E+02  0.00000000000E+00 0. -1.
         22    1    4    4    0    0  0.44586362952E+01 -0.92664621899E+00  0.73975156441E+01  0.86868491718E+01  0.00000000000E+00 0.  1.
         22    1    4    4    0    0  0.20776202068E+02 -0.33171932102E+02  0.65628102291E+02  0.76413843393E+02  0.00000000000E+00 0.  1.
<mgrwt>
<rscale>  0 0.91215801E+02</rscale>
<asrwt>0</asrwt>
<pdfrwt beam="1">  1        2 0.18116411E-01 0.91215801E+02</pdfrwt>
<pdfrwt beam="2">  1       -2 0.27175734E-02 0.91215801E+02</pdfrwt>
<totfact> 0.12893284E+05</totfact>
</mgrwt>
</event>
<event>
 7    1  0.3891761E-009  0.9171667E+02  0.7818608E-02  0.1298747E+00
         -2   -1    0    0    0  501 -0.00000000000E+00  0.00000000000E+00  0.23610679556E+03  0.23610679557E+03  0.25500000000E-02 0.  1.
          2   -1    0    0  501    0  0.00000000000E+00 -0.00000000000E+00 -0.89069312157E+01  0.89069315807E+01  0.25500000000E-02 0. -1.
         23    2    1    2    0    0  0.00000000000E+00  0.00000000000E+00  0.22719986435E+03  0.24501372716E+03  0.91716673163E+02 0.  0.
    9000005    2    3    3    0    0  0.32332198974E+02  0.18519920198E+02  0.42897756765E+02  0.56982811098E+02  0.42970560371E+01 0.  0.
         22    1    3    3    0    0 -0.32332198974E+02 -0.18519920198E+02  0.18430210758E+03  0.18803091606E+03  0.00000000000E+00 0.  1.
         22    1    4    4    0    0  0.83505744576E+01  0.36467276260E+01  0.82000110777E+01  0.12258503083E+02  0.00000000000E+00 0.  1.
         22    1    4    4    0    0  0.23981624517E+02  0.14873192572E+02  0.34697745687E+02  0.44724308016E+02  0.00000000000E+00 0.  1.
<mgrwt>
<rscale>  0 0.91716673E+02</rscale>
<asrwt>0</asrwt>
<pdfrwt beam="2">  1        2 0.13702970E-02 0.91716673E+02</pdfrwt>
<pdfrwt beam="1">  1       -2 0.36324125E-01 0.91716673E+02</pdfrwt>
<totfact> 0.56904541E+04</totfact>
</mgrwt>
</event>
<event>
 7    1  0.7289891E-009  0.9145170E+02  0.7818608E-02  0.1299374E+00
          2   -1    0    0  501    0  0.00000000000E+00  0.00000000000E+00  0.93223481491E+03  0.93223481491E+03  0.25500000000E-02 0. -1.
         -2   -1    0    0    0  501 -0.00000000000E+00 -0.00000000000E+00 -0.22428392018E+01  0.22428406514E+01  0.25500000000E-02 0.  1.
         23    2    1    2    0    0  0.00000000000E+00  0.00000000000E+00  0.92999197571E+03  0.93447765556E+03  0.91451702381E+02 0.  0.
    9000005    2    3    3    0    0  0.29685269837E+02  0.12787034200E+02  0.79132479612E+03  0.79209328078E+03  0.13119032273E+02 0.  0.
         22    1    3    3    0    0 -0.29685269837E+02 -0.12787034200E+02  0.13866717958E+03  0.14238437478E+03  0.00000000000E+00 0.  1.
         22    1    4    4    0    0  0.40295565755E+01  0.43242398499E+01  0.65575422895E+02  0.65841267184E+02  0.00000000000E+00 0. -1.
         22    1    4    4    0    0  0.25655713261E+02  0.84627943503E+01  0.72574937323E+03  0.72625201360E+03  0.00000000000E+00 0. -1.
<mgrwt>
<rscale>  0 0.91451702E+02</rscale>
<asrwt>0</asrwt>
<pdfrwt beam="1">  1        2 0.14342051E+00 0.91451702E+02</pdfrwt>
<pdfrwt beam="2">  1       -2 0.34505285E-03 0.91451702E+02</pdfrwt>
<totfact> 0.24686538E+05</totfact>
</mgrwt>
</event>
<event>
 7    1  0.3891761E-009  0.9381709E+02  0.7818608E-02  0.1293863E+00
          2   -1    0    0  501    0  0.00000000000E+00  0.00000000000E+00  0.14682014414E+04  0.14682014414E+04  0.25500000000E-02 0. -1.
         -2   -1    0    0    0  501 -0.00000000000E+00 -0.00000000000E+00 -0.14987111273E+01  0.14987132967E+01  0.25500000000E-02 0.  1.
         23    2    1    2    0    0 -0.17763568394E-14 -0.88817841970E-15  0.14667027302E+04  0.14697001547E+04  0.93817086570E+02 0.  0.
    9000005    2    3    3    0    0  0.93763576422E+01  0.78071180716E+01  0.14428504178E+04  0.14429083652E+04  0.42842700785E+01 0.  0.
         22    1    3    3    0    0 -0.93763576422E+01 -0.78071180716E+01  0.23852312405E+02  0.26791789456E+02  0.00000000000E+00 0.  1.
         22    1    4    4    0    0  0.92107414900E+01  0.59858439026E+01  0.11589846560E+04  0.11590367125E+04  0.00000000000E+00 0.  1.
         22    1    4    4    0    0  0.16561615220E+00  0.18212741690E+01  0.28386576184E+03  0.28387165271E+03  0.00000000000E+00 0.  1.
<mgrwt>
<rscale>  0 0.93817087E+02</rscale>
<asrwt>0</asrwt>
<pdfrwt beam="1">  1        2 0.22587732E+00 0.93817087E+02</pdfrwt>
<pdfrwt beam="2">  1       -2 0.23057093E-03 0.93817087E+02</pdfrwt>
<totfact> 0.22055864E+05</totfact>
</mgrwt>
</event>
<event>
 7    1  0.3891761E-009  0.9135708E+02  0.7818608E-02  0.1299598E+00
          2   -1    0    0  501    0  0.00000000000E+00  0.00000000000E+00  0.39860095317E+02  0.39860095399E+02  0.25500000000E-02 0. -1.
         -2   -1    0    0    0  501 -0.00000000000E+00 -0.00000000000E+00 -0.52346309699E+02  0.52346309761E+02  0.25500000000E-02 0.  1.
         23    2    1    2    0    0  0.17763568394E-14  0.00000000000E+00 -0.12486214382E+02  0.92206405160E+02  0.91357077465E+02 0.  0.
    9000005    2    3    3    0    0 -0.87981232769E+01 -0.75961248944E+01 -0.49705344118E+02  0.53214461058E+02  0.15034944136E+02 0.  0.
         22    1    3    3    0    0  0.87981232769E+01  0.75961248944E+01  0.37219129736E+02  0.38991944102E+02  0.00000000000E+00 0. -1.
         22    1    4    4    0    0  0.19392691559E+01 -0.45997668373E+01 -0.47254319192E+01  0.68737418223E+01  0.00000000000E+00 0. -1.
         22    1    4    4    0    0 -0.10737392433E+02 -0.29963580571E+01 -0.44979912199E+02  0.46340719235E+02  0.00000000000E+00 0. -1.
<mgrwt>
<rscale>  0 0.91357077E+02</rscale>
<asrwt>0</asrwt>
<pdfrwt beam="1">  1        2 0.61323224E-02 0.91357077E+02</pdfrwt>
<pdfrwt beam="2">  1       -2 0.80532784E-02 0.91357077E+02</pdfrwt>
<totfact> 0.94757553E+04</totfact>
</mgrwt>
</event>
<event>
 7    1  0.3891761E-009  0.9236107E+02  0.7818608E-02  0.1297233E+00
          2   -1    0    0  501    0  0.00000000000E+00  0.00000000000E+00  0.56020039294E+03  0.56020039294E+03  0.25500000000E-02 0.  1.
         -2   -1    0    0    0  501 -0.00000000000E+00 -0.00000000000E+00 -0.38069261556E+01  0.38069270096E+01  0.25500000000E-02 0. -1.
         23    2    1    2    0    0 -0.35527136788E-14  0.00000000000E+00  0.55639346678E+03  0.56400731995E+03  0.92361069087E+02 0.  0.
    9000005    2    3    3    0    0  0.23023098091E+02  0.39003640456E+02  0.30684768123E+03  0.31038467487E+03  0.11480413773E+02 0.  0.
         22    1    3    3    0    0 -0.23023098091E+02 -0.39003640456E+02  0.24954578555E+03  0.25362264508E+03  0.00000000000E+00 0. -1.
         22    1    4    4    0    0  0.22845040508E+02  0.39517825666E+02  0.29371603987E+03  0.29724176439E+03  0.00000000000E+00 0.  1.
         22    1    4    4    0    0  0.17805758370E+00 -0.51418520965E+00  0.13131641368E+02  0.13142910482E+02  0.00000000000E+00 0.  1.
<mgrwt>
<rscale>  0 0.92361069E+02</rscale>
<asrwt>0</asrwt>
<pdfrwt beam="1">  1        2 0.86184646E-01 0.92361069E+02</pdfrwt>
<pdfrwt beam="2">  1       -2 0.58568122E-03 0.92361069E+02</pdfrwt>
<totfact> 0.21582216E+05</totfact>
</mgrwt>
</event>
<event>
 7    1  0.3891761E-009  0.9083100E+02  0.7818608E-02  0.1300852E+00
          2   -1    0    0  501    0  0.00000000000E+00  0.00000000000E+00  0.13504813359E+03  0.13504813361E+03  0.25500000000E-02 0. -1.
         -2   -1    0    0    0  501 -0.00000000000E+00 -0.00000000000E+00 -0.15272832791E+02  0.15272833004E+02  0.25500000000E-02 0.  1.
         23    2    1    2    0    0  0.00000000000E+00  0.00000000000E+00  0.11977530079E+03  0.15032096661E+03  0.90830998691E+02 0.  0.
    9000005    2    3    3    0    0  0.32373741795E+02 -0.98549524161E+01  0.10838071354E+03  0.11461360234E+03  0.15643513935E+02 0.  0.
         22    1    3    3    0    0 -0.32373741795E+02  0.98549524161E+01  0.11394587256E+02  0.35707364278E+02  0.00000000000E+00 0.  1.
         22    1    4    4    0    0  0.42984313431E+00  0.19781977512E+01  0.16454963333E+02  0.16579018360E+02  0.00000000000E+00 0.  1.
         22    1    4    4    0    0  0.31943898661E+02 -0.11833150167E+02  0.91925750205E+02  0.98034583976E+02  0.00000000000E+00 0.  1.
<mgrwt>
<rscale>  0 0.90830999E+02</rscale>
<asrwt>0</asrwt>
<pdfrwt beam="1">  1        2 0.20776636E-01 0.90830999E+02</pdfrwt>
<pdfrwt beam="2">  1       -2 0.23496666E-02 0.90830999E+02</pdfrwt>
<totfact> 0.13636893E+05</totfact>
</mgrwt>
</event>
<event>
 7    1  0.3891761E-009  0.8845558E+02  0.7818608E-02  0.1306635E+00
         -2   -1    0    0    0  501 -0.00000000000E+00  0.00000000000E+00  0.24293555859E+01  0.24293569243E+01  0.25500000000E-02 0. -1.
          2   -1    0    0  501    0  0.00000000000E+00 -0.00000000000E+00 -0.80519159759E+03  0.80519159760E+03  0.25500000000E-02 0.  1.
         23    2    1    2    0    0  0.00000000000E+00 -0.17763568394E-14 -0.80276224201E+03  0.80762095452E+03  0.88455576363E+02 0.  0.
    9000005    2    3    3    0    0  0.47705295387E+01  0.15788932580E+02 -0.77515624273E+03  0.77546291447E+03  0.14264737130E+02 0.  0.
         22    1    3    3    0    0 -0.47705295387E+01 -0.15788932580E+02 -0.27605999277E+02  0.32158040054E+02  0.00000000000E+00 0. -1.
         22    1    4    4    0    0 -0.26502411245E+01  0.48460884642E+01 -0.84604568987E+02  0.84784676946E+02  0.00000000000E+00 0.  1.
         22    1    4    4    0    0  0.74207706632E+01  0.10942844115E+02 -0.69055167375E+03  0.69067823752E+03  0.00000000000E+00 0.  1.
<mgrwt>
<rscale>  0 0.88455576E+02</rscale>
<asrwt>0</asrwt>
<pdfrwt beam="2">  1        2 0.12387542E+00 0.88455576E+02</pdfrwt>
<pdfrwt beam="1">  1       -2 0.37374776E-03 0.88455576E+02</pdfrwt>
<totfact> 0.26426217E+05</totfact>
</mgrwt>
</event>
<event>
 7    1  0.3891761E-009  0.9005297E+02  0.7818608E-02  0.1302723E+00
          2   -1    0    0  501    0  0.00000000000E+00  0.00000000000E+00  0.82027716699E+02  0.82027716738E+02  0.25500000000E-02 0. -1.
         -2   -1    0    0    0  501 -0.00000000000E+00 -0.00000000000E+00 -0.24715842573E+02  0.24715842705E+02  0.25500000000E-02 0.  1.
         23    2    1    2    0    0  0.71054273576E-14 -0.88817841970E-15  0.57311874125E+02  0.10674355944E+03  0.90052965342E+02 0.  0.
    9000005    2    3    3    0    0 -0.42764275146E+02 -0.77241316829E+01  0.21969108735E+02  0.50729663806E+02  0.14227143501E+02 0.  0.
         22    1    3    3    0    0  0.42764275146E+02  0.77241316829E+01  0.35342765390E+02  0.56013895637E+02  0.00000000000E+00 0. -1.
         22    1    4    4    0    0 -0.10050124713E+02  0.42134662722E+01  0.55269339200E+01  0.12219054928E+02  0.00000000000E+00 0.  1.
         22    1    4    4    0    0 -0.32714150433E+02 -0.11937597955E+02  0.16442174815E+02  0.38510608878E+02  0.00000000000E+00 0.  1.
<mgrwt>
<rscale>  0 0.90052965E+02</rscale>
<asrwt>0</asrwt>
<pdfrwt beam="1">  1        2 0.12619649E-01 0.90052965E+02</pdfrwt>
<pdfrwt beam="2">  1       -2 0.38024373E-02 0.90052965E+02</pdfrwt>
<totfact> 0.11972926E+05</totfact>
</mgrwt>
</event>
<event>
 7    1  0.3891761E-009  0.9111933E+02  0.7818608E-02  0.1300163E+00
         -2   -1    0    0    0  501 -0.00000000000E+00  0.00000000000E+00  0.45714108515E+01  0.45714115627E+01  0.25500000000E-02 0.  1.
          2   -1    0    0  501    0  0.00000000000E+00 -0.00000000000E+00 -0.45405740758E+03  0.45405740759E+03  0.25500000000E-02 0. -1.
         23    2    1    2    0    0  0.00000000000E+00  0.71054273576E-14 -0.44948599673E+03  0.45862881915E+03  0.91119331098E+02 0.  0.
    9000005    2    3    3    0    0 -0.16415988868E+02  0.37350861957E+02 -0.31852125219E+03  0.32145616921E+03  0.14618790899E+02 0.  0.
         22    1    3    3    0    0  0.16415988868E+02 -0.37350861957E+02 -0.13096474454E+03  0.13717264994E+03  0.00000000000E+00 0. -1.
         22    1    4    4    0    0 -0.16169154198E+00 -0.37923564818E+00 -0.14010006001E+00  0.43542147215E+00  0.00000000000E+00 0. -1.
         22    1    4    4    0    0 -0.16254297326E+02  0.37730097605E+02 -0.31838115213E+03  0.32102074773E+03  0.00000000000E+00 0. -1.
<mgrwt>
<rscale>  0 0.91119331E+02</rscale>
<asrwt>0</asrwt>
<pdfrwt beam="2">  1        2 0.69854950E-01 0.91119331E+02</pdfrwt>
<pdfrwt beam="1">  1       -2 0.70329439E-03 0.91119331E+02</pdfrwt>
<totfact> 0.20902924E+05</totfact>
</mgrwt>
</event>
<event>
 7    1  0.3891761E-009  0.9688439E+02  0.7818608E-02  0.1286987E+00
         -2   -1    0    0    0  501 -0.00000000000E+00  0.00000000000E+00  0.66139388896E+02  0.66139388946E+02  0.25500000000E-02 0.  1.
          2   -1    0    0  501    0  0.00000000000E+00 -0.00000000000E+00 -0.35480311297E+02  0.35480311388E+02  0.25500000000E-02 0. -1.
         23    2    1    2    0    0 -0.17763568394E-14  0.71054273576E-14  0.30659077600E+02  0.10161970033E+03  0.96884387064E+02 0.  0.
    9000005    2    3    3    0    0 -0.15838895288E+02  0.45115921759E+02  0.21813589287E+02  0.52992962179E+02  0.67900193562E+01 0.  0.
         22    1    3    3    0    0  0.15838895288E+02 -0.45115921759E+02  0.88454883128E+01  0.48626738155E+02  0.00000000000E+00 0.  1.
         22    1    4    4    0    0 -0.91981494248E+01  0.16502375306E+02  0.94279627873E+01  0.21114469586E+02  0.00000000000E+00 0. -1.
         22    1    4    4    0    0 -0.66407458629E+01  0.28613546452E+02  0.12385626500E+02  0.31878492593E+02  0.00000000000E+00 0. -1.
<mgrwt>
<rscale>  0 0.96884387E+02</rscale>
<asrwt>0</asrwt>
<pdfrwt beam="2">  1        2 0.54585094E-02 0.96884387E+02</pdfrwt>
<pdfrwt beam="1">  1       -2 0.10175291E-01 0.96884387E+02</pdfrwt>
<totfact> 0.77311408E+04</totfact>
</mgrwt>
</event>
<event>
 7    1  0.3891761E-009  0.9495641E+02  0.7818608E-02  0.1291274E+00
          2   -1    0    0  501    0  0.00000000000E+00  0.00000000000E+00  0.12328458611E+02  0.12328458875E+02  0.25500000000E-02 0. -1.
         -2   -1    0    0    0  501 -0.00000000000E+00 -0.00000000000E+00 -0.18284361641E+03  0.18284361643E+03  0.25500000000E-02 0.  1.
         23    2    1    2    0    0  0.00000000000E+00  0.00000000000E+00 -0.17051515780E+03  0.19517207530E+03  0.94956410731E+02 0.  0.
    9000005    2    3    3    0    0  0.40440326807E+02  0.19093811394E+02 -0.60689154271E+02  0.76589847643E+02  0.13521747303E+02 0.  0.
         22    1    3    3    0    0 -0.40440326807E+02 -0.19093811394E+02 -0.10982600353E+03  0.11858222766E+03  0.00000000000E+00 0. -1.
         22    1    4    4    0    0  0.14033477942E+02  0.14008554369E+02 -0.25797783919E+02  0.32537728159E+02  0.00000000000E+00 0. -1.
         22    1    4    4    0    0  0.26406848865E+02  0.50852570249E+01 -0.34891370352E+02  0.44052119484E+02  0.00000000000E+00 0. -1.
<mgrwt>
<rscale>  0 0.94956411E+02</rscale>
<asrwt>0</asrwt>
<pdfrwt beam="1">  1        2 0.18966861E-02 0.94956411E+02</pdfrwt>
<pdfrwt beam="2">  1       -2 0.28129785E-01 0.94956411E+02</pdfrwt>
<totfact> 0.58349892E+04</totfact>
</mgrwt>
</event>
<event>
 7    1  0.3891761E-009  0.9159278E+02  0.7818608E-02  0.1299040E+00
          2   -1    0    0  501    0  0.00000000000E+00  0.00000000000E+00  0.12586097534E+03  0.12586097537E+03  0.25500000000E-02 0. -1.
         -2   -1    0    0    0  501 -0.00000000000E+00 -0.00000000000E+00 -0.16663696839E+02  0.16663697034E+02  0.25500000000E-02 0.  1.
         23    2    1    2    0    0  0.00000000000E+00 -0.71054273576E-14  0.10919727850E+03  0.14252467240E+03  0.91592775974E+02 0.  0.
    9000005    2    3    3    0    0 -0.15061580155E+02 -0.34729919501E+02  0.18748185327E+02  0.44473374799E+02  0.13905686159E+02 0.  0.
         22    1    3    3    0    0  0.15061580155E+02  0.34729919501E+02  0.90449093173E+02  0.98051297600E+02  0.00000000000E+00 0. -1.
         22    1    4    4    0    0 -0.88127638884E+00 -0.97458967779E+00  0.53133406742E+01  0.54733958594E+01  0.00000000000E+00 0. -1.
         22    1    4    4    0    0 -0.14180303766E+02 -0.33755329823E+02  0.13434844653E+02  0.38999978939E+02  0.00000000000E+00 0. -1.
<mgrwt>
<rscale>  0 0.91592776E+02</rscale>
<asrwt>0</asrwt>
<pdfrwt beam="1">  1        2 0.19363227E-01 0.91592776E+02</pdfrwt>
<pdfrwt beam="2">  1       -2 0.25636457E-02 0.91592776E+02</pdfrwt>
<totfact> 0.13024903E+05</totfact>
</mgrwt>
</event>
<event>
 7    1  0.3975696E-009  0.9127308E+02  0.7818608E-02  0.1299798E+00
         -2   -1    0    0    0  501 -0.00000000000E+00  0.00000000000E+00  0.44486623012E+02  0.44486623085E+02  0.25500000000E-02 0.  1.
          2   -1    0    0  501    0  0.00000000000E+00 -0.00000000000E+00 -0.46816176461E+02  0.46816176530E+02  0.25500000000E-02 0. -1.
         23    2    1    2    0    0 -0.88817841970E-15  0.00000000000E+00 -0.23295534487E+01  0.91302799616E+02  0.91273075978E+02 0.  0.
    9000005    2    3    3    0    0 -0.66272958575E+01  0.21723075077E+02  0.37321051877E+02  0.45608341048E+02  0.13093770227E+02 0.  0.
         22    1    3    3    0    0  0.66272958575E+01 -0.21723075077E+02 -0.39650605325E+02  0.45694458568E+02  0.00000000000E+00 0. -1.
         22    1    4    4    0    0 -0.69583053898E+01  0.34035635598E+01  0.89675821441E+01  0.11849885582E+02  0.00000000000E+00 0. -1.
         22    1    4    4    0    0  0.33100953230E+00  0.18319511517E+02  0.28353469732E+02  0.33758455465E+02  0.00000000000E+00 0. -1.
<mgrwt>
<rscale>  0 0.91273076E+02</rscale>
<asrwt>0</asrwt>
<pdfrwt beam="2">  1        2 0.72024887E-02 0.91273076E+02</pdfrwt>
<pdfrwt beam="1">  1       -2 0.68440958E-02 0.91273076E+02</pdfrwt>
<totfact> 0.99058047E+04</totfact>
</mgrwt>
</event>
<event>
 7    1  0.3891761E-009  0.9315802E+02  0.7818608E-02  0.1295379E+00
         -2   -1    0    0    0  501 -0.00000000000E+00  0.00000000000E+00  0.17390428636E+03  0.17390428638E+03  0.25500000000E-02 0.  1.
          2   -1    0    0  501    0  0.00000000000E+00 -0.00000000000E+00 -0.12475850883E+02  0.12475851144E+02  0.25500000000E-02 0. -1.
         23    2    1    2    0    0  0.00000000000E+00  0.00000000000E+00  0.16142843548E+03  0.18638013752E+03  0.93158015663E+02 0.  0.
    9000005    2    3    3    0    0 -0.43660350704E+01 -0.22015163888E+02  0.16172616273E+03  0.16393423935E+03  0.14674924817E+02 0.  0.
         22    1    3    3    0    0  0.43660350704E+01  0.22015163888E+02 -0.29772724792E+00  0.22445898172E+02  0.00000000000E+00 0. -1.
         22    1    4    4    0    0 -0.39949698598E+01 -0.16660474869E+02  0.70560837285E+02  0.72611038868E+02  0.00000000000E+00 0. -1.
         22    1    4    4    0    0 -0.37106521062E+00 -0.53546890189E+01  0.91165325441E+02  0.91323200484E+02  0.00000000000E+00 0. -1.
<mgrwt>
<rscale>  0 0.93158016E+02</rscale>
<asrwt>0</asrwt>
<pdfrwt beam="2">  1        2 0.19193617E-02 0.93158016E+02</pdfrwt>
<pdfrwt beam="1">  1       -2 0.26754506E-01 0.93158016E+02</pdfrwt>
<totfact> 0.62522618E+04</totfact>
</mgrwt>
</event>
<event>
 7    1  0.3891761E-009  0.9115777E+02  0.7818608E-02  0.1300072E+00
          2   -1    0    0  501    0  0.00000000000E+00  0.00000000000E+00  0.56472359278E+03  0.56472359278E+03  0.25500000000E-02 0. -1.
         -2   -1    0    0    0  501 -0.00000000000E+00 -0.00000000000E+00 -0.36786749843E+01  0.36786758681E+01  0.25500000000E-02 0.  1.
         23    2    1    2    0    0  0.00000000000E+00 -0.35527136788E-14  0.56104491779E+03  0.56840226865E+03  0.91157771070E+02 0.  0.
    9000005    2    3    3    0    0  0.11677818389E+02 -0.20082933113E+02  0.52501163814E+03  0.52552928313E+03  0.20277084362E+01 0.  0.
         22    1    3    3    0    0 -0.11677818389E+02  0.20082933113E+02  0.36033279650E+02  0.42872985516E+02  0.00000000000E+00 0.  1.
         22    1    4    4    0    0  0.69501706205E+01 -0.13267317664E+02  0.32154281295E+03  0.32189145243E+03  0.00000000000E+00 0. -1.
         22    1    4    4    0    0  0.47276477689E+01 -0.68156154492E+01  0.20346882520E+03  0.20363783070E+03  0.00000000000E+00 0. -1.
<mgrwt>
<rscale>  0 0.91157771E+02</rscale>
<asrwt>0</asrwt>
<pdfrwt beam="1">  1        2 0.86880527E-01 0.91157771E+02</pdfrwt>
<pdfrwt beam="2">  1       -2 0.56595023E-03 0.91157771E+02</pdfrwt>
<totfact> 0.22398266E+05</totfact>
</mgrwt>
</event>
<event>
 7    1  0.3891761E-009  0.9498304E+02  0.7818608E-02  0.1291214E+00
         -2   -1    0    0    0  501 -0.00000000000E+00  0.00000000000E+00  0.19542056200E+01  0.19542072838E+01  0.25500000000E-02 0.  1.
          2   -1    0    0  501    0  0.00000000000E+00 -0.00000000000E+00 -0.11541483932E+04  0.11541483932E+04  0.25500000000E-02 0. -1.
         23    2    1    2    0    0  0.00000000000E+00  0.00000000000E+00 -0.11521941876E+04  0.11561026005E+04  0.94983035111E+02 0.  0.
    9000005    2    3    3    0    0 -0.51117423990E+00  0.15216240772E+02 -0.11230871282E+04  0.11232542187E+04  0.11981107652E+02 0.  0.
         22    1    3    3    0    0  0.51117423990E+00 -0.15216240772E+02 -0.29107059361E+02  0.32848381801E+02  0.00000000000E+00 0.  1.
         22    1    4    4    0    0 -0.15745292839E+01  0.40782249826E+01 -0.89649456056E+02  0.89755980484E+02  0.00000000000E+00 0.  1.
         22    1    4    4    0    0  0.10633550440E+01  0.11138015789E+02 -0.10334376722E+04  0.10334982382E+04  0.00000000000E+00 0.  1.
<mgrwt>
<rscale>  0 0.94983035E+02</rscale>
<asrwt>0</asrwt>
<pdfrwt beam="2">  1        2 0.17756075E+00 0.94983035E+02</pdfrwt>
<pdfrwt beam="1">  1       -2 0.30064807E-03 0.94983035E+02</pdfrwt>
<totfact> 0.22404875E+05</totfact>
</mgrwt>
</event>
<event>
 7    1  0.3891761E-009  0.9006510E+02  0.7818608E-02  0.1302694E+00
         -2   -1    0    0    0  501 -0.00000000000E+00  0.00000000000E+00  0.23349554546E+02  0.23349554685E+02  0.25500000000E-02 0.  1.
          2   -1    0    0  501    0  0.00000000000E+00 -0.00000000000E+00 -0.86850931221E+02  0.86850931259E+02  0.25500000000E-02 0. -1.
         23    2    1    2    0    0  0.00000000000E+00  0.00000000000E+00 -0.63501376676E+02  0.11020048594E+03  0.90065100136E+02 0.  0.
    9000005    2    3    3    0    0 -0.44478684698E+02 -0.26346768111E+01 -0.37036776807E+02  0.58377036034E+02  0.71316607845E+01 0.  0.
         22    1    3    3    0    0  0.44478684698E+02  0.26346768111E+01 -0.26464599869E+02  0.51823449910E+02  0.00000000000E+00 0. -1.
         22    1    4    4    0    0 -0.27094002961E+02 -0.45447753698E+01 -0.20191227403E+02  0.34094363811E+02  0.00000000000E+00 0. -1.
         22    1    4    4    0    0 -0.17384681736E+02  0.19100985587E+01 -0.16845549404E+02  0.24282672223E+02  0.00000000000E+00 0. -1.
<mgrwt>
<rscale>  0 0.90065100E+02</rscale>
<asrwt>0</asrwt>
<pdfrwt beam="2">  1        2 0.13361682E-01 0.90065100E+02</pdfrwt>
<pdfrwt beam="1">  1       -2 0.35922392E-02 0.90065100E+02</pdfrwt>
<totfact> 0.12167669E+05</totfact>
</mgrwt>
</event>
<event>
 7    1  0.3891761E-009  0.9149966E+02  0.7818608E-02  0.1299260E+00
          2   -1    0    0  501    0  0.00000000000E+00  0.00000000000E+00  0.72123579332E+03  0.72123579333E+03  0.25500000000E-02 0.  1.
         -2   -1    0    0    0  501 -0.00000000000E+00 -0.00000000000E+00 -0.29020283061E+01  0.29020294265E+01  0.25500000000E-02 0. -1.
         23    2    1    2    0    0  0.00000000000E+00  0.00000000000E+00  0.71833376502E+03  0.72413782275E+03  0.91499663276E+02 0.  0.
    9000005    2    3    3    0    0  0.37412029529E+02  0.21301361131E+02  0.47467601877E+03  0.47670600337E+03  0.88251294899E+01 0.  0.
         22    1    3    3    0    0 -0.37412029529E+02 -0.21301361131E+02  0.24365774625E+03  0.24743181939E+03  0.00000000000E+00 0.  1.
         22    1    4    4    0    0  0.26785400821E+01 -0.13284598579E+00  0.16595497595E+02  0.16810793124E+02  0.00000000000E+00 0. -1.
         22    1    4    4    0    0  0.34733489447E+02  0.21434207116E+02  0.45808052118E+03  0.45989521024E+03  0.00000000000E+00 0. -1.
<mgrwt>
<rscale>  0 0.91499663E+02</rscale>
<asrwt>0</asrwt>
<pdfrwt beam="1">  1        2 0.11095946E+00 0.91499663E+02</pdfrwt>
<pdfrwt beam="2">  1       -2 0.44646556E-03 0.91499663E+02</pdfrwt>
<totfact> 0.23654271E+05</totfact>
</mgrwt>
</event>
<event>
 7    1  0.3891761E-009  0.9326702E+02  0.7818608E-02  0.1295128E+00
          2   -1    0    0  501    0  0.00000000000E+00  0.00000000000E+00  0.61527614184E+02  0.61527614237E+02  0.25500000000E-02 0. -1.
         -2   -1    0    0    0  501 -0.00000000000E+00 -0.00000000000E+00 -0.35344851133E+02  0.35344851225E+02  0.25500000000E-02 0.  1.
         23    2    1    2    0    0  0.00000000000E+00  0.35527136788E-14  0.26182763051E+02  0.96872465462E+02  0.93267022487E+02 0.  0.
    9000005    2    3    3    0    0 -0.29979333508E+02  0.30437420697E+02 -0.40634092537E+01  0.44527189119E+02  0.11872752832E+02 0.  0.
         22    1    3    3    0    0  0.29979333508E+02 -0.30437420697E+02  0.30246172305E+02  0.52345276343E+02  0.00000000000E+00 0.  1.
         22    1    4    4    0    0 -0.18360617524E+02  0.26159520964E+02 -0.30018705487E+01  0.32100530209E+02  0.00000000000E+00 0.  1.
         22    1    4    4    0    0 -0.11618715984E+02  0.42778997333E+01 -0.10615387050E+01  0.12426658910E+02  0.00000000000E+00 0.  1.
<mgrwt>
<rscale>  0 0.93267022E+02</rscale>
<asrwt>0</asrwt>
<pdfrwt beam="1">  1        2 0.94657867E-02 0.93267022E+02</pdfrwt>
<pdfrwt beam="2">  1       -2 0.54376695E-02 0.93267022E+02</pdfrwt>
<totfact> 0.10016542E+05</totfact>
</mgrwt>
</event>
<event>
 7    1  0.3891761E-009  0.8766425E+02  0.7818608E-02  0.1308609E+00
          2   -1    0    0  501    0  0.00000000000E+00  0.00000000000E+00  0.29216837820E+03  0.29216837821E+03  0.25500000000E-02 0. -1.
         -2   -1    0    0    0  501 -0.00000000000E+00 -0.00000000000E+00 -0.65758484607E+01  0.65758489551E+01  0.25500000000E-02 0.  1.
         23    2    1    2    0    0  0.00000000000E+00  0.35527136788E-14  0.28559252974E+03  0.29874422716E+03  0.87664247115E+02 0.  0.
    9000005    2    3    3    0    0 -0.22300449811E+02 -0.28537549862E+02  0.70780567284E+02  0.80900519367E+02  0.14943343499E+02 0.  0.
         22    1    3    3    0    0  0.22300449811E+02  0.28537549862E+02  0.21481196245E+03  0.21784370780E+03  0.00000000000E+00 0. -1.
         22    1    4    4    0    0 -0.21665262598E+02 -0.25561169798E+02  0.70221389256E+02  0.77806172724E+02  0.00000000000E+00 0.  1.
         22    1    4    4    0    0 -0.63518721239E+00 -0.29763800641E+01  0.55917802791E+00  0.30943466431E+01  0.00000000000E+00 0.  1.
<mgrwt>
<rscale>  0 0.87664247E+02</rscale>
<asrwt>0</asrwt>
<pdfrwt beam="1">  1        2 0.44948984E-01 0.87664247E+02</pdfrwt>
<pdfrwt beam="2">  1       -2 0.10116690E-02 0.87664247E+02</pdfrwt>
<totfact> 0.19751251E+05</totfact>
</mgrwt>
</event>
<event>
 7    1  0.3891761E-009  0.9322354E+02  0.7818608E-02  0.1295228E+00
          2   -1    0    0  501    0  0.00000000000E+00  0.00000000000E+00  0.65536627539E+03  0.65536627539E+03  0.25500000000E-02 0. -1.
         -2   -1    0    0    0  501 -0.00000000000E+00 -0.00000000000E+00 -0.33151793318E+01  0.33151803125E+01  0.25500000000E-02 0.  1.
         23    2    1    2    0    0  0.00000000000E+00  0.00000000000E+00  0.65205109606E+03  0.65868145571E+03  0.93223538993E+02 0.  0.
    9000005    2    3    3    0    0 -0.12108131206E+02  0.40994082200E+02  0.45260403511E+03  0.45470534990E+03  0.89118471336E+01 0.  0.
         22    1    3    3    0    0  0.12108131206E+02 -0.40994082200E+02  0.19944706095E+03  0.20397610580E+03  0.00000000000E+00 0.  1.
         22    1    4    4    0    0  0.91023979293E+00  0.33512291947E+00  0.94727510854E+01  0.95222821307E+01  0.00000000000E+00 0.  1.
         22    1    4    4    0    0 -0.13018370999E+02  0.40658959281E+02  0.44313128402E+03  0.44518306777E+03  0.00000000000E+00 0.  1.
<mgrwt>
<rscale>  0 0.93223539E+02</rscale>
<asrwt>0</asrwt>
<pdfrwt beam="1">  1        2 0.10082560E+00 0.93223539E+02</pdfrwt>
<pdfrwt beam="2">  1       -2 0.51002755E-03 0.93223539E+02</pdfrwt>
<totfact> 0.22005197E+05</totfact>
</mgrwt>
</event>
<event>
 7    1  0.3891761E-009  0.1038761E+03  0.7818608E-02  0.1272350E+00
          2   -1    0    0  501    0  0.00000000000E+00  0.00000000000E+00  0.19057086039E+02  0.19057086209E+02  0.25500000000E-02 0. -1.
         -2   -1    0    0    0  501 -0.00000000000E+00 -0.00000000000E+00 -0.14155172134E+03  0.14155172136E+03  0.25500000000E-02 0.  1.
         23    2    1    2    0    0 -0.71054273576E-14  0.00000000000E+00 -0.12249463530E+03  0.16060880757E+03  0.10387614448E+03 0.  0.
    9000005    2    3    3    0    0  0.36004337293E+02 -0.36542845387E+02 -0.63363640823E+02  0.82326201835E+02  0.11443805195E+02 0.  0.
         22    1    3    3    0    0 -0.36004337293E+02  0.36542845387E+02 -0.59130994475E+02  0.78282605734E+02  0.00000000000E+00 0.  1.
         22    1    4    4    0    0  0.86173031032E+01 -0.57687645320E+01 -0.69958154497E+01  0.12509116308E+02  0.00000000000E+00 0.  1.
         22    1    4    4    0    0  0.27387034190E+02 -0.30774080855E+02 -0.56367825373E+02  0.69817085527E+02  0.00000000000E+00 0.  1.
<mgrwt>
<rscale>  0 0.10387614E+03</rscale>
<asrwt>0</asrwt>
<pdfrwt beam="1">  1        2 0.29318595E-02 0.10387614E+03</pdfrwt>
<pdfrwt beam="2">  1       -2 0.21777187E-01 0.10387614E+03</pdfrwt>
<totfact> 0.51297589E+04</totfact>
</mgrwt>
</event>
<event>
 7    1  0.3891761E-009  0.9134629E+02  0.7818608E-02  0.1299624E+00
          2   -1    0    0  501    0  0.00000000000E+00  0.00000000000E+00  0.28121912119E+03  0.28121912120E+03  0.25500000000E-02 0. -1.
         -2   -1    0    0    0  501 -0.00000000000E+00 -0.00000000000E+00 -0.74178320457E+01  0.74178324840E+01  0.25500000000E-02 0.  1.
         23    2    1    2    0    0  0.00000000000E+00  0.00000000000E+00  0.27380128914E+03  0.28863695368E+03  0.91346292183E+02 0.  0.
    9000005    2    3    3    0    0  0.59197664032E+01  0.42193743419E+02  0.85893054110E+02  0.95958827237E+02  0.38889796073E+01 0.  0.
         22    1    3    3    0    0 -0.59197664032E+01 -0.42193743419E+02  0.18790823503E+03  0.19267812644E+03  0.00000000000E+00 0. -1.
         22    1    4    4    0    0  0.33197359140E+01  0.16512803257E+02  0.30334662574E+02  0.34697047013E+02  0.00000000000E+00 0.  1.
         22    1    4    4    0    0  0.26000304892E+01  0.25680940161E+02  0.55558391536E+02  0.61261780224E+02  0.00000000000E+00 0.  1.
<mgrwt>
<rscale>  0 0.91346292E+02</rscale>
<asrwt>0</asrwt>
<pdfrwt beam="1">  1        2 0.43264482E-01 0.91346292E+02</pdfrwt>
<pdfrwt beam="2">  1       -2 0.11412049E-02 0.91346292E+02</pdfrwt>
<totfact> 0.17451268E+05</totfact>
</mgrwt>
</event>
<event>
 7    1  0.3891761E-009  0.8836741E+02  0.7818608E-02  0.1306854E+00
         -2   -1    0    0    0  501 -0.00000000000E+00  0.00000000000E+00  0.49872335261E+01  0.49872341780E+01  0.25500000000E-02 0.  1.
          2   -1    0    0  501    0  0.00000000000E+00 -0.00000000000E+00 -0.39143943550E+03  0.39143943551E+03  0.25500000000E-02 0. -1.
         23    2    1    2    0    0 -0.35527136788E-14  0.00000000000E+00 -0.38645220197E+03  0.39642666968E+03  0.88367414968E+02 0.  0.
    9000005    2    3    3    0    0  0.31914692636E+02 -0.32085596321E+01 -0.32910892916E+03  0.33072207778E+03  0.59634733779E+01 0.  0.
         22    1    3    3    0    0 -0.31914692636E+02  0.32085596321E+01 -0.57343272808E+02  0.65704591904E+02  0.00000000000E+00 0.  1.
         22    1    4    4    0    0  0.26557603875E+02 -0.42820168770E+01 -0.28755049695E+03  0.28880604268E+03  0.00000000000E+00 0.  1.
         22    1    4    4    0    0  0.53570887609E+01  0.10734572449E+01 -0.41558432213E+02  0.41916035099E+02  0.00000000000E+00 0.  1.
<mgrwt>
<rscale>  0 0.88367415E+02</rscale>
<asrwt>0</asrwt>
<pdfrwt beam="2">  1        2 0.60221427E-01 0.88367415E+02</pdfrwt>
<pdfrwt beam="1">  1       -2 0.76726706E-03 0.88367415E+02</pdfrwt>
<totfact> 0.21521214E+05</totfact>
</mgrwt>
</event>
<event>
 7    1  0.3891761E-009  0.1110466E+03  0.7818608E-02  0.1258644E+00
          2   -1    0    0  501    0  0.00000000000E+00  0.00000000000E+00  0.11822084204E+03  0.11822084206E+03  0.25500000000E-02 0.  1.
         -2   -1    0    0    0  501 -0.00000000000E+00 -0.00000000000E+00 -0.26076946499E+02  0.26076946624E+02  0.25500000000E-02 0. -1.
         23    2    1    2    0    0  0.00000000000E+00  0.00000000000E+00  0.92143895537E+02  0.14429778869E+03  0.11104663136E+03 0.  0.
    9000005    2    3    3    0    0  0.30041800878E+02  0.44253438829E+02  0.61312958291E+02  0.82561062668E+02  0.14006197423E+02 0.  0.
         22    1    3    3    0    0 -0.30041800878E+02 -0.44253438829E+02  0.30830937246E+02  0.61736726020E+02  0.00000000000E+00 0.  1.
         22    1    4    4    0    0  0.12190944014E+02  0.28432606945E+02  0.40052258783E+02  0.50608454702E+02  0.00000000000E+00 0.  1.
         22    1    4    4    0    0  0.17850856864E+02  0.15820831884E+02  0.21260699508E+02  0.31952607966E+02  0.00000000000E+00 0.  1.
<mgrwt>
<rscale>  0 0.11104663E+03</rscale>
<asrwt>0</asrwt>
<pdfrwt beam="1">  1        2 0.18187822E-01 0.11104663E+03</pdfrwt>
<pdfrwt beam="2">  1       -2 0.40118380E-02 0.11104663E+03</pdfrwt>
<totfact> 0.74770910E+04</totfact>
</mgrwt>
</event>
<event>
 7    1  0.3891761E-009  0.9181460E+02  0.7818608E-02  0.1298516E+00
         -2   -1    0    0    0  501 -0.00000000000E+00  0.00000000000E+00  0.53756929675E+02  0.53756929736E+02  0.25500000000E-02 0.  1.
          2   -1    0    0  501    0  0.00000000000E+00 -0.00000000000E+00 -0.39203878748E+02  0.39203878831E+02  0.25500000000E-02 0. -1.
         23    2    1    2    0    0 -0.71054273576E-14 -0.35527136788E-14  0.14553050928E+02  0.92960808566E+02  0.91814599264E+02 0.  0.
    9000005    2    3    3    0    0 -0.32527018894E+02 -0.29261983731E+02 -0.53560966228E+01  0.44891641669E+02  0.85030036251E+01 0.  0.
         22    1    3    3    0    0  0.32527018894E+02  0.29261983731E+02  0.19909147550E+02  0.48069166898E+02  0.00000000000E+00 0.  1.
         22    1    4    4    0    0 -0.25802797289E+02 -0.20865889004E+02 -0.75602734369E+00  0.33192487843E+02  0.00000000000E+00 0.  1.
         22    1    4    4    0    0 -0.67242216052E+01 -0.83960947273E+01 -0.46000692791E+01  0.11699153826E+02  0.00000000000E+00 0.  1.
<mgrwt>
<rscale>  0 0.91814599E+02</rscale>
<asrwt>0</asrwt>
<pdfrwt beam="2">  1        2 0.60313660E-02 0.91814599E+02</pdfrwt>
<pdfrwt beam="1">  1       -2 0.82702969E-02 0.91814599E+02</pdfrwt>
<totfact> 0.92990372E+04</totfact>
</mgrwt>
</event>
<event>
 7    1  0.3891761E-009  0.9081810E+02  0.7818608E-02  0.1300883E+00
          2   -1    0    0  501    0  0.00000000000E+00  0.00000000000E+00  0.14990362057E+02  0.14990362274E+02  0.25500000000E-02 0. -1.
         -2   -1    0    0    0  501 -0.00000000000E+00 -0.00000000000E+00 -0.13755382426E+03  0.13755382429E+03  0.25500000000E-02 0.  1.
         23    2    1    2    0    0  0.00000000000E+00  0.00000000000E+00 -0.12256346221E+03  0.15254418656E+03  0.90818096136E+02 0.  0.
    9000005    2    3    3    0    0 -0.19723721284E+02  0.32849030642E+02 -0.99701921891E+02  0.10792654408E+03  0.15478426659E+02 0.  0.
         22    1    3    3    0    0  0.19723721284E+02 -0.32849030642E+02 -0.22861540314E+02  0.44617642485E+02  0.00000000000E+00 0. -1.
         22    1    4    4    0    0 -0.14330025783E+02  0.91999059102E+01 -0.43432672623E+02  0.46651741220E+02  0.00000000000E+00 0.  1.
         22    1    4    4    0    0 -0.53936955008E+01  0.23649124732E+02 -0.56269249268E+02  0.61274802855E+02  0.00000000000E+00 0.  1.
<mgrwt>
<rscale>  0 0.90818096E+02</rscale>
<asrwt>0</asrwt>
<pdfrwt beam="1">  1        2 0.23062097E-02 0.90818096E+02</pdfrwt>
<pdfrwt beam="2">  1       -2 0.21162126E-01 0.90818096E+02</pdfrwt>
<totfact> 0.72761763E+04</totfact>
</mgrwt>
</event>
<event>
 7    1  0.3891761E-009  0.9162695E+02  0.7818608E-02  0.1298959E+00
          2   -1    0    0  501    0  0.00000000000E+00  0.00000000000E+00  0.38842690435E+03  0.38842690436E+03  0.25500000000E-02 0. -1.
         -2   -1    0    0    0  501 -0.00000000000E+00 -0.00000000000E+00 -0.54035251336E+01  0.54035257353E+01  0.25500000000E-02 0.  1.
         23    2    1    2    0    0  0.00000000000E+00  0.00000000000E+00  0.38302337921E+03  0.39383043009E+03  0.91626953684E+02 0.  0.
    9000005    2    3    3    0    0 -0.18018846422E+02 -0.37052190338E+02  0.26933524883E+03  0.27290675737E+03  0.15462157620E+02 0.  0.
         22    1    3    3    0    0  0.18018846422E+02  0.37052190338E+02  0.11368813038E+03  0.12092367273E+03  0.00000000000E+00 0. -1.
         22    1    4    4    0    0 -0.17672586176E+02 -0.30464754867E+02  0.18560150914E+03  0.18891358285E+03  0.00000000000E+00 0.  1.
         22    1    4    4    0    0 -0.34626024596E+00 -0.65874354710E+01  0.83733739695E+02  0.83993174518E+02  0.00000000000E+00 0.  1.
<mgrwt>
<rscale>  0 0.91626954E+02</rscale>
<asrwt>0</asrwt>
<pdfrwt beam="1">  1        2 0.59757982E-01 0.91626954E+02</pdfrwt>
<pdfrwt beam="2">  1       -2 0.83131166E-03 0.91626954E+02</pdfrwt>
<totfact> 0.19496320E+05</totfact>
</mgrwt>
</event>
<event>
 7    1  0.3891761E-009  0.9140828E+02  0.7818608E-02  0.1299477E+00
          2   -1    0    0  501    0  0.00000000000E+00  0.00000000000E+00  0.59111380334E+02  0.59111380389E+02  0.25500000000E-02 0. -1.
         -2   -1    0    0    0  501 -0.00000000000E+00 -0.00000000000E+00 -0.35337836790E+02  0.35337836882E+02  0.25500000000E-02 0.  1.
         23    2    1    2    0    0 -0.35527136788E-14 -0.71054273576E-14  0.23773543544E+02  0.94449217271E+02  0.91408277910E+02 0.  0.
    9000005    2    3    3    0    0  0.21988031040E+02  0.34867798232E+02  0.29081132592E+02  0.52887126803E+02  0.15877627219E+02 0.  0.
         22    1    3    3    0    0 -0.21988031040E+02 -0.34867798232E+02 -0.53075890479E+01  0.41562090468E+02  0.00000000000E+00 0.  1.
         22    1    4    4    0    0  0.20254229311E+02  0.35678839042E+02  0.29939218752E+02  0.50789469183E+02  0.00000000000E+00 0. -1.
         22    1    4    4    0    0  0.17338017296E+01 -0.81104081075E+00 -0.85808616008E+00  0.20976576204E+01  0.00000000000E+00 0. -1.
<mgrwt>
<rscale>  0 0.91408278E+02</rscale>
<asrwt>0</asrwt>
<pdfrwt beam="1">  1        2 0.90940584E-02 0.91408278E+02</pdfrwt>
<pdfrwt beam="2">  1       -2 0.54365903E-02 0.91408278E+02</pdfrwt>
<totfact> 0.10489180E+05</totfact>
</mgrwt>
</event>
<event>
 7    1  0.3891761E-009  0.9053776E+02  0.7818608E-02  0.1301555E+00
         -2   -1    0    0    0  501 -0.00000000000E+00  0.00000000000E+00  0.41148534920E+01  0.41148542822E+01  0.25500000000E-02 0.  1.
          2   -1    0    0  501    0  0.00000000000E+00 -0.00000000000E+00 -0.49801801950E+03  0.49801801950E+03  0.25500000000E-02 0. -1.
         23    2    1    2    0    0 -0.35527136788E-14  0.35527136788E-14 -0.49390316600E+03  0.50213287379E+03  0.90537757574E+02 0.  0.
    9000005    2    3    3    0    0  0.28912859426E+02 -0.24094483617E+02 -0.38537183248E+03  0.38726099761E+03  0.65676034178E+01 0.  0.
         22    1    3    3    0    0 -0.28912859426E+02  0.24094483617E+02 -0.10853133352E+03  0.11487187618E+03  0.00000000000E+00 0.  1.
         22    1    4    4    0    0  0.24682984496E+02 -0.23016962062E+02 -0.34905297396E+03  0.35068077920E+03  0.00000000000E+00 0. -1.
         22    1    4    4    0    0  0.42298749300E+01 -0.10775215552E+01 -0.36318858518E+02  0.36580218407E+02  0.00000000000E+00 0. -1.
<mgrwt>
<rscale>  0 0.90537758E+02</rscale>
<asrwt>0</asrwt>
<pdfrwt beam="2">  1        2 0.76618109E-01 0.90537758E+02</pdfrwt>
<pdfrwt beam="1">  1       -2 0.63305484E-03 0.90537758E+02</pdfrwt>
<totfact> 0.21926023E+05</totfact>
</mgrwt>
</event>
<event>
 7    1  0.3891761E-009  0.8103441E+02  0.7818608E-02  0.1326141E+00
         -2   -1    0    0    0  501 -0.00000000000E+00  0.00000000000E+00  0.17405171572E+02  0.17405171759E+02  0.25500000000E-02 0. -1.
          2   -1    0    0  501    0  0.00000000000E+00 -0.00000000000E+00 -0.94319324992E+02  0.94319325026E+02  0.25500000000E-02 0.  1.
         23    2    1    2    0    0  0.71054273576E-14  0.00000000000E+00 -0.76914153419E+02  0.11172449679E+03  0.81034413589E+02 0.  0.
    9000005    2    3    3    0    0 -0.34498001417E+02  0.17744929838E+02 -0.52371160626E+02  0.65818580696E+02  0.91843596840E+01 0.  0.
         22    1    3    3    0    0  0.34498001417E+02 -0.17744929838E+02 -0.24542992793E+02  0.45905916089E+02  0.00000000000E+00 0. -1.
         22    1    4    4    0    0 -0.21135706379E+02  0.14017640417E+02 -0.28020796166E+02  0.37793879727E+02  0.00000000000E+00 0. -1.
         22    1    4    4    0    0 -0.13362295038E+02  0.37272894216E+01 -0.24350364460E+02  0.28024700970E+02  0.00000000000E+00 0. -1.
<mgrwt>
<rscale>  0 0.81034414E+02</rscale>
<asrwt>0</asrwt>
<pdfrwt beam="2">  1        2 0.14510665E-01 0.81034414E+02</pdfrwt>
<pdfrwt beam="1">  1       -2 0.26777188E-02 0.81034414E+02</pdfrwt>
<totfact> 0.16638057E+05</totfact>
</mgrwt>
</event>
<event>
 7    1  0.3891761E-009  0.9330868E+02  0.7818608E-02  0.1295031E+00
          2   -1    0    0  501    0  0.00000000000E+00  0.00000000000E+00  0.16402217188E+02  0.16402217387E+02  0.25500000000E-02 0. -1.
         -2   -1    0    0    0  501 -0.00000000000E+00 -0.00000000000E+00 -0.13270325701E+03  0.13270325703E+03  0.25500000000E-02 0.  1.
         23    2    1    2    0    0  0.00000000000E+00  0.71054273576E-14 -0.11630103982E+03  0.14910547442E+03  0.93308684690E+02 0.  0.
    9000005    2    3    3    0    0  0.24502742176E+02  0.37550442287E+02 -0.38594480151E+02  0.59390762662E+02  0.52257727989E+01 0.  0.
         22    1    3    3    0    0 -0.24502742176E+02 -0.37550442287E+02 -0.77706559669E+02  0.89714711757E+02  0.00000000000E+00 0. -1.
         22    1    4    4    0    0  0.21447745774E+02  0.35445179098E+02 -0.35266661573E+02  0.54406837241E+02  0.00000000000E+00 0. -1.
         22    1    4    4    0    0  0.30549964028E+01  0.21052631893E+01 -0.33278185780E+01  0.49839254213E+01  0.00000000000E+00 0. -1.
<mgrwt>
<rscale>  0 0.93308685E+02</rscale>
<asrwt>0</asrwt>
<pdfrwt beam="1">  1        2 0.25234181E-02 0.93308685E+02</pdfrwt>
<pdfrwt beam="2">  1       -2 0.20415885E-01 0.93308685E+02</pdfrwt>
<totfact> 0.68806441E+04</totfact>
</mgrwt>
</event>
<event>
 7    1  0.3891761E-009  0.9249547E+02  0.7818608E-02  0.1296919E+00
          2   -1    0    0  501    0  0.00000000000E+00  0.00000000000E+00  0.40962125261E+02  0.40962125341E+02  0.25500000000E-02 0. -1.
         -2   -1    0    0    0  501 -0.00000000000E+00 -0.00000000000E+00 -0.52215385391E+02  0.52215385453E+02  0.25500000000E-02 0.  1.
         23    2    1    2    0    0  0.00000000000E+00  0.00000000000E+00 -0.11253260130E+02  0.93177510794E+02  0.92495473696E+02 0.  0.
    9000005    2    3    3    0    0  0.30154715562E+02 -0.28162956471E+02 -0.26213985876E+02  0.49288078094E+02  0.62994125810E+01 0.  0.
         22    1    3    3    0    0 -0.30154715562E+02  0.28162956471E+02  0.14960725746E+02  0.43889432700E+02  0.00000000000E+00 0. -1.
         22    1    4    4    0    0  0.39241549310E+01 -0.16043559487E+01 -0.13997332126E+01  0.44645495852E+01  0.00000000000E+00 0. -1.
         22    1    4    4    0    0  0.26230560631E+02 -0.26558600523E+02 -0.24814252663E+02  0.44823528509E+02  0.00000000000E+00 0. -1.
<mgrwt>
<rscale>  0 0.92495474E+02</rscale>
<asrwt>0</asrwt>
<pdfrwt beam="1">  1        2 0.63018654E-02 0.92495474E+02</pdfrwt>
<pdfrwt beam="2">  1       -2 0.80331363E-02 0.92495474E+02</pdfrwt>
<totfact> 0.92064184E+04</totfact>
</mgrwt>
</event>
<event>
 7    1  0.3891761E-009  0.9007060E+02  0.7818608E-02  0.1302681E+00
         -2   -1    0    0    0  501 -0.00000000000E+00  0.00000000000E+00  0.43540154973E+01  0.43540162441E+01  0.25500000000E-02 0.  1.
          2   -1    0    0  501    0  0.00000000000E+00 -0.00000000000E+00 -0.46581783284E+03  0.46581783285E+03  0.25500000000E-02 0. -1.
         23    2    1    2    0    0  0.00000000000E+00  0.00000000000E+00 -0.46146381735E+03  0.47017184910E+03  0.90070599872E+02 0.  0.
    9000005    2    3    3    0    0 -0.19002544954E+02 -0.36530635120E+02 -0.32432315511E+03  0.32698265517E+03  0.60468030688E+01 0.  0.
         22    1    3    3    0    0  0.19002544954E+02  0.36530635120E+02 -0.13714066224E+03  0.14318919392E+03  0.00000000000E+00 0.  1.
         22    1    4    4    0    0 -0.33649282629E+01 -0.31692022588E+01 -0.28232835585E+02  0.28608732764E+02  0.00000000000E+00 0. -1.
         22    1    4    4    0    0 -0.15637616691E+02 -0.33361432861E+02 -0.29609031952E+03  0.29837392241E+03  0.00000000000E+00 0. -1.
<mgrwt>
<rscale>  0 0.90070600E+02</rscale>
<asrwt>0</asrwt>
<pdfrwt beam="2">  1        2 0.71664243E-01 0.90070600E+02</pdfrwt>
<pdfrwt beam="1">  1       -2 0.66984896E-03 0.90070600E+02</pdfrwt>
<totfact> 0.21741052E+05</totfact>
</mgrwt>
</event>
<event>
 7    1  0.3891761E-009  0.9178173E+02  0.7818608E-02  0.1298593E+00
         -2   -1    0    0    0  501 -0.00000000000E+00  0.00000000000E+00  0.42530204321E+02  0.42530204397E+02  0.25500000000E-02 0.  1.
          2   -1    0    0  501    0  0.00000000000E+00 -0.00000000000E+00 -0.49517076108E+02  0.49517076174E+02  0.25500000000E-02 0. -1.
         23    2    1    2    0    0  0.00000000000E+00  0.00000000000E+00 -0.69868717875E+01  0.92047280571E+02  0.91781727393E+02 0.  0.
    9000005    2    3    3    0    0  0.40813274449E+02  0.26973718924E+00  0.15756786512E+02  0.45323944621E+02  0.11840080466E+02 0.  0.
         22    1    3    3    0    0 -0.40813274449E+02 -0.26973718924E+00 -0.22743658300E+02  0.46723335950E+02  0.00000000000E+00 0. -1.
         22    1    4    4    0    0  0.19384049107E+02  0.44867741454E+01  0.32619967877E+01  0.20162170644E+02  0.00000000000E+00 0.  1.
         22    1    4    4    0    0  0.21429225342E+02 -0.42170369561E+01  0.12494789725E+02  0.25161773978E+02  0.00000000000E+00 0.  1.
<mgrwt>
<rscale>  0 0.91781727E+02</rscale>
<asrwt>0</asrwt>
<pdfrwt beam="2">  1        2 0.76180117E-02 0.91781727E+02</pdfrwt>
<pdfrwt beam="1">  1       -2 0.65431084E-02 0.91781727E+02</pdfrwt>
<totfact> 0.98933178E+04</totfact>
</mgrwt>
</event>
<event>
 7    1  0.3891761E-009  0.9108769E+02  0.7818608E-02  0.1300239E+00
         -2   -1    0    0    0  501 -0.00000000000E+00  0.00000000000E+00  0.38435538921E+01  0.38435547380E+01  0.25500000000E-02 0.  1.
          2   -1    0    0  501    0  0.00000000000E+00 -0.00000000000E+00 -0.53966764960E+03  0.53966764960E+03  0.25500000000E-02 0. -1.
         23    2    1    2    0    0  0.00000000000E+00  0.00000000000E+00 -0.53582409571E+03  0.54351120434E+03  0.91087692397E+02 0.  0.
    9000005    2    3    3    0    0 -0.95393792949E+01 -0.44418540361E+02 -0.28538804220E+03  0.28898768209E+03  0.18812981090E+01 0.  0.
         22    1    3    3    0    0  0.95393792949E+01  0.44418540361E+02 -0.25043605351E+03  0.25452352226E+03  0.00000000000E+00 0. -1.
         22    1    4    4    0    0 -0.32445107927E+01 -0.13406064488E+02 -0.91719025256E+02  0.92750358540E+02  0.00000000000E+00 0. -1.
         22    1    4    4    0    0 -0.62948685022E+01 -0.31012475873E+02 -0.19366901694E+03  0.19623732355E+03  0.00000000000E+00 0. -1.
<mgrwt>
<rscale>  0 0.91087692E+02</rscale>
<asrwt>0</asrwt>
<pdfrwt beam="2">  1        2 0.83025733E-01 0.91087692E+02</pdfrwt>
<pdfrwt beam="1">  1       -2 0.59131647E-03 0.91087692E+02</pdfrwt>
<totfact> 0.22135334E+05</totfact>
</mgrwt>
</event>
<event>
 7    1  0.3891761E-009  0.8367006E+02  0.7818608E-02  0.1318948E+00
         -2   -1    0    0    0  501 -0.00000000000E+00  0.00000000000E+00  0.25480775731E+01  0.25480788491E+01  0.25500000000E-02 0. -1.
          2   -1    0    0  501    0  0.00000000000E+00 -0.00000000000E+00 -0.68685875342E+03  0.68685875343E+03  0.25500000000E-02 0.  1.
         23    2    1    2    0    0  0.00000000000E+00  0.00000000000E+00 -0.68431067585E+03  0.68940683228E+03  0.83670062196E+02 0.  0.
    9000005    2    3    3    0    0 -0.18247638923E+01 -0.36583545971E+02 -0.49611541344E+03  0.49768009342E+03  0.14604325894E+02 0.  0.
         22    1    3    3    0    0  0.18247638923E+01  0.36583545971E+02 -0.18819526241E+03  0.19172673885E+03  0.00000000000E+00 0. -1.
         22    1    4    4    0    0  0.91426605025E+00 -0.89433470469E+01 -0.58775584170E+02  0.59459134146E+02  0.00000000000E+00 0. -1.
         22    1    4    4    0    0 -0.27390299426E+01 -0.27640198924E+02 -0.43733982927E+03  0.43822095928E+03  0.00000000000E+00 0. -1.
<mgrwt>
<rscale>  0 0.83670062E+02</rscale>
<asrwt>0</asrwt>
<pdfrwt beam="2">  1        2 0.10567043E+00 0.83670062E+02</pdfrwt>
<pdfrwt beam="1">  1       -2 0.39201258E-03 0.83670062E+02</pdfrwt>
<totfact> 0.29584041E+05</totfact>
</mgrwt>
</event>
<event>
 7    1  0.3891761E-009  0.9029681E+02  0.7818608E-02  0.1302135E+00
         -2   -1    0    0    0  501 -0.00000000000E+00  0.00000000000E+00  0.24339176374E+01  0.24339189732E+01  0.25500000000E-02 0.  1.
          2   -1    0    0  501    0  0.00000000000E+00 -0.00000000000E+00 -0.83748847420E+03  0.83748847420E+03  0.25500000000E-02 0. -1.
         23    2    1    2    0    0  0.00000000000E+00  0.35527136788E-14 -0.83505455656E+03  0.83992239318E+03  0.90296811264E+02 0.  0.
    9000005    2    3    3    0    0  0.49813693569E+01 -0.29050230398E+02 -0.73496052788E+03  0.73557899614E+03  0.63837369472E+01 0.  0.
         22    1    3    3    0    0 -0.49813693569E+01  0.29050230398E+02 -0.10009402869E+03  0.10434339704E+03  0.00000000000E+00 0.  1.
         22    1    4    4    0    0  0.52849789922E+01 -0.12946316096E+02 -0.31715977098E+03  0.31746788567E+03  0.00000000000E+00 0. -1.
         22    1    4    4    0    0 -0.30360963533E+00 -0.16103914302E+02 -0.41780075690E+03  0.41811111047E+03  0.00000000000E+00 0. -1.
<mgrwt>
<rscale>  0 0.90296811E+02</rscale>
<asrwt>0</asrwt>
<pdfrwt beam="2">  1        2 0.12884415E+00 0.90296811E+02</pdfrwt>
<pdfrwt beam="1">  1       -2 0.37444964E-03 0.90296811E+02</pdfrwt>
<totfact> 0.25193258E+05</totfact>
</mgrwt>
</event>
<event>
 7    1  0.4258761E-009  0.9649690E+02  0.7818608E-02  0.1287840E+00
         -2   -1    0    0    0  501 -0.00000000000E+00  0.00000000000E+00  0.25892770028E+02  0.25892770154E+02  0.25500000000E-02 0.  1.
          2   -1    0    0  501    0  0.00000000000E+00 -0.00000000000E+00 -0.89905901830E+02  0.89905901866E+02  0.25500000000E-02 0. -1.
         23    2    1    2    0    0  0.00000000000E+00  0.00000000000E+00 -0.64013131802E+02  0.11579867202E+03  0.96496898388E+02 0.  0.
    9000005    2    3    3    0    0 -0.23660211387E+02  0.40134438614E+02 -0.24335051443E+02  0.54602848415E+02  0.14788426577E+02 0.  0.
         22    1    3    3    0    0  0.23660211387E+02 -0.40134438614E+02 -0.39678080359E+02  0.61195823605E+02  0.00000000000E+00 0.  1.
         22    1    4    4    0    0 -0.85394127188E+00  0.10623058016E+02 -0.10096795563E+02  0.14680730838E+02  0.00000000000E+00 0.  1.
         22    1    4    4    0    0 -0.22806270115E+02  0.29511380598E+02 -0.14238255880E+02  0.39922117577E+02  0.00000000000E+00 0.  1.
<mgrwt>
<rscale>  0 0.96496898E+02</rscale>
<asrwt>0</asrwt>
<pdfrwt beam="2">  1        2 0.13831677E-01 0.96496898E+02</pdfrwt>
<pdfrwt beam="1">  1       -2 0.39835032E-02 0.96496898E+02</pdfrwt>
<totfact> 0.10149502E+05</totfact>
</mgrwt>
</event>
<event>
 7    1  0.3891761E-009  0.9162386E+02  0.7818608E-02  0.1298966E+00
         -2   -1    0    0    0  501 -0.00000000000E+00  0.00000000000E+00  0.15446093128E+02  0.15446093338E+02  0.25500000000E-02 0.  1.
          2   -1    0    0  501    0  0.00000000000E+00 -0.00000000000E+00 -0.13587467952E+03  0.13587467954E+03  0.25500000000E-02 0. -1.
         23    2    1    2    0    0  0.00000000000E+00 -0.44408920985E-15 -0.12042858639E+03  0.15132077288E+03  0.91623860895E+02 0.  0.
    9000005    2    3    3    0    0 -0.22279693178E+02 -0.24468431895E+01  0.30315730171E+01  0.25842556721E+02  0.12501021288E+02 0.  0.
         22    1    3    3    0    0  0.22279693178E+02  0.24468431895E+01 -0.12346015941E+03  0.12547821616E+03  0.00000000000E+00 0. -1.
         22    1    4    4    0    0 -0.79297766911E+01  0.92579775447E-01  0.71725315521E+01  0.10692761021E+02  0.00000000000E+00 0.  1.
         22    1    4    4    0    0 -0.14349916487E+02 -0.25394229649E+01 -0.41409585350E+01  0.15149795700E+02  0.00000000000E+00 0.  1.
<mgrwt>
<rscale>  0 0.91623861E+02</rscale>
<asrwt>0</asrwt>
<pdfrwt beam="2">  1        2 0.20903796E-01 0.91623861E+02</pdfrwt>
<pdfrwt beam="1">  1       -2 0.23763221E-02 0.91623861E+02</pdfrwt>
<totfact> 0.13344793E+05</totfact>
</mgrwt>
</event>
<event>
 7    1  0.3891761E-009  0.9216252E+02  0.7818608E-02  0.1297698E+00
          2   -1    0    0  501    0  0.00000000000E+00  0.00000000000E+00  0.78124194503E+03  0.78124194503E+03  0.25500000000E-02 0.  1.
         -2   -1    0    0    0  501 -0.00000000000E+00 -0.00000000000E+00 -0.27180850464E+01  0.27180862426E+01  0.25500000000E-02 0. -1.
         23    2    1    2    0    0  0.35527136788E-14  0.17763568394E-14  0.77852385998E+03  0.78396003127E+03  0.92162519907E+02 0.  0.
    9000005    2    3    3    0    0 -0.16967247442E+02  0.15464476659E+02  0.72802949973E+03  0.72849186075E+03  0.12099635437E+02 0.  0.
         22    1    3    3    0    0  0.16967247442E+02 -0.15464476659E+02  0.50494360247E+02  0.55468170520E+02  0.00000000000E+00 0. -1.
         22    1    4    4    0    0 -0.12812829017E+02  0.17064620990E+02  0.56883898426E+03  0.56923910608E+03  0.00000000000E+00 0.  1.
         22    1    4    4    0    0 -0.41544184249E+01 -0.16001443302E+01  0.15919051547E+03  0.15925275467E+03  0.00000000000E+00 0.  1.
<mgrwt>
<rscale>  0 0.92162520E+02</rscale>
<asrwt>0</asrwt>
<pdfrwt beam="1">  1        2 0.12019112E+00 0.92162520E+02</pdfrwt>
<pdfrwt beam="2">  1       -2 0.41816685E-03 0.92162520E+02</pdfrwt>
<totfact> 0.23590717E+05</totfact>
</mgrwt>
</event>
<event>
 7    1  0.3891761E-009  0.9139361E+02  0.7818608E-02  0.1299512E+00
         -2   -1    0    0    0  501 -0.00000000000E+00  0.00000000000E+00  0.45278456026E+01  0.45278463206E+01  0.25500000000E-02 0.  1.
          2   -1    0    0  501    0  0.00000000000E+00 -0.00000000000E+00 -0.46119014679E+03  0.46119014680E+03  0.25500000000E-02 0. -1.
         23    2    1    2    0    0 -0.17763568394E-14  0.00000000000E+00 -0.45666230119E+03  0.46571799312E+03  0.91393609119E+02 0.  0.
    9000005    2    3    3    0    0  0.13614999573E+02 -0.11357764946E+02 -0.44277023699E+03  0.44319341797E+03  0.77817689899E+01 0.  0.
         22    1    3    3    0    0 -0.13614999573E+02  0.11357764946E+02 -0.13892064196E+02  0.22524575148E+02  0.00000000000E+00 0.  1.
         22    1    4    4    0    0  0.75442726555E+01 -0.20097418508E+01 -0.22865903001E+03  0.22879227941E+03  0.00000000000E+00 0.  1.
         22    1    4    4    0    0  0.60707269178E+01 -0.93480230953E+01 -0.21411120698E+03  0.21440113856E+03  0.00000000000E+00 0.  1.
<mgrwt>
<rscale>  0 0.91393609E+02</rscale>
<asrwt>0</asrwt>
<pdfrwt beam="2">  1        2 0.70952293E-01 0.91393609E+02</pdfrwt>
<pdfrwt beam="1">  1       -2 0.69659205E-03 0.91393609E+02</pdfrwt>
<totfact> 0.20847287E+05</totfact>
</mgrwt>
</event>
<event>
 7    1  0.3891761E-009  0.9427560E+02  0.7818608E-02  0.1292816E+00
         -2   -1    0    0    0  501 -0.00000000000E+00  0.00000000000E+00  0.59655030623E+03  0.59655030623E+03  0.25500000000E-02 0.  1.
          2   -1    0    0  501    0  0.00000000000E+00 -0.00000000000E+00 -0.37247014624E+01  0.37247023352E+01  0.25500000000E-02 0. -1.
         23    2    1    2    0    0  0.00000000000E+00  0.71054273576E-14  0.59282560477E+03  0.60027500857E+03  0.94275597301E+02 0.  0.
    9000005    2    3    3    0    0 -0.16879568702E+02 -0.42110882940E+02  0.35416713142E+03  0.35734268631E+03  0.14184222733E+02 0.  0.
         22    1    3    3    0    0  0.16879568702E+02  0.42110882940E+02  0.23865847334E+03  0.24293232226E+03  0.00000000000E+00 0. -1.
         22    1    4    4    0    0 -0.65495099342E+00 -0.80547799949E+01  0.33343627914E+02  0.34308977893E+02  0.00000000000E+00 0.  1.
         22    1    4    4    0    0 -0.16224617709E+02 -0.34056102946E+02  0.32082350351E+03  0.32303370841E+03  0.00000000000E+00 0.  1.
<mgrwt>
<rscale>  0 0.94275597E+02</rscale>
<asrwt>0</asrwt>
<pdfrwt beam="2">  1        2 0.57303144E-03 0.94275597E+02</pdfrwt>
<pdfrwt beam="1">  1       -2 0.91776909E-01 0.94275597E+02</pdfrwt>
<totfact> 0.28806242E+04</totfact>
</mgrwt>
</event>
<event>
 7    1  0.3891761E-009  0.8998804E+02  0.7818608E-02  0.1302881E+00
          2   -1    0    0  501    0  0.00000000000E+00  0.00000000000E+00  0.31067071067E+03  0.31067071068E+03  0.25500000000E-02 0. -1.
         -2   -1    0    0    0  501 -0.00000000000E+00 -0.00000000000E+00 -0.65164236648E+01  0.65164241637E+01  0.25500000000E-02 0.  1.
         23    2    1    2    0    0  0.00000000000E+00  0.71054273576E-14  0.30415428701E+03  0.31718713485E+03  0.89988044801E+02 0.  0.
    9000005    2    3    3    0    0  0.17092336519E+02 -0.36651963572E+02  0.95738000098E+02  0.10488343010E+03  0.14115765822E+02 0.  0.
         22    1    3    3    0    0 -0.17092336519E+02  0.36651963572E+02  0.20841628691E+03  0.21230370475E+03  0.00000000000E+00 0. -1.
         22    1    4    4    0    0  0.89982253536E+01 -0.53586817764E+01  0.21570379948E+02  0.23978424072E+02  0.00000000000E+00 0. -1.
         22    1    4    4    0    0  0.80941111650E+01 -0.31293281795E+02  0.74167620150E+02  0.80905006024E+02  0.00000000000E+00 0. -1.
<mgrwt>
<rscale>  0 0.89988045E+02</rscale>
<asrwt>0</asrwt>
<pdfrwt beam="1">  1        2 0.47795493E-01 0.89988045E+02</pdfrwt>
<pdfrwt beam="2">  1       -2 0.10025268E-02 0.89988045E+02</pdfrwt>
<totfact> 0.18848518E+05</totfact>
</mgrwt>
</event>
<event>
 7    1  0.3891761E-009  0.8770336E+02  0.7818608E-02  0.1308511E+00
          2   -1    0    0  501    0  0.00000000000E+00  0.00000000000E+00  0.49793858726E+03  0.49793858726E+03  0.25500000000E-02 0.  1.
         -2   -1    0    0    0  501 -0.00000000000E+00 -0.00000000000E+00 -0.38618614680E+01  0.38618623099E+01  0.25500000000E-02 0. -1.
         23    2    1    2    0    0  0.00000000000E+00  0.00000000000E+00  0.49407672579E+03  0.50180044957E+03  0.87703364962E+02 0.  0.
    9000005    2    3    3    0    0 -0.29816584672E+02 -0.52949921158E+01  0.42738339838E+03  0.42855384157E+03  0.92065330797E+01 0.  0.
         22    1    3    3    0    0  0.29816584672E+02  0.52949921158E+01  0.66693327409E+02  0.73246608003E+02  0.00000000000E+00 0. -1.
         22    1    4    4    0    0 -0.15361007502E+02 -0.65702512646E+01  0.19308358521E+03  0.19380505574E+03  0.00000000000E+00 0. -1.
         22    1    4    4    0    0 -0.14455577170E+02  0.12752591488E+01  0.23429981317E+03  0.23474878583E+03  0.00000000000E+00 0. -1.
<mgrwt>
<rscale>  0 0.87703365E+02</rscale>
<asrwt>0</asrwt>
<pdfrwt beam="1">  1        2 0.76605868E-01 0.87703365E+02</pdfrwt>
<pdfrwt beam="2">  1       -2 0.59413313E-03 0.87703365E+02</pdfrwt>
<totfact> 0.23844962E+05</totfact>
</mgrwt>
</event>
<event>
 7    1  0.3891761E-009  0.9200337E+02  0.7818608E-02  0.1298072E+00
          2   -1    0    0  501    0  0.00000000000E+00  0.00000000000E+00  0.15536085067E+03  0.15536085069E+03  0.25500000000E-02 0. -1.
         -2   -1    0    0    0  501 -0.00000000000E+00 -0.00000000000E+00 -0.13620902411E+02  0.13620902650E+02  0.25500000000E-02 0.  1.
         23    2    1    2    0    0  0.00000000000E+00  0.00000000000E+00  0.14173994826E+03  0.16898175334E+03  0.92003369666E+02 0.  0.
    9000005    2    3    3    0    0 -0.23375327709E+02  0.35538461313E+02  0.43721744447E+02  0.62131594443E+02  0.11804910526E+02 0.  0.
         22    1    3    3    0    0  0.23375327709E+02 -0.35538461313E+02  0.98018203813E+02  0.10685015890E+03  0.00000000000E+00 0. -1.
         22    1    4    4    0    0 -0.12028197411E+02  0.22638653781E+02  0.33346318373E+02  0.42061420887E+02  0.00000000000E+00 0. -1.
         22    1    4    4    0    0 -0.11347130298E+02  0.12899807532E+02  0.10375426074E+02  0.20070173556E+02  0.00000000000E+00 0. -1.
<mgrwt>
<rscale>  0 0.92003370E+02</rscale>
<asrwt>0</asrwt>
<pdfrwt beam="1">  1        2 0.23901668E-01 0.92003370E+02</pdfrwt>
<pdfrwt beam="2">  1       -2 0.20955236E-02 0.92003370E+02</pdfrwt>
<totfact> 0.13807173E+05</totfact>
</mgrwt>
</event>
<event>
 7    1  0.3891761E-009  0.9296390E+02  0.7818608E-02  0.1295829E+00
         -2   -1    0    0    0  501 -0.00000000000E+00  0.00000000000E+00  0.89473595156E+02  0.89473595192E+02  0.25500000000E-02 0.  1.
          2   -1    0    0  501    0  0.00000000000E+00 -0.00000000000E+00 -0.24147591575E+02  0.24147591710E+02  0.25500000000E-02 0. -1.
         23    2    1    2    0    0  0.00000000000E+00  0.44408920985E-15  0.65326003581E+02  0.11362118690E+03  0.92963903583E+02 0.  0.
    9000005    2    3    3    0    0  0.28067615719E+02 -0.21930520554E+01  0.77494530356E+02  0.82950784666E+02  0.91010940055E+01 0.  0.
         22    1    3    3    0    0 -0.28067615719E+02  0.21930520554E+01 -0.12168526775E+02  0.30670402237E+02  0.00000000000E+00 0. -1.
         22    1    4    4    0    0  0.84470091133E+01 -0.46196038497E+01  0.21143234053E+02  0.23232069407E+02  0.00000000000E+00 0.  1.
         22    1    4    4    0    0  0.19620606606E+02  0.24265517943E+01  0.56351296302E+02  0.59718715259E+02  0.00000000000E+00 0.  1.
<mgrwt>
<rscale>  0 0.92963904E+02</rscale>
<asrwt>0</asrwt>
<pdfrwt beam="2">  1        2 0.37150140E-02 0.92963904E+02</pdfrwt>
<pdfrwt beam="1">  1       -2 0.13765169E-01 0.92963904E+02</pdfrwt>
<totfact> 0.78575865E+04</totfact>
</mgrwt>
</event>
<event>
 7    1  0.3891761E-009  0.9297432E+02  0.7818608E-02  0.1295805E+00
         -2   -1    0    0    0  501 -0.00000000000E+00  0.00000000000E+00  0.16604102764E+02  0.16604102959E+02  0.25500000000E-02 0.  1.
          2   -1    0    0  501    0  0.00000000000E+00 -0.00000000000E+00 -0.13015191863E+03  0.13015191866E+03  0.25500000000E-02 0. -1.
         23    2    1    2    0    0  0.71054273576E-14  0.00000000000E+00 -0.11354781587E+03  0.14675602162E+03  0.92974315767E+02 0.  0.
    9000005    2    3    3    0    0 -0.44207578497E+02 -0.10832434111E+02 -0.52218197770E+02  0.70382114545E+02  0.12459945592E+02 0.  0.
         22    1    3    3    0    0  0.44207578497E+02  0.10832434111E+02 -0.61329618099E+02  0.76373907073E+02  0.00000000000E+00 0.  1.
         22    1    4    4    0    0 -0.39610993169E+02 -0.12447898570E+02 -0.41986158959E+02  0.59049288757E+02  0.00000000000E+00 0.  1.
         22    1    4    4    0    0 -0.45965853280E+01  0.16154644591E+01 -0.10232038812E+02  0.11332825788E+02  0.00000000000E+00 0.  1.
<mgrwt>
<rscale>  0 0.92974316E+02</rscale>
<asrwt>0</asrwt>
<pdfrwt beam="2">  1        2 0.20023371E-01 0.92974316E+02</pdfrwt>
<pdfrwt beam="1">  1       -2 0.25544774E-02 0.92974316E+02</pdfrwt>
<totfact> 0.12640597E+05</totfact>
</mgrwt>
</event>
<event>
 7    1  0.3891761E-009  0.9159097E+02  0.7818608E-02  0.1299044E+00
         -2   -1    0    0    0  501 -0.00000000000E+00  0.00000000000E+00  0.18782499102E+03  0.18782499103E+03  0.25500000000E-02 0.  1.
          2   -1    0    0  501    0  0.00000000000E+00 -0.00000000000E+00 -0.11165854381E+02  0.11165854672E+02  0.25500000000E-02 0. -1.
         23    2    1    2    0    0  0.00000000000E+00  0.00000000000E+00  0.17665913664E+03  0.19899084571E+03  0.91590971815E+02 0.  0.
    9000005    2    3    3    0    0 -0.15866630579E+02 -0.27511995698E+02  0.20003927096E+02  0.39148690599E+02  0.11126679790E+02 0.  0.
         22    1    3    3    0    0  0.15866630579E+02  0.27511995698E+02  0.15665520954E+03  0.15984215511E+03  0.00000000000E+00 0.  1.
         22    1    4    4    0    0  0.10956212025E+01 -0.63327959325E+01  0.49966309411E+01  0.81407008853E+01  0.00000000000E+00 0. -1.
         22    1    4    4    0    0 -0.16962251782E+02 -0.21179199766E+02  0.15007296155E+02  0.31007989714E+02  0.00000000000E+00 0. -1.
<mgrwt>
<rscale>  0 0.91590972E+02</rscale>
<asrwt>0</asrwt>
<pdfrwt beam="2">  1        2 0.17178237E-02 0.91590972E+02</pdfrwt>
<pdfrwt beam="1">  1       -2 0.28896153E-01 0.91590972E+02</pdfrwt>
<totfact> 0.63267967E+04</totfact>
</mgrwt>
</event>
<event>
 7    1  0.3891761E-009  0.9051947E+02  0.7818608E-02  0.1301599E+00
          2   -1    0    0  501    0  0.00000000000E+00  0.00000000000E+00  0.73826722291E+02  0.73826722335E+02  0.25500000000E-02 0.  1.
         -2   -1    0    0    0  501 -0.00000000000E+00 -0.00000000000E+00 -0.27746644265E+02  0.27746644382E+02  0.25500000000E-02 0. -1.
         23    2    1    2    0    0  0.35527136788E-14  0.00000000000E+00  0.46080078026E+02  0.10157336672E+03  0.90519474344E+02 0.  0.
    9000005    2    3    3    0    0 -0.24081399831E+02 -0.21974447697E+02 -0.12111675599E+02  0.34872014712E+02  0.25640894798E+01 0.  0.
         22    1    3    3    0    0  0.24081399831E+02  0.21974447697E+02  0.58191753625E+02  0.66701352006E+02  0.00000000000E+00 0.  1.
         22    1    4    4    0    0 -0.10623200014E+02 -0.11427487069E+02 -0.57737117226E+01  0.16636573755E+02  0.00000000000E+00 0.  1.
         22    1    4    4    0    0 -0.13458199817E+02 -0.10546960628E+02 -0.63379638764E+01  0.18235440957E+02  0.00000000000E+00 0.  1.
<mgrwt>
<rscale>  0 0.90519474E+02</rscale>
<asrwt>0</asrwt>
<pdfrwt beam="1">  1        2 0.11357957E-01 0.90519474E+02</pdfrwt>
<pdfrwt beam="2">  1       -2 0.42687145E-02 0.90519474E+02</pdfrwt>
<totfact> 0.11456028E+05</totfact>
</mgrwt>
</event>
<event>
 7    1  0.3891761E-009  0.9799720E+02  0.7818608E-02  0.1284565E+00
         -2   -1    0    0    0  501 -0.00000000000E+00  0.00000000000E+00  0.74767437181E+02  0.74767437225E+02  0.25500000000E-02 0.  1.
          2   -1    0    0  501    0  0.00000000000E+00 -0.00000000000E+00 -0.32111077238E+02  0.32111077340E+02  0.25500000000E-02 0. -1.
         23    2    1    2    0    0  0.00000000000E+00  0.00000000000E+00  0.42656359943E+02  0.10687851456E+03  0.97997203184E+02 0.  0.
    9000005    2    3    3    0    0  0.12553953691E+02  0.18725887453E+02  0.68531405248E+02  0.72559735685E+02  0.77524914191E+01 0.  0.
         22    1    3    3    0    0 -0.12553953691E+02 -0.18725887453E+02 -0.25875045305E+02  0.34318778879E+02  0.00000000000E+00 0. -1.
         22    1    4    4    0    0 -0.19042249748E+00  0.52184290144E+01  0.17019387349E+02  0.17802466341E+02  0.00000000000E+00 0. -1.
         22    1    4    4    0    0  0.12744376189E+02  0.13507458439E+02  0.51512017899E+02  0.54757269344E+02  0.00000000000E+00 0. -1.
<mgrwt>
<rscale>  0 0.97997203E+02</rscale>
<asrwt>0</asrwt>
<pdfrwt beam="2">  1        2 0.49401658E-02 0.97997203E+02</pdfrwt>
<pdfrwt beam="1">  1       -2 0.11502683E-01 0.97997203E+02</pdfrwt>
<totfact> 0.72662286E+04</totfact>
</mgrwt>
</event>
<event>
 7    1  0.3891761E-009  0.8859432E+02  0.7818608E-02  0.1306292E+00
          2   -1    0    0  501    0  0.00000000000E+00  0.00000000000E+00  0.38442484724E+02  0.38442484808E+02  0.25500000000E-02 0. -1.
         -2   -1    0    0    0  501 -0.00000000000E+00 -0.00000000000E+00 -0.51043480122E+02  0.51043480186E+02  0.25500000000E-02 0.  1.
         23    2    1    2    0    0  0.00000000000E+00  0.35527136788E-14 -0.12600995399E+02  0.89485964994E+02  0.88594316104E+02 0.  0.
    9000005    2    3    3    0    0  0.17993343097E+02 -0.21924813232E+02 -0.40562303581E+02  0.49657676225E+02  0.40157820143E+01 0.  0.
         22    1    3    3    0    0 -0.17993343097E+02  0.21924813232E+02  0.27961308182E+02  0.39828288770E+02  0.00000000000E+00 0. -1.
         22    1    4    4    0    0  0.64285701666E+01 -0.51959694668E+01 -0.10516284617E+02  0.13375980534E+02  0.00000000000E+00 0.  1.
         22    1    4    4    0    0  0.11564772930E+02 -0.16728843765E+02 -0.30046018964E+02  0.36281695691E+02  0.00000000000E+00 0.  1.
<mgrwt>
<rscale>  0 0.88594316E+02</rscale>
<asrwt>0</asrwt>
<pdfrwt beam="1">  1        2 0.59142284E-02 0.88594316E+02</pdfrwt>
<pdfrwt beam="2">  1       -2 0.78528431E-02 0.88594316E+02</pdfrwt>
<totfact> 0.10259842E+05</totfact>
</mgrwt>
</event>
<event>
 7    1  0.3891761E-009  0.9291561E+02  0.7818608E-02  0.1295941E+00
         -2   -1    0    0    0  501 -0.00000000000E+00  0.00000000000E+00  0.42346152575E+02  0.42346152652E+02  0.25500000000E-02 0. -1.
          2   -1    0    0  501    0  0.00000000000E+00 -0.00000000000E+00 -0.50968678673E+02  0.50968678737E+02  0.25500000000E-02 0.  1.
         23    2    1    2    0    0  0.00000000000E+00  0.35527136788E-14 -0.86225260978E+01  0.93314831389E+02  0.92915605798E+02 0.  0.
    9000005    2    3    3    0    0  0.24723695870E+02 -0.28396014748E+02  0.22418379254E+02  0.44517981121E+02  0.78531601117E+01 0.  0.
         22    1    3    3    0    0 -0.24723695870E+02  0.28396014748E+02 -0.31040905351E+02  0.48796850268E+02  0.00000000000E+00 0.  1.
         22    1    4    4    0    0  0.14856197067E+02 -0.18866739281E+02  0.18311062101E+02  0.30198599929E+02  0.00000000000E+00 0.  1.
         22    1    4    4    0    0  0.98674988027E+01 -0.95292754667E+01  0.41073171525E+01  0.14319381192E+02  0.00000000000E+00 0.  1.
<mgrwt>
<rscale>  0 0.92915606E+02</rscale>
<asrwt>0</asrwt>
<pdfrwt beam="2">  1        2 0.78413352E-02 0.92915606E+02</pdfrwt>
<pdfrwt beam="1">  1       -2 0.65147927E-02 0.92915606E+02</pdfrwt>
<totfact> 0.96249239E+04</totfact>
</mgrwt>
</event>
<event>
 7    1  0.3891761E-009  0.9222259E+02  0.7818608E-02  0.1297557E+00
         -2   -1    0    0    0  501 -0.00000000000E+00  0.00000000000E+00  0.30459653203E+01  0.30459663876E+01  0.25500000000E-02 0.  1.
          2   -1    0    0  501    0  0.00000000000E+00 -0.00000000000E+00 -0.69805499892E+03  0.69805499893E+03  0.25500000000E-02 0. -1.
         23    2    1    2    0    0  0.00000000000E+00  0.00000000000E+00 -0.69500903360E+03  0.70110096531E+03  0.92222593634E+02 0.  0.
    9000005    2    3    3    0    0 -0.27556450629E+02  0.23537611222E+02 -0.56351885080E+03  0.56470798424E+03  0.53136751341E+01 0.  0.
         22    1    3    3    0    0  0.27556450629E+02 -0.23537611222E+02 -0.13149018280E+03  0.13639298107E+03  0.00000000000E+00 0.  1.
         22    1    4    4    0    0 -0.22178533466E+02  0.20642701987E+02 -0.44342533944E+03  0.44445926715E+03  0.00000000000E+00 0. -1.
         22    1    4    4    0    0 -0.53779171631E+01  0.28949092349E+01 -0.12009351136E+03  0.12024871709E+03  0.00000000000E+00 0. -1.
<mgrwt>
<rscale>  0 0.92222594E+02</rscale>
<asrwt>0</asrwt>
<pdfrwt beam="2">  1        2 0.10739295E+00 0.92222594E+02</pdfrwt>
<pdfrwt beam="1">  1       -2 0.46861069E-03 0.92222594E+02</pdfrwt>
<totfact> 0.22996044E+05</totfact>
</mgrwt>
</event>
<event>
 7    1  0.3891761E-009  0.1011644E+03  0.7818608E-02  0.1277866E+00
         -2   -1    0    0    0  501 -0.00000000000E+00  0.00000000000E+00  0.16086371762E+02  0.16086371964E+02  0.25500000000E-02 0.  1.
          2   -1    0    0  501    0  0.00000000000E+00 -0.00000000000E+00 -0.15905129202E+03  0.15905129204E+03  0.25500000000E-02 0. -1.
         23    2    1    2    0    0  0.00000000000E+00 -0.35527136788E-14 -0.14296492026E+03  0.17513766400E+03  0.10116438567E+03 0.  0.
    9000005    2    3    3    0    0 -0.33773176905E+02  0.30587780793E+02 -0.10612393168E+03  0.11654160397E+03  0.15601819391E+02 0.  0.
         22    1    3    3    0    0  0.33773176905E+02 -0.30587780793E+02 -0.36840988574E+02  0.58596060032E+02  0.00000000000E+00 0.  1.
         22    1    4    4    0    0 -0.23736378435E+02  0.15663953663E+02 -0.49017040811E+02  0.56669616157E+02  0.00000000000E+00 0. -1.
         22    1    4    4    0    0 -0.10036798470E+02  0.14923827130E+02 -0.57106890874E+02  0.59871987816E+02  0.00000000000E+00 0. -1.
<mgrwt>
<rscale>  0 0.10116439E+03</rscale>
<asrwt>0</asrwt>
<pdfrwt beam="2">  1        2 0.24469428E-01 0.10116439E+03</pdfrwt>
<pdfrwt beam="1">  1       -2 0.24748266E-02 0.10116439E+03</pdfrwt>
<totfact> 0.10741068E+05</totfact>
</mgrwt>
</event>
<event>
 7    1  0.3891761E-009  0.9306774E+02  0.7818608E-02  0.1295588E+00
          2   -1    0    0  501    0  0.00000000000E+00  0.00000000000E+00  0.12689091351E+02  0.12689091607E+02  0.25500000000E-02 0.  1.
         -2   -1    0    0    0  501 -0.00000000000E+00 -0.00000000000E+00 -0.17065058418E+03  0.17065058419E+03  0.25500000000E-02 0. -1.
         23    2    1    2    0    0  0.00000000000E+00  0.00000000000E+00 -0.15796149283E+03  0.18333967580E+03  0.93067736125E+02 0.  0.
    9000005    2    3    3    0    0  0.25603024278E+02  0.21501156661E+02 -0.17951611150E+02  0.39393222018E+02  0.10571234940E+02 0.  0.
         22    1    3    3    0    0 -0.25603024278E+02 -0.21501156661E+02 -0.14000988168E+03  0.14394645378E+03  0.00000000000E+00 0. -1.
         22    1    4    4    0    0  0.12405243822E+02  0.59396658370E+01 -0.29477977063E+01  0.14066243843E+02  0.00000000000E+00 0. -1.
         22    1    4    4    0    0  0.13197780457E+02  0.15561490824E+02 -0.15003813443E+02  0.25326978175E+02  0.00000000000E+00 0. -1.
<mgrwt>
<rscale>  0 0.93067736E+02</rscale>
<asrwt>0</asrwt>
<pdfrwt beam="1">  1        2 0.19521680E-02 0.93067736E+02</pdfrwt>
<pdfrwt beam="2">  1       -2 0.26253934E-01 0.93067736E+02</pdfrwt>
<totfact> 0.63147740E+04</totfact>
</mgrwt>
</event>
<event>
 7    1  0.3891761E-009  0.9275345E+02  0.7818608E-02  0.1296318E+00
         -2   -1    0    0    0  501 -0.00000000000E+00  0.00000000000E+00  0.12413184021E+02  0.12413184283E+02  0.25500000000E-02 0.  1.
          2   -1    0    0  501    0  0.00000000000E+00 -0.00000000000E+00 -0.17326742764E+03  0.17326742766E+03  0.25500000000E-02 0. -1.
         23    2    1    2    0    0  0.00000000000E+00  0.00000000000E+00 -0.16085424362E+03  0.18568061194E+03  0.92753447164E+02 0.  0.
    9000005    2    3    3    0    0  0.41217011663E+02 -0.16545921618E+02 -0.99437588859E+02  0.10988737310E+03  0.14655753665E+02 0.  0.
         22    1    3    3    0    0 -0.41217011663E+02  0.16545921618E+02 -0.61416654757E+02  0.75793238842E+02  0.00000000000E+00 0. -1.
         22    1    4    4    0    0  0.36843384573E+02 -0.10269149224E+02 -0.89624656060E+02  0.97444699119E+02  0.00000000000E+00 0. -1.
         22    1    4    4    0    0  0.43736270898E+01 -0.62767723935E+01 -0.98129327995E+01  0.12442673978E+02  0.00000000000E+00 0. -1.
<mgrwt>
<rscale>  0 0.92753447E+02</rscale>
<asrwt>0</asrwt>
<pdfrwt beam="2">  1        2 0.26656526E-01 0.92753447E+02</pdfrwt>
<pdfrwt beam="1">  1       -2 0.19097208E-02 0.92753447E+02</pdfrwt>
<totfact> 0.14028988E+05</totfact>
</mgrwt>
</event>
<event>
 7    1  0.3891761E-009  0.9114414E+02  0.7818608E-02  0.1300104E+00
          2   -1    0    0  501    0  0.00000000000E+00  0.00000000000E+00  0.63562280603E+03  0.63562280604E+03  0.25500000000E-02 0. -1.
         -2   -1    0    0    0  501 -0.00000000000E+00 -0.00000000000E+00 -0.32673673268E+01  0.32673683219E+01  0.25500000000E-02 0.  1.
         23    2    1    2    0    0 -0.17763568394E-14  0.00000000000E+00  0.63235543870E+03  0.63889017436E+03  0.91144138772E+02 0.  0.
    9000005    2    3    3    0    0  0.10549100346E+02  0.39385528384E+02  0.45367869162E+03  0.45562020051E+03  0.10144383775E+02 0.  0.
         22    1    3    3    0    0 -0.10549100346E+02 -0.39385528384E+02  0.17867674708E+03  0.18326997384E+03  0.00000000000E+00 0.  1.
         22    1    4    4    0    0  0.73883490075E+01  0.20370943425E+02  0.29047968750E+03  0.29128682066E+03  0.00000000000E+00 0.  1.
         22    1    4    4    0    0  0.31607513383E+01  0.19014584959E+02  0.16319900412E+03  0.16433337985E+03  0.00000000000E+00 0.  1.
<mgrwt>
<rscale>  0 0.91144139E+02</rscale>
<asrwt>0</asrwt>
<pdfrwt beam="1">  1        2 0.97788020E-01 0.91144139E+02</pdfrwt>
<pdfrwt beam="2">  1       -2 0.50267251E-03 0.91144139E+02</pdfrwt>
<totfact> 0.23171083E+05</totfact>
</mgrwt>
</event>
<event>
 7    1  0.3891761E-009  0.9050257E+02  0.7818608E-02  0.1301639E+00
          2   -1    0    0  501    0  0.00000000000E+00  0.00000000000E+00  0.66303986446E+02  0.66303986495E+02  0.25500000000E-02 0. -1.
         -2   -1    0    0    0  501 -0.00000000000E+00 -0.00000000000E+00 -0.30883190891E+02  0.30883190996E+02  0.25500000000E-02 0.  1.
         23    2    1    2    0    0  0.00000000000E+00 -0.22204460493E-15  0.35420795555E+02  0.97187177491E+02  0.90502567427E+02 0.  0.
    9000005    2    3    3    0    0 -0.33509995824E+02  0.12684410378E+01 -0.14285576093E+02  0.37226756002E+02  0.75647151521E+01 0.  0.
         22    1    3    3    0    0  0.33509995824E+02 -0.12684410378E+01  0.49706371647E+02  0.59960421489E+02  0.00000000000E+00 0. -1.
         22    1    4    4    0    0 -0.30991432240E+02  0.26829304200E+01 -0.14518850667E+02  0.34328763634E+02  0.00000000000E+00 0. -1.
         22    1    4    4    0    0 -0.25185635840E+01 -0.14144893822E+01  0.23327457434E+00  0.28979923682E+01  0.00000000000E+00 0. -1.
<mgrwt>
<rscale>  0 0.90502567E+02</rscale>
<asrwt>0</asrwt>
<pdfrwt beam="1">  1        2 0.10200613E-01 0.90502567E+02</pdfrwt>
<pdfrwt beam="2">  1       -2 0.47512602E-02 0.90502567E+02</pdfrwt>
<totfact> 0.11126991E+05</totfact>
</mgrwt>
</event>
<event>
 7    1  0.3891761E-009  0.9082033E+02  0.7818608E-02  0.1300877E+00
          2   -1    0    0  501    0  0.00000000000E+00  0.00000000000E+00  0.20992221287E+03  0.20992221289E+03  0.25500000000E-02 0. -1.
         -2   -1    0    0    0  501 -0.00000000000E+00 -0.00000000000E+00 -0.98230821531E+01  0.98230824841E+01  0.25500000000E-02 0.  1.
         23    2    1    2    0    0 -0.17763568394E-14  0.00000000000E+00  0.20009913072E+03  0.21974529537E+03  0.90820332104E+02 0.  0.
    9000005    2    3    3    0    0  0.11764871766E+02  0.43709417863E+02  0.10787222423E+03  0.11700909096E+03  0.24052417918E+01 0.  0.
         22    1    3    3    0    0 -0.11764871766E+02 -0.43709417863E+02  0.92226906488E+02  0.10273620442E+03  0.00000000000E+00 0.  1.
         22    1    4    4    0    0  0.43238860772E+00  0.20356701599E+01  0.38143634495E+01  0.43451445814E+01  0.00000000000E+00 0.  1.
         22    1    4    4    0    0  0.11332483158E+02  0.41673747703E+02  0.10405786078E+03  0.11266394638E+03  0.00000000000E+00 0.  1.
<mgrwt>
<rscale>  0 0.90820332E+02</rscale>
<asrwt>0</asrwt>
<pdfrwt beam="1">  1        2 0.32295725E-01 0.90820332E+02</pdfrwt>
<pdfrwt beam="2">  1       -2 0.15112434E-02 0.90820332E+02</pdfrwt>
<totfact> 0.15908811E+05</totfact>
</mgrwt>
</event>
<event>
 7    1  0.3891761E-009  0.8626132E+02  0.7818608E-02  0.1312167E+00
          2   -1    0    0  501    0  0.00000000000E+00  0.00000000000E+00  0.10906014335E+03  0.10906014338E+03  0.25500000000E-02 0. -1.
         -2   -1    0    0    0  501 -0.00000000000E+00 -0.00000000000E+00 -0.17057136271E+02  0.17057136461E+02  0.25500000000E-02 0.  1.
         23    2    1    2    0    0  0.17763568394E-14  0.00000000000E+00  0.92003007077E+02  0.12611727984E+03  0.86261317883E+02 0.  0.
    9000005    2    3    3    0    0 -0.12836051822E+02 -0.35300752253E+02  0.19701426043E+02  0.44640743609E+02  0.13919140268E+02 0.  0.
         22    1    3    3    0    0  0.12836051822E+02  0.35300752253E+02  0.72301581034E+02  0.81476536230E+02  0.00000000000E+00 0. -1.
         22    1    4    4    0    0 -0.33899643799E+01 -0.21163212544E+02  0.46470552372E+01  0.21930995100E+02  0.00000000000E+00 0.  1.
         22    1    4    4    0    0 -0.94460874425E+01 -0.14137539709E+02  0.15054370806E+02  0.22709748510E+02  0.00000000000E+00 0.  1.
<mgrwt>
<rscale>  0 0.86261318E+02</rscale>
<asrwt>0</asrwt>
<pdfrwt beam="1">  1        2 0.16778484E-01 0.86261318E+02</pdfrwt>
<pdfrwt beam="2">  1       -2 0.26241748E-02 0.86261318E+02</pdfrwt>
<totfact> 0.14658608E+05</totfact>
</mgrwt>
</event>
<event>
 7    1  0.3891761E-009  0.9566938E+02  0.7818608E-02  0.1289676E+00
         -2   -1    0    0    0  501 -0.00000000000E+00  0.00000000000E+00  0.47789602744E+01  0.47789609547E+01  0.25500000000E-02 0.  1.
          2   -1    0    0  501    0  0.00000000000E+00 -0.00000000000E+00 -0.47879815042E+03  0.47879815042E+03  0.25500000000E-02 0. -1.
         23    2    1    2    0    0  0.00000000000E+00  0.35527136788E-14 -0.47401919014E+03  0.48357711138E+03  0.95669378726E+02 0.  0.
    9000005    2    3    3    0    0  0.19641845870E+02  0.23663170881E+02 -0.42078167091E+03  0.42209555952E+03  0.12716093124E+02 0.  0.
         22    1    3    3    0    0 -0.19641845870E+02 -0.23663170881E+02 -0.53237519232E+02  0.61481551862E+02  0.00000000000E+00 0.  1.
         22    1    4    4    0    0  0.81082339588E+01  0.14030691967E+02 -0.14456124973E+03  0.14546669274E+03  0.00000000000E+00 0. -1.
         22    1    4    4    0    0  0.11533611912E+02  0.96324789141E+01 -0.27622042118E+03  0.27662886677E+03  0.00000000000E+00 0. -1.
<mgrwt>
<rscale>  0 0.95669379E+02</rscale>
<asrwt>0</asrwt>
<pdfrwt beam="2">  1        2 0.73661216E-01 0.95669379E+02</pdfrwt>
<pdfrwt beam="1">  1       -2 0.73522509E-03 0.95669379E+02</pdfrwt>
<totfact> 0.18697108E+05</totfact>
</mgrwt>
</event>
<event>
 7    1  0.3891761E-009  0.9099569E+02  0.7818608E-02  0.1300458E+00
         -2   -1    0    0    0  501 -0.00000000000E+00  0.00000000000E+00  0.12456650527E+02  0.12456650788E+02  0.25500000000E-02 0.  1.
          2   -1    0    0  501    0  0.00000000000E+00 -0.00000000000E+00 -0.16618062045E+03  0.16618062047E+03  0.25500000000E-02 0. -1.
         23    2    1    2    0    0  0.35527136788E-14  0.00000000000E+00 -0.15372396992E+03  0.17863727126E+03  0.90995690853E+02 0.  0.
    9000005    2    3    3    0    0  0.24494197267E+02 -0.22101240179E+02 -0.16138394695E+02  0.37151508624E+02  0.55996689675E+01 0.  0.
         22    1    3    3    0    0 -0.24494197267E+02  0.22101240179E+02 -0.13758557523E+03  0.14148576263E+03  0.00000000000E+00 0. -1.
         22    1    4    4    0    0  0.18775674215E+02 -0.13805412857E+02 -0.12449105913E+02  0.26421498905E+02  0.00000000000E+00 0. -1.
         22    1    4    4    0    0  0.57185230519E+01 -0.82958273222E+01 -0.36892887818E+01  0.10730009719E+02  0.00000000000E+00 0. -1.
<mgrwt>
<rscale>  0 0.90995691E+02</rscale>
<asrwt>0</asrwt>
<pdfrwt beam="2">  1        2 0.25566248E-01 0.90995691E+02</pdfrwt>
<pdfrwt beam="1">  1       -2 0.19164079E-02 0.90995691E+02</pdfrwt>
<totfact> 0.14560776E+05</totfact>
</mgrwt>
</event>
<event>
 7    1  0.3891761E-009  0.9361533E+02  0.7818608E-02  0.1294326E+00
          2   -1    0    0  501    0  0.00000000000E+00  0.00000000000E+00  0.11663875461E+03  0.11663875463E+03  0.25500000000E-02 0.  1.
         -2   -1    0    0    0  501 -0.00000000000E+00 -0.00000000000E+00 -0.18784128965E+02  0.18784129138E+02  0.25500000000E-02 0. -1.
         23    2    1    2    0    0  0.00000000000E+00  0.00000000000E+00  0.97854625640E+02  0.13542288377E+03  0.93615328285E+02 0.  0.
    9000005    2    3    3    0    0 -0.23570486824E+02  0.12136778661E+02 -0.52889240522E+01  0.28926587646E+02  0.10291040270E+02 0.  0.
         22    1    3    3    0    0  0.23570486824E+02 -0.12136778661E+02  0.10314354969E+03  0.10649629613E+03  0.00000000000E+00 0.  1.
         22    1    4    4    0    0  0.94825126748E+00  0.13218208795E+01 -0.51779912216E+00  0.17071926765E+01  0.00000000000E+00 0. -1.
         22    1    4    4    0    0 -0.24518738091E+02  0.10814957781E+02 -0.47711249300E+01  0.27219394969E+02  0.00000000000E+00 0. -1.
<mgrwt>
<rscale>  0 0.93615328E+02</rscale>
<asrwt>0</asrwt>
<pdfrwt beam="1">  1        2 0.17944424E-01 0.93615328E+02</pdfrwt>
<pdfrwt beam="2">  1       -2 0.28898660E-02 0.93615328E+02</pdfrwt>
<totfact> 0.11970162E+05</totfact>
</mgrwt>
</event>
<event>
 7    1  0.3891761E-009  0.8579071E+02  0.7818608E-02  0.1313378E+00
         -2   -1    0    0    0  501 -0.00000000000E+00  0.00000000000E+00  0.66096693837E+01  0.66096698756E+01  0.25500000000E-02 0.  1.
          2   -1    0    0  501    0  0.00000000000E+00 -0.00000000000E+00 -0.27838178894E+03  0.27838178895E+03  0.25500000000E-02 0. -1.
         23    2    1    2    0    0  0.00000000000E+00 -0.17763568394E-14 -0.27177211955E+03  0.28499145882E+03  0.85790714161E+02 0.  0.
    9000005    2    3    3    0    0 -0.93176253429E+01 -0.14561875034E+02 -0.26595341053E+03  0.26675074280E+03  0.11219441243E+02 0.  0.
         22    1    3    3    0    0  0.93176253429E+01  0.14561875034E+02 -0.58187090193E+01  0.18240716027E+02  0.00000000000E+00 0.  1.
         22    1    4    4    0    0  0.16903450168E+01 -0.70228708258E+01 -0.10187334181E+03  0.10212911315E+03  0.00000000000E+00 0. -1.
         22    1    4    4    0    0 -0.11007970360E+02 -0.75390042077E+01 -0.16408006872E+03  0.16462162965E+03  0.00000000000E+00 0. -1.
<mgrwt>
<rscale>  0 0.85790714E+02</rscale>
<asrwt>0</asrwt>
<pdfrwt beam="2">  1        2 0.42827959E-01 0.85790714E+02</pdfrwt>
<pdfrwt beam="1">  1       -2 0.10168725E-02 0.85790714E+02</pdfrwt>
<totfact> 0.20545811E+05</totfact>
</mgrwt>
</event>
<event>
 7    1  0.3891761E-009  0.9123982E+02  0.7818608E-02  0.1299877E+00
          2   -1    0    0  501    0  0.00000000000E+00  0.00000000000E+00  0.23741318742E+03  0.23741318744E+03  0.25500000000E-02 0.  1.
         -2   -1    0    0    0  501 -0.00000000000E+00 -0.00000000000E+00 -0.87660507384E+01  0.87660511093E+01  0.25500000000E-02 0. -1.
         23    2    1    2    0    0  0.00000000000E+00 -0.35527136788E-14  0.22864713668E+03  0.24617923855E+03  0.91239817936E+02 0.  0.
    9000005    2    3    3    0    0 -0.34645814965E+02  0.26795569969E+02  0.86353921135E+02  0.97297761336E+02  0.95665877506E+01 0.  0.
         22    1    3    3    0    0  0.34645814965E+02 -0.26795569969E+02  0.14229321555E+03  0.14888147721E+03  0.00000000000E+00 0.  1.
         22    1    4    4    0    0 -0.28924977567E+02  0.24104853276E+02  0.79545718302E+02  0.88006929152E+02  0.00000000000E+00 0. -1.
         22    1    4    4    0    0 -0.57208373979E+01  0.26907166929E+01  0.68082028330E+01  0.92908321840E+01  0.00000000000E+00 0. -1.
<mgrwt>
<rscale>  0 0.91239818E+02</rscale>
<asrwt>0</asrwt>
<pdfrwt beam="1">  1        2 0.36525104E-01 0.91239818E+02</pdfrwt>
<pdfrwt beam="2">  1       -2 0.13486233E-02 0.91239818E+02</pdfrwt>
<totfact> 0.16438239E+05</totfact>
</mgrwt>
</event>
<event>
 7    1  0.3891761E-009  0.9073148E+02  0.7818608E-02  0.1301090E+00
          2   -1    0    0  501    0  0.00000000000E+00  0.00000000000E+00  0.12976646690E+03  0.12976646692E+03  0.25500000000E-02 0. -1.
         -2   -1    0    0    0  501 -0.00000000000E+00 -0.00000000000E+00 -0.15859647484E+02  0.15859647689E+02  0.25500000000E-02 0.  1.
         23    2    1    2    0    0  0.00000000000E+00  0.00000000000E+00  0.11390681942E+03  0.14562611461E+03  0.90731481572E+02 0.  0.
    9000005    2    3    3    0    0  0.16410802216E+02 -0.41882159726E+02  0.63071883164E+02  0.77746659133E+02  0.65613129659E+01 0.  0.
         22    1    3    3    0    0 -0.16410802216E+02  0.41882159726E+02  0.50834936252E+02  0.67879455481E+02  0.00000000000E+00 0. -1.
         22    1    4    4    0    0  0.54158998858E+01 -0.20271094829E+02  0.25393204553E+02  0.32940311088E+02  0.00000000000E+00 0. -1.
         22    1    4    4    0    0  0.10994902330E+02 -0.21611064897E+02  0.37678678611E+02  0.44806348045E+02  0.00000000000E+00 0. -1.
<mgrwt>
<rscale>  0 0.90731482E+02</rscale>
<asrwt>0</asrwt>
<pdfrwt beam="1">  1        2 0.19964072E-01 0.90731482E+02</pdfrwt>
<pdfrwt beam="2">  1       -2 0.24399457E-02 0.90731482E+02</pdfrwt>
<totfact> 0.13499120E+05</totfact>
</mgrwt>
</event>
<event>
 7    1  0.3891761E-009  0.9265653E+02  0.7818608E-02  0.1296543E+00
          2   -1    0    0  501    0  0.00000000000E+00  0.00000000000E+00  0.62991089891E+02  0.62991089943E+02  0.25500000000E-02 0. -1.
         -2   -1    0    0    0  501 -0.00000000000E+00 -0.00000000000E+00 -0.34073201903E+02  0.34073201998E+02  0.25500000000E-02 0.  1.
         23    2    1    2    0    0  0.00000000000E+00  0.00000000000E+00  0.28917887988E+02  0.97064291941E+02  0.92656529853E+02 0.  0.
    9000005    2    3    3    0    0 -0.45559794595E+01 -0.12688096062E+02  0.59988552760E+02  0.63194970427E+02  0.14602503020E+02 0.  0.
         22    1    3    3    0    0  0.45559794595E+01  0.12688096062E+02 -0.31070664772E+02  0.33869321515E+02  0.00000000000E+00 0.  1.
         22    1    4    4    0    0 -0.18640322136E+01  0.25873685426E+01  0.41010104501E+01  0.51949378033E+01  0.00000000000E+00 0. -1.
         22    1    4    4    0    0 -0.26919472459E+01 -0.15275464605E+02  0.55887542310E+02  0.58000032623E+02  0.00000000000E+00 0. -1.
<mgrwt>
<rscale>  0 0.92656530E+02</rscale>
<asrwt>0</asrwt>
<pdfrwt beam="1">  1        2 0.96909369E-02 0.92656530E+02</pdfrwt>
<pdfrwt beam="2">  1       -2 0.52420311E-02 0.92656530E+02</pdfrwt>
<totfact> 0.10269995E+05</totfact>
</mgrwt>
</event>
<event>
 7    1  0.3891761E-009  0.9062285E+02  0.7818608E-02  0.1301350E+00
         -2   -1    0    0    0  501 -0.00000000000E+00  0.00000000000E+00  0.16728547952E+02  0.16728548146E+02  0.25500000000E-02 0.  1.
          2   -1    0    0  501    0  0.00000000000E+00 -0.00000000000E+00 -0.12273182551E+03  0.12273182553E+03  0.25500000000E-02 0. -1.
         23    2    1    2    0    0  0.00000000000E+00  0.00000000000E+00 -0.10600327756E+03  0.13946037368E+03  0.90622850179E+02 0.  0.
    9000005    2    3    3    0    0  0.18568570337E+02  0.90772484317E+01 -0.11474627700E+03  0.11701870969E+03  0.99740707199E+01 0.  0.
         22    1    3    3    0    0 -0.18568570337E+02 -0.90772484317E+01  0.87429994494E+01  0.22441663994E+02  0.00000000000E+00 0.  1.
         22    1    4    4    0    0  0.16209961446E+02  0.31913425605E+01 -0.87295903796E+02  0.88845496999E+02  0.00000000000E+00 0.  1.
         22    1    4    4    0    0  0.23586088910E+01  0.58859058713E+01 -0.27450373209E+02  0.28173212688E+02  0.00000000000E+00 0.  1.
<mgrwt>
<rscale>  0 0.90622850E+02</rscale>
<asrwt>0</asrwt>
<pdfrwt beam="2">  1        2 0.18881819E-01 0.90622850E+02</pdfrwt>
<pdfrwt beam="1">  1       -2 0.25736229E-02 0.90622850E+02</pdfrwt>
<totfact> 0.13300151E+05</totfact>
</mgrwt>
</event>
<event>
 7    1  0.3891761E-009  0.9301145E+02  0.7818608E-02  0.1295719E+00
          2   -1    0    0  501    0  0.00000000000E+00  0.00000000000E+00  0.30477412185E+03  0.30477412186E+03  0.25500000000E-02 0. -1.
         -2   -1    0    0    0  501 -0.00000000000E+00 -0.00000000000E+00 -0.70963457371E+01  0.70963461952E+01  0.25500000000E-02 0.  1.
         23    2    1    2    0    0 -0.35527136788E-14  0.71054273576E-14  0.29767777612E+03  0.31187046806E+03  0.93011453348E+02 0.  0.
    9000005    2    3    3    0    0  0.30839822488E+02 -0.33466932820E+02  0.15769906358E+03  0.16467953693E+03  0.13387493637E+02 0.  0.
         22    1    3    3    0    0 -0.30839822488E+02  0.33466932820E+02  0.13997871254E+03  0.14719093113E+03  0.00000000000E+00 0.  1.
         22    1    4    4    0    0  0.84807248128E-01 -0.31489215921E+01  0.23310906674E+02  0.23522781924E+02  0.00000000000E+00 0.  1.
         22    1    4    4    0    0  0.30755015240E+02 -0.30318011228E+02  0.13438815691E+03  0.14115675501E+03  0.00000000000E+00 0.  1.
<mgrwt>
<rscale>  0 0.93011453E+02</rscale>
<asrwt>0</asrwt>
<pdfrwt beam="1">  1        2 0.46888314E-01 0.93011453E+02</pdfrwt>
<pdfrwt beam="2">  1       -2 0.10917458E-02 0.93011453E+02</pdfrwt>
<totfact> 0.17135085E+05</totfact>
</mgrwt>
</event>
<event>
 7    1  0.3891761E-009  0.9115132E+02  0.7818608E-02  0.1300087E+00
         -2   -1    0    0    0  501 -0.00000000000E+00  0.00000000000E+00  0.13746910104E+03  0.13746910107E+03  0.25500000000E-02 0.  1.
          2   -1    0    0  501    0  0.00000000000E+00 -0.00000000000E+00 -0.15109872827E+02  0.15109873042E+02  0.25500000000E-02 0. -1.
         23    2    1    2    0    0  0.00000000000E+00 -0.88817841970E-15  0.12235922821E+03  0.15257897411E+03  0.91151317108E+02 0.  0.
    9000005    2    3    3    0    0 -0.14486945327E+02 -0.48378543136E+01  0.13281340077E+03  0.13407043167E+03  0.10109639289E+02 0.  0.
         22    1    3    3    0    0  0.14486945327E+02  0.48378543136E+01 -0.10454172553E+02  0.18508542434E+02  0.00000000000E+00 0. -1.
         22    1    4    4    0    0 -0.28913685987E+01  0.30933436563E+01  0.34304163045E+02  0.34564496084E+02  0.00000000000E+00 0.  1.
         22    1    4    4    0    0 -0.11595576728E+02 -0.79311979699E+01  0.98509237722E+02  0.99505935590E+02  0.00000000000E+00 0.  1.
<mgrwt>
<rscale>  0 0.91151317E+02</rscale>
<asrwt>0</asrwt>
<pdfrwt beam="2">  1        2 0.23245959E-02 0.91151317E+02</pdfrwt>
<pdfrwt beam="1">  1       -2 0.21149092E-01 0.91151317E+02</pdfrwt>
<totfact> 0.72107993E+04</totfact>
</mgrwt>
</event>
<event>
 7    1  0.3891761E-009  0.9077361E+02  0.7818608E-02  0.1300989E+00
         -2   -1    0    0    0  501 -0.00000000000E+00  0.00000000000E+00  0.35863541376E+01  0.35863550442E+01  0.25500000000E-02 0.  1.
          2   -1    0    0  501    0  0.00000000000E+00 -0.00000000000E+00 -0.57438887323E+03  0.57438887324E+03  0.25500000000E-02 0. -1.
         23    2    1    2    0    0  0.71054273576E-14  0.00000000000E+00 -0.57080251909E+03  0.57797522828E+03  0.90773612371E+02 0.  0.
    9000005    2    3    3    0    0 -0.35453398843E+02  0.64319780678E+00 -0.46082007608E+03  0.46241790500E+03  0.14758697509E+02 0.  0.
         22    1    3    3    0    0  0.35453398843E+02 -0.64319780678E+00 -0.10998244301E+03  0.11555732328E+03  0.00000000000E+00 0.  1.
         22    1    4    4    0    0  0.11669588987E+01  0.59956453477E+00 -0.35494495490E+02  0.35518734223E+02  0.00000000000E+00 0.  1.
         22    1    4    4    0    0 -0.36620357741E+02  0.43633272014E-01 -0.42532558059E+03  0.42689917078E+03  0.00000000000E+00 0.  1.
<mgrwt>
<rscale>  0 0.90773612E+02</rscale>
<asrwt>0</asrwt>
<pdfrwt beam="2">  1        2 0.88367446E-01 0.90773612E+02</pdfrwt>
<pdfrwt beam="1">  1       -2 0.55174732E-03 0.90773612E+02</pdfrwt>
<totfact> 0.22764110E+05</totfact>
</mgrwt>
</event>
<event>
 7    1  0.3891761E-009  0.9042147E+02  0.7818608E-02  0.1301834E+00
          2   -1    0    0  501    0  0.00000000000E+00  0.00000000000E+00  0.76130134001E+02  0.76130134044E+02  0.25500000000E-02 0.  1.
         -2   -1    0    0    0  501 -0.00000000000E+00 -0.00000000000E+00 -0.26848900358E+02  0.26848900479E+02  0.25500000000E-02 0. -1.
         23    2    1    2    0    0 -0.35527136788E-14  0.00000000000E+00  0.49281233643E+02  0.10297903452E+03  0.90421466267E+02 0.  0.
    9000005    2    3    3    0    0  0.25206617601E+02 -0.27186828391E+02  0.52585444348E+02  0.65757870956E+02  0.13578344031E+02 0.  0.
         22    1    3    3    0    0 -0.25206617601E+02  0.27186828391E+02 -0.33042107045E+01  0.37221163566E+02  0.00000000000E+00 0.  1.
         22    1    4    4    0    0  0.16449343725E+02 -0.24486276296E+02  0.33839301240E+02  0.44891613295E+02  0.00000000000E+00 0. -1.
         22    1    4    4    0    0  0.87572738762E+01 -0.27005520944E+01  0.18746143108E+02  0.20866257662E+02  0.00000000000E+00 0. -1.
<mgrwt>
<rscale>  0 0.90421466E+02</rscale>
<asrwt>0</asrwt>
<pdfrwt beam="1">  1        2 0.11712328E-01 0.90421466E+02</pdfrwt>
<pdfrwt beam="2">  1       -2 0.41306001E-02 0.90421466E+02</pdfrwt>
<totfact> 0.11590017E+05</totfact>
</mgrwt>
</event>
<event>
 7    1  0.3891761E-009  0.9233108E+02  0.7818608E-02  0.1297303E+00
         -2   -1    0    0    0  501 -0.00000000000E+00  0.00000000000E+00  0.61878300922E+02  0.61878300975E+02  0.25500000000E-02 0. -1.
          2   -1    0    0  501    0  0.00000000000E+00 -0.00000000000E+00 -0.34442722361E+02  0.34442722456E+02  0.25500000000E-02 0.  1.
         23    2    1    2    0    0 -0.35527136788E-14  0.88817841970E-15  0.27435578561E+02  0.96321023431E+02  0.92331081353E+02 0.  0.
    9000005    2    3    3    0    0  0.21417596944E+02 -0.40071274752E+01  0.55282998707E+02  0.60962158372E+02  0.13616323948E+02 0.  0.
         22    1    3    3    0    0 -0.21417596944E+02  0.40071274752E+01 -0.27847420146E+02  0.35358865059E+02  0.00000000000E+00 0.  1.
         22    1    4    4    0    0  0.20184698199E+02 -0.68970304310E+01  0.52837703039E+02  0.56980820743E+02  0.00000000000E+00 0.  1.
         22    1    4    4    0    0  0.12328987456E+01  0.28899029558E+01  0.24452956683E+01  0.39813376290E+01  0.00000000000E+00 0.  1.
<mgrwt>
<rscale>  0 0.92331081E+02</rscale>
<asrwt>0</asrwt>
<pdfrwt beam="2">  1        2 0.52988804E-02 0.92331081E+02</pdfrwt>
<pdfrwt beam="1">  1       -2 0.95197385E-02 0.92331081E+02</pdfrwt>
<totfact> 0.88421364E+04</totfact>
</mgrwt>
</event>
<event>
 7    1  0.3891761E-009  0.9152303E+02  0.7818608E-02  0.1299205E+00
          2   -1    0    0  501    0  0.00000000000E+00  0.00000000000E+00  0.43917594032E+02  0.43917594106E+02  0.25500000000E-02 0. -1.
         -2   -1    0    0    0  501 -0.00000000000E+00 -0.00000000000E+00 -0.47682858733E+02  0.47682858801E+02  0.25500000000E-02 0.  1.
         23    2    1    2    0    0  0.17763568394E-14  0.00000000000E+00 -0.37652647010E+01  0.91600452906E+02  0.91523034010E+02 0.  0.
    9000005    2    3    3    0    0 -0.13300530389E+02 -0.32627763866E+02 -0.29989696682E+02  0.47677840094E+02  0.11503018970E+02 0.  0.
         22    1    3    3    0    0  0.13300530389E+02  0.32627763866E+02  0.26224431981E+02  0.43922612812E+02  0.00000000000E+00 0. -1.
         22    1    4    4    0    0 -0.51831161989E+01 -0.24092451544E+02 -0.15965822941E+02  0.29363555935E+02  0.00000000000E+00 0. -1.
         22    1    4    4    0    0 -0.81174141899E+01 -0.85353123217E+01 -0.14023873742E+02  0.18314284160E+02  0.00000000000E+00 0. -1.
<mgrwt>
<rscale>  0 0.91523034E+02</rscale>
<asrwt>0</asrwt>
<pdfrwt beam="1">  1        2 0.67565529E-02 0.91523034E+02</pdfrwt>
<pdfrwt beam="2">  1       -2 0.73358244E-02 0.91523034E+02</pdfrwt>
<totfact> 0.96662556E+04</totfact>
</mgrwt>
</event>
<event>
 7    1  0.3891761E-009  0.8976348E+02  0.7818608E-02  0.1303425E+00
          2   -1    0    0  501    0  0.00000000000E+00  0.00000000000E+00  0.61903525525E+03  0.61903525526E+03  0.25500000000E-02 0. -1.
         -2   -1    0    0    0  501 -0.00000000000E+00 -0.00000000000E+00 -0.32540473899E+01  0.32540483891E+01  0.25500000000E-02 0.  1.
         23    2    1    2    0    0  0.35527136788E-14  0.00000000000E+00  0.61578120786E+03  0.62228930365E+03  0.89763475181E+02 0.  0.
    9000005    2    3    3    0    0  0.20651035859E+02  0.31315443331E+02  0.47271865010E+03  0.47439062986E+03  0.13282517743E+02 0.  0.
         22    1    3    3    0    0 -0.20651035859E+02 -0.31315443331E+02  0.14306255777E+03  0.14789867379E+03  0.00000000000E+00 0.  1.
         22    1    4    4    0    0  0.92257655030E+01  0.40110436975E+01  0.10367200194E+03  0.10415895164E+03  0.00000000000E+00 0. -1.
         22    1    4    4    0    0  0.11425270356E+02  0.27304399634E+02  0.36904664816E+03  0.37023167822E+03  0.00000000000E+00 0. -1.
<mgrwt>
<rscale>  0 0.89763475E+02</rscale>
<asrwt>0</asrwt>
<pdfrwt beam="1">  1        2 0.95236128E-01 0.89763475E+02</pdfrwt>
<pdfrwt beam="2">  1       -2 0.50062309E-03 0.89763475E+02</pdfrwt>
<totfact> 0.23951240E+05</totfact>
</mgrwt>
</event>
<event>
 7    1  0.3891761E-009  0.8751455E+02  0.7818608E-02  0.1308985E+00
         -2   -1    0    0    0  501 -0.00000000000E+00  0.00000000000E+00  0.39102072258E+02  0.39102072341E+02  0.25500000000E-02 0.  1.
          2   -1    0    0  501    0  0.00000000000E+00 -0.00000000000E+00 -0.48966695222E+02  0.48966695288E+02  0.25500000000E-02 0. -1.
         23    2    1    2    0    0  0.00000000000E+00  0.00000000000E+00 -0.98646229642E+01  0.88068767629E+02  0.87514553335E+02 0.  0.
    9000005    2    3    3    0    0 -0.46217459384E+01 -0.27193695442E+02 -0.37680523029E+02  0.48895027653E+02  0.14492905373E+02 0.  0.
         22    1    3    3    0    0  0.46217459384E+01  0.27193695442E+02  0.27815900065E+02  0.39173739976E+02  0.00000000000E+00 0.  1.
         22    1    4    4    0    0 -0.44736673241E+01 -0.77417465640E+01 -0.22527466203E+02  0.24237059903E+02  0.00000000000E+00 0. -1.
         22    1    4    4    0    0 -0.14807861427E+00 -0.19451948878E+02 -0.15153056826E+02  0.24657967750E+02  0.00000000000E+00 0. -1.
<mgrwt>
<rscale>  0 0.87514553E+02</rscale>
<asrwt>0</asrwt>
<pdfrwt beam="2">  1        2 0.75333377E-02 0.87514553E+02</pdfrwt>
<pdfrwt beam="1">  1       -2 0.60157035E-02 0.87514553E+02</pdfrwt>
<totfact> 0.11295017E+05</totfact>
</mgrwt>
</event>
<event>
 7    1  0.3891761E-009  0.9185043E+02  0.7818608E-02  0.1298431E+00
         -2   -1    0    0    0  501 -0.00000000000E+00  0.00000000000E+00  0.26729241386E+04  0.26729241386E+04  0.25500000000E-02 0.  1.
          2   -1    0    0  501    0  0.00000000000E+00 -0.00000000000E+00 -0.78906828571E+00  0.78907240606E+00  0.25500000000E-02 0. -1.
         23    2    1    2    0    0 -0.17763568394E-14 -0.17763568394E-14  0.26721350703E+04  0.26737132110E+04  0.91850425755E+02 0.  0.
    9000005    2    3    3    0    0 -0.10522684561E+02 -0.12708108302E+02  0.25829438687E+04  0.25830087825E+04  0.79447255822E+01 0.  0.
         22    1    3    3    0    0  0.10522684561E+02  0.12708108302E+02  0.89191201594E+02  0.90704428496E+02  0.00000000000E+00 0. -1.
         22    1    4    4    0    0 -0.10397365098E+02 -0.69748576971E+01  0.18635631991E+04  0.18636052562E+04  0.00000000000E+00 0. -1.
         22    1    4    4    0    0 -0.12531946271E+00 -0.57332506047E+01  0.71938066960E+03  0.71940352631E+03  0.00000000000E+00 0. -1.
<mgrwt>
<rscale>  0 0.91850426E+02</rscale>
<asrwt>0</asrwt>
<pdfrwt beam="2">  1        2 0.12139537E-03 0.91850426E+02</pdfrwt>
<pdfrwt beam="1">  1       -2 0.41121931E+00 0.91850426E+02</pdfrwt>
<totfact> 0.20380318E+03</totfact>
</mgrwt>
</event>
<event>
 7    1  0.3891761E-009  0.8304717E+02  0.7818608E-02  0.1320620E+00
         -2   -1    0    0    0  501 -0.00000000000E+00  0.00000000000E+00  0.46934754019E+01  0.46934760946E+01  0.25500000000E-02 0.  1.
          2   -1    0    0  501    0  0.00000000000E+00 -0.00000000000E+00 -0.36736278125E+03  0.36736278126E+03  0.25500000000E-02 0. -1.
         23    2    1    2    0    0  0.00000000000E+00  0.00000000000E+00 -0.36266930585E+03  0.37205625735E+03  0.83047174735E+02 0.  0.
    9000005    2    3    3    0    0 -0.28556647822E+02  0.20468686044E+02 -0.27547185517E+03  0.27804644591E+03  0.13807021690E+02 0.  0.
         22    1    3    3    0    0  0.28556647822E+02 -0.20468686044E+02 -0.87197450674E+02  0.94009811442E+02  0.00000000000E+00 0.  1.
         22    1    4    4    0    0 -0.24441853715E+02  0.15079979704E+02 -0.17453182527E+03  0.17687896436E+03  0.00000000000E+00 0.  1.
         22    1    4    4    0    0 -0.41147941072E+01  0.53887063400E+01 -0.10094002990E+03  0.10116748155E+03  0.00000000000E+00 0.  1.
<mgrwt>
<rscale>  0 0.83047175E+02</rscale>
<asrwt>0</asrwt>
<pdfrwt beam="2">  1        2 0.56517329E-01 0.83047175E+02</pdfrwt>
<pdfrwt beam="1">  1       -2 0.72207348E-03 0.83047175E+02</pdfrwt>
<totfact> 0.24780618E+05</totfact>
</mgrwt>
</event>
<event>
 7    1  0.3891761E-009  0.8985030E+02  0.7818608E-02  0.1303215E+00
          2   -1    0    0  501    0  0.00000000000E+00  0.00000000000E+00  0.16079364113E+02  0.16079364315E+02  0.25500000000E-02 0. -1.
         -2   -1    0    0    0  501 -0.00000000000E+00 -0.00000000000E+00 -0.12551921946E+03  0.12551921949E+03  0.25500000000E-02 0.  1.
         23    2    1    2    0    0  0.35527136788E-14  0.35527136788E-14 -0.10943985535E+03  0.14159858380E+03  0.89850303262E+02 0.  0.
    9000005    2    3    3    0    0  0.26002376612E+02 -0.22685605936E+02 -0.98742513390E+02  0.10547112290E+03  0.13539331951E+02 0.  0.
         22    1    3    3    0    0 -0.26002376612E+02  0.22685605936E+02 -0.10697341961E+02  0.36127460901E+02  0.00000000000E+00 0. -1.
         22    1    4    4    0    0  0.27642726155E+02 -0.21629636388E+02 -0.94242010157E+02  0.10056598808E+03  0.00000000000E+00 0.  1.
         22    1    4    4    0    0 -0.16403495425E+01 -0.10559695482E+01 -0.45005032324E+01  0.49051348252E+01  0.00000000000E+00 0.  1.
<mgrwt>
<rscale>  0 0.89850303E+02</rscale>
<asrwt>0</asrwt>
<pdfrwt beam="1">  1        2 0.24737484E-02 0.89850303E+02</pdfrwt>
<pdfrwt beam="2">  1       -2 0.19310649E-01 0.89850303E+02</pdfrwt>
<totfact> 0.77101646E+04</totfact>
</mgrwt>
</event>
<event>
 7    1  0.3891761E-009  0.1017864E+03  0.7818608E-02  0.1276584E+00
          2   -1    0    0  501    0  0.00000000000E+00  0.00000000000E+00  0.18117219237E+02  0.18117219416E+02  0.25500000000E-02 0. -1.
         -2   -1    0    0    0  501 -0.00000000000E+00 -0.00000000000E+00 -0.14296450197E+03  0.14296450200E+03  0.25500000000E-02 0.  1.
         23    2    1    2    0    0  0.00000000000E+00  0.00000000000E+00 -0.12484728274E+03  0.16108172141E+03  0.10178642820E+03 0.  0.
    9000005    2    3    3    0    0 -0.24388523735E+02  0.39933964320E+02 -0.35742071225E+02  0.60437494977E+02  0.13626208104E+02 0.  0.
         22    1    3    3    0    0  0.24388523735E+02 -0.39933964320E+02 -0.89105211513E+02  0.10064422644E+03  0.00000000000E+00 0.  1.
         22    1    4    4    0    0 -0.23938452474E+02  0.38231463862E+02 -0.36943782236E+02  0.58305551895E+02  0.00000000000E+00 0.  1.
         22    1    4    4    0    0 -0.45007126071E+00  0.17025004582E+01  0.12017110107E+01  0.21319430815E+01  0.00000000000E+00 0.  1.
<mgrwt>
<rscale>  0 0.10178643E+03</rscale>
<asrwt>0</asrwt>
<pdfrwt beam="1">  1        2 0.27872646E-02 0.10178643E+03</pdfrwt>
<pdfrwt beam="2">  1       -2 0.21994538E-01 0.10178643E+03</pdfrwt>
<totfact> 0.53803512E+04</totfact>
</mgrwt>
</event>
<event>
 6    1  0.3891761E-009  0.1716987E+03  0.7818608E-02  0.1176088E+00
          2   -1    0    0  501    0  0.00000000000E+00  0.00000000000E+00  0.78108299136E+03  0.78108299137E+03  0.25500000000E-02 0.  1.
         -2   -1    0    0    0  501 -0.00000000000E+00 -0.00000000000E+00 -0.94357550688E+01  0.94357554134E+01  0.25500000000E-02 0. -1.
    9000005    2    1    2    0    0 -0.60396506445E+02  0.38687411295E+02  0.60071798226E+03  0.60515083243E+03  0.14176812252E+02 0.  0.
         22    1    1    2    0    0  0.60396506445E+02 -0.38687411295E+02  0.17092925404E+03  0.18536791435E+03  0.00000000000E+00 0. -1.
         22    1    3    3    0    0 -0.43507473579E+02  0.26934577054E+02  0.47657986095E+03  0.47931903318E+03  0.00000000000E+00 0. -1.
         22    1    3    3    0    0 -0.16889032866E+02  0.11752834241E+02  0.12413812130E+03  0.12583179926E+03  0.00000000000E+00 0. -1.
<mgrwt>
<rscale>  0 0.17169867E+03</rscale>
<asrwt>0</asrwt>
<pdfrwt beam="1">  1        2 0.12016664E+00 0.17169867E+03</pdfrwt>
<pdfrwt beam="2">  1       -2 0.14516543E-02 0.17169867E+03</pdfrwt>
<totfact> 0.43380689E+04</totfact>
</mgrwt>
</event>
<event>
 7    1  0.3891761E-009  0.9218533E+02  0.7818608E-02  0.1297644E+00
          2   -1    0    0  501    0  0.00000000000E+00  0.00000000000E+00  0.79323858572E+02  0.79323858613E+02  0.25500000000E-02 0. -1.
         -2   -1    0    0    0  501 -0.00000000000E+00 -0.00000000000E+00 -0.26783038434E+02  0.26783038555E+02  0.25500000000E-02 0.  1.
         23    2    1    2    0    0  0.00000000000E+00  0.17763568394E-14  0.52540820138E+02  0.10610689717E+03  0.92185334224E+02 0.  0.
    9000005    2    3    3    0    0 -0.24646678798E+02 -0.10785384658E+02  0.68186330414E+02  0.74985115572E+02  0.15799006427E+02 0.  0.
         22    1    3    3    0    0  0.24646678798E+02  0.10785384658E+02 -0.15645510275E+02  0.31121781597E+02  0.00000000000E+00 0.  1.
         22    1    4    4    0    0 -0.90394155623E+01 -0.11905344066E+02  0.26006178737E+02  0.29996159480E+02  0.00000000000E+00 0.  1.
         22    1    4    4    0    0 -0.15607263236E+02  0.11199594086E+01  0.42180151676E+02  0.44988956092E+02  0.00000000000E+00 0.  1.
<mgrwt>
<rscale>  0 0.92185334E+02</rscale>
<asrwt>0</asrwt>
<pdfrwt beam="1">  1        2 0.12203671E-01 0.92185334E+02</pdfrwt>
<pdfrwt beam="2">  1       -2 0.41204675E-02 0.92185334E+02</pdfrwt>
<totfact> 0.11112011E+05</totfact>
</mgrwt>
</event>
<event>
 7    1  0.3891761E-009  0.9303889E+02  0.7818608E-02  0.1295655E+00
          2   -1    0    0  501    0  0.00000000000E+00  0.00000000000E+00  0.21712779337E+03  0.21712779338E+03  0.25500000000E-02 0. -1.
         -2   -1    0    0    0  501 -0.00000000000E+00 -0.00000000000E+00 -0.99667515550E+01  0.99667518813E+01  0.25500000000E-02 0.  1.
         23    2    1    2    0    0  0.00000000000E+00  0.00000000000E+00  0.20716104181E+03  0.22709454526E+03  0.93038891028E+02 0.  0.
    9000005    2    3    3    0    0 -0.42903811649E+02  0.88392846273E+01  0.70736807465E+02  0.83810066956E+02  0.10077766917E+02 0.  0.
         22    1    3    3    0    0  0.42903811649E+02 -0.88392846273E+01  0.13642423435E+03  0.14328447831E+03  0.00000000000E+00 0. -1.
         22    1    4    4    0    0 -0.53418578016E+01  0.18673115608E+01  0.40618822791E+01  0.69657149588E+01  0.00000000000E+00 0.  1.
         22    1    4    4    0    0 -0.37561953847E+02  0.69719730664E+01  0.66674925186E+02  0.76844351997E+02  0.00000000000E+00 0.  1.
<mgrwt>
<rscale>  0 0.93038891E+02</rscale>
<asrwt>0</asrwt>
<pdfrwt beam="1">  1        2 0.33404275E-01 0.93038891E+02</pdfrwt>
<pdfrwt beam="2">  1       -2 0.15333465E-02 0.93038891E+02</pdfrwt>
<totfact> 0.15092993E+05</totfact>
</mgrwt>
</event>
<event>
 7    1  0.3891761E-009  0.8935406E+02  0.7818608E-02  0.1304424E+00
         -2   -1    0    0    0  501 -0.00000000000E+00  0.00000000000E+00  0.41882930321E+01  0.41882938083E+01  0.25500000000E-02 0.  1.
          2   -1    0    0  501    0  0.00000000000E+00 -0.00000000000E+00 -0.47657521711E+03  0.47657521712E+03  0.25500000000E-02 0. -1.
         23    2    1    2    0    0  0.00000000000E+00 -0.44408920985E-15 -0.47238692408E+03  0.48076351093E+03  0.89354056412E+02 0.  0.
    9000005    2    3    3    0    0 -0.41934557646E+02  0.26827124834E+01 -0.30680521822E+03  0.30993316999E+03  0.12783734123E+02 0.  0.
         22    1    3    3    0    0  0.41934557646E+02 -0.26827124834E+01 -0.16558170585E+03  0.17083034094E+03  0.00000000000E+00 0.  1.
         22    1    4    4    0    0 -0.29363693469E+02  0.35674002394E+01 -0.17051735237E+03  0.17306391969E+03  0.00000000000E+00 0. -1.
         22    1    4    4    0    0 -0.12570864177E+02 -0.88468775602E+00 -0.13628786585E+03  0.13686925030E+03  0.00000000000E+00 0. -1.
<mgrwt>
<rscale>  0 0.89354056E+02</rscale>
<asrwt>0</asrwt>
<pdfrwt beam="2">  1        2 0.73319221E-01 0.89354056E+02</pdfrwt>
<pdfrwt beam="1">  1       -2 0.64435321E-03 0.89354056E+02</pdfrwt>
<totfact> 0.22375355E+05</totfact>
</mgrwt>
</event>
<event>
 7    1  0.3891761E-009  0.9083811E+02  0.7818608E-02  0.1300835E+00
          2   -1    0    0  501    0  0.00000000000E+00  0.00000000000E+00  0.66740832252E+03  0.66740832252E+03  0.25500000000E-02 0.  1.
         -2   -1    0    0    0  501 -0.00000000000E+00 -0.00000000000E+00 -0.30908965119E+01  0.30908975638E+01  0.25500000000E-02 0. -1.
         23    2    1    2    0    0  0.00000000000E+00  0.00000000000E+00  0.66431742600E+03  0.67049922008E+03  0.90838106769E+02 0.  0.
    9000005    2    3    3    0    0  0.21992826222E+02  0.32478630833E+02  0.50007320200E+03  0.50163622537E+03  0.52105063878E+01 0.  0.
         22    1    3    3    0    0 -0.21992826222E+02 -0.32478630833E+02  0.16424422401E+03  0.16886299472E+03  0.00000000000E+00 0. -1.
         22    1    4    4    0    0  0.13149234874E+02  0.23396325042E+02  0.35163263321E+03  0.35265535462E+03  0.00000000000E+00 0. -1.
         22    1    4    4    0    0  0.88435913477E+01  0.90823057910E+01  0.14844056879E+03  0.14898087074E+03  0.00000000000E+00 0. -1.
<mgrwt>
<rscale>  0 0.90838107E+02</rscale>
<asrwt>0</asrwt>
<pdfrwt beam="1">  1        2 0.10267829E+00 0.90838107E+02</pdfrwt>
<pdfrwt beam="2">  1       -2 0.47552220E-03 0.90838107E+02</pdfrwt>
<totfact> 0.23674019E+05</totfact>
</mgrwt>
</event>
<event>
 7    1  0.3891761E-009  0.9201496E+02  0.7818608E-02  0.1298044E+00
          2   -1    0    0  501    0  0.00000000000E+00  0.00000000000E+00  0.23979039109E+03  0.23979039110E+03  0.25500000000E-02 0. -1.
         -2   -1    0    0    0  501 -0.00000000000E+00 -0.00000000000E+00 -0.88272437309E+01  0.88272440992E+01  0.25500000000E-02 0.  1.
         23    2    1    2    0    0  0.00000000000E+00  0.00000000000E+00  0.23096314736E+03  0.24861763520E+03  0.92014961260E+02 0.  0.
    9000005    2    3    3    0    0  0.25756607647E+02  0.12175688704E+02  0.21273889590E+03  0.21479791353E+03  0.82858671100E+01 0.  0.
         22    1    3    3    0    0 -0.25756607647E+02 -0.12175688704E+02  0.18224251456E+02  0.33819721673E+02  0.00000000000E+00 0.  1.
         22    1    4    4    0    0  0.21262889604E+02  0.69689886919E+01  0.14586223765E+03  0.14756852527E+03  0.00000000000E+00 0.  1.
         22    1    4    4    0    0  0.44937180432E+01  0.52067000120E+01  0.66876658247E+02  0.67229388255E+02  0.00000000000E+00 0.  1.
<mgrwt>
<rscale>  0 0.92014961E+02</rscale>
<asrwt>0</asrwt>
<pdfrwt beam="1">  1        2 0.36890828E-01 0.92014961E+02</pdfrwt>
<pdfrwt beam="2">  1       -2 0.13580376E-02 0.92014961E+02</pdfrwt>
<totfact> 0.16128375E+05</totfact>
</mgrwt>
</event>
<event>
 7    1  0.3891761E-009  0.8952283E+02  0.7818608E-02  0.1304011E+00
          2   -1    0    0  501    0  0.00000000000E+00  0.00000000000E+00  0.82769158812E+02  0.82769158851E+02  0.25500000000E-02 0. -1.
         -2   -1    0    0    0  501 -0.00000000000E+00 -0.00000000000E+00 -0.24206891608E+02  0.24206891743E+02  0.25500000000E-02 0.  1.
         23    2    1    2    0    0  0.44408920985E-15  0.71054273576E-14  0.58562267203E+02  0.10697605059E+03  0.89522825361E+02 0.  0.
    9000005    2    3    3    0    0  0.28990607225E+01  0.36462797285E+02  0.12052581969E+01  0.38948360488E+02  0.13325989586E+02 0.  0.
         22    1    3    3    0    0 -0.28990607225E+01 -0.36462797285E+02  0.57357009006E+02  0.68027690106E+02  0.00000000000E+00 0. -1.
         22    1    4    4    0    0 -0.14031470876E+01  0.23739862562E+02 -0.47592973820E+01  0.24252851539E+02  0.00000000000E+00 0. -1.
         22    1    4    4    0    0  0.43022078101E+01  0.12722934723E+02  0.59645555789E+01  0.14695508949E+02  0.00000000000E+00 0. -1.
<mgrwt>
<rscale>  0 0.89522825E+02</rscale>
<asrwt>0</asrwt>
<pdfrwt beam="1">  1        2 0.12733717E-01 0.89522825E+02</pdfrwt>
<pdfrwt beam="2">  1       -2 0.37241372E-02 0.89522825E+02</pdfrwt>
<totfact> 0.12201491E+05</totfact>
</mgrwt>
</event>
<event>
 7    1  0.3891761E-009  0.9024079E+02  0.7818608E-02  0.1302270E+00
         -2   -1    0    0    0  501 -0.00000000000E+00  0.00000000000E+00  0.99064347981E+01  0.99064351263E+01  0.25500000000E-02 0. -1.
          2   -1    0    0  501    0  0.00000000000E+00 -0.00000000000E+00 -0.20550783090E+03  0.20550783091E+03  0.25500000000E-02 0.  1.
         23    2    1    2    0    0  0.00000000000E+00 -0.35527136788E-14 -0.19560139610E+03  0.21541426604E+03  0.90240788213E+02 0.  0.
    9000005    2    3    3    0    0 -0.99468847618E+01  0.30208707764E+02 -0.22535500111E+02  0.39450318324E+02  0.60804859530E+01 0.  0.
         22    1    3    3    0    0  0.99468847618E+01 -0.30208707764E+02 -0.17306589599E+03  0.17596394772E+03  0.00000000000E+00 0.  1.
         22    1    4    4    0    0 -0.63971052600E+01  0.25202527228E+02 -0.20027650419E+02  0.32820681219E+02  0.00000000000E+00 0. -1.
         22    1    4    4    0    0 -0.35497795018E+01  0.50061805355E+01 -0.25078496914E+01  0.66296371047E+01  0.00000000000E+00 0. -1.
<mgrwt>
<rscale>  0 0.90240788E+02</rscale>
<asrwt>0</asrwt>
<pdfrwt beam="2">  1        2 0.31616586E-01 0.90240788E+02</pdfrwt>
<pdfrwt beam="1">  1       -2 0.15240671E-02 0.90240788E+02</pdfrwt>
<totfact> 0.16060248E+05</totfact>
</mgrwt>
</event>
<event>
 7    1  0.3891761E-009  0.8695986E+02  0.7818608E-02  0.1310385E+00
         -2   -1    0    0    0  501 -0.00000000000E+00  0.00000000000E+00  0.25485056617E+01  0.25485069375E+01  0.25500000000E-02 0. -1.
          2   -1    0    0  501    0  0.00000000000E+00 -0.00000000000E+00 -0.74180876365E+03  0.74180876366E+03  0.25500000000E-02 0.  1.
         23    2    1    2    0    0  0.00000000000E+00  0.00000000000E+00 -0.73926025799E+03  0.74435727060E+03  0.86959859947E+02 0.  0.
    9000005    2    3    3    0    0 -0.68511133050E+01  0.39345917198E+02 -0.50068262602E+03  0.50245992578E+03  0.13705694369E+02 0.  0.
         22    1    3    3    0    0  0.68511133050E+01 -0.39345917198E+02 -0.23857763197E+03  0.24189734482E+03  0.00000000000E+00 0.  1.
         22    1    4    4    0    0 -0.57933859386E+01  0.40195914643E+02 -0.47148656409E+03  0.47323234779E+03  0.00000000000E+00 0.  1.
         22    1    4    4    0    0 -0.10577273664E+01 -0.84999744501E+00 -0.29196061933E+02  0.29227577991E+02  0.00000000000E+00 0.  1.
<mgrwt>
<rscale>  0 0.86959860E+02</rscale>
<asrwt>0</asrwt>
<pdfrwt beam="2">  1        2 0.11412425E+00 0.86959860E+02</pdfrwt>
<pdfrwt beam="1">  1       -2 0.39207849E-03 0.86959860E+02</pdfrwt>
<totfact> 0.27206707E+05</totfact>
</mgrwt>
</event>
<event>
 7    1  0.3891761E-009  0.9099716E+02  0.7818608E-02  0.1300455E+00
         -2   -1    0    0    0  501 -0.00000000000E+00  0.00000000000E+00  0.17558665803E+02  0.17558665988E+02  0.25500000000E-02 0.  1.
          2   -1    0    0  501    0  0.00000000000E+00 -0.00000000000E+00 -0.11789739243E+03  0.11789739245E+03  0.25500000000E-02 0. -1.
         23    2    1    2    0    0  0.00000000000E+00  0.00000000000E+00 -0.10033872662E+03  0.13545605844E+03  0.90997163188E+02 0.  0.
    9000005    2    3    3    0    0  0.29536991147E+02  0.18776613479E+02 -0.10071720060E+02  0.38641144644E+02  0.12911369203E+02 0.  0.
         22    1    3    3    0    0 -0.29536991147E+02 -0.18776613479E+02 -0.90267006564E+02  0.96814913799E+02  0.00000000000E+00 0. -1.
         22    1    4    4    0    0  0.21230751129E+02  0.70183179230E+01 -0.93201103786E+01  0.24225318108E+02  0.00000000000E+00 0.  1.
         22    1    4    4    0    0  0.83062400183E+01  0.11758295556E+02 -0.75160968153E+00  0.14415826537E+02  0.00000000000E+00 0.  1.
<mgrwt>
<rscale>  0 0.90997163E+02</rscale>
<asrwt>0</asrwt>
<pdfrwt beam="2">  1        2 0.18138060E-01 0.90997163E+02</pdfrwt>
<pdfrwt beam="1">  1       -2 0.27013333E-02 0.90997163E+02</pdfrwt>
<totfact> 0.12983193E+05</totfact>
</mgrwt>
</event>
<event>
 7    1  0.3891761E-009  0.9221568E+02  0.7818608E-02  0.1297573E+00
         -2   -1    0    0    0  501 -0.00000000000E+00  0.00000000000E+00  0.41190115607E+02  0.41190115686E+02  0.25500000000E-02 0.  1.
          2   -1    0    0  501    0  0.00000000000E+00 -0.00000000000E+00 -0.51612691569E+02  0.51612691632E+02  0.25500000000E-02 0. -1.
         23    2    1    2    0    0  0.00000000000E+00  0.00000000000E+00 -0.10422575962E+02  0.92802807318E+02  0.92215676305E+02 0.  0.
    9000005    2    3    3    0    0  0.36649964382E+02  0.19421155434E+02 -0.24591403833E+02  0.48971804013E+02  0.85498115892E+01 0.  0.
         22    1    3    3    0    0 -0.36649964382E+02 -0.19421155434E+02  0.14168827871E+02  0.43831003306E+02  0.00000000000E+00 0. -1.
         22    1    4    4    0    0  0.28392191126E+02  0.11807388992E+02 -0.20772123231E+02  0.37108113066E+02  0.00000000000E+00 0. -1.
         22    1    4    4    0    0  0.82577732552E+01  0.76137664421E+01 -0.38192806018E+01  0.11863690947E+02  0.00000000000E+00 0. -1.
<mgrwt>
<rscale>  0 0.92215676E+02</rscale>
<asrwt>0</asrwt>
<pdfrwt beam="2">  1        2 0.79404141E-02 0.92215676E+02</pdfrwt>
<pdfrwt beam="1">  1       -2 0.63369409E-02 0.92215676E+02</pdfrwt>
<totfact> 0.98680103E+04</totfact>
</mgrwt>
</event>
<event>
 7    1  0.3891761E-009  0.9141347E+02  0.7818608E-02  0.1299464E+00
         -2   -1    0    0    0  501 -0.00000000000E+00  0.00000000000E+00  0.73621350669E+03  0.73621350669E+03  0.25500000000E-02 0.  1.
          2   -1    0    0  501    0  0.00000000000E+00 -0.00000000000E+00 -0.28376347360E+01  0.28376358817E+01  0.25500000000E-02 0. -1.
         23    2    1    2    0    0  0.00000000000E+00  0.00000000000E+00  0.73337587195E+03  0.73905114257E+03  0.91413466069E+02 0.  0.
    9000005    2    3    3    0    0 -0.28449028065E+02 -0.50463883432E+01  0.65081183097E+03  0.65157752315E+03  0.12744257571E+02 0.  0.
         22    1    3    3    0    0  0.28449028065E+02  0.50463883432E+01  0.82564040979E+02  0.87473619429E+02  0.00000000000E+00 0. -1.
         22    1    4    4    0    0 -0.26694173868E+02 -0.81416194023E+01  0.59293629358E+03  0.59359271654E+03  0.00000000000E+00 0. -1.
         22    1    4    4    0    0 -0.17548541969E+01  0.30952310591E+01  0.57875537395E+02  0.57984806608E+02  0.00000000000E+00 0. -1.
<mgrwt>
<rscale>  0 0.91413466E+02</rscale>
<asrwt>0</asrwt>
<pdfrwt beam="2">  1        2 0.43655911E-03 0.91413466E+02</pdfrwt>
<pdfrwt beam="1">  1       -2 0.11326366E+00 0.91413466E+02</pdfrwt>
<totfact> 0.25726648E+04</totfact>
</mgrwt>
</event>
<event>
 7    1  0.3891761E-009  0.9054027E+02  0.7818608E-02  0.1301549E+00
         -2   -1    0    0    0  501 -0.00000000000E+00  0.00000000000E+00  0.11190328058E+02  0.11190328348E+02  0.25500000000E-02 0.  1.
          2   -1    0    0  501    0  0.00000000000E+00 -0.00000000000E+00 -0.18313894784E+03  0.18313894786E+03  0.25500000000E-02 0. -1.
         23    2    1    2    0    0  0.17763568394E-14  0.00000000000E+00 -0.17194861978E+03  0.19432927621E+03  0.90540265881E+02 0.  0.
    9000005    2    3    3    0    0 -0.14364254666E+02  0.19677972829E+02 -0.16725223133E+03  0.16951777703E+03  0.13015891032E+02 0.  0.
         22    1    3    3    0    0  0.14364254666E+02 -0.19677972829E+02 -0.46963884573E+01  0.24811499175E+02  0.00000000000E+00 0.  1.
         22    1    4    4    0    0 -0.27084510697E+01  0.52152276222E+01 -0.14580373198E+02  0.15720101429E+02  0.00000000000E+00 0.  1.
         22    1    4    4    0    0 -0.11655803597E+02  0.14462745207E+02 -0.15267185813E+03  0.15379767560E+03  0.00000000000E+00 0.  1.
<mgrwt>
<rscale>  0 0.90540266E+02</rscale>
<asrwt>0</asrwt>
<pdfrwt beam="2">  1        2 0.28175221E-01 0.90540266E+02</pdfrwt>
<pdfrwt beam="1">  1       -2 0.17215891E-02 0.90540266E+02</pdfrwt>
<totfact> 0.15272300E+05</totfact>
</mgrwt>
</event>
<event>
 7    1  0.3891761E-009  0.9241669E+02  0.7818608E-02  0.1297103E+00
         -2   -1    0    0    0  501 -0.00000000000E+00  0.00000000000E+00  0.17044970459E+01  0.17044989534E+01  0.25500000000E-02 0. -1.
          2   -1    0    0  501    0  0.00000000000E+00 -0.00000000000E+00 -0.12526920246E+04  0.12526920246E+04  0.25500000000E-02 0.  1.
         23    2    1    2    0    0  0.00000000000E+00  0.00000000000E+00 -0.12509875276E+04  0.12543965236E+04  0.92416687962E+02 0.  0.
    9000005    2    3    3    0    0 -0.16512470762E+02 -0.11453773077E+02 -0.11880906675E+04  0.11883672451E+04  0.15919310087E+02 0.  0.
         22    1    3    3    0    0  0.16512470762E+02  0.11453773077E+02 -0.62896860134E+02  0.66029278529E+02  0.00000000000E+00 0. -1.
         22    1    4    4    0    0 -0.13086361437E+01  0.16521342759E+01 -0.21319535075E+02  0.21423460319E+02  0.00000000000E+00 0.  1.
         22    1    4    4    0    0 -0.15203834618E+02 -0.13105907353E+02 -0.11667711324E+04  0.11669437847E+04  0.00000000000E+00 0.  1.
<mgrwt>
<rscale>  0 0.92416688E+02</rscale>
<asrwt>0</asrwt>
<pdfrwt beam="2">  1        2 0.19272111E+00 0.92416688E+02</pdfrwt>
<pdfrwt beam="1">  1       -2 0.26223146E-03 0.92416688E+02</pdfrwt>
<totfact> 0.23863799E+05</totfact>
</mgrwt>
</event>
<event>
 7    1  0.3891761E-009  0.9003912E+02  0.7818608E-02  0.1302757E+00
          2   -1    0    0  501    0  0.00000000000E+00  0.00000000000E+00  0.54936488357E+02  0.54936488416E+02  0.25500000000E-02 0. -1.
         -2   -1    0    0    0  501 -0.00000000000E+00 -0.00000000000E+00 -0.36892801864E+02  0.36892801952E+02  0.25500000000E-02 0.  1.
         23    2    1    2    0    0  0.71054273576E-14 -0.44408920985E-15  0.18043686493E+02  0.91829290368E+02  0.90039124536E+02 0.  0.
    9000005    2    3    3    0    0 -0.41959665732E+02  0.24017637135E+01  0.22534315358E+02  0.49561716924E+02  0.13497644186E+02 0.  0.
         22    1    3    3    0    0  0.41959665732E+02 -0.24017637135E+01 -0.44906288641E+01  0.42267573444E+02  0.00000000000E+00 0.  1.
         22    1    4    4    0    0 -0.16657326312E+02  0.12204714907E+01  0.17450958144E+01  0.16792898199E+02  0.00000000000E+00 0. -1.
         22    1    4    4    0    0 -0.25302339420E+02  0.11812922228E+01  0.20789219543E+02  0.32768818725E+02  0.00000000000E+00 0. -1.
<mgrwt>
<rscale>  0 0.90039125E+02</rscale>
<asrwt>0</asrwt>
<pdfrwt beam="1">  1        2 0.84517675E-02 0.90039125E+02</pdfrwt>
<pdfrwt beam="2">  1       -2 0.56758157E-02 0.90039125E+02</pdfrwt>
<totfact> 0.10735646E+05</totfact>
</mgrwt>
</event>
<event>
 7    1  0.3891761E-009  0.9848138E+02  0.7818608E-02  0.1283522E+00
          2   -1    0    0  501    0  0.00000000000E+00  0.00000000000E+00  0.68726573682E+03  0.68726573682E+03  0.25500000000E-02 0. -1.
         -2   -1    0    0    0  501 -0.00000000000E+00 -0.00000000000E+00 -0.35279590737E+01  0.35279599953E+01  0.25500000000E-02 0.  1.
         23    2    1    2    0    0  0.35527136788E-14 -0.71054273576E-14  0.68373777774E+03  0.69079369682E+03  0.98481383260E+02 0.  0.
    9000005    2    3    3    0    0  0.20444618565E+02 -0.37139595975E+02  0.51061657213E+03  0.51255710167E+03  0.13717387460E+02 0.  0.
         22    1    3    3    0    0 -0.20444618565E+02  0.37139595975E+02  0.17312120561E+03  0.17823659515E+03  0.00000000000E+00 0.  1.
         22    1    4    4    0    0  0.15419426919E+02 -0.19746785768E+02  0.35685148975E+03  0.35772989812E+03  0.00000000000E+00 0.  1.
         22    1    4    4    0    0  0.50251916459E+01 -0.17392810207E+02  0.15376508238E+03  0.15482720354E+03  0.00000000000E+00 0.  1.
<mgrwt>
<rscale>  0 0.98481383E+02</rscale>
<asrwt>0</asrwt>
<pdfrwt beam="1">  1        2 0.10573312E+00 0.98481383E+02</pdfrwt>
<pdfrwt beam="2">  1       -2 0.54276338E-03 0.98481383E+02</pdfrwt>
<totfact> 0.19251675E+05</totfact>
</mgrwt>
</event>
<event>
 7    1  0.3891761E-009  0.9096915E+02  0.7818608E-02  0.1300522E+00
         -2   -1    0    0    0  501 -0.00000000000E+00  0.00000000000E+00  0.70615459625E+01  0.70615464230E+01  0.25500000000E-02 0.  1.
          2   -1    0    0  501    0  0.00000000000E+00 -0.00000000000E+00 -0.29297360262E+03  0.29297360263E+03  0.25500000000E-02 0. -1.
         23    2    1    2    0    0  0.00000000000E+00  0.00000000000E+00 -0.28591205665E+03  0.30003514905E+03  0.90969151506E+02 0.  0.
    9000005    2    3    3    0    0  0.36030818728E+02 -0.87916248512E+01 -0.22843251940E+03  0.23162893758E+03  0.97486530341E+01 0.  0.
         22    1    3    3    0    0 -0.36030818728E+02  0.87916248512E+01 -0.57479537251E+02  0.68406211475E+02  0.00000000000E+00 0.  1.
         22    1    4    4    0    0  0.29703893531E+02 -0.10950826220E+02 -0.18990657255E+03  0.19252726608E+03  0.00000000000E+00 0.  1.
         22    1    4    4    0    0  0.63269251966E+01  0.21592013690E+01 -0.38525946855E+02  0.39101671499E+02  0.00000000000E+00 0.  1.
<mgrwt>
<rscale>  0 0.90969152E+02</rscale>
<asrwt>0</asrwt>
<pdfrwt beam="2">  1        2 0.45072852E-01 0.90969152E+02</pdfrwt>
<pdfrwt beam="1">  1       -2 0.10863920E-02 0.90969152E+02</pdfrwt>
<totfact> 0.17916817E+05</totfact>
</mgrwt>
</event>
<event>
 7    1  0.3891761E-009  0.9207404E+02  0.7818608E-02  0.1297905E+00
         -2   -1    0    0    0  501 -0.00000000000E+00  0.00000000000E+00  0.94471571263E+01  0.94471574705E+01  0.25500000000E-02 0. -1.
          2   -1    0    0  501    0  0.00000000000E+00 -0.00000000000E+00 -0.22434337666E+03  0.22434337668E+03  0.25500000000E-02 0.  1.
         23    2    1    2    0    0  0.00000000000E+00  0.00000000000E+00 -0.21489621954E+03  0.23379053415E+03  0.92074039153E+02 0.  0.
    9000005    2    3    3    0    0 -0.13105290720E+02 -0.34079294777E+02 -0.43343431110E+02  0.58395248595E+02  0.14078531908E+02 0.  0.
         22    1    3    3    0    0  0.13105290720E+02  0.34079294777E+02 -0.17155278843E+03  0.17539528555E+03  0.00000000000E+00 0.  1.
         22    1    4    4    0    0 -0.13641391934E+01  0.11462971904E+01 -0.87945056824E+00  0.19870345467E+01  0.00000000000E+00 0. -1.
         22    1    4    4    0    0 -0.11741151526E+02 -0.35225591968E+02 -0.42463980542E+02  0.56408214048E+02  0.00000000000E+00 0. -1.
<mgrwt>
<rscale>  0 0.92074039E+02</rscale>
<asrwt>0</asrwt>
<pdfrwt beam="2">  1        2 0.34514362E-01 0.92074039E+02</pdfrwt>
<pdfrwt beam="1">  1       -2 0.14534090E-02 0.92074039E+02</pdfrwt>
<totfact> 0.15710138E+05</totfact>
</mgrwt>
</event>
<event>
 7    1  0.3891761E-009  0.9161191E+02  0.7818608E-02  0.1298995E+00
          2   -1    0    0  501    0  0.00000000000E+00  0.00000000000E+00  0.48675586708E+03  0.48675586709E+03  0.25500000000E-02 0. -1.
         -2   -1    0    0    0  501 -0.00000000000E+00 -0.00000000000E+00 -0.43105496821E+01  0.43105504364E+01  0.25500000000E-02 0.  1.
         23    2    1    2    0    0  0.00000000000E+00 -0.35527136788E-14  0.48244531740E+03  0.49106641752E+03  0.91611910469E+02 0.  0.
    9000005    2    3    3    0    0 -0.39376435843E+02  0.20780786380E+02  0.28817601066E+03  0.29176035058E+03  0.98155114482E+01 0.  0.
         22    1    3    3    0    0  0.39376435843E+02 -0.20780786380E+02  0.19426930673E+03  0.19930606695E+03  0.00000000000E+00 0.  1.
         22    1    4    4    0    0 -0.39682716025E+02  0.19754635859E+02  0.27596756328E+03  0.27950502602E+03  0.00000000000E+00 0.  1.
         22    1    4    4    0    0  0.30628018184E+00  0.10261505205E+01  0.12208447381E+02  0.12255324553E+02  0.00000000000E+00 0.  1.
<mgrwt>
<rscale>  0 0.91611910E+02</rscale>
<asrwt>0</asrwt>
<pdfrwt beam="1">  1        2 0.74885518E-01 0.91611910E+02</pdfrwt>
<pdfrwt beam="2">  1       -2 0.66316155E-03 0.91611910E+02</pdfrwt>
<totfact> 0.21093367E+05</totfact>
</mgrwt>
</event>
<event>
 7    1  0.3891761E-009  0.9190761E+02  0.7818608E-02  0.1298297E+00
          2   -1    0    0  501    0  0.00000000000E+00  0.00000000000E+00  0.62888316174E+03  0.62888316174E+03  0.25500000000E-02 0. -1.
         -2   -1    0    0    0  501 -0.00000000000E+00 -0.00000000000E+00 -0.33579401219E+01  0.33579410901E+01  0.25500000000E-02 0.  1.
         23    2    1    2    0    0  0.00000000000E+00  0.00000000000E+00  0.62552522162E+03  0.63224110283E+03  0.91907612492E+02 0.  0.
    9000005    2    3    3    0    0 -0.36616238491E+02 -0.58971429265E+01  0.49357855561E+03  0.49518108719E+03  0.14456602105E+02 0.  0.
         22    1    3    3    0    0  0.36616238491E+02  0.58971429265E+01  0.13194666601E+03  0.13706001564E+03  0.00000000000E+00 0.  1.
         22    1    4    4    0    0  0.27351743468E+00  0.18899290356E+01  0.15284541339E+02  0.15403371303E+02  0.00000000000E+00 0. -1.
         22    1    4    4    0    0 -0.36889755925E+02 -0.77870719621E+01  0.47829401427E+03  0.47977771589E+03  0.00000000000E+00 0. -1.
<mgrwt>
<rscale>  0 0.91907612E+02</rscale>
<asrwt>0</asrwt>
<pdfrwt beam="1">  1        2 0.96751307E-01 0.91907612E+02</pdfrwt>
<pdfrwt beam="2">  1       -2 0.51660598E-03 0.91907612E+02</pdfrwt>
<totfact> 0.22601406E+05</totfact>
</mgrwt>
</event>
<event>
 7    1  0.3891761E-009  0.9167389E+02  0.7818608E-02  0.1298848E+00
         -2   -1    0    0    0  501 -0.00000000000E+00  0.00000000000E+00  0.24767521077E+03  0.24767521078E+03  0.25500000000E-02 0.  1.
          2   -1    0    0  501    0  0.00000000000E+00 -0.00000000000E+00 -0.84829864018E+01  0.84829867851E+01  0.25500000000E-02 0. -1.
         23    2    1    2    0    0  0.00000000000E+00  0.00000000000E+00  0.23919222437E+03  0.25615819757E+03  0.91673889320E+02 0.  0.
    9000005    2    3    3    0    0 -0.24853023296E+02 -0.32097881900E+02  0.68890724041E+02  0.81085219062E+02  0.13451174741E+02 0.  0.
         22    1    3    3    0    0  0.24853023296E+02  0.32097881900E+02  0.17030150032E+03  0.17507297850E+03  0.00000000000E+00 0. -1.
         22    1    4    4    0    0 -0.55489222369E+01 -0.79718511398E+01  0.72046659644E+01  0.12093310558E+02  0.00000000000E+00 0.  1.
         22    1    4    4    0    0 -0.19304101060E+02 -0.24126030760E+02  0.61686058077E+02  0.68991908504E+02  0.00000000000E+00 0.  1.
<mgrwt>
<rscale>  0 0.91673889E+02</rscale>
<asrwt>0</asrwt>
<pdfrwt beam="2">  1        2 0.13050747E-02 0.91673889E+02</pdfrwt>
<pdfrwt beam="1">  1       -2 0.38103884E-01 0.91673889E+02</pdfrwt>
<totfact> 0.55656129E+04</totfact>
</mgrwt>
</event>
<event>
 7    1  0.3891761E-009  0.8981371E+02  0.7818608E-02  0.1303303E+00
         -2   -1    0    0    0  501 -0.00000000000E+00  0.00000000000E+00  0.90908500024E+02  0.90908500060E+02  0.25500000000E-02 0.  1.
          2   -1    0    0  501    0  0.00000000000E+00 -0.00000000000E+00 -0.22183025867E+02  0.22183026014E+02  0.25500000000E-02 0. -1.
         23    2    1    2    0    0 -0.17763568394E-14  0.17763568394E-14  0.68725474157E+02  0.11309152607E+03  0.89813709820E+02 0.  0.
    9000005    2    3    3    0    0  0.15780831254E+02 -0.12448671162E+02  0.84767178865E+02  0.87374987841E+02  0.67014803451E+01 0.  0.
         22    1    3    3    0    0 -0.15780831254E+02  0.12448671162E+02 -0.16041704707E+02  0.25716538233E+02  0.00000000000E+00 0. -1.
         22    1    4    4    0    0  0.48700601766E+01 -0.80769755010E+01  0.37143804342E+02  0.38322541935E+02  0.00000000000E+00 0. -1.
         22    1    4    4    0    0  0.10910771077E+02 -0.43716956612E+01  0.47623374523E+02  0.49052445906E+02  0.00000000000E+00 0. -1.
<mgrwt>
<rscale>  0 0.89813710E+02</rscale>
<asrwt>0</asrwt>
<pdfrwt beam="2">  1        2 0.34127732E-02 0.89813710E+02</pdfrwt>
<pdfrwt beam="1">  1       -2 0.13985923E-01 0.89813710E+02</pdfrwt>
<totfact> 0.85183128E+04</totfact>
</mgrwt>
</event>
<event>
 7    1  0.3891761E-009  0.9047800E+02  0.7818608E-02  0.1301698E+00
         -2   -1    0    0    0  501 -0.00000000000E+00  0.00000000000E+00  0.26536691034E+01  0.26536703286E+01  0.25500000000E-02 0. -1.
          2   -1    0    0  501    0  0.00000000000E+00 -0.00000000000E+00 -0.77122153249E+03  0.77122153249E+03  0.25500000000E-02 0.  1.
         23    2    1    2    0    0  0.17763568394E-14  0.00000000000E+00 -0.76856786339E+03  0.77387520282E+03  0.90478002373E+02 0.  0.
    9000005    2    3    3    0    0 -0.11301610563E+02 -0.36595665410E+02 -0.58257344841E+03  0.58397814773E+03  0.13102866592E+02 0.  0.
         22    1    3    3    0    0  0.11301610563E+02  0.36595665410E+02 -0.18599441498E+03  0.18989705509E+03  0.00000000000E+00 0. -1.
         22    1    4    4    0    0  0.27866877269E+01 -0.55660240420E+01 -0.11155952454E+03  0.11173304690E+03  0.00000000000E+00 0. -1.
         22    1    4    4    0    0 -0.14088298290E+02 -0.31029641368E+02 -0.47101392386E+03  0.47224510084E+03  0.00000000000E+00 0. -1.
<mgrwt>
<rscale>  0 0.90478002E+02</rscale>
<asrwt>0</asrwt>
<pdfrwt beam="2">  1        2 0.11864929E+00 0.90478002E+02</pdfrwt>
<pdfrwt beam="1">  1       -2 0.40825749E-03 0.90478002E+02</pdfrwt>
<totfact> 0.24705703E+05</totfact>
</mgrwt>
</event>
<event>
 7    1  0.3891761E-009  0.9208724E+02  0.7818608E-02  0.1297874E+00
         -2   -1    0    0    0  501 -0.00000000000E+00  0.00000000000E+00  0.13501554426E+02  0.13501554667E+02  0.25500000000E-02 0.  1.
          2   -1    0    0  501    0  0.00000000000E+00 -0.00000000000E+00 -0.15702006837E+03  0.15702006839E+03  0.25500000000E-02 0. -1.
         23    2    1    2    0    0  0.00000000000E+00  0.00000000000E+00 -0.14351851394E+03  0.17052162306E+03  0.92087241709E+02 0.  0.
    9000005    2    3    3    0    0  0.81558951469E+01  0.43154640619E+02 -0.92520643005E+02  0.10321913816E+03  0.12856106271E+02 0.  0.
         22    1    3    3    0    0 -0.81558951469E+01 -0.43154640619E+02 -0.50997870936E+02  0.67302484892E+02  0.00000000000E+00 0.  1.
         22    1    4    4    0    0  0.50569437142E+01  0.37630804255E+02 -0.67880459620E+02  0.77777933290E+02  0.00000000000E+00 0.  1.
         22    1    4    4    0    0  0.30989514327E+01  0.55238363641E+01 -0.24640183385E+02  0.25441204873E+02  0.00000000000E+00 0.  1.
<mgrwt>
<rscale>  0 0.92087242E+02</rscale>
<asrwt>0</asrwt>
<pdfrwt beam="2">  1        2 0.24156932E-01 0.92087242E+02</pdfrwt>
<pdfrwt beam="1">  1       -2 0.20771624E-02 0.92087242E+02</pdfrwt>
<totfact> 0.13823485E+05</totfact>
</mgrwt>
</event>
<event>
 7    1  0.3891761E-009  0.8771209E+02  0.7818608E-02  0.1308489E+00
          2   -1    0    0  501    0  0.00000000000E+00  0.00000000000E+00  0.90469138982E+01  0.90469142576E+01  0.25500000000E-02 0. -1.
         -2   -1    0    0    0  501 -0.00000000000E+00 -0.00000000000E+00 -0.21259767220E+03  0.21259767221E+03  0.25500000000E-02 0.  1.
         23    2    1    2    0    0  0.17763568394E-14 -0.71054273576E-14 -0.20355075830E+03  0.22164458647E+03  0.87712094419E+02 0.  0.
    9000005    2    3    3    0    0  0.14441273484E+02 -0.39802252706E+02 -0.11219760555E+03  0.12095611534E+03  0.15789536026E+02 0.  0.
         22    1    3    3    0    0 -0.14441273484E+02  0.39802252706E+02 -0.91353152753E+02  0.10068847113E+03  0.00000000000E+00 0. -1.
         22    1    4    4    0    0  0.58650021045E+01 -0.29614616596E+02 -0.91432416397E+02  0.96287644763E+02  0.00000000000E+00 0. -1.
         22    1    4    4    0    0  0.85762713799E+01 -0.10187636110E+02 -0.20765189150E+02  0.24668470579E+02  0.00000000000E+00 0. -1.
<mgrwt>
<rscale>  0 0.87712094E+02</rscale>
<asrwt>0</asrwt>
<pdfrwt beam="1">  1        2 0.13918331E-02 0.87712094E+02</pdfrwt>
<pdfrwt beam="2">  1       -2 0.32707330E-01 0.87712094E+02</pdfrwt>
<totfact> 0.66970945E+04</totfact>
</mgrwt>
</event>
<event>
 7    1  0.3891761E-009  0.9323855E+02  0.7818608E-02  0.1295193E+00
         -2   -1    0    0    0  501 -0.00000000000E+00  0.00000000000E+00  0.60216765379E+02  0.60216765433E+02  0.25500000000E-02 0.  1.
          2   -1    0    0  501    0  0.00000000000E+00 -0.00000000000E+00 -0.36092217147E+02  0.36092217237E+02  0.25500000000E-02 0. -1.
         23    2    1    2    0    0  0.17763568394E-14 -0.17763568394E-14  0.24124548232E+02  0.96308982671E+02  0.93238545225E+02 0.  0.
    9000005    2    3    3    0    0 -0.13435747943E+02  0.90930552471E+01  0.56699312835E+02  0.59917798773E+02  0.10589030048E+02 0.  0.
         22    1    3    3    0    0  0.13435747943E+02 -0.90930552471E+01 -0.32574764603E+02  0.36391183897E+02  0.00000000000E+00 0. -1.
         22    1    4    4    0    0 -0.13707209738E+01 -0.16854581556E+01  0.23003939275E+01  0.31640887162E+01  0.00000000000E+00 0. -1.
         22    1    4    4    0    0 -0.12065026969E+02  0.10778513403E+02  0.54398918908E+02  0.56753710057E+02  0.00000000000E+00 0. -1.
<mgrwt>
<rscale>  0 0.93238545E+02</rscale>
<asrwt>0</asrwt>
<pdfrwt beam="2">  1        2 0.55526488E-02 0.93238545E+02</pdfrwt>
<pdfrwt beam="1">  1       -2 0.92641177E-02 0.93238545E+02</pdfrwt>
<totfact> 0.86987334E+04</totfact>
</mgrwt>
</event>
<event>
 7    1  0.3891761E-009  0.9189996E+02  0.7818608E-02  0.1298315E+00
          2   -1    0    0  501    0  0.00000000000E+00  0.00000000000E+00  0.75869230084E+02  0.75869230127E+02  0.25500000000E-02 0. -1.
         -2   -1    0    0    0  501 -0.00000000000E+00 -0.00000000000E+00 -0.27829471129E+02  0.27829471246E+02  0.25500000000E-02 0.  1.
         23    2    1    2    0    0  0.00000000000E+00  0.00000000000E+00  0.48039758955E+02  0.10369870137E+03  0.91899957704E+02 0.  0.
    9000005    2    3    3    0    0  0.25681463813E+02  0.63381422101E+01  0.66036698851E+02  0.71704960174E+02  0.90025600925E+01 0.  0.
         22    1    3    3    0    0 -0.25681463813E+02 -0.63381422101E+01 -0.17996939896E+02  0.31993741198E+02  0.00000000000E+00 0.  1.
         22    1    4    4    0    0  0.44888851959E+01 -0.17534385135E+01  0.73759967766E+01  0.88107868758E+01  0.00000000000E+00 0. -1.
         22    1    4    4    0    0  0.21192578617E+02  0.80915807237E+01  0.58660702074E+02  0.62894173299E+02  0.00000000000E+00 0. -1.
<mgrwt>
<rscale>  0 0.91899958E+02</rscale>
<asrwt>0</asrwt>
<pdfrwt beam="1">  1        2 0.11672189E-01 0.91899958E+02</pdfrwt>
<pdfrwt beam="2">  1       -2 0.42814571E-02 0.91899958E+02</pdfrwt>
<totfact> 0.11067160E+05</totfact>
</mgrwt>
</event>
<event>
 7    1  0.3891761E-009  0.9200267E+02  0.7818608E-02  0.1298073E+00
          2   -1    0    0  501    0  0.00000000000E+00  0.00000000000E+00  0.55090654165E+03  0.55090654166E+03  0.25500000000E-02 0. -1.
         -2   -1    0    0    0  501 -0.00000000000E+00 -0.00000000000E+00 -0.38411647339E+01  0.38411655803E+01  0.25500000000E-02 0.  1.
         23    2    1    2    0    0  0.44408920985E-15  0.00000000000E+00  0.54706537692E+03  0.55474770724E+03  0.92002674220E+02 0.  0.
    9000005    2    3    3    0    0  0.30861996777E+01  0.25576337880E+02  0.50190800594E+03  0.50275865223E+03  0.13818186183E+02 0.  0.
         22    1    3    3    0    0 -0.30861996777E+01 -0.25576337880E+02  0.45157370972E+02  0.51989055011E+02  0.00000000000E+00 0.  1.
         22    1    4    4    0    0 -0.40943155733E+01  0.33735894289E+01  0.13899809666E+03  0.13909930050E+03  0.00000000000E+00 0.  1.
         22    1    4    4    0    0  0.71805152510E+01  0.22202748451E+02  0.36290990928E+03  0.36365935172E+03  0.00000000000E+00 0.  1.
<mgrwt>
<rscale>  0 0.92002674E+02</rscale>
<asrwt>0</asrwt>
<pdfrwt beam="1">  1        2 0.84754820E-01 0.92002674E+02</pdfrwt>
<pdfrwt beam="2">  1       -2 0.59094871E-03 0.92002674E+02</pdfrwt>
<totfact> 0.21694926E+05</totfact>
</mgrwt>
</event>
<event>
 7    1  0.3891761E-009  0.9079649E+02  0.7818608E-02  0.1300934E+00
         -2   -1    0    0    0  501 -0.00000000000E+00  0.00000000000E+00  0.15420354850E+03  0.15420354852E+03  0.25500000000E-02 0.  1.
          2   -1    0    0  501    0  0.00000000000E+00 -0.00000000000E+00 -0.13365455176E+02  0.13365455419E+02  0.25500000000E-02 0. -1.
         23    2    1    2    0    0  0.35527136788E-14  0.88817841970E-15  0.14083809332E+03  0.16756900394E+03  0.90796489745E+02 0.  0.
    9000005    2    3    3    0    0  0.22247734577E+02  0.74823354006E+01  0.31091815543E+01  0.27854293998E+02  0.14671320572E+02 0.  0.
         22    1    3    3    0    0 -0.22247734577E+02 -0.74823354006E+01  0.13772891176E+03  0.13971470994E+03  0.00000000000E+00 0.  1.
         22    1    4    4    0    0  0.13381885375E+02 -0.28014606725E+01  0.40060096748E+01  0.14246794432E+02  0.00000000000E+00 0. -1.
         22    1    4    4    0    0  0.88658492029E+01  0.10283796073E+02 -0.89682812055E+00  0.13607499566E+02  0.00000000000E+00 0. -1.
<mgrwt>
<rscale>  0 0.90796490E+02</rscale>
<asrwt>0</asrwt>
<pdfrwt beam="2">  1        2 0.20562238E-02 0.90796490E+02</pdfrwt>
<pdfrwt beam="1">  1       -2 0.23723624E-01 0.90796490E+02</pdfrwt>
<totfact> 0.69888064E+04</totfact>
</mgrwt>
</event>
<event>
 6    1  0.3891761E-009  0.3115082E+03  0.7818608E-02  0.1079625E+00
         -2   -1    0    0    0  501 -0.00000000000E+00  0.00000000000E+00  0.63040876541E+02  0.63040876593E+02  0.25500000000E-02 0.  1.
          2   -1    0    0  501    0  0.00000000000E+00 -0.00000000000E+00 -0.38481916098E+03  0.38481916099E+03  0.25500000000E-02 0. -1.
    9000005    2    1    2    0    0 -0.69628779198E+02  0.46743268226E+01  0.39295453483E+02  0.80104330025E+02  0.15983743121E+01 0.  0.
         22    1    1    2    0    0  0.69628779198E+02 -0.46743268226E+01 -0.36107373792E+03  0.36775570756E+03  0.00000000000E+00 0. -1.
         22    1    3    3    0    0 -0.49914032927E+02  0.39911157514E+01  0.27808695687E+02  0.57277074330E+02  0.00000000000E+00 0. -1.
         22    1    3    3    0    0 -0.19714746271E+02  0.68321107122E+00  0.11486757796E+02  0.22827255695E+02  0.00000000000E+00 0. -1.
<mgrwt>
<rscale>  0 0.31150818E+03</rscale>
<asrwt>0</asrwt>
<pdfrwt beam="2">  1        2 0.59202947E-01 0.31150818E+03</pdfrwt>
<pdfrwt beam="1">  1       -2 0.96985966E-02 0.31150818E+03</pdfrwt>
<totfact> 0.58012937E+03</totfact>
</mgrwt>
</event>
<event>
 6    1  0.3891761E-009  0.1426993E+03  0.7818608E-02  0.1209742E+00
          2   -1    0    0  501    0  0.00000000000E+00  0.00000000000E+00  0.35561904252E+03  0.35561904253E+03  0.25500000000E-02 0. -1.
         -2   -1    0    0    0  501 -0.00000000000E+00 -0.00000000000E+00 -0.14315250904E+02  0.14315251131E+02  0.25500000000E-02 0.  1.
    9000005    2    1    2    0    0  0.67340210945E+02 -0.34471565802E+01  0.23088936097E+03  0.24055912837E+03  0.34943289180E+01 0.  0.
         22    1    1    2    0    0 -0.67340210945E+02  0.34471565802E+01  0.11041443064E+03  0.12937516529E+03  0.00000000000E+00 0.  1.
         22    1    3    3    0    0  0.35253605940E+02 -0.26442611265E+01  0.11555322938E+03  0.12084021544E+03  0.00000000000E+00 0.  1.
         22    1    3    3    0    0  0.32086605006E+02 -0.80289545370E+00  0.11533613160E+03  0.11971891293E+03  0.00000000000E+00 0.  1.
<mgrwt>
<rscale>  0 0.14269935E+03</rscale>
<asrwt>0</asrwt>
<pdfrwt beam="1">  1        2 0.54710622E-01 0.14269935E+03</pdfrwt>
<pdfrwt beam="2">  1       -2 0.22023463E-02 0.14269935E+03</pdfrwt>
<totfact> 0.56363542E+04</totfact>
</mgrwt>
</event>
<event>
 7    1  0.3891761E-009  0.9317373E+02  0.7818608E-02  0.1295343E+00
          2   -1    0    0  501    0  0.00000000000E+00  0.00000000000E+00  0.20987987939E+04  0.20987987939E+04  0.25500000000E-02 0. -1.
         -2   -1    0    0    0  501 -0.00000000000E+00 -0.00000000000E+00 -0.10340832562E+01  0.10340864003E+01  0.25500000000E-02 0.  1.
         23    2    1    2    0    0  0.00000000000E+00  0.00000000000E+00  0.20977647107E+04  0.20998328803E+04  0.93173730068E+02 0.  0.
    9000005    2    3    3    0    0  0.18573553164E+02  0.13632504121E+02  0.19586603540E+04  0.19588334332E+04  0.12133204267E+02 0.  0.
         22    1    3    3    0    0 -0.18573553164E+02 -0.13632504121E+02  0.13910435666E+03  0.14099944712E+03  0.00000000000E+00 0.  1.
         22    1    4    4    0    0  0.35227540323E+01  0.67709630049E+01  0.32621378503E+03  0.32630306355E+03  0.00000000000E+00 0.  1.
         22    1    4    4    0    0  0.15050799132E+02  0.68615411161E+01  0.16324465690E+04  0.16325303697E+04  0.00000000000E+00 0.  1.
<mgrwt>
<rscale>  0 0.93173730E+02</rscale>
<asrwt>0</asrwt>
<pdfrwt beam="1">  1        2 0.32288808E+00 0.93173730E+02</pdfrwt>
<pdfrwt beam="2">  1       -2 0.15909196E-03 0.93173730E+02</pdfrwt>
<totfact> 0.17713385E+05</totfact>
</mgrwt>
</event>
<event>
 7    1  0.3891761E-009  0.9015863E+02  0.7818608E-02  0.1302468E+00
         -2   -1    0    0    0  501 -0.00000000000E+00  0.00000000000E+00  0.28746198889E+01  0.28746210199E+01  0.25500000000E-02 0.  1.
          2   -1    0    0  501    0  0.00000000000E+00 -0.00000000000E+00 -0.70692625851E+03  0.70692625852E+03  0.25500000000E-02 0. -1.
         23    2    1    2    0    0  0.00000000000E+00  0.00000000000E+00 -0.70405163862E+03  0.70980087954E+03  0.90158630996E+02 0.  0.
    9000005    2    3    3    0    0  0.19668330745E+01  0.36357637214E+02 -0.56008986365E+03  0.56130596761E+03  0.61634154097E+01 0.  0.
         22    1    3    3    0    0 -0.19668330745E+01 -0.36357637214E+02 -0.14396177497E+03  0.14849491193E+03  0.00000000000E+00 0.  1.
         22    1    4    4    0    0  0.38751848592E+01  0.25365799681E+02 -0.40982030303E+03  0.41062284596E+03  0.00000000000E+00 0. -1.
         22    1    4    4    0    0 -0.19083517847E+01  0.10991837533E+02 -0.15026956062E+03  0.15068312165E+03  0.00000000000E+00 0. -1.
<mgrwt>
<rscale>  0 0.90158631E+02</rscale>
<asrwt>0</asrwt>
<pdfrwt beam="2">  1        2 0.10875775E+00 0.90158631E+02</pdfrwt>
<pdfrwt beam="1">  1       -2 0.44224986E-03 0.90158631E+02</pdfrwt>
<totfact> 0.24482305E+05</totfact>
</mgrwt>
</event>
<event>
 7    1  0.3891761E-009  0.9003048E+02  0.7818608E-02  0.1302778E+00
          2   -1    0    0  501    0  0.00000000000E+00  0.00000000000E+00  0.33148248302E+02  0.33148248400E+02  0.25500000000E-02 0. -1.
         -2   -1    0    0    0  501 -0.00000000000E+00 -0.00000000000E+00 -0.61130583263E+02  0.61130583317E+02  0.25500000000E-02 0.  1.
         23    2    1    2    0    0 -0.71054273576E-14 -0.22204460493E-15 -0.27982334961E+02  0.94278831717E+02  0.90030478395E+02 0.  0.
    9000005    2    3    3    0    0  0.36178906285E+02  0.18934740239E+01  0.11009130069E+02  0.41054468413E+02  0.15867259623E+02 0.  0.
         22    1    3    3    0    0 -0.36178906285E+02 -0.18934740239E+01 -0.38991465030E+02  0.53224363304E+02  0.00000000000E+00 0.  1.
         22    1    4    4    0    0  0.36713586279E+02 -0.54652333255E+00  0.11564148024E+02  0.38495657220E+02  0.00000000000E+00 0.  1.
         22    1    4    4    0    0 -0.53467999395E+00  0.24399973565E+01 -0.55501795499E+00  0.25588111939E+01  0.00000000000E+00 0.  1.
<mgrwt>
<rscale>  0 0.90030478E+02</rscale>
<asrwt>0</asrwt>
<pdfrwt beam="1">  1        2 0.50997305E-02 0.90030478E+02</pdfrwt>
<pdfrwt beam="2">  1       -2 0.94047051E-02 0.90030478E+02</pdfrwt>
<totfact> 0.94271514E+04</totfact>
</mgrwt>
</event>
<event>
 7    1  0.3891761E-009  0.1040955E+03  0.7818608E-02  0.1271912E+00
         -2   -1    0    0    0  501 -0.00000000000E+00  0.00000000000E+00  0.92441510160E+01  0.92441513678E+01  0.25500000000E-02 0.  1.
          2   -1    0    0  501    0  0.00000000000E+00 -0.00000000000E+00 -0.29304646214E+03  0.29304646216E+03  0.25500000000E-02 0. -1.
         23    2    1    2    0    0  0.88817841970E-15  0.00000000000E+00 -0.28380231113E+03  0.30229061352E+03  0.10409545246E+03 0.  0.
    9000005    2    3    3    0    0  0.77547097969E+01  0.44892140353E+02 -0.21316579934E+03  0.21823731741E+03  0.10603250150E+02 0.  0.
         22    1    3    3    0    0 -0.77547097969E+01 -0.44892140353E+02 -0.70636511791E+02  0.84053296113E+02  0.00000000000E+00 0.  1.
         22    1    4    4    0    0  0.23557447552E+01  0.22320387514E+01 -0.83967699680E+01  0.90020706637E+01  0.00000000000E+00 0.  1.
         22    1    4    4    0    0  0.53989650417E+01  0.42660101601E+02 -0.20476902937E+03  0.20923524675E+03  0.00000000000E+00 0.  1.
<mgrwt>
<rscale>  0 0.10409545E+03</rscale>
<asrwt>0</asrwt>
<pdfrwt beam="2">  1        2 0.45084064E-01 0.10409545E+03</pdfrwt>
<pdfrwt beam="1">  1       -2 0.14221773E-02 0.10409545E+03</pdfrwt>
<totfact> 0.12469366E+05</totfact>
</mgrwt>
</event>
<event>
 7    1  0.3891761E-009  0.9050171E+02  0.7818608E-02  0.1301641E+00
          2   -1    0    0  501    0  0.00000000000E+00  0.00000000000E+00  0.22944894633E+04  0.22944894633E+04  0.25500000000E-02 0. -1.
         -2   -1    0    0    0  501 -0.00000000000E+00 -0.00000000000E+00 -0.89241457242E+00  0.89241821562E+00  0.25500000000E-02 0.  1.
         23    2    1    2    0    0  0.00000000000E+00  0.00000000000E+00  0.22935970487E+04  0.22953818815E+04  0.90501713050E+02 0.  0.
    9000005    2    3    3    0    0 -0.10512185409E+02  0.99586050472E+01  0.22338501471E+04  0.22339052834E+04  0.60544071631E+01 0.  0.
         22    1    3    3    0    0  0.10512185409E+02 -0.99586050472E+01  0.59746901649E+02  0.61476598094E+02  0.00000000000E+00 0.  1.
         22    1    4    4    0    0 -0.87300432296E+01  0.50694232488E+01  0.12193100973E+04  0.12193518878E+04  0.00000000000E+00 0.  1.
         22    1    4    4    0    0 -0.17821421790E+01  0.48891817984E+01  0.10145400498E+04  0.10145533957E+04  0.00000000000E+00 0.  1.
<mgrwt>
<rscale>  0 0.90501713E+02</rscale>
<asrwt>0</asrwt>
<pdfrwt beam="1">  1        2 0.35299334E+00 0.90501713E+02</pdfrwt>
<pdfrwt beam="2">  1       -2 0.13729679E-03 0.90501713E+02</pdfrwt>
<totfact> 0.17204555E+05</totfact>
</mgrwt>
</event>
<event>
 7    1  0.3891761E-009  0.9180910E+02  0.7818608E-02  0.1298529E+00
         -2   -1    0    0    0  501 -0.00000000000E+00  0.00000000000E+00  0.90521244012E+01  0.90521247604E+01  0.25500000000E-02 0.  1.
          2   -1    0    0  501    0  0.00000000000E+00 -0.00000000000E+00 -0.23278820207E+03  0.23278820209E+03  0.25500000000E-02 0. -1.
         23    2    1    2    0    0  0.00000000000E+00  0.88817841970E-15 -0.22373607767E+03  0.24184032685E+03  0.91809102150E+02 0.  0.
    9000005    2    3    3    0    0  0.44663071938E+02 -0.64122118949E+01 -0.13014538375E+03  0.13794073857E+03  0.73430231076E+01 0.  0.
         22    1    3    3    0    0 -0.44663071938E+02  0.64122118949E+01 -0.93590693921E+02  0.10389958828E+03  0.00000000000E+00 0.  1.
         22    1    4    4    0    0  0.67797659445E+01  0.76319291950E+00 -0.26232259678E+02  0.27104965182E+02  0.00000000000E+00 0. -1.
         22    1    4    4    0    0  0.37883305993E+02 -0.71754048144E+01 -0.10391312407E+03  0.11083577338E+03  0.00000000000E+00 0. -1.
<mgrwt>
<rscale>  0 0.91809102E+02</rscale>
<asrwt>0</asrwt>
<pdfrwt beam="2">  1        2 0.35813565E-01 0.91809102E+02</pdfrwt>
<pdfrwt beam="1">  1       -2 0.13926347E-02 0.91809102E+02</pdfrwt>
<totfact> 0.16049163E+05</totfact>
</mgrwt>
</event>
<event>
 7    1  0.3891761E-009  0.9057454E+02  0.7818608E-02  0.1301466E+00
          2   -1    0    0  501    0  0.00000000000E+00  0.00000000000E+00  0.64997695790E+02  0.64997695840E+02  0.25500000000E-02 0. -1.
         -2   -1    0    0    0  501 -0.00000000000E+00 -0.00000000000E+00 -0.31553992323E+02  0.31553992426E+02  0.25500000000E-02 0.  1.
         23    2    1    2    0    0  0.00000000000E+00  0.35527136788E-14  0.33443703468E+02  0.96551688266E+02  0.90574539498E+02 0.  0.
    9000005    2    3    3    0    0 -0.32390995284E+02  0.29312832879E+02  0.52663876737E+01  0.44567268752E+02  0.70772775814E+01 0.  0.
         22    1    3    3    0    0  0.32390995284E+02 -0.29312832879E+02  0.28177315794E+02  0.51984419514E+02  0.00000000000E+00 0. -1.
         22    1    4    4    0    0 -0.19068046703E+02  0.18557649392E+02  0.65330480944E+01  0.27398129013E+02  0.00000000000E+00 0. -1.
         22    1    4    4    0    0 -0.13322948581E+02  0.10755183487E+02 -0.12666604207E+01  0.17169139739E+02  0.00000000000E+00 0. -1.
<mgrwt>
<rscale>  0 0.90574539E+02</rscale>
<asrwt>0</asrwt>
<pdfrwt beam="1">  1        2 0.99996455E-02 0.90574539E+02</pdfrwt>
<pdfrwt beam="2">  1       -2 0.48544604E-02 0.90574539E+02</pdfrwt>
<totfact> 0.11042297E+05</totfact>
</mgrwt>
</event>
<event>
 7    1  0.3891761E-009  0.9197341E+02  0.7818608E-02  0.1298142E+00
         -2   -1    0    0    0  501 -0.00000000000E+00  0.00000000000E+00  0.28140753727E+01  0.28140765281E+01  0.25500000000E-02 0.  1.
          2   -1    0    0  501    0  0.00000000000E+00 -0.00000000000E+00 -0.75149959016E+03  0.75149959016E+03  0.25500000000E-02 0. -1.
         23    2    1    2    0    0  0.00000000000E+00  0.00000000000E+00 -0.74868551478E+03  0.75431366669E+03  0.91973407606E+02 0.  0.
    9000005    2    3    3    0    0  0.34410209336E+02 -0.17797719227E+02 -0.57396280294E+03  0.57534761586E+03  0.95267306842E+01 0.  0.
         22    1    3    3    0    0 -0.34410209336E+02  0.17797719227E+02 -0.17472271184E+03  0.17896605083E+03  0.00000000000E+00 0.  1.
         22    1    4    4    0    0  0.16853377767E+02 -0.65521937385E+01 -0.20488748127E+03  0.20568385344E+03  0.00000000000E+00 0. -1.
         22    1    4    4    0    0  0.17556831569E+02 -0.11245525489E+02 -0.36907532167E+03  0.36966376242E+03  0.00000000000E+00 0. -1.
<mgrwt>
<rscale>  0 0.91973408E+02</rscale>
<asrwt>0</asrwt>
<pdfrwt beam="2">  1        2 0.11561516E+00 0.91973408E+02</pdfrwt>
<pdfrwt beam="1">  1       -2 0.43293536E-03 0.91973408E+02</pdfrwt>
<totfact> 0.23539304E+05</totfact>
</mgrwt>
</event>
<event>
 7    1  0.3891761E-009  0.9135217E+02  0.7818608E-02  0.1299610E+00
          2   -1    0    0  501    0  0.00000000000E+00  0.00000000000E+00  0.47581671911E+03  0.47581671912E+03  0.25500000000E-02 0. -1.
         -2   -1    0    0    0  501 -0.00000000000E+00 -0.00000000000E+00 -0.43846812003E+01  0.43846819418E+01  0.25500000000E-02 0.  1.
         23    2    1    2    0    0 -0.35527136788E-14 -0.35527136788E-14  0.47143203791E+03  0.48020140106E+03  0.91352171354E+02 0.  0.
    9000005    2    3    3    0    0  0.27133569265E+02  0.24103665822E+02  0.38071204278E+03  0.38249093691E+03  0.63592465480E+01 0.  0.
         22    1    3    3    0    0 -0.27133569265E+02 -0.24103665822E+02  0.90719995136E+02  0.97710464151E+02  0.00000000000E+00 0.  1.
         22    1    4    4    0    0  0.33156271216E+01  0.33625646729E+01  0.31273609122E+02  0.31628133867E+02  0.00000000000E+00 0.  1.
         22    1    4    4    0    0  0.23817942143E+02  0.20741101149E+02  0.34943843366E+03  0.35086280304E+03  0.00000000000E+00 0.  1.
<mgrwt>
<rscale>  0 0.91352171E+02</rscale>
<asrwt>0</asrwt>
<pdfrwt beam="1">  1        2 0.73202572E-01 0.91352171E+02</pdfrwt>
<pdfrwt beam="2">  1       -2 0.67456640E-03 0.91352171E+02</pdfrwt>
<totfact> 0.21092867E+05</totfact>
</mgrwt>
</event>
<event>
 7    1  0.3891761E-009  0.9171102E+02  0.7818608E-02  0.1298760E+00
          2   -1    0    0  501    0  0.00000000000E+00  0.00000000000E+00  0.17864924650E+03  0.17864924652E+03  0.25500000000E-02 0. -1.
         -2   -1    0    0    0  501 -0.00000000000E+00 -0.00000000000E+00 -0.11770145208E+02  0.11770145484E+02  0.25500000000E-02 0.  1.
         23    2    1    2    0    0  0.17763568394E-14  0.35527136788E-14  0.16687910130E+03  0.19041939201E+03  0.91711015710E+02 0.  0.
    9000005    2    3    3    0    0 -0.11427580565E+02 -0.30722036686E+02  0.14879352292E+03  0.15298249469E+03  0.13773092694E+02 0.  0.
         22    1    3    3    0    0  0.11427580565E+02  0.30722036686E+02  0.18085578380E+02  0.37436897321E+02  0.00000000000E+00 0.  1.
         22    1    4    4    0    0  0.14241938329E+01  0.71378662160E+00  0.67542956506E+01  0.69396202454E+01  0.00000000000E+00 0.  1.
         22    1    4    4    0    0 -0.12851774398E+02 -0.31435823308E+02  0.14203922727E+03  0.14604287444E+03  0.00000000000E+00 0.  1.
<mgrwt>
<rscale>  0 0.91711016E+02</rscale>
<asrwt>0</asrwt>
<pdfrwt beam="1">  1        2 0.27484500E-01 0.91711016E+02</pdfrwt>
<pdfrwt beam="2">  1       -2 0.18107916E-02 0.91711016E+02</pdfrwt>
<totfact> 0.14622145E+05</totfact>
</mgrwt>
</event>
<event>
 7    1  0.3891761E-009  0.9244918E+02  0.7818608E-02  0.1297027E+00
          2   -1    0    0  501    0  0.00000000000E+00  0.00000000000E+00  0.98791115040E+02  0.98791115073E+02  0.25500000000E-02 0. -1.
         -2   -1    0    0    0  501 -0.00000000000E+00 -0.00000000000E+00 -0.21628592184E+02  0.21628592335E+02  0.25500000000E-02 0.  1.
         23    2    1    2    0    0  0.00000000000E+00 -0.17763568394E-14  0.77162522856E+02  0.12041970741E+03  0.92449180627E+02 0.  0.
    9000005    2    3    3    0    0 -0.10598689297E+02  0.15024894963E+02  0.93418045054E+02  0.95877464531E+02  0.11290588110E+02 0.  0.
         22    1    3    3    0    0  0.10598689297E+02 -0.15024894963E+02 -0.16255522198E+02  0.24542242876E+02  0.00000000000E+00 0.  1.
         22    1    4    4    0    0 -0.61462305570E+01  0.13532975345E+02  0.84514379875E+02  0.85811409367E+02  0.00000000000E+00 0. -1.
         22    1    4    4    0    0 -0.44524587399E+01  0.14919196180E+01  0.89036651782E+01  0.10066055165E+02  0.00000000000E+00 0. -1.
<mgrwt>
<rscale>  0 0.92449181E+02</rscale>
<asrwt>0</asrwt>
<pdfrwt beam="1">  1        2 0.15198633E-01 0.92449181E+02</pdfrwt>
<pdfrwt beam="2">  1       -2 0.33274757E-02 0.92449181E+02</pdfrwt>
<totfact> 0.11763743E+05</totfact>
</mgrwt>
</event>
<event>
 7    1  0.3891761E-009  0.9175461E+02  0.7818608E-02  0.1298657E+00
          2   -1    0    0  501    0  0.00000000000E+00  0.00000000000E+00  0.59996921740E+02  0.59996921794E+02  0.25500000000E-02 0.  1.
         -2   -1    0    0    0  501 -0.00000000000E+00 -0.00000000000E+00 -0.35080584095E+02  0.35080584187E+02  0.25500000000E-02 0. -1.
         23    2    1    2    0    0  0.00000000000E+00  0.35527136788E-14  0.24916337645E+02  0.95077505981E+02  0.91754608941E+02 0.  0.
    9000005    2    3    3    0    0 -0.18547098946E+02  0.31813841504E+02  0.38701868991E+02  0.55756312395E+02  0.15962967079E+02 0.  0.
         22    1    3    3    0    0  0.18547098946E+02 -0.31813841504E+02 -0.13785531346E+02  0.39321193586E+02  0.00000000000E+00 0.  1.
         22    1    4    4    0    0 -0.15095729036E+02  0.29694514260E+02  0.25511350935E+02  0.41958005658E+02  0.00000000000E+00 0. -1.
         22    1    4    4    0    0 -0.34513699099E+01  0.21193272435E+01  0.13190518056E+02  0.13798306737E+02  0.00000000000E+00 0. -1.
<mgrwt>
<rscale>  0 0.91754609E+02</rscale>
<asrwt>0</asrwt>
<pdfrwt beam="1">  1        2 0.92302955E-02 0.91754609E+02</pdfrwt>
<pdfrwt beam="2">  1       -2 0.53970130E-02 0.91754609E+02</pdfrwt>
<totfact> 0.10419185E+05</totfact>
</mgrwt>
</event>
<event>
 7    1  0.3891761E-009  0.9708055E+02  0.7818608E-02  0.1286558E+00
         -2   -1    0    0    0  501 -0.00000000000E+00  0.00000000000E+00  0.12662102763E+02  0.12662103020E+02  0.25500000000E-02 0.  1.
          2   -1    0    0  501    0  0.00000000000E+00 -0.00000000000E+00 -0.18607954312E+03  0.18607954314E+03  0.25500000000E-02 0. -1.
         23    2    1    2    0    0 -0.88817841970E-15  0.00000000000E+00 -0.17341744036E+03  0.19874164616E+03  0.97080550562E+02 0.  0.
    9000005    2    3    3    0    0  0.69049564870E+01 -0.18962583320E+02 -0.17688585457E+03  0.17826512577E+03  0.90879881131E+01 0.  0.
         22    1    3    3    0    0 -0.69049564870E+01  0.18962583320E+02  0.34684142095E+01  0.20476520392E+02  0.00000000000E+00 0.  1.
         22    1    4    4    0    0  0.71270450726E+01 -0.18510038100E+02 -0.17654703643E+03  0.17765773936E+03  0.00000000000E+00 0. -1.
         22    1    4    4    0    0 -0.22208858561E+00 -0.45254522011E+00 -0.33881813616E+00  0.60738640543E+00  0.00000000000E+00 0. -1.
<mgrwt>
<rscale>  0 0.97080551E+02</rscale>
<asrwt>0</asrwt>
<pdfrwt beam="2">  1        2 0.28627620E-01 0.97080551E+02</pdfrwt>
<pdfrwt beam="1">  1       -2 0.19480160E-02 0.97080551E+02</pdfrwt>
<totfact> 0.12715729E+05</totfact>
</mgrwt>
</event>
<event>
 7    1  0.3891761E-009  0.9251216E+02  0.7818608E-02  0.1296880E+00
         -2   -1    0    0    0  501 -0.00000000000E+00  0.00000000000E+00  0.21463110218E+02  0.21463110369E+02  0.25500000000E-02 0.  1.
          2   -1    0    0  501    0  0.00000000000E+00 -0.00000000000E+00 -0.99688480750E+02  0.99688480782E+02  0.25500000000E-02 0. -1.
         23    2    1    2    0    0  0.00000000000E+00  0.88817841970E-15 -0.78225370532E+02  0.12115159115E+03  0.92512158357E+02 0.  0.
    9000005    2    3    3    0    0 -0.37577707712E+02 -0.59771940293E+01 -0.71492190302E+02  0.82510334943E+02  0.15780086595E+02 0.  0.
         22    1    3    3    0    0  0.37577707712E+02  0.59771940293E+01 -0.67331802300E+01  0.38641256209E+02  0.00000000000E+00 0.  1.
         22    1    4    4    0    0 -0.30369205443E+02 -0.14326232877E+01 -0.65127158970E+02  0.71874111364E+02  0.00000000000E+00 0.  1.
         22    1    4    4    0    0 -0.72085022690E+01 -0.45445707417E+01 -0.63650313311E+01  0.10636223580E+02  0.00000000000E+00 0.  1.
<mgrwt>
<rscale>  0 0.92512158E+02</rscale>
<asrwt>0</asrwt>
<pdfrwt beam="2">  1        2 0.15336689E-01 0.92512158E+02</pdfrwt>
<pdfrwt beam="1">  1       -2 0.33020170E-02 0.92512158E+02</pdfrwt>
<totfact> 0.11774111E+05</totfact>
</mgrwt>
</event>
<event>
 7    1  0.3891761E-009  0.8805763E+02  0.7818608E-02  0.1307625E+00
          2   -1    0    0  501    0  0.00000000000E+00  0.00000000000E+00  0.61551779008E+01  0.61551784290E+01  0.25500000000E-02 0. -1.
         -2   -1    0    0    0  501 -0.00000000000E+00 -0.00000000000E+00 -0.31494403371E+03  0.31494403372E+03  0.25500000000E-02 0.  1.
         23    2    1    2    0    0  0.71054273576E-14  0.00000000000E+00 -0.30878885581E+03  0.32109921215E+03  0.88057632100E+02 0.  0.
    9000005    2    3    3    0    0 -0.40781171753E+02 -0.52699032295E+01 -0.21012501497E+03  0.21420941217E+03  0.65018842112E+01 0.  0.
         22    1    3    3    0    0  0.40781171753E+02  0.52699032295E+01 -0.98663840842E+02  0.10688979998E+03  0.00000000000E+00 0. -1.
         22    1    4    4    0    0 -0.11884873038E+02 -0.17109693151E+01 -0.77641263641E+02  0.78564263141E+02  0.00000000000E+00 0.  1.
         22    1    4    4    0    0 -0.28896298715E+02 -0.35589339145E+01 -0.13248375133E+03  0.13564514903E+03  0.00000000000E+00 0.  1.
<mgrwt>
<rscale>  0 0.88057632E+02</rscale>
<asrwt>0</asrwt>
<pdfrwt beam="1">  1        2 0.94695073E-03 0.88057632E+02</pdfrwt>
<pdfrwt beam="2">  1       -2 0.48452916E-01 0.88057632E+02</pdfrwt>
<totfact> 0.54252605E+04</totfact>
</mgrwt>
</event>
<event>
 7    1  0.3891761E-009  0.9034286E+02  0.7818608E-02  0.1302024E+00
         -2   -1    0    0    0  501 -0.00000000000E+00  0.00000000000E+00  0.94970752860E+01  0.94970756283E+01  0.25500000000E-02 0. -1.
          2   -1    0    0  501    0  0.00000000000E+00 -0.00000000000E+00 -0.21485119394E+03  0.21485119396E+03  0.25500000000E-02 0.  1.
         23    2    1    2    0    0  0.71054273576E-14 -0.17763568394E-14 -0.20535411865E+03  0.22434826958E+03  0.90342858140E+02 0.  0.
    9000005    2    3    3    0    0  0.32106076898E+02 -0.11150508117E+02 -0.30115131998E+02  0.45843825804E+02  0.62929471618E+01 0.  0.
         22    1    3    3    0    0 -0.32106076898E+02  0.11150508117E+02 -0.17523898666E+03  0.17850444378E+03  0.00000000000E+00 0.  1.
         22    1    4    4    0    0  0.92613473258E+01 -0.62930334187E+01 -0.10337800579E+02  0.15239584794E+02  0.00000000000E+00 0.  1.
         22    1    4    4    0    0  0.22844729572E+02 -0.48574746987E+01 -0.19777331420E+02  0.30604241009E+02  0.00000000000E+00 0.  1.
<mgrwt>
<rscale>  0 0.90342858E+02</rscale>
<asrwt>0</asrwt>
<pdfrwt beam="2">  1        2 0.33054026E-01 0.90342858E+02</pdfrwt>
<pdfrwt beam="1">  1       -2 0.14610887E-02 0.90342858E+02</pdfrwt>
<totfact> 0.16272477E+05</totfact>
</mgrwt>
</event>
<event>
 7    1  0.3891761E-009  0.5898398E+02  0.7818608E-02  0.1402146E+00
          2   -1    0    0  501    0  0.00000000000E+00  0.00000000000E+00  0.13918346992E+03  0.13918346994E+03  0.25500000000E-02 0.  1.
         -2   -1    0    0    0  501 -0.00000000000E+00 -0.00000000000E+00 -0.62491442139E+01  0.62491447342E+01  0.25500000000E-02 0. -1.
         23    2    1    2    0    0  0.00000000000E+00  0.17763568394E-14  0.13293432571E+03  0.14543261468E+03  0.58983984784E+02 0.  0.
    9000005    2    3    3    0    0  0.19754597562E+02  0.98901483358E+01  0.24122631688E+02  0.34400889869E+02  0.10651793523E+02 0.  0.
         22    1    3    3    0    0 -0.19754597562E+02 -0.98901483358E+01  0.10881169402E+03  0.11103172481E+03  0.00000000000E+00 0.  1.
         22    1    4    4    0    0 -0.86029509052E+00  0.34906325321E+00  0.38306842920E+01  0.39415853337E+01  0.00000000000E+00 0.  1.
         22    1    4    4    0    0  0.20614892653E+02  0.95410850826E+01  0.20291947396E+02  0.30459304535E+02  0.00000000000E+00 0.  1.
<mgrwt>
<rscale>  0 0.58983985E+02</rscale>
<asrwt>0</asrwt>
<pdfrwt beam="1">  1        2 0.21412842E-01 0.58983985E+02</pdfrwt>
<pdfrwt beam="2">  1       -2 0.96140684E-03 0.58983985E+02</pdfrwt>
<totfact> 0.43120253E+05</totfact>
</mgrwt>
</event>
<event>
 7    1  0.3891761E-009  0.9124014E+02  0.7818608E-02  0.1299876E+00
         -2   -1    0    0    0  501 -0.00000000000E+00  0.00000000000E+00  0.10204506943E+03  0.10204506946E+03  0.25500000000E-02 0.  1.
          2   -1    0    0  501    0  0.00000000000E+00 -0.00000000000E+00 -0.20394821252E+02  0.20394821411E+02  0.25500000000E-02 0. -1.
         23    2    1    2    0    0  0.00000000000E+00 -0.17763568394E-14  0.81650248175E+02  0.12243989087E+03  0.91240143847E+02 0.  0.
    9000005    2    3    3    0    0  0.20595699858E+02  0.15452167308E+02 -0.89975828160E+01  0.28206236635E+02  0.71890862710E+01 0.  0.
         22    1    3    3    0    0 -0.20595699858E+02 -0.15452167308E+02  0.90647830990E+02  0.94233654235E+02  0.00000000000E+00 0.  1.
         22    1    4    4    0    0  0.95955504150E+01  0.45869562500E+01 -0.69893544746E+00  0.10658483296E+02  0.00000000000E+00 0. -1.
         22    1    4    4    0    0  0.11000149443E+02  0.10865211058E+02 -0.82986473685E+01  0.17547753339E+02  0.00000000000E+00 0. -1.
<mgrwt>
<rscale>  0 0.91240144E+02</rscale>
<asrwt>0</asrwt>
<pdfrwt beam="2">  1        2 0.31376649E-02 0.91240144E+02</pdfrwt>
<pdfrwt beam="1">  1       -2 0.15699241E-01 0.91240144E+02</pdfrwt>
<totfact> 0.79186542E+04</totfact>
</mgrwt>
</event>
<event>
 7    1  0.3891761E-009  0.9838322E+02  0.7818608E-02  0.1283733E+00
         -2   -1    0    0    0  501 -0.00000000000E+00  0.00000000000E+00  0.93441587627E+00  0.93441935571E+00  0.25500000000E-02 0.  1.
          2   -1    0    0  501    0  0.00000000000E+00 -0.00000000000E+00 -0.25896499850E+04  0.25896499850E+04  0.25500000000E-02 0. -1.
         23    2    1    2    0    0  0.00000000000E+00 -0.17763568394E-14 -0.25887155692E+04  0.25905844044E+04  0.98383221507E+02 0.  0.
    9000005    2    3    3    0    0 -0.84994557213E+01  0.11348136765E+02 -0.25336440179E+04  0.25337170437E+04  0.13001041348E+02 0.  0.
         22    1    3    3    0    0  0.84994557213E+01 -0.11348136765E+02 -0.55071551300E+02  0.56867360746E+02  0.00000000000E+00 0.  1.
         22    1    4    4    0    0 -0.21746455375E+00  0.25371348708E+00 -0.15695860408E+01  0.16047621958E+01  0.00000000000E+00 0. -1.
         22    1    4    4    0    0 -0.82819911675E+01  0.11094423278E+02 -0.25320744318E+04  0.25321122815E+04  0.00000000000E+00 0. -1.
<mgrwt>
<rscale>  0 0.98383222E+02</rscale>
<asrwt>0</asrwt>
<pdfrwt beam="2">  1        2 0.39840194E+00 0.98383222E+02</pdfrwt>
<pdfrwt beam="1">  1       -2 0.14375863E-03 0.98383222E+02</pdfrwt>
<totfact> 0.11418116E+05</totfact>
</mgrwt>
</event>
<event>
 7    1  0.3891761E-009  0.9392652E+02  0.7818608E-02  0.1293612E+00
          2   -1    0    0  501    0  0.00000000000E+00  0.00000000000E+00  0.32946627867E+02  0.32946627966E+02  0.25500000000E-02 0. -1.
         -2   -1    0    0    0  501 -0.00000000000E+00 -0.00000000000E+00 -0.66943056592E+02  0.66943056640E+02  0.25500000000E-02 0.  1.
         23    2    1    2    0    0  0.00000000000E+00  0.00000000000E+00 -0.33996428724E+02  0.99889684606E+02  0.93926524075E+02 0.  0.
    9000005    2    3    3    0    0 -0.13177838835E+02  0.30922766932E+02 -0.51660134665E+02  0.61917596717E+02  0.59284330589E+01 0.  0.
         22    1    3    3    0    0  0.13177838835E+02 -0.30922766932E+02  0.17663705941E+02  0.37972087889E+02  0.00000000000E+00 0. -1.
         22    1    4    4    0    0 -0.28447769110E+01  0.47903587721E+01 -0.52054926254E+01  0.76247915586E+01  0.00000000000E+00 0.  1.
         22    1    4    4    0    0 -0.10333061924E+02  0.26132408160E+02 -0.46454642040E+02  0.54292805159E+02  0.00000000000E+00 0.  1.
<mgrwt>
<rscale>  0 0.93926524E+02</rscale>
<asrwt>0</asrwt>
<pdfrwt beam="1">  1        2 0.50687120E-02 0.93926524E+02</pdfrwt>
<pdfrwt beam="2">  1       -2 0.10298932E-01 0.93926524E+02</pdfrwt>
<totfact> 0.83063213E+04</totfact>
</mgrwt>
</event>
<event>
 7    1  0.3891761E-009  0.9138994E+02  0.7818608E-02  0.1299520E+00
         -2   -1    0    0    0  501 -0.00000000000E+00  0.00000000000E+00  0.14526046318E+02  0.14526046542E+02  0.25500000000E-02 0.  1.
          2   -1    0    0  501    0  0.00000000000E+00 -0.00000000000E+00 -0.14374388626E+03  0.14374388628E+03  0.25500000000E-02 0. -1.
         23    2    1    2    0    0  0.00000000000E+00  0.00000000000E+00 -0.12921783994E+03  0.15826993283E+03  0.91389941881E+02 0.  0.
    9000005    2    3    3    0    0 -0.33941163206E+01 -0.35782674620E+02 -0.11335208724E+03  0.11898072391E+03  0.39745630235E+01 0.  0.
         22    1    3    3    0    0  0.33941163206E+01  0.35782674620E+02 -0.15865752702E+02  0.39289208917E+02  0.00000000000E+00 0.  1.
         22    1    4    4    0    0  0.20681738756E+00 -0.12985674595E+02 -0.36753519712E+02  0.38980658400E+02  0.00000000000E+00 0. -1.
         22    1    4    4    0    0 -0.36009337081E+01 -0.22797000025E+02 -0.76598567529E+02  0.80000065508E+02  0.00000000000E+00 0. -1.
<mgrwt>
<rscale>  0 0.91389942E+02</rscale>
<asrwt>0</asrwt>
<pdfrwt beam="2">  1        2 0.22114443E-01 0.91389942E+02</pdfrwt>
<pdfrwt beam="1">  1       -2 0.22347765E-02 0.91389942E+02</pdfrwt>
<totfact> 0.13693597E+05</totfact>
</mgrwt>
</event>
<event>
 7    1  0.3891761E-009  0.7913902E+02  0.7818608E-02  0.1331513E+00
          2   -1    0    0  501    0  0.00000000000E+00  0.00000000000E+00  0.51279812874E+03  0.51279812875E+03  0.25500000000E-02 0. -1.
         -2   -1    0    0    0  501 -0.00000000000E+00 -0.00000000000E+00 -0.30533374638E+01  0.30533385286E+01  0.25500000000E-02 0.  1.
         23    2    1    2    0    0 -0.35527136788E-14  0.00000000000E+00  0.50974479128E+03  0.51585146728E+03  0.79139017284E+02 0.  0.
    9000005    2    3    3    0    0  0.28442860332E+02  0.20277710591E+01  0.42916315957E+03  0.43037335588E+03  0.15069829454E+02 0.  0.
         22    1    3    3    0    0 -0.28442860332E+02 -0.20277710591E+01  0.80581631712E+02  0.85478111401E+02  0.00000000000E+00 0. -1.
         22    1    4    4    0    0  0.26495703027E+02 -0.18852283646E+01  0.31199592268E+03  0.31312462716E+03  0.00000000000E+00 0.  1.
         22    1    4    4    0    0  0.19471573051E+01  0.39129994237E+01  0.11716723689E+03  0.11724872872E+03  0.00000000000E+00 0.  1.
<mgrwt>
<rscale>  0 0.79139017E+02</rscale>
<asrwt>0</asrwt>
<pdfrwt beam="1">  1        2 0.78892009E-01 0.79139017E+02</pdfrwt>
<pdfrwt beam="2">  1       -2 0.46974437E-03 0.79139017E+02</pdfrwt>
<totfact> 0.31510935E+05</totfact>
</mgrwt>
</event>
<event>
 7    1  0.3891761E-009  0.8533945E+02  0.7818608E-02  0.1314547E+00
          2   -1    0    0  501    0  0.00000000000E+00  0.00000000000E+00  0.95922842427E+02  0.95922842460E+02  0.25500000000E-02 0. -1.
         -2   -1    0    0    0  501 -0.00000000000E+00 -0.00000000000E+00 -0.18980938297E+02  0.18980938468E+02  0.25500000000E-02 0.  1.
         23    2    1    2    0    0  0.00000000000E+00  0.00000000000E+00  0.76941904130E+02  0.11490378093E+03  0.85339453131E+02 0.  0.
    9000005    2    3    3    0    0 -0.16878430858E+02  0.30230520802E+02  0.71569813186E+02  0.79866298467E+02  0.75908929068E+01 0.  0.
         22    1    3    3    0    0  0.16878430858E+02 -0.30230520802E+02  0.53720909438E+01  0.35037482462E+02  0.00000000000E+00 0.  1.
         22    1    4    4    0    0 -0.11578095622E+02  0.25390875572E+02  0.61116183442E+02  0.67185837340E+02  0.00000000000E+00 0.  1.
         22    1    4    4    0    0 -0.53003352361E+01  0.48396452303E+01  0.10453629744E+02  0.12680461127E+02  0.00000000000E+00 0.  1.
<mgrwt>
<rscale>  0 0.85339453E+02</rscale>
<asrwt>0</asrwt>
<pdfrwt beam="1">  1        2 0.14757361E-01 0.85339453E+02</pdfrwt>
<pdfrwt beam="2">  1       -2 0.29201443E-02 0.85339453E+02</pdfrwt>
<totfact> 0.14523821E+05</totfact>
</mgrwt>
</event>
<event>
 7    1  0.3891761E-009  0.8970844E+02  0.7818608E-02  0.1303559E+00
         -2   -1    0    0    0  501 -0.00000000000E+00  0.00000000000E+00  0.83185296432E+01  0.83185300340E+01  0.25500000000E-02 0. -1.
          2   -1    0    0  501    0  0.00000000000E+00 -0.00000000000E+00 -0.24185774059E+03  0.24185774061E+03  0.25500000000E-02 0.  1.
         23    2    1    2    0    0 -0.71054273576E-14  0.17763568394E-14 -0.23353921095E+03  0.25017627064E+03  0.89708435170E+02 0.  0.
    9000005    2    3    3    0    0  0.36414114312E+02 -0.90163630249E+01 -0.57280091932E+02  0.69969279766E+02  0.14401689340E+02 0.  0.
         22    1    3    3    0    0 -0.36414114312E+02  0.90163630249E+01 -0.17625911902E+03  0.18020699088E+03  0.00000000000E+00 0.  1.
         22    1    4    4    0    0  0.31540895644E+02 -0.51537108954E+01 -0.37689492693E+02  0.49415449947E+02  0.00000000000E+00 0.  1.
         22    1    4    4    0    0  0.48732186676E+01 -0.38626521295E+01 -0.19590599239E+02  0.20553829818E+02  0.00000000000E+00 0.  1.
<mgrwt>
<rscale>  0 0.89708435E+02</rscale>
<asrwt>0</asrwt>
<pdfrwt beam="2">  1        2 0.37208878E-01 0.89708435E+02</pdfrwt>
<pdfrwt beam="1">  1       -2 0.12797740E-02 0.89708435E+02</pdfrwt>
<totfact> 0.17318127E+05</totfact>
</mgrwt>
</event>
<event>
 7    1  0.3891761E-009  0.9686695E+02  0.7818608E-02  0.1287026E+00
         -2   -1    0    0    0  501 -0.00000000000E+00  0.00000000000E+00  0.27592130933E+02  0.27592131051E+02  0.25500000000E-02 0.  1.
          2   -1    0    0  501    0  0.00000000000E+00 -0.00000000000E+00 -0.85017052703E+02  0.85017052741E+02  0.25500000000E-02 0. -1.
         23    2    1    2    0    0  0.00000000000E+00  0.00000000000E+00 -0.57424921770E+02  0.11260918379E+03  0.96866953261E+02 0.  0.
    9000005    2    3    3    0    0  0.29247678782E+02  0.37360392253E+02 -0.23917728541E+02  0.54523405657E+02  0.12227771771E+02 0.  0.
         22    1    3    3    0    0 -0.29247678782E+02 -0.37360392253E+02 -0.33507193229E+02  0.58085778135E+02  0.00000000000E+00 0. -1.
         22    1    4    4    0    0  0.91752241417E+01  0.15484385848E+02 -0.15261015447E+02  0.23597659537E+02  0.00000000000E+00 0. -1.
         22    1    4    4    0    0  0.20072454641E+02  0.21876006404E+02 -0.86567130937E+01  0.30925746120E+02  0.00000000000E+00 0. -1.
<mgrwt>
<rscale>  0 0.96866953E+02</rscale>
<asrwt>0</asrwt>
<pdfrwt beam="2">  1        2 0.13079546E-01 0.96866953E+02</pdfrwt>
<pdfrwt beam="1">  1       -2 0.42449433E-02 0.96866953E+02</pdfrwt>
<totfact> 0.98740557E+04</totfact>
</mgrwt>
</event>
<event>
 7    1  0.3891761E-009  0.9223523E+02  0.7818608E-02  0.1297527E+00
          2   -1    0    0  501    0  0.00000000000E+00  0.00000000000E+00  0.10029228750E+04  0.10029228750E+04  0.25500000000E-02 0. -1.
         -2   -1    0    0    0  501 -0.00000000000E+00 -0.00000000000E+00 -0.21206353644E+01  0.21206368976E+01  0.25500000000E-02 0.  1.
         23    2    1    2    0    0  0.88817841970E-15  0.00000000000E+00  0.10008022397E+04  0.10050435119E+04  0.92235231634E+02 0.  0.
    9000005    2    3    3    0    0  0.61102218999E+01  0.37375731279E+02  0.78112996097E+03  0.78213054656E+03  0.11397185927E+02 0.  0.
         22    1    3    3    0    0 -0.61102218999E+01 -0.37375731279E+02  0.21967227870E+03  0.22291296537E+03  0.00000000000E+00 0.  1.
         22    1    4    4    0    0 -0.16121794421E+01  0.25748911244E+00  0.34535481691E+02  0.34574049790E+02  0.00000000000E+00 0. -1.
         22    1    4    4    0    0  0.77224013420E+01  0.37118242166E+02  0.74659447927E+03  0.74755649677E+03  0.00000000000E+00 0. -1.
<mgrwt>
<rscale>  0 0.92235232E+02</rscale>
<asrwt>0</asrwt>
<pdfrwt beam="1">  1        2 0.15429639E+00 0.92235232E+02</pdfrwt>
<pdfrwt beam="2">  1       -2 0.32625052E-03 0.92235232E+02</pdfrwt>
<totfact> 0.24255641E+05</totfact>
</mgrwt>
</event>
<event>
 7    1  0.3891761E-009  0.9028161E+02  0.7818608E-02  0.1302171E+00
          2   -1    0    0  501    0  0.00000000000E+00  0.00000000000E+00  0.11060056281E+03  0.11060056283E+03  0.25500000000E-02 0. -1.
         -2   -1    0    0    0  501 -0.00000000000E+00 -0.00000000000E+00 -0.18423885187E+02  0.18423885364E+02  0.25500000000E-02 0.  1.
         23    2    1    2    0    0  0.00000000000E+00  0.00000000000E+00  0.92176677618E+02  0.12902444820E+03  0.90281605747E+02 0.  0.
    9000005    2    3    3    0    0  0.37729799240E+02  0.43714638835E+01  0.11978170715E+02  0.40286361918E+02  0.60718148668E+01 0.  0.
         22    1    3    3    0    0 -0.37729799240E+02 -0.43714638835E+01  0.80198506903E+02  0.88738086280E+02  0.00000000000E+00 0. -1.
         22    1    4    4    0    0  0.31197793549E+02  0.48370869407E+01  0.11895502222E+02  0.33737259899E+02  0.00000000000E+00 0. -1.
         22    1    4    4    0    0  0.65320056912E+01 -0.46562305722E+00  0.82668493006E-01  0.65491020194E+01  0.00000000000E+00 0. -1.
<mgrwt>
<rscale>  0 0.90281606E+02</rscale>
<asrwt>0</asrwt>
<pdfrwt beam="1">  1        2 0.17015471E-01 0.90281606E+02</pdfrwt>
<pdfrwt beam="2">  1       -2 0.28344439E-02 0.90281606E+02</pdfrwt>
<totfact> 0.13001939E+05</totfact>
</mgrwt>
</event>
<event>
 7    1  0.3891761E-009  0.9083988E+02  0.7818608E-02  0.1300830E+00
          2   -1    0    0  501    0  0.00000000000E+00  0.00000000000E+00  0.49251531283E+02  0.49251531349E+02  0.25500000000E-02 0. -1.
         -2   -1    0    0    0  501 -0.00000000000E+00 -0.00000000000E+00 -0.41886435096E+02  0.41886435173E+02  0.25500000000E-02 0.  1.
         23    2    1    2    0    0  0.88817841970E-15  0.00000000000E+00  0.73650961878E+01  0.91137966523E+02  0.90839882761E+02 0.  0.
    9000005    2    3    3    0    0 -0.73665641811E+01  0.40266391115E+02  0.23063443893E+02  0.47296357953E+02  0.54198256613E+01 0.  0.
         22    1    3    3    0    0  0.73665641811E+01 -0.40266391115E+02 -0.15698347706E+02  0.43841608569E+02  0.00000000000E+00 0.  1.
         22    1    4    4    0    0 -0.72758000504E+01  0.25305004082E+02  0.14674245962E+02  0.30143224653E+02  0.00000000000E+00 0.  1.
         22    1    4    4    0    0 -0.90764130758E-01  0.14961387033E+02  0.83891979316E+01  0.17153133300E+02  0.00000000000E+00 0.  1.
<mgrwt>
<rscale>  0 0.90839883E+02</rscale>
<asrwt>0</asrwt>
<pdfrwt beam="1">  1        2 0.75771587E-02 0.90839883E+02</pdfrwt>
<pdfrwt beam="2">  1       -2 0.64440669E-02 0.90839883E+02</pdfrwt>
<totfact> 0.10174895E+05</totfact>
</mgrwt>
</event>
<event>
 7    1  0.3891761E-009  0.9482398E+02  0.7818608E-02  0.1291573E+00
         -2   -1    0    0    0  501 -0.00000000000E+00  0.00000000000E+00  0.33825182716E+01  0.33825192328E+01  0.25500000000E-02 0.  1.
          2   -1    0    0  501    0  0.00000000000E+00 -0.00000000000E+00 -0.66456297589E+03  0.66456297590E+03  0.25500000000E-02 0. -1.
         23    2    1    2    0    0  0.00000000000E+00  0.71054273576E-14 -0.66118045762E+03  0.66794549513E+03  0.94823978640E+02 0.  0.
    9000005    2    3    3    0    0  0.18495913522E+01 -0.45671347804E+02 -0.40839402910E+03  0.41105977844E+03  0.97552776966E+01 0.  0.
         22    1    3    3    0    0 -0.18495913522E+01  0.45671347804E+02 -0.25278642852E+03  0.25688571670E+03  0.00000000000E+00 0.  1.
         22    1    4    4    0    0  0.20229703241E+01 -0.37383961430E+02 -0.36202113285E+03  0.36395185617E+03  0.00000000000E+00 0.  1.
         22    1    4    4    0    0 -0.17337897193E+00 -0.82873863742E+01 -0.46372896252E+02  0.47107922263E+02  0.00000000000E+00 0.  1.
<mgrwt>
<rscale>  0 0.94823979E+02</rscale>
<asrwt>0</asrwt>
<pdfrwt beam="2">  1        2 0.10224035E+00 0.94823979E+02</pdfrwt>
<pdfrwt beam="1">  1       -2 0.52038803E-03 0.94823979E+02</pdfrwt>
<totfact> 0.21110182E+05</totfact>
</mgrwt>
</event>
<event>
 7    1  0.3891761E-009  0.9054358E+02  0.7818608E-02  0.1301541E+00
          2   -1    0    0  501    0  0.00000000000E+00  0.00000000000E+00  0.33381149100E+03  0.33381149101E+03  0.25500000000E-02 0. -1.
         -2   -1    0    0    0  501 -0.00000000000E+00 -0.00000000000E+00 -0.61397973042E+01  0.61397978337E+01  0.25500000000E-02 0.  1.
         23    2    1    2    0    0 -0.17763568394E-14  0.00000000000E+00  0.32767169369E+03  0.33995128884E+03  0.90543580318E+02 0.  0.
    9000005    2    3    3    0    0 -0.10476196066E+02  0.90636592093E+01  0.32544479555E+03  0.32592061966E+03  0.10864380825E+02 0.  0.
         22    1    3    3    0    0  0.10476196066E+02 -0.90636592093E+01  0.22268981490E+01  0.14030669180E+02  0.00000000000E+00 0.  1.
         22    1    4    4    0    0 -0.69188351096E+01  0.48267116360E+01  0.28184594144E+03  0.28197216552E+03  0.00000000000E+00 0. -1.
         22    1    4    4    0    0 -0.35573609568E+01  0.42369475734E+01  0.43598854107E+02  0.43948454138E+02  0.00000000000E+00 0. -1.
<mgrwt>
<rscale>  0 0.90543580E+02</rscale>
<asrwt>0</asrwt>
<pdfrwt beam="1">  1        2 0.51355610E-01 0.90543580E+02</pdfrwt>
<pdfrwt beam="2">  1       -2 0.94458432E-03 0.90543580E+02</pdfrwt>
<totfact> 0.19041554E+05</totfact>
</mgrwt>
</event>
<event>
 7    1  0.3891761E-009  0.9095082E+02  0.7818608E-02  0.1300565E+00
          2   -1    0    0  501    0  0.00000000000E+00  0.00000000000E+00  0.86601429660E+02  0.86601429697E+02  0.25500000000E-02 0. -1.
         -2   -1    0    0    0  501 -0.00000000000E+00 -0.00000000000E+00 -0.23879664924E+02  0.23879665060E+02  0.25500000000E-02 0.  1.
         23    2    1    2    0    0  0.00000000000E+00  0.00000000000E+00  0.62721764736E+02  0.11048109476E+03  0.90950824774E+02 0.  0.
    9000005    2    3    3    0    0  0.14054661814E+02  0.19017574132E+02 -0.15332385786E+02  0.28923433816E+02  0.65024091884E+01 0.  0.
         22    1    3    3    0    0 -0.14054661814E+02 -0.19017574132E+02  0.78054150522E+02  0.81557660941E+02  0.00000000000E+00 0. -1.
         22    1    4    4    0    0  0.72785614966E+01  0.70581321079E+01 -0.98164462974E+01  0.14112310379E+02  0.00000000000E+00 0.  1.
         22    1    4    4    0    0  0.67761003171E+01  0.11959442024E+02 -0.55159394883E+01  0.14811123437E+02  0.00000000000E+00 0.  1.
<mgrwt>
<rscale>  0 0.90950825E+02</rscale>
<asrwt>0</asrwt>
<pdfrwt beam="1">  1        2 0.13323297E-01 0.90950825E+02</pdfrwt>
<pdfrwt beam="2">  1       -2 0.36737946E-02 0.90950825E+02</pdfrwt>
<totfact> 0.11833081E+05</totfact>
</mgrwt>
</event>
<event>
 7    1  0.3891761E-009  0.9815433E+02  0.7818608E-02  0.1284226E+00
          2   -1    0    0  501    0  0.00000000000E+00  0.00000000000E+00  0.48424797446E+02  0.48424797514E+02  0.25500000000E-02 0. -1.
         -2   -1    0    0    0  501 -0.00000000000E+00 -0.00000000000E+00 -0.49738320918E+02  0.49738320983E+02  0.25500000000E-02 0.  1.
         23    2    1    2    0    0  0.00000000000E+00  0.00000000000E+00 -0.13135234711E+01  0.98163118497E+02  0.98154329956E+02 0.  0.
    9000005    2    3    3    0    0 -0.16393746114E+02  0.45016771229E+02  0.16718611028E+01  0.50161273484E+02  0.14767993582E+02 0.  0.
         22    1    3    3    0    0  0.16393746114E+02 -0.45016771229E+02 -0.29853845740E+01  0.48001845013E+02  0.00000000000E+00 0.  1.
         22    1    4    4    0    0 -0.12799368984E+02  0.43100551850E+02 -0.15197173006E+01  0.44986564181E+02  0.00000000000E+00 0.  1.
         22    1    4    4    0    0 -0.35943771306E+01  0.19162193796E+01  0.31915784034E+01  0.51747093032E+01  0.00000000000E+00 0.  1.
<mgrwt>
<rscale>  0 0.98154330E+02</rscale>
<asrwt>0</asrwt>
<pdfrwt beam="1">  1        2 0.74499688E-02 0.98154330E+02</pdfrwt>
<pdfrwt beam="2">  1       -2 0.76520494E-02 0.98154330E+02</pdfrwt>
<totfact> 0.81046607E+04</totfact>
</mgrwt>
</event>
<event>
 7    1  0.3891761E-009  0.9007773E+02  0.7818608E-02  0.1302664E+00
          2   -1    0    0  501    0  0.00000000000E+00  0.00000000000E+00  0.16943330649E+03  0.16943330651E+03  0.25500000000E-02 0.  1.
         -2   -1    0    0    0  501 -0.00000000000E+00 -0.00000000000E+00 -0.11972258430E+02  0.11972258701E+02  0.25500000000E-02 0. -1.
         23    2    1    2    0    0  0.00000000000E+00  0.00000000000E+00  0.15746104806E+03  0.18140556521E+03  0.90077729951E+02 0.  0.
    9000005    2    3    3    0    0  0.11953349611E+02  0.35236387694E+02  0.12853473856E+03  0.13427577669E+03  0.11149870160E+02 0.  0.
         22    1    3    3    0    0 -0.11953349611E+02 -0.35236387694E+02  0.28926309501E+02  0.47129788521E+02  0.00000000000E+00 0. -1.
         22    1    4    4    0    0 -0.19364551866E+01  0.47847896252E+01  0.12892381790E+02  0.13887317187E+02  0.00000000000E+00 0.  1.
         22    1    4    4    0    0  0.13889804797E+02  0.30451598069E+02  0.11564235677E+03  0.12038845950E+03  0.00000000000E+00 0.  1.
<mgrwt>
<rscale>  0 0.90077730E+02</rscale>
<asrwt>0</asrwt>
<pdfrwt beam="1">  1        2 0.26066662E-01 0.90077730E+02</pdfrwt>
<pdfrwt beam="2">  1       -2 0.18418860E-02 0.90077730E+02</pdfrwt>
<totfact> 0.15066270E+05</totfact>
</mgrwt>
</event>
<event>
 7    1  0.3891761E-009  0.9078002E+02  0.7818608E-02  0.1300974E+00
         -2   -1    0    0    0  501 -0.00000000000E+00  0.00000000000E+00  0.10731037877E+02  0.10731038180E+02  0.25500000000E-02 0.  1.
          2   -1    0    0  501    0  0.00000000000E+00 -0.00000000000E+00 -0.19199011292E+03  0.19199011294E+03  0.25500000000E-02 0. -1.
         23    2    1    2    0    0  0.00000000000E+00  0.35527136788E-14 -0.18125907505E+03  0.20272115112E+03  0.90780024371E+02 0.  0.
    9000005    2    3    3    0    0 -0.36281775736E+02 -0.25154671723E+02 -0.84213966802E+02  0.96105590369E+02  0.13970237493E+02 0.  0.
         22    1    3    3    0    0  0.36281775736E+02  0.25154671723E+02 -0.97045108244E+02  0.10661556075E+03  0.00000000000E+00 0.  1.
         22    1    4    4    0    0 -0.36833298647E+02 -0.24439855960E+02 -0.84312208662E+02  0.95197410564E+02  0.00000000000E+00 0. -1.
         22    1    4    4    0    0  0.55152291037E+00 -0.71481576303E+00  0.98241860394E-01  0.90817980536E+00  0.00000000000E+00 0. -1.
<mgrwt>
<rscale>  0 0.90780024E+02</rscale>
<asrwt>0</asrwt>
<pdfrwt beam="2">  1        2 0.29536938E-01 0.90780024E+02</pdfrwt>
<pdfrwt beam="1">  1       -2 0.16509291E-02 0.90780024E+02</pdfrwt>
<totfact> 0.15421885E+05</totfact>
</mgrwt>
</event>
<event>
 7    1  0.3891761E-009  0.8886655E+02  0.7818608E-02  0.1305620E+00
         -2   -1    0    0    0  501 -0.00000000000E+00  0.00000000000E+00  0.35151141550E+02  0.35151141643E+02  0.25500000000E-02 0.  1.
          2   -1    0    0  501    0  0.00000000000E+00 -0.00000000000E+00 -0.56166475357E+02  0.56166475415E+02  0.25500000000E-02 0. -1.
         23    2    1    2    0    0 -0.17763568394E-14  0.00000000000E+00 -0.21015333807E+02  0.91317617058E+02  0.88866545619E+02 0.  0.
    9000005    2    3    3    0    0 -0.15523370034E+02 -0.35950577473E+02 -0.30880321500E+02  0.50935232036E+02  0.10362652596E+02 0.  0.
         22    1    3    3    0    0  0.15523370034E+02  0.35950577473E+02  0.98649876925E+01  0.40382385022E+02  0.00000000000E+00 0. -1.
         22    1    4    4    0    0 -0.11758323951E+02 -0.34519067005E+02 -0.27428838541E+02  0.45630750078E+02  0.00000000000E+00 0. -1.
         22    1    4    4    0    0 -0.37650460832E+01 -0.14315104686E+01 -0.34514829591E+01  0.53044819584E+01  0.00000000000E+00 0. -1.
<mgrwt>
<rscale>  0 0.88866546E+02</rscale>
<asrwt>0</asrwt>
<pdfrwt beam="2">  1        2 0.86409962E-02 0.88866546E+02</pdfrwt>
<pdfrwt beam="1">  1       -2 0.54078679E-02 0.88866546E+02</pdfrwt>
<totfact> 0.11204720E+05</totfact>
</mgrwt>
</event>
<event>
 7    1  0.3891761E-009  0.8382770E+02  0.7818608E-02  0.1318527E+00
          2   -1    0    0  501    0  0.00000000000E+00  0.00000000000E+00  0.26371691104E+03  0.26371691106E+03  0.25500000000E-02 0. -1.
         -2   -1    0    0    0  501 -0.00000000000E+00 -0.00000000000E+00 -0.66615782744E+01  0.66615787624E+01  0.25500000000E-02 0.  1.
         23    2    1    2    0    0 -0.88817841970E-15  0.17763568394E-14  0.25705533277E+03  0.27037848982E+03  0.83827702172E+02 0.  0.
    9000005    2    3    3    0    0  0.58711743168E+01 -0.14837146527E+02  0.25292415878E+03  0.25389582609E+03  0.15422347650E+02 0.  0.
         22    1    3    3    0    0 -0.58711743168E+01  0.14837146527E+02  0.41311739856E+01  0.16482663724E+02  0.00000000000E+00 0.  1.
         22    1    4    4    0    0 -0.23112180411E+00 -0.14814878746E+02  0.21224048610E+03  0.21275703981E+03  0.00000000000E+00 0.  1.
         22    1    4    4    0    0  0.61022961210E+01 -0.22267780710E-01  0.40683672685E+02  0.41138786284E+02  0.00000000000E+00 0.  1.
<mgrwt>
<rscale>  0 0.83827702E+02</rscale>
<asrwt>0</asrwt>
<pdfrwt beam="1">  1        2 0.40571830E-01 0.83827702E+02</pdfrwt>
<pdfrwt beam="2">  1       -2 0.10248583E-02 0.83827702E+02</pdfrwt>
<totfact> 0.21413654E+05</totfact>
</mgrwt>
</event>
<event>
 7    1  0.3891761E-009  0.8948917E+02  0.7818608E-02  0.1304093E+00
         -2   -1    0    0    0  501 -0.00000000000E+00  0.00000000000E+00  0.36327873705E+02  0.36327873795E+02  0.25500000000E-02 0.  1.
          2   -1    0    0  501    0  0.00000000000E+00 -0.00000000000E+00 -0.55111339052E+02  0.55111339111E+02  0.25500000000E-02 0. -1.
         23    2    1    2    0    0  0.00000000000E+00  0.00000000000E+00 -0.18783465346E+02  0.91439212905E+02  0.89489167425E+02 0.  0.
    9000005    2    3    3    0    0 -0.64159089613E+01  0.10564370119E+02 -0.52582082205E+02  0.55451488535E+02  0.12538835984E+02 0.  0.
         22    1    3    3    0    0  0.64159089613E+01 -0.10564370119E+02  0.33798616859E+02  0.35987724371E+02  0.00000000000E+00 0.  1.
         22    1    4    4    0    0 -0.50735460154E+01  0.50065231059E+01 -0.89269105064E+01  0.11423479066E+02  0.00000000000E+00 0. -1.
         22    1    4    4    0    0 -0.13423629459E+01  0.55578470130E+01 -0.43655171699E+02  0.44028009469E+02  0.00000000000E+00 0. -1.
<mgrwt>
<rscale>  0 0.89489167E+02</rscale>
<asrwt>0</asrwt>
<pdfrwt beam="2">  1        2 0.84786676E-02 0.89489167E+02</pdfrwt>
<pdfrwt beam="1">  1       -2 0.55889036E-02 0.89489167E+02</pdfrwt>
<totfact> 0.10932092E+05</totfact>
</mgrwt>
</event>
<event>
 7    1  0.3891761E-009  0.1014512E+03  0.7818608E-02  0.1277274E+00
         -2   -1    0    0    0  501 -0.00000000000E+00  0.00000000000E+00  0.43487724893E+01  0.43487732369E+01  0.25500000000E-02 0. -1.
          2   -1    0    0  501    0  0.00000000000E+00 -0.00000000000E+00 -0.59168125515E+03  0.59168125515E+03  0.25500000000E-02 0.  1.
         23    2    1    2    0    0  0.00000000000E+00  0.00000000000E+00 -0.58733248266E+03  0.59603002839E+03  0.10145121762E+03 0.  0.
    9000005    2    3    3    0    0 -0.25129559748E+02  0.20138410240E+02 -0.52291603545E+03  0.52401246795E+03  0.10527872599E+02 0.  0.
         22    1    3    3    0    0  0.25129559748E+02 -0.20138410240E+02 -0.64416447213E+02  0.72017560440E+02  0.00000000000E+00 0. -1.
         22    1    4    4    0    0 -0.21274952890E+02  0.17079751155E+02 -0.48664523358E+03  0.48740940172E+03  0.00000000000E+00 0.  1.
         22    1    4    4    0    0 -0.38546068586E+01  0.30586590853E+01 -0.36270801867E+02  0.36603066231E+02  0.00000000000E+00 0.  1.
<mgrwt>
<rscale>  0 0.10145122E+03</rscale>
<asrwt>0</asrwt>
<pdfrwt beam="2">  1        2 0.91027822E-01 0.10145122E+03</pdfrwt>
<pdfrwt beam="1">  1       -2 0.66904245E-03 0.10145122E+03</pdfrwt>
<totfact> 0.17089331E+05</totfact>
</mgrwt>
</event>
<event>
 7    1  0.3891761E-009  0.9157220E+02  0.7818608E-02  0.1299088E+00
          2   -1    0    0  501    0  0.00000000000E+00  0.00000000000E+00  0.75462383034E+03  0.75462383035E+03  0.25500000000E-02 0. -1.
         -2   -1    0    0    0  501 -0.00000000000E+00 -0.00000000000E+00 -0.27780284350E+01  0.27780296054E+01  0.25500000000E-02 0.  1.
         23    2    1    2    0    0  0.00000000000E+00  0.00000000000E+00  0.75184580191E+03  0.75740185995E+03  0.91572198910E+02 0.  0.
    9000005    2    3    3    0    0 -0.29508176703E+02  0.10553200776E+02  0.65129736983E+03  0.65208286958E+03  0.64577332429E+01 0.  0.
         22    1    3    3    0    0  0.29508176703E+02 -0.10553200776E+02  0.10054843208E+03  0.10531899037E+03  0.00000000000E+00 0.  1.
         22    1    4    4    0    0 -0.56188126757E+01  0.39935552824E+01  0.10682189612E+03  0.10704408919E+03  0.00000000000E+00 0.  1.
         22    1    4    4    0    0 -0.23889364027E+02  0.65596454932E+01  0.54447547371E+03  0.54503878040E+03  0.00000000000E+00 0.  1.
<mgrwt>
<rscale>  0 0.91572199E+02</rscale>
<asrwt>0</asrwt>
<pdfrwt beam="1">  1        2 0.11609595E+00 0.91572199E+02</pdfrwt>
<pdfrwt beam="2">  1       -2 0.42738915E-03 0.91572199E+02</pdfrwt>
<totfact> 0.23832525E+05</totfact>
</mgrwt>
</event>
<event>
 7    1  0.3891761E-009  0.7665972E+02  0.7818608E-02  0.1338807E+00
          2   -1    0    0  501    0  0.00000000000E+00  0.00000000000E+00  0.69335754080E+02  0.69335754127E+02  0.25500000000E-02 0. -1.
         -2   -1    0    0    0  501 -0.00000000000E+00 -0.00000000000E+00 -0.21189329740E+02  0.21189329893E+02  0.25500000000E-02 0.  1.
         23    2    1    2    0    0  0.00000000000E+00  0.00000000000E+00  0.48146424340E+02  0.90525084020E+02  0.76659719933E+02 0.  0.
    9000005    2    3    3    0    0 -0.32324118372E+02 -0.16361780536E+02  0.36395875072E+02  0.52437922155E+02  0.10607519352E+02 0.  0.
         22    1    3    3    0    0  0.32324118372E+02  0.16361780536E+02  0.11750549268E+02  0.38087161865E+02  0.00000000000E+00 0.  1.
         22    1    4    4    0    0 -0.12606694671E+02 -0.58137823439E+01  0.71292616783E+01  0.15606254764E+02  0.00000000000E+00 0. -1.
         22    1    4    4    0    0 -0.19717423701E+02 -0.10547998192E+02  0.29266613394E+02  0.36831667392E+02  0.00000000000E+00 0. -1.
<mgrwt>
<rscale>  0 0.76659720E+02</rscale>
<asrwt>0</asrwt>
<pdfrwt beam="1">  1        2 0.10667039E-01 0.76659720E+02</pdfrwt>
<pdfrwt beam="2">  1       -2 0.32598969E-02 0.76659720E+02</pdfrwt>
<totfact> 0.17799772E+05</totfact>
</mgrwt>
</event>
<event>
 7    1  0.3891761E-009  0.9013043E+02  0.7818608E-02  0.1302536E+00
         -2   -1    0    0    0  501 -0.00000000000E+00  0.00000000000E+00  0.58039880180E+01  0.58039885782E+01  0.25500000000E-02 0. -1.
          2   -1    0    0  501    0  0.00000000000E+00 -0.00000000000E+00 -0.34991001572E+03  0.34991001573E+03  0.25500000000E-02 0.  1.
         23    2    1    2    0    0  0.35527136788E-14 -0.71054273576E-14 -0.34410602770E+03  0.35571400431E+03  0.90130430819E+02 0.  0.
    9000005    2    3    3    0    0  0.20108257663E+02 -0.39999446828E+02 -0.18404593440E+03  0.18951072142E+03  0.60917808143E+01 0.  0.
         22    1    3    3    0    0 -0.20108257663E+02  0.39999446828E+02 -0.16006009331E+03  0.16620328289E+03  0.00000000000E+00 0. -1.
         22    1    4    4    0    0  0.18573446309E+01 -0.97574417923E+00 -0.80833602989E+01  0.83511986866E+01  0.00000000000E+00 0. -1.
         22    1    4    4    0    0  0.18250913032E+02 -0.39023702648E+02 -0.17596257410E+03  0.18115952274E+03  0.00000000000E+00 0. -1.
<mgrwt>
<rscale>  0 0.90130431E+02</rscale>
<asrwt>0</asrwt>
<pdfrwt beam="2">  1        2 0.53832294E-01 0.90130431E+02</pdfrwt>
<pdfrwt beam="1">  1       -2 0.89292155E-03 0.90130431E+02</pdfrwt>
<totfact> 0.19610370E+05</totfact>
</mgrwt>
</event>
<event>
 7    1  0.3891761E-009  0.9165694E+02  0.7818608E-02  0.1298888E+00
          2   -1    0    0  501    0  0.00000000000E+00  0.00000000000E+00  0.54496944683E+02  0.54496944743E+02  0.25500000000E-02 0. -1.
         -2   -1    0    0    0  501 -0.00000000000E+00 -0.00000000000E+00 -0.38538836896E+02  0.38538836981E+02  0.25500000000E-02 0.  1.
         23    2    1    2    0    0  0.00000000000E+00  0.00000000000E+00  0.15958107787E+02  0.93035781724E+02  0.91656944509E+02 0.  0.
    9000005    2    3    3    0    0 -0.15351279533E+02 -0.41454022180E+02  0.13983087518E+02  0.48786505535E+02  0.15182181909E+02 0.  0.
         22    1    3    3    0    0  0.15351279533E+02  0.41454022180E+02  0.19750202687E+01  0.44249276189E+02  0.00000000000E+00 0.  1.
         22    1    4    4    0    0 -0.91993334763E+01 -0.15179251917E+02 -0.12593160100E+01  0.17793911936E+02  0.00000000000E+00 0.  1.
         22    1    4    4    0    0 -0.61519460569E+01 -0.26274770263E+02  0.15242403528E+02  0.30992593599E+02  0.00000000000E+00 0.  1.
<mgrwt>
<rscale>  0 0.91656945E+02</rscale>
<asrwt>0</asrwt>
<pdfrwt beam="1">  1        2 0.83841453E-02 0.91656945E+02</pdfrwt>
<pdfrwt beam="2">  1       -2 0.59290518E-02 0.91656945E+02</pdfrwt>
<totfact> 0.10185841E+05</totfact>
</mgrwt>
</event>
<event>
 7    1  0.3891761E-009  0.9162807E+02  0.7818608E-02  0.1298956E+00
          2   -1    0    0  501    0  0.00000000000E+00  0.00000000000E+00  0.76300716074E+03  0.76300716075E+03  0.25500000000E-02 0. -1.
         -2   -1    0    0    0  501 -0.00000000000E+00 -0.00000000000E+00 -0.27508595409E+01  0.27508607228E+01  0.25500000000E-02 0.  1.
         23    2    1    2    0    0  0.00000000000E+00  0.00000000000E+00  0.76025630120E+03  0.76575802147E+03  0.91628073909E+02 0.  0.
    9000005    2    3    3    0    0  0.69290512310E+01 -0.24135742091E+02  0.69956401875E+03  0.70007622074E+03  0.92926167491E+01 0.  0.
         22    1    3    3    0    0 -0.69290512310E+01  0.24135742091E+02  0.60692282456E+02  0.65681800729E+02  0.00000000000E+00 0.  1.
         22    1    4    4    0    0  0.88247972207E+01 -0.17172687139E+02  0.46359208770E+03  0.46399396765E+03  0.00000000000E+00 0. -1.
         22    1    4    4    0    0 -0.18957459898E+01 -0.69630549519E+01  0.23597193104E+03  0.23608225310E+03  0.00000000000E+00 0. -1.
<mgrwt>
<rscale>  0 0.91628074E+02</rscale>
<asrwt>0</asrwt>
<pdfrwt beam="1">  1        2 0.11738570E+00 0.91628074E+02</pdfrwt>
<pdfrwt beam="2">  1       -2 0.42320932E-03 0.91628074E+02</pdfrwt>
<totfact> 0.23846886E+05</totfact>
</mgrwt>
</event>
<event>
 7    1  0.3891761E-009  0.8024863E+02  0.7818608E-02  0.1328347E+00
         -2   -1    0    0    0  501 -0.00000000000E+00  0.00000000000E+00  0.55913892691E+01  0.55913898506E+01  0.25500000000E-02 0. -1.
          2   -1    0    0  501    0  0.00000000000E+00 -0.00000000000E+00 -0.28793566131E+03  0.28793566133E+03  0.25500000000E-02 0.  1.
         23    2    1    2    0    0  0.00000000000E+00  0.00000000000E+00 -0.28234427204E+03  0.29352705118E+03  0.80248625007E+02 0.  0.
    9000005    2    3    3    0    0  0.36041559390E+02  0.17035064339E+02 -0.15445552819E+03  0.15956915397E+03  0.40764308435E+01 0.  0.
         22    1    3    3    0    0 -0.36041559390E+02 -0.17035064339E+02 -0.12788874385E+03  0.13395789721E+03  0.00000000000E+00 0.  1.
         22    1    4    4    0    0  0.10475687414E+02  0.58160142486E+01 -0.39881372927E+02  0.41642405732E+02  0.00000000000E+00 0. -1.
         22    1    4    4    0    0  0.25565871976E+02  0.11219050090E+02 -0.11457415526E+03  0.11792674823E+03  0.00000000000E+00 0. -1.
<mgrwt>
<rscale>  0 0.80248625E+02</rscale>
<asrwt>0</asrwt>
<pdfrwt beam="2">  1        2 0.44297782E-01 0.80248625E+02</pdfrwt>
<pdfrwt beam="1">  1       -2 0.86021401E-03 0.80248625E+02</pdfrwt>
<totfact> 0.24817863E+05</totfact>
</mgrwt>
</event>
<event>
 7    1  0.3891761E-009  0.8653753E+02  0.7818608E-02  0.1311460E+00
         -2   -1    0    0    0  501 -0.00000000000E+00  0.00000000000E+00  0.29312648488E+01  0.29312659580E+01  0.25500000000E-02 0.  1.
          2   -1    0    0  501    0  0.00000000000E+00 -0.00000000000E+00 -0.63869552152E+03  0.63869552152E+03  0.25500000000E-02 0. -1.
         23    2    1    2    0    0 -0.88817841970E-15  0.00000000000E+00 -0.63576425667E+03  0.64162678748E+03  0.86537531483E+02 0.  0.
    9000005    2    3    3    0    0 -0.51635207032E+01  0.12164600545E+02 -0.62284926788E+03  0.62314879008E+03  0.14091296122E+02 0.  0.
         22    1    3    3    0    0  0.51635207032E+01 -0.12164600545E+02 -0.12914988783E+02  0.18477997395E+02  0.00000000000E+00 0.  1.
         22    1    4    4    0    0  0.28424754583E+01  0.15400695885E+01 -0.30993715560E+03  0.30995401579E+03  0.00000000000E+00 0.  1.
         22    1    4    4    0    0 -0.80059961615E+01  0.10624530957E+02 -0.31291211228E+03  0.31319477429E+03  0.00000000000E+00 0.  1.
<mgrwt>
<rscale>  0 0.86537531E+02</rscale>
<asrwt>0</asrwt>
<pdfrwt beam="2">  1        2 0.98260739E-01 0.86537531E+02</pdfrwt>
<pdfrwt beam="1">  1       -2 0.45096442E-03 0.86537531E+02</pdfrwt>
<totfact> 0.26594225E+05</totfact>
</mgrwt>
</event>
<event>
 7    1  0.3891761E-009  0.9029249E+02  0.7818608E-02  0.1302145E+00
          2   -1    0    0  501    0  0.00000000000E+00  0.00000000000E+00  0.85295774057E+03  0.85295774057E+03  0.25500000000E-02 0. -1.
         -2   -1    0    0    0  501 -0.00000000000E+00 -0.00000000000E+00 -0.23895475324E+01  0.23895488930E+01  0.25500000000E-02 0.  1.
         23    2    1    2    0    0  0.11102230246E-15  0.00000000000E+00  0.85056819304E+03  0.85534728946E+03  0.90292494654E+02 0.  0.
    9000005    2    3    3    0    0  0.77483028537E+00 -0.20259561541E+02  0.80667724181E+03  0.80699994419E+03  0.10473169050E+02 0.  0.
         22    1    3    3    0    0 -0.77483028537E+00  0.20259561541E+02  0.43890951225E+02  0.48347345276E+02  0.00000000000E+00 0.  1.
         22    1    4    4    0    0  0.35464329519E+01 -0.18429926276E+02  0.74217395614E+03  0.74241122065E+03  0.00000000000E+00 0. -1.
         22    1    4    4    0    0 -0.27716026665E+01 -0.18296352644E+01  0.64503285669E+02  0.64588723541E+02  0.00000000000E+00 0. -1.
<mgrwt>
<rscale>  0 0.90292495E+02</rscale>
<asrwt>0</asrwt>
<pdfrwt beam="1">  1        2 0.13122437E+00 0.90292495E+02</pdfrwt>
<pdfrwt beam="2">  1       -2 0.36762252E-03 0.90292495E+02</pdfrwt>
<totfact> 0.25264625E+05</totfact>
</mgrwt>
</event>
<event>
 7    1  0.3891761E-009  0.9038459E+02  0.7818608E-02  0.1301923E+00
         -2   -1    0    0    0  501 -0.00000000000E+00  0.00000000000E+00  0.56914479307E+01  0.56914485020E+01  0.25500000000E-02 0.  1.
          2   -1    0    0  501    0  0.00000000000E+00 -0.00000000000E+00 -0.35884425599E+03  0.35884425600E+03  0.25500000000E-02 0. -1.
         23    2    1    2    0    0  0.35527136788E-14  0.00000000000E+00 -0.35315280806E+03  0.36453570450E+03  0.90384589482E+02 0.  0.
    9000005    2    3    3    0    0 -0.17189943220E+02 -0.39344300734E+02 -0.22240940362E+03  0.22692282010E+03  0.13585113780E+02 0.  0.
         22    1    3    3    0    0  0.17189943220E+02  0.39344300734E+02 -0.13074340443E+03  0.13761288439E+03  0.00000000000E+00 0.  1.
         22    1    4    4    0    0 -0.75908840080E+01 -0.15026439943E+02 -0.56116291835E+02  0.58587145576E+02  0.00000000000E+00 0.  1.
         22    1    4    4    0    0 -0.95990592123E+01 -0.24317860791E+02 -0.16629311179E+03  0.16833567453E+03  0.00000000000E+00 0.  1.
<mgrwt>
<rscale>  0 0.90384589E+02</rscale>
<asrwt>0</asrwt>
<pdfrwt beam="2">  1        2 0.55206791E-01 0.90384589E+02</pdfrwt>
<pdfrwt beam="1">  1       -2 0.87560769E-03 0.90384589E+02</pdfrwt>
<totfact> 0.19644112E+05</totfact>
</mgrwt>
</event>
<event>
 7    1  0.3891761E-009  0.9172376E+02  0.7818608E-02  0.1298730E+00
          2   -1    0    0  501    0  0.00000000000E+00  0.00000000000E+00  0.47490007313E+02  0.47490007382E+02  0.25500000000E-02 0. -1.
         -2   -1    0    0    0  501 -0.00000000000E+00 -0.00000000000E+00 -0.44289575067E+02  0.44289575141E+02  0.25500000000E-02 0.  1.
         23    2    1    2    0    0 -0.88817841970E-15  0.00000000000E+00  0.32004322458E+01  0.91779582522E+02  0.91723764649E+02 0.  0.
    9000005    2    3    3    0    0 -0.53934724161E+01 -0.21503895031E+02 -0.37578762844E+02  0.45363531437E+02  0.12416904660E+02 0.  0.
         22    1    3    3    0    0  0.53934724161E+01  0.21503895031E+02  0.40779195089E+02  0.46416051085E+02  0.00000000000E+00 0. -1.
         22    1    4    4    0    0 -0.83165770251E+01 -0.19061661103E+02 -0.35163680768E+02  0.40853357544E+02  0.00000000000E+00 0.  1.
         22    1    4    4    0    0  0.29231046090E+01 -0.24422339281E+01 -0.24150820756E+01  0.45101738932E+01  0.00000000000E+00 0.  1.
<mgrwt>
<rscale>  0 0.91723765E+02</rscale>
<asrwt>0</asrwt>
<pdfrwt beam="1">  1        2 0.73061550E-02 0.91723765E+02</pdfrwt>
<pdfrwt beam="2">  1       -2 0.68137807E-02 0.91723765E+02</pdfrwt>
<totfact> 0.98033198E+04</totfact>
</mgrwt>
</event>
<event>
 7    1  0.3891761E-009  0.9214924E+02  0.7818608E-02  0.1297729E+00
         -2   -1    0    0    0  501 -0.00000000000E+00  0.00000000000E+00  0.72054644426E+02  0.72054644471E+02  0.25500000000E-02 0.  1.
          2   -1    0    0  501    0  0.00000000000E+00 -0.00000000000E+00 -0.29461953312E+02  0.29461953423E+02  0.25500000000E-02 0. -1.
         23    2    1    2    0    0  0.00000000000E+00  0.35527136788E-14  0.42592691114E+02  0.10151659789E+03  0.92149239344E+02 0.  0.
    9000005    2    3    3    0    0 -0.33760601922E+02 -0.18478632770E+02  0.47157956943E+02  0.62759924104E+02  0.15287153408E+02 0.  0.
         22    1    3    3    0    0  0.33760601922E+02  0.18478632770E+02 -0.45652658294E+01  0.38756673790E+02  0.00000000000E+00 0.  1.
         22    1    4    4    0    0 -0.46876633937E+01 -0.10053094420E+02  0.11303317802E+02  0.15836789095E+02  0.00000000000E+00 0.  1.
         22    1    4    4    0    0 -0.29072938528E+02 -0.84255383503E+01  0.35854639141E+02  0.46923135009E+02  0.00000000000E+00 0.  1.
<mgrwt>
<rscale>  0 0.92149239E+02</rscale>
<asrwt>0</asrwt>
<pdfrwt beam="2">  1        2 0.45326083E-02 0.92149239E+02</pdfrwt>
<pdfrwt beam="1">  1       -2 0.11085330E-01 0.92149239E+02</pdfrwt>
<totfact> 0.85299675E+04</totfact>
</mgrwt>
</event>
<event>
 7    1  0.3891761E-009  0.1070157E+03  0.7818608E-02  0.1266198E+00
          2   -1    0    0  501    0  0.00000000000E+00  0.00000000000E+00  0.39695254462E+03  0.39695254463E+03  0.25500000000E-02 0.  1.
         -2   -1    0    0    0  501 -0.00000000000E+00 -0.00000000000E+00 -0.72126781486E+01  0.72126785993E+01  0.25500000000E-02 0. -1.
         23    2    1    2    0    0 -0.71054273576E-14  0.00000000000E+00  0.38973986647E+03  0.40416522323E+03  0.10701571917E+03 0.  0.
    9000005    2    3    3    0    0  0.40554329894E+02  0.32871067648E+02  0.22258442663E+03  0.22904782880E+03  0.13925521159E+02 0.  0.
         22    1    3    3    0    0 -0.40554329894E+02 -0.32871067648E+02  0.16715543984E+03  0.17511739442E+03  0.00000000000E+00 0. -1.
         22    1    4    4    0    0  0.26188475298E+02  0.17391882392E+02  0.15803744226E+03  0.16113394108E+03  0.00000000000E+00 0. -1.
         22    1    4    4    0    0  0.14365854597E+02  0.15479185257E+02  0.64546984368E+02  0.67913887721E+02  0.00000000000E+00 0. -1.
<mgrwt>
<rscale>  0 0.10701572E+03</rscale>
<asrwt>0</asrwt>
<pdfrwt beam="1">  1        2 0.61069630E-01 0.10701572E+03</pdfrwt>
<pdfrwt beam="2">  1       -2 0.11096427E-02 0.10701572E+03</pdfrwt>
<totfact> 0.12962747E+05</totfact>
</mgrwt>
</event>
<event>
 7    1  0.3891761E-009  0.8889636E+02  0.7818608E-02  0.1305547E+00
         -2   -1    0    0    0  501 -0.00000000000E+00  0.00000000000E+00  0.31451405374E+02  0.31451405477E+02  0.25500000000E-02 0.  1.
          2   -1    0    0  501    0  0.00000000000E+00 -0.00000000000E+00 -0.62815664046E+02  0.62815664098E+02  0.25500000000E-02 0. -1.
         23    2    1    2    0    0  0.00000000000E+00 -0.17763568394E-14 -0.31364258672E+02  0.94267069575E+02  0.88896364854E+02 0.  0.
    9000005    2    3    3    0    0 -0.11960910739E+02 -0.13867962254E+02  0.27231686244E+02  0.32875958465E+02  0.19698087382E+01 0.  0.
         22    1    3    3    0    0  0.11960910739E+02  0.13867962254E+02 -0.58595944916E+02  0.61391111111E+02  0.00000000000E+00 0. -1.
         22    1    4    4    0    0 -0.47114515089E+01 -0.51879675137E+01  0.12133017235E+02  0.14011527021E+02  0.00000000000E+00 0. -1.
         22    1    4    4    0    0 -0.72494592305E+01 -0.86799947404E+01  0.15098669009E+02  0.18864431443E+02  0.00000000000E+00 0. -1.
<mgrwt>
<rscale>  0 0.88896365E+02</rscale>
<asrwt>0</asrwt>
<pdfrwt beam="2">  1        2 0.96639483E-02 0.88896365E+02</pdfrwt>
<pdfrwt beam="1">  1       -2 0.48386778E-02 0.88896365E+02</pdfrwt>
<totfact> 0.11529568E+05</totfact>
</mgrwt>
</event>
<event>
 7    1  0.3891761E-009  0.9743059E+02  0.7818608E-02  0.1285794E+00
         -2   -1    0    0    0  501 -0.00000000000E+00  0.00000000000E+00  0.27306426213E+02  0.27306426332E+02  0.25500000000E-02 0.  1.
          2   -1    0    0  501    0  0.00000000000E+00 -0.00000000000E+00 -0.86909206280E+02  0.86909206317E+02  0.25500000000E-02 0. -1.
         23    2    1    2    0    0  0.00000000000E+00 -0.71054273576E-14 -0.59602780067E+02  0.11421563265E+03  0.97430587341E+02 0.  0.
    9000005    2    3    3    0    0 -0.27556878002E+02  0.37555395543E+02 -0.46260224619E+02  0.65761396038E+02  0.38423387963E+01 0.  0.
         22    1    3    3    0    0  0.27556878002E+02 -0.37555395543E+02 -0.13342555448E+02  0.48454236611E+02  0.00000000000E+00 0.  1.
         22    1    4    4    0    0 -0.26082350520E+02  0.35922680874E+02 -0.45063415792E+02  0.63256932052E+02  0.00000000000E+00 0.  1.
         22    1    4    4    0    0 -0.14745274826E+01  0.16327146697E+01 -0.11968088271E+01  0.25044639862E+01  0.00000000000E+00 0.  1.
<mgrwt>
<rscale>  0 0.97430587E+02</rscale>
<asrwt>0</asrwt>
<pdfrwt beam="2">  1        2 0.13370647E-01 0.97430587E+02</pdfrwt>
<pdfrwt beam="1">  1       -2 0.42009887E-02 0.97430587E+02</pdfrwt>
<totfact> 0.97793465E+04</totfact>
</mgrwt>
</event>
<event>
 7    1  0.3891761E-009  0.1003605E+03  0.7818608E-02  0.1279540E+00
         -2   -1    0    0    0  501 -0.00000000000E+00  0.00000000000E+00  0.48149397148E+03  0.48149397149E+03  0.25500000000E-02 0.  1.
          2   -1    0    0  501    0  0.00000000000E+00 -0.00000000000E+00 -0.52296770049E+01  0.52296776265E+01  0.25500000000E-02 0. -1.
         23    2    1    2    0    0  0.00000000000E+00 -0.35527136788E-14  0.47626429447E+03  0.48672364911E+03  0.10036051223E+03 0.  0.
    9000005    2    3    3    0    0  0.20778180977E+02  0.20322575960E+02  0.43623305119E+03  0.43725405909E+03  0.68627501025E+01 0.  0.
         22    1    3    3    0    0 -0.20778180977E+02 -0.20322575960E+02  0.40031243281E+02  0.49469590023E+02  0.00000000000E+00 0. -1.
         22    1    4    4    0    0  0.20027419523E+02  0.17272401539E+02  0.36823339786E+03  0.36918189106E+03  0.00000000000E+00 0.  1.
         22    1    4    4    0    0  0.75076145335E+00  0.30501744215E+01  0.67999653336E+02  0.68072168032E+02  0.00000000000E+00 0.  1.
<mgrwt>
<rscale>  0 0.10036051E+03</rscale>
<asrwt>0</asrwt>
<pdfrwt beam="2">  1        2 0.80456577E-03 0.10036051E+03</pdfrwt>
<pdfrwt beam="1">  1       -2 0.74075993E-01 0.10036051E+03</pdfrwt>
<totfact> 0.29125787E+04</totfact>
</mgrwt>
</event>
<event>
 7    1  0.3891761E-009  0.9456175E+02  0.7818608E-02  0.1292166E+00
          2   -1    0    0  501    0  0.00000000000E+00  0.00000000000E+00  0.22771069380E+02  0.22771069522E+02  0.25500000000E-02 0. -1.
         -2   -1    0    0    0  501 -0.00000000000E+00 -0.00000000000E+00 -0.98171978568E+02  0.98171978601E+02  0.25500000000E-02 0.  1.
         23    2    1    2    0    0  0.00000000000E+00  0.00000000000E+00 -0.75400909188E+02  0.12094304812E+03  0.94561745875E+02 0.  0.
    9000005    2    3    3    0    0  0.32155210684E+02  0.30596599168E+01  0.44120101154E+01  0.34841821763E+02  0.12295024100E+02 0.  0.
         22    1    3    3    0    0 -0.32155210684E+02 -0.30596599168E+01 -0.79812919303E+02  0.86101226360E+02  0.00000000000E+00 0.  1.
         22    1    4    4    0    0  0.18038424137E+02  0.11209395967E+01 -0.36959689545E+01  0.18447260974E+02  0.00000000000E+00 0. -1.
         22    1    4    4    0    0  0.14116786547E+02  0.19387203201E+01  0.81079790699E+01  0.16394560790E+02  0.00000000000E+00 0. -1.
<mgrwt>
<rscale>  0 0.94561746E+02</rscale>
<asrwt>0</asrwt>
<pdfrwt beam="1">  1        2 0.35032415E-02 0.94561746E+02</pdfrwt>
<pdfrwt beam="2">  1       -2 0.15103381E-01 0.94561746E+02</pdfrwt>
<totfact> 0.73290175E+04</totfact>
</mgrwt>
</event>
<event>
 7    1  0.3891761E-009  0.9366368E+02  0.7818608E-02  0.1294214E+00
          2   -1    0    0  501    0  0.00000000000E+00  0.00000000000E+00  0.19012206421E+03  0.19012206423E+03  0.25500000000E-02 0.  1.
         -2   -1    0    0    0  501 -0.00000000000E+00 -0.00000000000E+00 -0.11535857695E+02  0.11535857977E+02  0.25500000000E-02 0. -1.
         23    2    1    2    0    0 -0.35527136788E-14  0.00000000000E+00  0.17858620651E+03  0.20165792220E+03  0.93663677220E+02 0.  0.
    9000005    2    3    3    0    0 -0.30746636869E+02  0.33249767067E+02  0.78890935253E+02  0.92158836360E+02  0.14784071341E+02 0.  0.
         22    1    3    3    0    0  0.30746636869E+02 -0.33249767067E+02  0.99695271262E+02  0.10949908584E+03  0.00000000000E+00 0.  1.
         22    1    4    4    0    0 -0.10245657832E+02  0.16444185745E+02  0.46009435706E+02  0.49922469122E+02  0.00000000000E+00 0. -1.
         22    1    4    4    0    0 -0.20500979037E+02  0.16805581322E+02  0.32881499547E+02  0.42236367238E+02  0.00000000000E+00 0. -1.
<mgrwt>
<rscale>  0 0.93663677E+02</rscale>
<asrwt>0</asrwt>
<pdfrwt beam="1">  1        2 0.29249549E-01 0.93663677E+02</pdfrwt>
<pdfrwt beam="2">  1       -2 0.17747473E-02 0.93663677E+02</pdfrwt>
<totfact> 0.14123101E+05</totfact>
</mgrwt>
</event>
<event>
 7    1  0.3891761E-009  0.9093379E+02  0.7818608E-02  0.1300606E+00
         -2   -1    0    0    0  501 -0.00000000000E+00  0.00000000000E+00  0.74088952044E+02  0.74088952088E+02  0.25500000000E-02 0.  1.
          2   -1    0    0  501    0  0.00000000000E+00 -0.00000000000E+00 -0.27902113773E+02  0.27902113889E+02  0.25500000000E-02 0. -1.
         23    2    1    2    0    0  0.00000000000E+00 -0.88817841970E-15  0.46186838271E+02  0.10199106598E+03  0.90933786403E+02 0.  0.
    9000005    2    3    3    0    0 -0.40208225095E+02  0.33371253163E+01  0.11733140131E+00  0.40751885432E+02  0.57327679994E+01 0.  0.
         22    1    3    3    0    0  0.40208225095E+02 -0.33371253163E+01  0.46069506870E+02  0.61239180545E+02  0.00000000000E+00 0.  1.
         22    1    4    4    0    0 -0.32550677234E+02  0.21562994204E+01  0.22978386569E+01  0.32702848164E+02  0.00000000000E+00 0. -1.
         22    1    4    4    0    0 -0.76575478611E+01  0.11808258959E+01 -0.21805072556E+01  0.80490372675E+01  0.00000000000E+00 0. -1.
<mgrwt>
<rscale>  0 0.90933786E+02</rscale>
<asrwt>0</asrwt>
<pdfrwt beam="2">  1        2 0.42926329E-02 0.90933786E+02</pdfrwt>
<pdfrwt beam="1">  1       -2 0.11398300E-01 0.90933786E+02</pdfrwt>
<totfact> 0.87452301E+04</totfact>
</mgrwt>
</event>
<event>
 7    1  0.3891761E-009  0.9020735E+02  0.7818608E-02  0.1302350E+00
          2   -1    0    0  501    0  0.00000000000E+00  0.00000000000E+00  0.73936668756E+03  0.73936668757E+03  0.25500000000E-02 0. -1.
         -2   -1    0    0    0  501 -0.00000000000E+00 -0.00000000000E+00 -0.27514642796E+01  0.27514654613E+01  0.25500000000E-02 0.  1.
         23    2    1    2    0    0  0.00000000000E+00  0.00000000000E+00  0.73661522328E+03  0.74211815303E+03  0.90207349378E+02 0.  0.
    9000005    2    3    3    0    0  0.29398276456E+02  0.10107981304E+02  0.63406294273E+03  0.63495752504E+03  0.12992817812E+02 0.  0.
         22    1    3    3    0    0 -0.29398276456E+02 -0.10107981304E+02  0.10255228055E+03  0.10716062799E+03  0.00000000000E+00 0.  1.
         22    1    4    4    0    0  0.26536400700E+02  0.88809580898E+01  0.61545664142E+03  0.61609246826E+03  0.00000000000E+00 0. -1.
         22    1    4    4    0    0  0.28618757559E+01  0.12270232137E+01  0.18606301310E+02  0.18865056779E+02  0.00000000000E+00 0. -1.
<mgrwt>
<rscale>  0 0.90207349E+02</rscale>
<asrwt>0</asrwt>
<pdfrwt beam="1">  1        2 0.11374880E+00 0.90207349E+02</pdfrwt>
<pdfrwt beam="2">  1       -2 0.42330199E-03 0.90207349E+02</pdfrwt>
<totfact> 0.24690115E+05</totfact>
</mgrwt>
</event>
<event>
 7    1  0.3891761E-009  0.9039685E+02  0.7818608E-02  0.1301893E+00
          2   -1    0    0  501    0  0.00000000000E+00  0.00000000000E+00  0.93605398214E+01  0.93605401688E+01  0.25500000000E-02 0.  1.
         -2   -1    0    0    0  501 -0.00000000000E+00 -0.00000000000E+00 -0.21824572093E+03  0.21824572094E+03  0.25500000000E-02 0. -1.
         23    2    1    2    0    0  0.35527136788E-14  0.71054273576E-14 -0.20888518111E+03  0.22760626111E+03  0.90396853990E+02 0.  0.
    9000005    2    3    3    0    0  0.21300841705E+02  0.38874514125E+02 -0.10796639926E+03  0.11738124474E+03  0.12516370909E+02 0.  0.
         22    1    3    3    0    0 -0.21300841705E+02 -0.38874514125E+02 -0.10091878184E+03  0.11022501637E+03  0.00000000000E+00 0.  1.
         22    1    4    4    0    0  0.18567872682E+02  0.38735129735E+02 -0.97128608763E+02  0.10620330885E+03  0.00000000000E+00 0. -1.
         22    1    4    4    0    0  0.27329690229E+01  0.13938439003E+00 -0.10837790502E+02  0.11177935885E+02  0.00000000000E+00 0. -1.
<mgrwt>
<rscale>  0 0.90396854E+02</rscale>
<asrwt>0</asrwt>
<pdfrwt beam="1">  1        2 0.14400832E-02 0.90396854E+02</pdfrwt>
<pdfrwt beam="2">  1       -2 0.33576261E-01 0.90396854E+02</pdfrwt>
<totfact> 0.61276055E+04</totfact>
</mgrwt>
</event>
<event>
 7    1  0.3891761E-009  0.9655285E+02  0.7818608E-02  0.1287716E+00
          2   -1    0    0  501    0  0.00000000000E+00  0.00000000000E+00  0.11214454122E+04  0.11214454122E+04  0.25500000000E-02 0. -1.
         -2   -1    0    0    0  501 -0.00000000000E+00 -0.00000000000E+00 -0.20782220216E+01  0.20782235860E+01  0.25500000000E-02 0.  1.
         23    2    1    2    0    0  0.71054273576E-14 -0.44408920985E-15  0.11193671902E+04  0.11235236358E+04  0.96552854585E+02 0.  0.
    9000005    2    3    3    0    0  0.38556860605E+02 -0.39516736530E+01  0.88581104801E+03  0.88677330576E+03  0.14263092499E+02 0.  0.
         22    1    3    3    0    0 -0.38556860605E+02  0.39516736530E+01  0.23355614219E+03  0.23675033005E+03  0.00000000000E+00 0.  1.
         22    1    4    4    0    0  0.15479556595E+02 -0.55731051162E+00  0.21520704863E+03  0.21576376213E+03  0.00000000000E+00 0. -1.
         22    1    4    4    0    0  0.23077304010E+02 -0.33943631414E+01  0.67060399938E+03  0.67100954363E+03  0.00000000000E+00 0. -1.
<mgrwt>
<rscale>  0 0.96552855E+02</rscale>
<asrwt>0</asrwt>
<pdfrwt beam="1">  1        2 0.17252960E+00 0.96552855E+02</pdfrwt>
<pdfrwt beam="2">  1       -2 0.31972745E-03 0.96552855E+02</pdfrwt>
<totfact> 0.21491102E+05</totfact>
</mgrwt>
</event>
<event>
 7    1  0.3891761E-009  0.9152127E+02  0.7818608E-02  0.1299209E+00
          2   -1    0    0  501    0  0.00000000000E+00  0.00000000000E+00  0.44962982008E+03  0.44962982009E+03  0.25500000000E-02 0. -1.
         -2   -1    0    0    0  501 -0.00000000000E+00 -0.00000000000E+00 -0.46572437792E+01  0.46572444774E+01  0.25500000000E-02 0.  1.
         23    2    1    2    0    0 -0.35527136788E-14  0.00000000000E+00  0.44497257630E+03  0.45428706456E+03  0.91521272778E+02 0.  0.
    9000005    2    3    3    0    0 -0.30125869848E+02  0.36611011374E+01  0.39117887711E+03  0.39252353351E+03  0.11525570152E+02 0.  0.
         22    1    3    3    0    0  0.30125869848E+02 -0.36611011374E+01  0.53793699193E+02  0.61763531055E+02  0.00000000000E+00 0.  1.
         22    1    4    4    0    0 -0.17756549393E+01 -0.26914216908E+01  0.53523188532E+02  0.53620223907E+02  0.00000000000E+00 0.  1.
         22    1    4    4    0    0 -0.28350214908E+02  0.63525228282E+01  0.33765568858E+03  0.33890330960E+03  0.00000000000E+00 0.  1.
<mgrwt>
<rscale>  0 0.91521273E+02</rscale>
<asrwt>0</asrwt>
<pdfrwt beam="1">  1        2 0.69173807E-01 0.91521273E+02</pdfrwt>
<pdfrwt beam="2">  1       -2 0.71649922E-03 0.91521273E+02</pdfrwt>
<totfact> 0.20591189E+05</totfact>
</mgrwt>
</event>
<event>
 7    1  0.3891761E-009  0.9098982E+02  0.7818608E-02  0.1300472E+00
          2   -1    0    0  501    0  0.00000000000E+00  0.00000000000E+00  0.29004381521E+03  0.29004381522E+03  0.25500000000E-02 0. -1.
         -2   -1    0    0    0  501 -0.00000000000E+00 -0.00000000000E+00 -0.71361169414E+01  0.71361173970E+01  0.25500000000E-02 0.  1.
         23    2    1    2    0    0  0.00000000000E+00  0.35527136788E-14  0.28290769827E+03  0.29717993262E+03  0.90989815975E+02 0.  0.
    9000005    2    3    3    0    0 -0.22948499187E+02  0.28060792822E+02  0.22978907945E+03  0.23287107340E+03  0.10577054541E+02 0.  0.
         22    1    3    3    0    0  0.22948499187E+02 -0.28060792822E+02  0.53118618813E+02  0.64308859213E+02  0.00000000000E+00 0.  1.
         22    1    4    4    0    0 -0.19900492820E+02  0.20138721741E+02  0.15146835169E+03  0.15409172363E+03  0.00000000000E+00 0.  1.
         22    1    4    4    0    0 -0.30480063668E+01  0.79220710812E+01  0.78320727761E+02  0.78779349770E+02  0.00000000000E+00 0.  1.
<mgrwt>
<rscale>  0 0.90989816E+02</rscale>
<asrwt>0</asrwt>
<pdfrwt beam="1">  1        2 0.44622102E-01 0.90989816E+02</pdfrwt>
<pdfrwt beam="2">  1       -2 0.10978648E-02 0.90989816E+02</pdfrwt>
<totfact> 0.17839008E+05</totfact>
</mgrwt>
</event>
<event>
 7    1  0.3891761E-009  0.8699413E+02  0.7818608E-02  0.1310299E+00
          2   -1    0    0  501    0  0.00000000000E+00  0.00000000000E+00  0.10530218098E+04  0.10530218098E+04  0.25500000000E-02 0. -1.
         -2   -1    0    0    0  501 -0.00000000000E+00 -0.00000000000E+00 -0.17967277992E+01  0.17967296088E+01  0.25500000000E-02 0.  1.
         23    2    1    2    0    0  0.00000000000E+00  0.00000000000E+00  0.10512250820E+04  0.10548185394E+04  0.86994126581E+02 0.  0.
    9000005    2    3    3    0    0 -0.73145910925E+01 -0.12860049062E+02  0.10207344167E+04  0.10209280573E+04  0.13284002815E+02 0.  0.
         22    1    3    3    0    0  0.73145910925E+01  0.12860049062E+02  0.30490665359E+02  0.33890482127E+02  0.00000000000E+00 0.  1.
         22    1    4    4    0    0  0.79728624399E+00 -0.10775317485E+02  0.70405769390E+03  0.70414059638E+03  0.00000000000E+00 0.  1.
         22    1    4    4    0    0 -0.81118773365E+01 -0.20847315774E+01  0.31667672275E+03  0.31678746091E+03  0.00000000000E+00 0.  1.
<mgrwt>
<rscale>  0 0.86994127E+02</rscale>
<asrwt>0</asrwt>
<pdfrwt beam="1">  1        2 0.16200313E+00 0.86994127E+02</pdfrwt>
<pdfrwt beam="2">  1       -2 0.27642019E-03 0.86994127E+02</pdfrwt>
<totfact> 0.28319249E+05</totfact>
</mgrwt>
</event>
<event>
 7    1  0.3891761E-009  0.8994707E+02  0.7818608E-02  0.1302980E+00
          2   -1    0    0  501    0  0.00000000000E+00  0.00000000000E+00  0.35471437883E+03  0.35471437883E+03  0.25500000000E-02 0. -1.
         -2   -1    0    0    0  501 -0.00000000000E+00 -0.00000000000E+00 -0.57021057811E+01  0.57021063513E+01  0.25500000000E-02 0.  1.
         23    2    1    2    0    0 -0.17763568394E-14  0.00000000000E+00  0.34901227304E+03  0.36041648519E+03  0.89947073650E+02 0.  0.
    9000005    2    3    3    0    0  0.10273038407E+02  0.36619927785E+02  0.26897160301E+03  0.27179897400E+03  0.90776986684E+01 0.  0.
         22    1    3    3    0    0 -0.10273038407E+02 -0.36619927785E+02  0.80040670036E+02  0.88617511186E+02  0.00000000000E+00 0.  1.
         22    1    4    4    0    0 -0.51721151334E+00  0.90977156711E+00  0.22095621156E+02  0.22120390284E+02  0.00000000000E+00 0.  1.
         22    1    4    4    0    0  0.10790249921E+02  0.35710156218E+02  0.24687598185E+03  0.24967858371E+03  0.00000000000E+00 0.  1.
<mgrwt>
<rscale>  0 0.89947074E+02</rscale>
<asrwt>0</asrwt>
<pdfrwt beam="1">  1        2 0.54571463E-01 0.89947074E+02</pdfrwt>
<pdfrwt beam="2">  1       -2 0.87724677E-03 0.89947074E+02</pdfrwt>
<totfact> 0.19815087E+05</totfact>
</mgrwt>
</event>
<event>
 7    1  0.3891761E-009  0.9295333E+02  0.7818608E-02  0.1295853E+00
          2   -1    0    0  501    0  0.00000000000E+00  0.00000000000E+00  0.16702853297E+03  0.16702853298E+03  0.25500000000E-02 0. -1.
         -2   -1    0    0    0  501 -0.00000000000E+00 -0.00000000000E+00 -0.12932402258E+02  0.12932402509E+02  0.25500000000E-02 0.  1.
         23    2    1    2    0    0  0.00000000000E+00  0.00000000000E+00  0.15409613071E+03  0.17996093549E+03  0.92953325948E+02 0.  0.
    9000005    2    3    3    0    0  0.27362034432E+02  0.23106026233E+02  0.13375071267E+03  0.13877227915E+03  0.92694629321E+01 0.  0.
         22    1    3    3    0    0 -0.27362034432E+02 -0.23106026233E+02  0.20345418035E+02  0.41188656346E+02  0.00000000000E+00 0.  1.
         22    1    4    4    0    0  0.18105935684E+02  0.10155754933E+02  0.84516693138E+02  0.87028935902E+02  0.00000000000E+00 0. -1.
         22    1    4    4    0    0  0.92560987484E+01  0.12950271300E+02  0.49234019534E+02  0.51743343246E+02  0.00000000000E+00 0. -1.
<mgrwt>
<rscale>  0 0.92953326E+02</rscale>
<asrwt>0</asrwt>
<pdfrwt beam="1">  1        2 0.25696698E-01 0.92953326E+02</pdfrwt>
<pdfrwt beam="2">  1       -2 0.19896004E-02 0.92953326E+02</pdfrwt>
<totfact> 0.13768899E+05</totfact>
</mgrwt>
</event>
<event>
 7    1  0.3891761E-009  0.9250307E+02  0.7818608E-02  0.1296901E+00
          2   -1    0    0  501    0  0.00000000000E+00  0.00000000000E+00  0.37915320134E+02  0.37915320220E+02  0.25500000000E-02 0. -1.
         -2   -1    0    0    0  501 -0.00000000000E+00 -0.00000000000E+00 -0.56420579798E+02  0.56420579856E+02  0.25500000000E-02 0.  1.
         23    2    1    2    0    0  0.00000000000E+00  0.00000000000E+00 -0.18505259664E+02  0.94335900075E+02  0.92503067018E+02 0.  0.
    9000005    2    3    3    0    0 -0.26829688018E+02 -0.18169672959E+02 -0.42216839078E+02  0.54183587902E+02  0.10179907738E+02 0.  0.
         22    1    3    3    0    0  0.26829688018E+02  0.18169672959E+02  0.23711579414E+02  0.40152312174E+02  0.00000000000E+00 0. -1.
         22    1    4    4    0    0 -0.11083551940E+02 -0.28737935565E+01 -0.10020825772E+02  0.15215806326E+02  0.00000000000E+00 0. -1.
         22    1    4    4    0    0 -0.15746136078E+02 -0.15295879402E+02 -0.32196013306E+02  0.38967781575E+02  0.00000000000E+00 0. -1.
<mgrwt>
<rscale>  0 0.92503067E+02</rscale>
<asrwt>0</asrwt>
<pdfrwt beam="1">  1        2 0.58331262E-02 0.92503067E+02</pdfrwt>
<pdfrwt beam="2">  1       -2 0.86800892E-02 0.92503067E+02</pdfrwt>
<totfact> 0.90195915E+04</totfact>
</mgrwt>
</event>
<event>
 7    1  0.4739906E-009  0.9179653E+02  0.7818608E-02  0.1298559E+00
         -2   -1    0    0    0  501 -0.00000000000E+00  0.00000000000E+00  0.29338705818E+01  0.29338716900E+01  0.25500000000E-02 0. -1.
          2   -1    0    0  501    0  0.00000000000E+00 -0.00000000000E+00 -0.71804475455E+03  0.71804475456E+03  0.25500000000E-02 0.  1.
         23    2    1    2    0    0  0.00000000000E+00  0.00000000000E+00 -0.71511088397E+03  0.72097862625E+03  0.91796531153E+02 0.  0.
    9000005    2    3    3    0    0  0.66734324951E+00  0.16530681999E+02 -0.69298156518E+03  0.69334865078E+03  0.15336005341E+02 0.  0.
         22    1    3    3    0    0 -0.66734324951E+00 -0.16530681999E+02 -0.22129318791E+02  0.27629975471E+02  0.00000000000E+00 0. -1.
         22    1    4    4    0    0 -0.22507892902E+01  0.32772556853E+01 -0.34668495646E+02  0.34895716752E+02  0.00000000000E+00 0. -1.
         22    1    4    4    0    0  0.29181325397E+01  0.13253426314E+02 -0.65831306953E+03  0.65845293402E+03  0.00000000000E+00 0. -1.
<mgrwt>
<rscale>  0 0.91796531E+02</rscale>
<asrwt>0</asrwt>
<pdfrwt beam="2">  1        2 0.11046828E+00 0.91796531E+02</pdfrwt>
<pdfrwt beam="1">  1       -2 0.45136536E-03 0.91796531E+02</pdfrwt>
<totfact> 0.23429805E+05</totfact>
</mgrwt>
</event>
<event>
 7    1  0.3891761E-009  0.8329836E+02  0.7818608E-02  0.1319943E+00
          2   -1    0    0  501    0  0.00000000000E+00  0.00000000000E+00  0.22601255372E+03  0.22601255373E+03  0.25500000000E-02 0. -1.
         -2   -1    0    0    0  501 -0.00000000000E+00 -0.00000000000E+00 -0.76750341497E+01  0.76750345734E+01  0.25500000000E-02 0.  1.
         23    2    1    2    0    0  0.00000000000E+00  0.00000000000E+00  0.21833751957E+03  0.23368758831E+03  0.83298358189E+02 0.  0.
    9000005    2    3    3    0    0  0.31554956621E+02 -0.16115353592E+02  0.52937527639E+02  0.64535061753E+02  0.10342748874E+02 0.  0.
         22    1    3    3    0    0 -0.31554956621E+02  0.16115353592E+02  0.16539999193E+03  0.16915252655E+03  0.00000000000E+00 0. -1.
         22    1    4    4    0    0  0.30463906601E+02 -0.14266872780E+02  0.52487325964E+02  0.62341901248E+02  0.00000000000E+00 0.  1.
         22    1    4    4    0    0  0.10910500199E+01 -0.18484808113E+01  0.45020167466E+00  0.21931605056E+01  0.00000000000E+00 0.  1.
<mgrwt>
<rscale>  0 0.83298358E+02</rscale>
<asrwt>0</asrwt>
<pdfrwt beam="1">  1        2 0.34771157E-01 0.83298358E+02</pdfrwt>
<pdfrwt beam="2">  1       -2 0.11807747E-02 0.83298358E+02</pdfrwt>
<totfact> 0.20584371E+05</totfact>
</mgrwt>
</event>
<event>
 7    1  0.3891761E-009  0.6515835E+02  0.7818608E-02  0.1377377E+00
          2   -1    0    0  501    0  0.00000000000E+00  0.00000000000E+00  0.16480704473E+03  0.16480704475E+03  0.25500000000E-02 0.  1.
         -2   -1    0    0    0  501 -0.00000000000E+00 -0.00000000000E+00 -0.64402738527E+01  0.64402743576E+01  0.25500000000E-02 0. -1.
         23    2    1    2    0    0 -0.35527136788E-14  0.00000000000E+00  0.15836677088E+03  0.17124731911E+03  0.65158346996E+02 0.  0.
    9000005    2    3    3    0    0 -0.21128501564E+02 -0.27675212542E+01  0.14368894767E+03  0.14537240372E+03  0.57052018485E+01 0.  0.
         22    1    3    3    0    0  0.21128501564E+02  0.27675212542E+01  0.14677823206E+02  0.25874915387E+02  0.00000000000E+00 0. -1.
         22    1    4    4    0    0 -0.18271437587E+02 -0.31319049046E+01  0.10909978277E+03  0.11066352995E+03  0.00000000000E+00 0. -1.
         22    1    4    4    0    0 -0.28570639769E+01  0.36438365039E+00  0.34589164902E+02  0.34708873774E+02  0.00000000000E+00 0. -1.
<mgrwt>
<rscale>  0 0.65158347E+02</rscale>
<asrwt>0</asrwt>
<pdfrwt beam="1">  1        2 0.25354928E-01 0.65158347E+02</pdfrwt>
<pdfrwt beam="2">  1       -2 0.99081149E-03 0.65158347E+02</pdfrwt>
<totfact> 0.35171432E+05</totfact>
</mgrwt>
</event>
<event>
 7    1  0.3891761E-009  0.9533675E+02  0.7818608E-02  0.1290419E+00
          2   -1    0    0  501    0  0.00000000000E+00  0.00000000000E+00  0.17993087873E+03  0.17993087875E+03  0.25500000000E-02 0.  1.
         -2   -1    0    0    0  501 -0.00000000000E+00 -0.00000000000E+00 -0.12628592401E+02  0.12628592659E+02  0.25500000000E-02 0. -1.
         23    2    1    2    0    0  0.71054273576E-14  0.00000000000E+00  0.16730228633E+03  0.19255947141E+03  0.95336745371E+02 0.  0.
    9000005    2    3    3    0    0  0.34997881793E+02  0.25759907287E+02  0.48671906333E+02  0.66220278710E+02  0.11302490561E+02 0.  0.
         22    1    3    3    0    0 -0.34997881793E+02 -0.25759907287E+02  0.11863038000E+03  0.12633919270E+03  0.00000000000E+00 0.  1.
         22    1    4    4    0    0  0.25962680260E+02  0.17908813513E+02  0.27252025692E+02  0.41682841458E+02  0.00000000000E+00 0.  1.
         22    1    4    4    0    0  0.90352015331E+01  0.78510937743E+01  0.21419880642E+02  0.24537437252E+02  0.00000000000E+00 0.  1.
<mgrwt>
<rscale>  0 0.95336745E+02</rscale>
<asrwt>0</asrwt>
<pdfrwt beam="1">  1        2 0.27681672E-01 0.95336745E+02</pdfrwt>
<pdfrwt beam="2">  1       -2 0.19428605E-02 0.95336745E+02</pdfrwt>
<totfact> 0.13197143E+05</totfact>
</mgrwt>
</event>
<event>
 7    1  0.3891761E-009  0.8679693E+02  0.7818608E-02  0.1310799E+00
         -2   -1    0    0    0  501 -0.00000000000E+00  0.00000000000E+00  0.26232957962E+02  0.26232958086E+02  0.25500000000E-02 0.  1.
          2   -1    0    0  501    0  0.00000000000E+00 -0.00000000000E+00 -0.71796196317E+02  0.71796196363E+02  0.25500000000E-02 0. -1.
         23    2    1    2    0    0  0.00000000000E+00  0.00000000000E+00 -0.45563238356E+02  0.98029154448E+02  0.86796926399E+02 0.  0.
    9000005    2    3    3    0    0  0.26020006581E+02 -0.57068100690E+01 -0.60665449884E+02  0.67407508237E+02  0.12404311084E+02 0.  0.
         22    1    3    3    0    0 -0.26020006581E+02  0.57068100690E+01  0.15102211529E+02  0.30621646211E+02  0.00000000000E+00 0.  1.
         22    1    4    4    0    0  0.25795428395E+02 -0.26030994300E+01 -0.50352097090E+02  0.56634917975E+02  0.00000000000E+00 0. -1.
         22    1    4    4    0    0  0.22457818587E+00 -0.31037106389E+01 -0.10313352795E+02  0.10772590262E+02  0.00000000000E+00 0. -1.
<mgrwt>
<rscale>  0 0.86796926E+02</rscale>
<asrwt>0</asrwt>
<pdfrwt beam="2">  1        2 0.11045569E-01 0.86796926E+02</pdfrwt>
<pdfrwt beam="1">  1       -2 0.40358397E-02 0.86796926E+02</pdfrwt>
<totfact> 0.12774156E+05</totfact>
</mgrwt>
</event>
<event>
 7    1  0.3891761E-009  0.9115186E+02  0.7818608E-02  0.1300086E+00
         -2   -1    0    0    0  501 -0.00000000000E+00  0.00000000000E+00  0.99811820420E+01  0.99811823678E+01  0.25500000000E-02 0.  1.
          2   -1    0    0  501    0  0.00000000000E+00 -0.00000000000E+00 -0.20810814439E+03  0.20810814440E+03  0.25500000000E-02 0. -1.
         23    2    1    2    0    0 -0.35527136788E-14  0.00000000000E+00 -0.19812696234E+03  0.21808932677E+03  0.91151858144E+02 0.  0.
    9000005    2    3    3    0    0  0.16704143814E+02  0.37262184304E+02 -0.14349521206E+03  0.14988282460E+03  0.14369635521E+02 0.  0.
         22    1    3    3    0    0 -0.16704143814E+02 -0.37262184304E+02 -0.54631750283E+02  0.68206502173E+02  0.00000000000E+00 0.  1.
         22    1    4    4    0    0  0.13539556544E+02  0.27124743372E+02 -0.12432162467E+03  0.12796459532E+03  0.00000000000E+00 0.  1.
         22    1    4    4    0    0  0.31645872699E+01  0.10137440932E+02 -0.19173587386E+02  0.21918229274E+02  0.00000000000E+00 0.  1.
<mgrwt>
<rscale>  0 0.91151858E+02</rscale>
<asrwt>0</asrwt>
<pdfrwt beam="2">  1        2 0.32016634E-01 0.91151858E+02</pdfrwt>
<pdfrwt beam="1">  1       -2 0.15355666E-02 0.91151858E+02</pdfrwt>
<totfact> 0.15704088E+05</totfact>
</mgrwt>
</event>
<event>
 7    1  0.3891761E-009  0.9428333E+02  0.7818608E-02  0.1292798E+00
          2   -1    0    0  501    0  0.00000000000E+00  0.00000000000E+00  0.18016728217E+03  0.18016728219E+03  0.25500000000E-02 0. -1.
         -2   -1    0    0    0  501 -0.00000000000E+00 -0.00000000000E+00 -0.12334849730E+02  0.12334849994E+02  0.25500000000E-02 0.  1.
         23    2    1    2    0    0  0.00000000000E+00  0.00000000000E+00  0.16783243244E+03  0.19250213218E+03  0.94283325757E+02 0.  0.
    9000005    2    3    3    0    0 -0.92825542999E+01  0.43612426500E+02  0.55858058471E+02  0.71976325878E+02  0.85005429943E+01 0.  0.
         22    1    3    3    0    0  0.92825542999E+01 -0.43612426500E+02  0.11197437397E+03  0.12052580631E+03  0.00000000000E+00 0. -1.
         22    1    4    4    0    0 -0.43469506041E+01  0.74741765243E+01  0.14019782527E+02  0.16471599691E+02  0.00000000000E+00 0. -1.
         22    1    4    4    0    0 -0.49356036958E+01  0.36138249975E+02  0.41838275944E+02  0.55504726187E+02  0.00000000000E+00 0. -1.
<mgrwt>
<rscale>  0 0.94283326E+02</rscale>
<asrwt>0</asrwt>
<pdfrwt beam="1">  1        2 0.27718044E-01 0.94283326E+02</pdfrwt>
<pdfrwt beam="2">  1       -2 0.18976692E-02 0.94283326E+02</pdfrwt>
<totfact> 0.13607628E+05</totfact>
</mgrwt>
</event>
<event>
 7    1  0.3891761E-009  0.1075334E+03  0.7818608E-02  0.1265207E+00
         -2   -1    0    0    0  501 -0.00000000000E+00  0.00000000000E+00  0.19553334517E+02  0.19553334683E+02  0.25500000000E-02 0. -1.
          2   -1    0    0  501    0  0.00000000000E+00 -0.00000000000E+00 -0.14784464848E+03  0.14784464850E+03  0.25500000000E-02 0.  1.
         23    2    1    2    0    0  0.00000000000E+00  0.35527136788E-14 -0.12829131396E+03  0.16739798318E+03  0.10753336011E+03 0.  0.
    9000005    2    3    3    0    0  0.41706607135E+02 -0.30105257453E+02 -0.87765345355E+02  0.10191423149E+03  0.61633699338E+01 0.  0.
         22    1    3    3    0    0 -0.41706607135E+02  0.30105257453E+02 -0.40525968607E+02  0.65483751699E+02  0.00000000000E+00 0.  1.
         22    1    4    4    0    0  0.35204203987E+02 -0.27907073688E+02 -0.75217082919E+02  0.87611359441E+02  0.00000000000E+00 0.  1.
         22    1    4    4    0    0  0.65024031484E+01 -0.21981837647E+01 -0.12548262435E+02  0.14302872044E+02  0.00000000000E+00 0.  1.
<mgrwt>
<rscale>  0 0.10753336E+03</rscale>
<asrwt>0</asrwt>
<pdfrwt beam="2">  1        2 0.22745330E-01 0.10753336E+03</pdfrwt>
<pdfrwt beam="1">  1       -2 0.30082054E-02 0.10753336E+03</pdfrwt>
<totfact> 0.88429525E+04</totfact>
</mgrwt>
</event>
<event>
 7    1  0.3891761E-009  0.9100904E+02  0.7818608E-02  0.1300426E+00
          2   -1    0    0  501    0  0.00000000000E+00  0.00000000000E+00  0.10998645903E+03  0.10998645906E+03  0.25500000000E-02 0.  1.
         -2   -1    0    0    0  501 -0.00000000000E+00 -0.00000000000E+00 -0.18826511727E+02  0.18826511900E+02  0.25500000000E-02 0. -1.
         23    2    1    2    0    0  0.00000000000E+00  0.00000000000E+00  0.91159947305E+02  0.12881297096E+03  0.91009040734E+02 0.  0.
    9000005    2    3    3    0    0 -0.29392745821E+02  0.34029640842E+02  0.49412932452E+02  0.67455304678E+02  0.93075384958E+01 0.  0.
         22    1    3    3    0    0  0.29392745821E+02 -0.34029640842E+02  0.41747014853E+02  0.61357666284E+02  0.00000000000E+00 0.  1.
         22    1    4    4    0    0 -0.23692024240E+02  0.30527980165E+02  0.37820826472E+02  0.54071105968E+02  0.00000000000E+00 0.  1.
         22    1    4    4    0    0 -0.57007215811E+01  0.35016606766E+01  0.11592105980E+02  0.13384198709E+02  0.00000000000E+00 0.  1.
<mgrwt>
<rscale>  0 0.91009041E+02</rscale>
<asrwt>0</asrwt>
<pdfrwt beam="1">  1        2 0.16920994E-01 0.91009041E+02</pdfrwt>
<pdfrwt beam="2">  1       -2 0.28963865E-02 0.91009041E+02</pdfrwt>
<totfact> 0.12697337E+05</totfact>
</mgrwt>
</event>
<event>
 7    1  0.3891761E-009  0.9100876E+02  0.7818608E-02  0.1300427E+00
         -2   -1    0    0    0  501 -0.00000000000E+00  0.00000000000E+00  0.71190882663E+01  0.71190887230E+01  0.25500000000E-02 0. -1.
          2   -1    0    0  501    0  0.00000000000E+00 -0.00000000000E+00 -0.29085865631E+03  0.29085865632E+03  0.25500000000E-02 0.  1.
         23    2    1    2    0    0  0.00000000000E+00  0.00000000000E+00 -0.28373956804E+03  0.29797774504E+03  0.91008758194E+02 0.  0.
    9000005    2    3    3    0    0  0.29180510439E+02 -0.94030290779E+01 -0.25062098115E+03  0.25284726817E+03  0.13451605190E+02 0.  0.
         22    1    3    3    0    0 -0.29180510439E+02  0.94030290779E+01 -0.33118586897E+02  0.45130476879E+02  0.00000000000E+00 0. -1.
         22    1    4    4    0    0  0.22620432144E+01 -0.34165810038E+01 -0.71369835462E+02  0.71487364472E+02  0.00000000000E+00 0. -1.
         22    1    4    4    0    0  0.26918467224E+02 -0.59864480741E+01 -0.17925114569E+03  0.18135990369E+03  0.00000000000E+00 0. -1.
<mgrwt>
<rscale>  0 0.91008758E+02</rscale>
<asrwt>0</asrwt>
<pdfrwt beam="2">  1        2 0.44747476E-01 0.91008758E+02</pdfrwt>
<pdfrwt beam="1">  1       -2 0.10952446E-02 0.91008758E+02</pdfrwt>
<totfact> 0.17847765E+05</totfact>
</mgrwt>
</event>
<event>
 7    1  0.3891761E-009  0.9403910E+02  0.7818608E-02  0.1293355E+00
         -2   -1    0    0    0  501 -0.00000000000E+00  0.00000000000E+00  0.46839502430E+02  0.46839502500E+02  0.25500000000E-02 0.  1.
          2   -1    0    0  501    0  0.00000000000E+00 -0.00000000000E+00 -0.47200290746E+02  0.47200290815E+02  0.25500000000E-02 0. -1.
         23    2    1    2    0    0  0.00000000000E+00  0.00000000000E+00 -0.36078831561E+00  0.94039793315E+02  0.94039101221E+02 0.  0.
    9000005    2    3    3    0    0 -0.15217158304E+02 -0.43169740470E+02  0.95580220673E+01  0.47204217109E+02  0.64570835504E+01 0.  0.
         22    1    3    3    0    0  0.15217158304E+02  0.43169740470E+02 -0.99188103829E+01  0.46835576205E+02  0.00000000000E+00 0.  1.
         22    1    4    4    0    0 -0.20318605495E+01 -0.10691361240E+02  0.45495801597E+01  0.11795437342E+02  0.00000000000E+00 0.  1.
         22    1    4    4    0    0 -0.13185297755E+02 -0.32478379230E+02  0.50084419076E+01  0.35408779768E+02  0.00000000000E+00 0.  1.
<mgrwt>
<rscale>  0 0.94039101E+02</rscale>
<asrwt>0</asrwt>
<pdfrwt beam="2">  1        2 0.72615832E-02 0.94039101E+02</pdfrwt>
<pdfrwt beam="1">  1       -2 0.72060773E-02 0.94039101E+02</pdfrwt>
<totfact> 0.91104238E+04</totfact>
</mgrwt>
</event>
<event>
 7    1  0.3891761E-009  0.9226176E+02  0.7818608E-02  0.1297465E+00
         -2   -1    0    0    0  501 -0.00000000000E+00  0.00000000000E+00  0.22232139308E+02  0.22232139454E+02  0.25500000000E-02 0.  1.
          2   -1    0    0  501    0  0.00000000000E+00 -0.00000000000E+00 -0.95719900332E+02  0.95719900366E+02  0.25500000000E-02 0. -1.
         23    2    1    2    0    0  0.00000000000E+00  0.00000000000E+00 -0.73487761024E+02  0.11795203982E+03  0.92261761729E+02 0.  0.
    9000005    2    3    3    0    0 -0.73451306011E+01 -0.13631380144E+02 -0.91815553951E+02  0.93958843665E+02  0.12585820882E+02 0.  0.
         22    1    3    3    0    0  0.73451306011E+01  0.13631380144E+02  0.18327792927E+02  0.23993196155E+02  0.00000000000E+00 0.  1.
         22    1    4    4    0    0  0.90773000568E-01 -0.23873250626E+01 -0.49288856295E+02  0.49346721426E+02  0.00000000000E+00 0. -1.
         22    1    4    4    0    0 -0.74359036017E+01 -0.11244055081E+02 -0.42526697657E+02  0.44612122239E+02  0.00000000000E+00 0. -1.
<mgrwt>
<rscale>  0 0.92261762E+02</rscale>
<asrwt>0</asrwt>
<pdfrwt beam="2">  1        2 0.14726138E-01 0.92261762E+02</pdfrwt>
<pdfrwt beam="1">  1       -2 0.34203292E-02 0.92261762E+02</pdfrwt>
<totfact> 0.11717030E+05</totfact>
</mgrwt>
</event>
<event>
 7    1  0.3891761E-009  0.9192391E+02  0.7818608E-02  0.1298258E+00
          2   -1    0    0  501    0  0.00000000000E+00  0.00000000000E+00  0.85126957784E+02  0.85126957822E+02  0.25500000000E-02 0. -1.
         -2   -1    0    0    0  501 -0.00000000000E+00 -0.00000000000E+00 -0.24815891955E+02  0.24815892086E+02  0.25500000000E-02 0.  1.
         23    2    1    2    0    0  0.00000000000E+00  0.00000000000E+00  0.60311065829E+02  0.10994284991E+03  0.91923911931E+02 0.  0.
    9000005    2    3    3    0    0 -0.15346720217E+02  0.20155203510E+02 -0.14232384424E+02  0.31212423608E+02  0.11397393175E+02 0.  0.
         22    1    3    3    0    0  0.15346720217E+02 -0.20155203510E+02  0.74543450252E+02  0.78730426301E+02  0.00000000000E+00 0. -1.
         22    1    4    4    0    0 -0.73620448773E+01  0.34522608329E+01 -0.86589414514E+01  0.11878344863E+02  0.00000000000E+00 0. -1.
         22    1    4    4    0    0 -0.79846753395E+01  0.16702942677E+02 -0.55734429721E+01  0.19334078745E+02  0.00000000000E+00 0. -1.
<mgrwt>
<rscale>  0 0.91923912E+02</rscale>
<asrwt>0</asrwt>
<pdfrwt beam="1">  1        2 0.13096455E-01 0.91923912E+02</pdfrwt>
<pdfrwt beam="2">  1       -2 0.38178296E-02 0.91923912E+02</pdfrwt>
<totfact> 0.11431357E+05</totfact>
</mgrwt>
</event>
<event>
 7    1  0.3891761E-009  0.8834542E+02  0.7818608E-02  0.1306909E+00
          2   -1    0    0  501    0  0.00000000000E+00  0.00000000000E+00  0.89684236976E+03  0.89684236976E+03  0.25500000000E-02 0. -1.
         -2   -1    0    0    0  501 -0.00000000000E+00 -0.00000000000E+00 -0.21756638979E+01  0.21756653922E+01  0.25500000000E-02 0.  1.
         23    2    1    2    0    0  0.00000000000E+00  0.35527136788E-14  0.89466670586E+03  0.89901803516E+03  0.88345418428E+02 0.  0.
    9000005    2    3    3    0    0 -0.27241592339E+02  0.19618812331E+02  0.73759311513E+03  0.73839700585E+03  0.77157376443E+01 0.  0.
         22    1    3    3    0    0  0.27241592339E+02 -0.19618812331E+02  0.15707359073E+03  0.16062102931E+03  0.00000000000E+00 0.  1.
         22    1    4    4    0    0 -0.91050890610E+01  0.10958465304E+02  0.33411455416E+03  0.33441819016E+03  0.00000000000E+00 0. -1.
         22    1    4    4    0    0 -0.18136503278E+02  0.86603470278E+01  0.40347856097E+03  0.40397881569E+03  0.00000000000E+00 0. -1.
<mgrwt>
<rscale>  0 0.88345418E+02</rscale>
<asrwt>0</asrwt>
<pdfrwt beam="1">  1        2 0.13797562E+00 0.88345418E+02</pdfrwt>
<pdfrwt beam="2">  1       -2 0.33471795E-03 0.88345418E+02</pdfrwt>
<totfact> 0.26927885E+05</totfact>
</mgrwt>
</event>
<event>
 7    1  0.3891761E-009  0.9149612E+02  0.7818608E-02  0.1299269E+00
          2   -1    0    0  501    0  0.00000000000E+00  0.00000000000E+00  0.69012406653E+03  0.69012406653E+03  0.25500000000E-02 0.  1.
         -2   -1    0    0    0  501 -0.00000000000E+00 -0.00000000000E+00 -0.30326209426E+01  0.30326220147E+01  0.25500000000E-02 0. -1.
         23    2    1    2    0    0  0.00000000000E+00  0.00000000000E+00  0.68709144559E+03  0.69315668855E+03  0.91496121674E+02 0.  0.
    9000005    2    3    3    0    0  0.32632307688E+02  0.59674148333E+00  0.58386452345E+03  0.58489302401E+03  0.11698042021E+02 0.  0.
         22    1    3    3    0    0 -0.32632307688E+02 -0.59674148333E+00  0.10322692214E+03  0.10826366454E+03  0.00000000000E+00 0. -1.
         22    1    4    4    0    0 -0.51429440615E+00 -0.13183743971E+01  0.18195059206E+02  0.18250007926E+02  0.00000000000E+00 0. -1.
         22    1    4    4    0    0  0.33146602095E+02  0.19151158804E+01  0.56566946424E+03  0.56664301608E+03  0.00000000000E+00 0. -1.
<mgrwt>
<rscale>  0 0.91496122E+02</rscale>
<asrwt>0</asrwt>
<pdfrwt beam="1">  1        2 0.10617303E+00 0.91496122E+02</pdfrwt>
<pdfrwt beam="2">  1       -2 0.46655673E-03 0.91496122E+02</pdfrwt>
<totfact> 0.23418035E+05</totfact>
</mgrwt>
</event>
<event>
 7    1  0.3891761E-009  0.8953573E+02  0.7818608E-02  0.1303980E+00
         -2   -1    0    0    0  501 -0.00000000000E+00  0.00000000000E+00  0.13752057023E+02  0.13752057260E+02  0.25500000000E-02 0.  1.
          2   -1    0    0  501    0  0.00000000000E+00 -0.00000000000E+00 -0.14573541271E+03  0.14573541274E+03  0.25500000000E-02 0. -1.
         23    2    1    2    0    0  0.00000000000E+00  0.71054273576E-14 -0.13198335569E+03  0.15948747000E+03  0.89535729775E+02 0.  0.
    9000005    2    3    3    0    0  0.11639028588E+02 -0.40194801899E+02 -0.91121535975E+02  0.10100005770E+03  0.12115620151E+02 0.  0.
         22    1    3    3    0    0 -0.11639028588E+02  0.40194801899E+02 -0.40861819717E+02  0.58487412293E+02  0.00000000000E+00 0. -1.
         22    1    4    4    0    0  0.26326546004E+01 -0.28924268037E+02 -0.57695013022E+02  0.64593023458E+02  0.00000000000E+00 0. -1.
         22    1    4    4    0    0  0.90063739874E+01 -0.11270533861E+02 -0.33426522952E+02  0.36407034246E+02  0.00000000000E+00 0. -1.
<mgrwt>
<rscale>  0 0.89535730E+02</rscale>
<asrwt>0</asrwt>
<pdfrwt beam="2">  1        2 0.22420832E-01 0.89535730E+02</pdfrwt>
<pdfrwt beam="1">  1       -2 0.21157012E-02 0.89535730E+02</pdfrwt>
<totfact> 0.14543853E+05</totfact>
</mgrwt>
</event>
<event>
 7    1  0.3891761E-009  0.8869755E+02  0.7818608E-02  0.1306037E+00
         -2   -1    0    0    0  501 -0.00000000000E+00  0.00000000000E+00  0.30426117628E+02  0.30426117734E+02  0.25500000000E-02 0. -1.
          2   -1    0    0  501    0  0.00000000000E+00 -0.00000000000E+00 -0.64642290949E+02  0.64642290999E+02  0.25500000000E-02 0.  1.
         23    2    1    2    0    0  0.00000000000E+00  0.17763568394E-14 -0.34216173321E+02  0.95068408733E+02  0.88697552516E+02 0.  0.
    9000005    2    3    3    0    0 -0.19401343218E+01 -0.14792416796E+02  0.27644063331E+02  0.31434545150E+02  0.11647641266E+01 0.  0.
         22    1    3    3    0    0  0.19401343218E+01  0.14792416796E+02 -0.61860236652E+02  0.63633863583E+02  0.00000000000E+00 0.  1.
         22    1    4    4    0    0  0.12864500643E+00 -0.21381513134E+01  0.38964023804E+01  0.44463684155E+01  0.00000000000E+00 0.  1.
         22    1    4    4    0    0 -0.20687793282E+01 -0.12654265483E+02  0.23747660951E+02  0.26988176735E+02  0.00000000000E+00 0.  1.
<mgrwt>
<rscale>  0 0.88697553E+02</rscale>
<asrwt>0</asrwt>
<pdfrwt beam="2">  1        2 0.99449678E-02 0.88697553E+02</pdfrwt>
<pdfrwt beam="1">  1       -2 0.46809412E-02 0.88697553E+02</pdfrwt>
<totfact> 0.11691289E+05</totfact>
</mgrwt>
</event>
<event>
 7    1  0.3891761E-009  0.8983436E+02  0.7818608E-02  0.1303253E+00
         -2   -1    0    0    0  501 -0.00000000000E+00  0.00000000000E+00  0.10220645596E+02  0.10220645914E+02  0.25500000000E-02 0.  1.
          2   -1    0    0  501    0  0.00000000000E+00 -0.00000000000E+00 -0.19739978373E+03  0.19739978375E+03  0.25500000000E-02 0. -1.
         23    2    1    2    0    0  0.35527136788E-14  0.00000000000E+00 -0.18717913814E+03  0.20762042966E+03  0.89834364581E+02 0.  0.
    9000005    2    3    3    0    0  0.31262983031E+02  0.31507487675E+02 -0.87760409181E+02  0.98743528739E+02  0.88486812913E+01 0.  0.
         22    1    3    3    0    0 -0.31262983031E+02 -0.31507487675E+02 -0.99418728955E+02  0.10887690092E+03  0.00000000000E+00 0. -1.
         22    1    4    4    0    0  0.27185087765E+01  0.29026015989E+00 -0.80981879960E+01  0.85472328707E+01  0.00000000000E+00 0. -1.
         22    1    4    4    0    0  0.28544474254E+02  0.31217227515E+02 -0.79662221185E+02  0.90196295868E+02  0.00000000000E+00 0. -1.
<mgrwt>
<rscale>  0 0.89834365E+02</rscale>
<asrwt>0</asrwt>
<pdfrwt beam="2">  1        2 0.30369195E-01 0.89834365E+02</pdfrwt>
<pdfrwt beam="1">  1       -2 0.15724072E-02 0.89834365E+02</pdfrwt>
<totfact> 0.16021525E+05</totfact>
</mgrwt>
</event>
<event>
 7    1  0.3891761E-009  0.9355974E+02  0.7818608E-02  0.1294453E+00
          2   -1    0    0  501    0  0.00000000000E+00  0.00000000000E+00  0.12571126857E+04  0.12571126857E+04  0.25500000000E-02 0.  1.
         -2   -1    0    0    0  501 -0.00000000000E+00 -0.00000000000E+00 -0.17407787545E+01  0.17407806222E+01  0.25500000000E-02 0. -1.
         23    2    1    2    0    0  0.00000000000E+00 -0.17763568394E-14  0.12553719070E+04  0.12588534664E+04  0.93559739900E+02 0.  0.
    9000005    2    3    3    0    0 -0.34069059764E+01 -0.13864211438E+02  0.12263519471E+04  0.12265118301E+04  0.13723984127E+02 0.  0.
         22    1    3    3    0    0  0.34069059764E+01  0.13864211438E+02  0.29019959832E+02  0.32341636257E+02  0.00000000000E+00 0. -1.
         22    1    4    4    0    0  0.44049234200E+01 -0.17058711661E+01  0.18806772075E+03  0.18812703404E+03  0.00000000000E+00 0. -1.
         22    1    4    4    0    0 -0.78118293963E+01 -0.12158340272E+02  0.10382842264E+04  0.10383847961E+04  0.00000000000E+00 0. -1.
<mgrwt>
<rscale>  0 0.93559740E+02</rscale>
<asrwt>0</asrwt>
<pdfrwt beam="1">  1        2 0.19340301E+00 0.93559740E+02</pdfrwt>
<pdfrwt beam="2">  1       -2 0.26781079E-03 0.93559740E+02</pdfrwt>
<totfact> 0.23089740E+05</totfact>
</mgrwt>
</event>
<event>
 7    1  0.3891761E-009  0.8960662E+02  0.7818608E-02  0.1303807E+00
          2   -1    0    0  501    0  0.00000000000E+00  0.00000000000E+00  0.22602098030E+03  0.22602098031E+03  0.25500000000E-02 0. -1.
         -2   -1    0    0    0  501 -0.00000000000E+00 -0.00000000000E+00 -0.88811965371E+01  0.88811969032E+01  0.25500000000E-02 0.  1.
         23    2    1    2    0    0  0.00000000000E+00  0.00000000000E+00  0.21713978376E+03  0.23490217721E+03  0.89606624581E+02 0.  0.
    9000005    2    3    3    0    0 -0.45301437252E+01  0.40262750141E+02  0.15493794764E+03  0.16066822496E+03  0.12918964378E+02 0.  0.
         22    1    3    3    0    0  0.45301437252E+01 -0.40262750141E+02  0.62201836115E+02  0.74233952254E+02  0.00000000000E+00 0.  1.
         22    1    4    4    0    0 -0.89475283796E+00  0.10832493057E+02  0.23002011999E+02  0.25440834194E+02  0.00000000000E+00 0. -1.
         22    1    4    4    0    0 -0.36353908872E+01  0.29430257084E+02  0.13193593564E+03  0.13522739077E+03  0.00000000000E+00 0. -1.
<mgrwt>
<rscale>  0 0.89606625E+02</rscale>
<asrwt>0</asrwt>
<pdfrwt beam="1">  1        2 0.34772458E-01 0.89606625E+02</pdfrwt>
<pdfrwt beam="2">  1       -2 0.13663380E-02 0.89606625E+02</pdfrwt>
<totfact> 0.16944133E+05</totfact>
</mgrwt>
</event>
<event>
 7    1  0.3891761E-009  0.8992973E+02  0.7818608E-02  0.1303022E+00
         -2   -1    0    0    0  501 -0.00000000000E+00  0.00000000000E+00  0.73696568147E+02  0.73696568192E+02  0.25500000000E-02 0.  1.
          2   -1    0    0  501    0  0.00000000000E+00 -0.00000000000E+00 -0.27434645575E+02  0.27434645693E+02  0.25500000000E-02 0. -1.
         23    2    1    2    0    0  0.00000000000E+00 -0.35527136788E-14  0.46261922573E+02  0.10113121388E+03  0.89929733357E+02 0.  0.
    9000005    2    3    3    0    0  0.24909950919E+02  0.31468475015E+02  0.45659365679E+02  0.60992284535E+02  0.49508104410E+01 0.  0.
         22    1    3    3    0    0 -0.24909950919E+02 -0.31468475015E+02  0.60255689361E+00  0.40138929350E+02  0.00000000000E+00 0. -1.
         22    1    4    4    0    0  0.60552911287E+01  0.46596102661E+01  0.78452621956E+01  0.10951103022E+02  0.00000000000E+00 0.  1.
         22    1    4    4    0    0  0.18854659790E+02  0.26808864749E+02  0.37814103484E+02  0.50041181513E+02  0.00000000000E+00 0.  1.
<mgrwt>
<rscale>  0 0.89929733E+02</rscale>
<asrwt>0</asrwt>
<pdfrwt beam="2">  1        2 0.42207148E-02 0.89929733E+02</pdfrwt>
<pdfrwt beam="1">  1       -2 0.11337933E-01 0.89929733E+02</pdfrwt>
<totfact> 0.89985197E+04</totfact>
</mgrwt>
</event>
<event>
 7    1  0.3936682E-009  0.9189443E+02  0.7818608E-02  0.1298328E+00
         -2   -1    0    0    0  501 -0.00000000000E+00  0.00000000000E+00  0.26574316309E+01  0.26574328544E+01  0.25500000000E-02 0.  1.
          2   -1    0    0  501    0  0.00000000000E+00 -0.00000000000E+00 -0.79443092404E+03  0.79443092404E+03  0.25500000000E-02 0. -1.
         23    2    1    2    0    0 -0.88817841970E-15  0.71054273576E-14 -0.79177349241E+03  0.79708835690E+03  0.91894425410E+02 0.  0.
    9000005    2    3    3    0    0  0.63596950097E+01 -0.33740750749E+02 -0.65580786277E+03  0.65685449357E+03  0.13963841388E+02 0.  0.
         22    1    3    3    0    0 -0.63596950097E+01  0.33740750749E+02 -0.13596562964E+03  0.14023386333E+03  0.00000000000E+00 0.  1.
         22    1    4    4    0    0  0.29213394120E+01 -0.28814113673E+02 -0.60497339420E+03  0.60566624065E+03  0.00000000000E+00 0.  1.
         22    1    4    4    0    0  0.34383555977E+01 -0.49266370765E+01 -0.50834468567E+02  0.51188252916E+02  0.00000000000E+00 0.  1.
<mgrwt>
<rscale>  0 0.91894425E+02</rscale>
<asrwt>0</asrwt>
<pdfrwt beam="2">  1        2 0.12221995E+00 0.91894425E+02</pdfrwt>
<pdfrwt beam="1">  1       -2 0.40883636E-03 0.91894425E+02</pdfrwt>
<totfact> 0.23845710E+05</totfact>
</mgrwt>
</event>
<event>
 7    1  0.3891761E-009  0.8503073E+02  0.7818608E-02  0.1315352E+00
          2   -1    0    0  501    0  0.00000000000E+00  0.00000000000E+00  0.10040128683E+02  0.10040129006E+02  0.25500000000E-02 0.  1.
         -2   -1    0    0    0  501 -0.00000000000E+00 -0.00000000000E+00 -0.18003316536E+03  0.18003316537E+03  0.25500000000E-02 0. -1.
         23    2    1    2    0    0  0.00000000000E+00  0.35527136788E-14 -0.16999303667E+03  0.19007329438E+03  0.85030728088E+02 0.  0.
    9000005    2    3    3    0    0 -0.18562337022E+02  0.25487573960E+02 -0.26475702967E+02  0.43133164204E+02  0.12858080130E+02 0.  0.
         22    1    3    3    0    0  0.18562337022E+02 -0.25487573960E+02 -0.14351733371E+03  0.14694013018E+03  0.00000000000E+00 0. -1.
         22    1    4    4    0    0 -0.60838049636E+01  0.15151739640E+02 -0.69107758488E+01  0.17729825712E+02  0.00000000000E+00 0.  1.
         22    1    4    4    0    0 -0.12478532058E+02  0.10335834320E+02 -0.19564927118E+02  0.25403338492E+02  0.00000000000E+00 0.  1.
<mgrwt>
<rscale>  0 0.85030728E+02</rscale>
<asrwt>0</asrwt>
<pdfrwt beam="1">  1        2 0.15446353E-02 0.85030728E+02</pdfrwt>
<pdfrwt beam="2">  1       -2 0.27697408E-01 0.85030728E+02</pdfrwt>
<totfact> 0.77772012E+04</totfact>
</mgrwt>
</event>
<event>
 7    1  0.3891761E-009  0.9062320E+02  0.7818608E-02  0.1301350E+00
         -2   -1    0    0    0  501 -0.00000000000E+00  0.00000000000E+00  0.42175537847E+02  0.42175537924E+02  0.25500000000E-02 0. -1.
          2   -1    0    0  501    0  0.00000000000E+00 -0.00000000000E+00 -0.48680851977E+02  0.48680852044E+02  0.25500000000E-02 0.  1.
         23    2    1    2    0    0  0.00000000000E+00 -0.71054273576E-14 -0.65053141301E+01  0.90856389968E+02  0.90623200595E+02 0.  0.
    9000005    2    3    3    0    0  0.21106746926E+02 -0.35018636105E+02  0.13685481329E+02  0.45255207289E+02  0.13745608286E+02 0.  0.
         22    1    3    3    0    0 -0.21106746926E+02  0.35018636105E+02 -0.20190795460E+02  0.45601182679E+02  0.00000000000E+00 0.  1.
         22    1    4    4    0    0  0.59804035923E+01 -0.10859584839E+02 -0.22491122817E+01  0.12599774445E+02  0.00000000000E+00 0.  1.
         22    1    4    4    0    0  0.15126343333E+02 -0.24159051266E+02  0.15934593611E+02  0.32655432844E+02  0.00000000000E+00 0.  1.
<mgrwt>
<rscale>  0 0.90623201E+02</rscale>
<asrwt>0</asrwt>
<pdfrwt beam="2">  1        2 0.74893618E-02 0.90623201E+02</pdfrwt>
<pdfrwt beam="1">  1       -2 0.64885443E-02 0.90623201E+02</pdfrwt>
<totfact> 0.10213395E+05</totfact>
</mgrwt>
</event>
<event>
 7    1  0.3891761E-009  0.9009009E+02  0.7818608E-02  0.1302634E+00
          2   -1    0    0  501    0  0.00000000000E+00  0.00000000000E+00  0.34586539013E+01  0.34586548413E+01  0.25500000000E-02 0. -1.
         -2   -1    0    0    0  501 -0.00000000000E+00 -0.00000000000E+00 -0.58666060172E+03  0.58666060173E+03  0.25500000000E-02 0.  1.
         23    2    1    2    0    0  0.00000000000E+00  0.00000000000E+00 -0.58320194782E+03  0.59011925657E+03  0.90090093970E+02 0.  0.
    9000005    2    3    3    0    0 -0.88669135695E+01  0.23201366368E+02 -0.53629899279E+03  0.53704560258E+03  0.13581016932E+02 0.  0.
         22    1    3    3    0    0  0.88669135695E+01 -0.23201366368E+02 -0.46902955032E+02  0.53073653995E+02  0.00000000000E+00 0. -1.
         22    1    4    4    0    0 -0.10861304073E+01  0.43525123444E+01 -0.29748665456E+02  0.30084998577E+02  0.00000000000E+00 0. -1.
         22    1    4    4    0    0 -0.77807831622E+01  0.18848854023E+02 -0.50655032733E+03  0.50696060400E+03  0.00000000000E+00 0. -1.
<mgrwt>
<rscale>  0 0.90090094E+02</rscale>
<asrwt>0</asrwt>
<pdfrwt beam="1">  1        2 0.53210114E-03 0.90090094E+02</pdfrwt>
<pdfrwt beam="2">  1       -2 0.90255398E-01 0.90090094E+02</pdfrwt>
<totfact> 0.32877662E+04</totfact>
</mgrwt>
</event>
<event>
 7    1  0.3891761E-009  0.9173545E+02  0.7818608E-02  0.1298703E+00
          2   -1    0    0  501    0  0.00000000000E+00  0.00000000000E+00  0.45026640527E+02  0.45026640600E+02  0.25500000000E-02 0. -1.
         -2   -1    0    0    0  501 -0.00000000000E+00 -0.00000000000E+00 -0.46724523805E+02  0.46724523875E+02  0.25500000000E-02 0.  1.
         23    2    1    2    0    0  0.00000000000E+00  0.00000000000E+00 -0.16978832778E+01  0.91751164474E+02  0.91735453205E+02 0.  0.
    9000005    2    3    3    0    0  0.27069381187E+02 -0.35270016556E+02 -0.44378789711E+01  0.47206433674E+02  0.15232437254E+02 0.  0.
         22    1    3    3    0    0 -0.27069381187E+02  0.35270016556E+02  0.27399956933E+01  0.44544730801E+02  0.00000000000E+00 0. -1.
         22    1    4    4    0    0  0.47724734351E+01 -0.14583037888E+02 -0.66232018305E+01  0.16712519236E+02  0.00000000000E+00 0.  1.
         22    1    4    4    0    0  0.22296907752E+02 -0.20686978668E+02  0.21853228594E+01  0.30493914438E+02  0.00000000000E+00 0.  1.
<mgrwt>
<rscale>  0 0.91735453E+02</rscale>
<asrwt>0</asrwt>
<pdfrwt beam="1">  1        2 0.69271755E-02 0.91735453E+02</pdfrwt>
<pdfrwt beam="2">  1       -2 0.71883883E-02 0.91735453E+02</pdfrwt>
<totfact> 0.96644454E+04</totfact>
</mgrwt>
</event>
<event>
 7    1  0.3891761E-009  0.9199980E+02  0.7818608E-02  0.1298080E+00
          2   -1    0    0  501    0  0.00000000000E+00  0.00000000000E+00  0.19264485481E+03  0.19264485483E+03  0.25500000000E-02 0. -1.
         -2   -1    0    0    0  501 -0.00000000000E+00 -0.00000000000E+00 -0.10983893736E+02  0.10983894032E+02  0.25500000000E-02 0.  1.
         23    2    1    2    0    0  0.71054273576E-14  0.00000000000E+00  0.18166096108E+03  0.20362874886E+03  0.91999796651E+02 0.  0.
    9000005    2    3    3    0    0  0.38859558344E+02  0.19929715711E+02  0.66703620095E+02  0.80655381467E+02  0.12192570803E+02 0.  0.
         22    1    3    3    0    0 -0.38859558344E+02 -0.19929715711E+02  0.11495734098E+03  0.12297336740E+03  0.00000000000E+00 0. -1.
         22    1    4    4    0    0  0.27127696889E+02  0.90133660934E+01  0.35510813487E+02  0.45586956263E+02  0.00000000000E+00 0. -1.
         22    1    4    4    0    0  0.11731861454E+02  0.10916349617E+02  0.31192806608E+02  0.35068425204E+02  0.00000000000E+00 0. -1.
<mgrwt>
<rscale>  0 0.91999797E+02</rscale>
<asrwt>0</asrwt>
<pdfrwt beam="1">  1        2 0.29637667E-01 0.91999797E+02</pdfrwt>
<pdfrwt beam="2">  1       -2 0.16898300E-02 0.91999797E+02</pdfrwt>
<totfact> 0.14894828E+05</totfact>
</mgrwt>
</event>
<event>
 7    1  0.3891761E-009  0.9198620E+02  0.7818608E-02  0.1298112E+00
         -2   -1    0    0    0  501 -0.00000000000E+00  0.00000000000E+00  0.13578458850E+02  0.13578459090E+02  0.25500000000E-02 0.  1.
          2   -1    0    0  501    0  0.00000000000E+00 -0.00000000000E+00 -0.15578832321E+03  0.15578832323E+03  0.25500000000E-02 0. -1.
         23    2    1    2    0    0  0.00000000000E+00  0.44408920985E-15 -0.14220986436E+03  0.16936678232E+03  0.91986202404E+02 0.  0.
    9000005    2    3    3    0    0  0.42871683863E+02  0.67499699123E+00 -0.47941266455E+02  0.65805180127E+02  0.13911139565E+02 0.  0.
         22    1    3    3    0    0 -0.42871683863E+02 -0.67499699123E+00 -0.94268597908E+02  0.10356160220E+03  0.00000000000E+00 0. -1.
         22    1    4    4    0    0  0.21999073583E+02 -0.65050471354E+01 -0.26177052193E+02  0.34806794427E+02  0.00000000000E+00 0. -1.
         22    1    4    4    0    0  0.20872610280E+02  0.71800441266E+01 -0.21764214262E+02  0.30998385700E+02  0.00000000000E+00 0. -1.
<mgrwt>
<rscale>  0 0.91986202E+02</rscale>
<asrwt>0</asrwt>
<pdfrwt beam="2">  1        2 0.23967433E-01 0.91986202E+02</pdfrwt>
<pdfrwt beam="1">  1       -2 0.20889938E-02 0.91986202E+02</pdfrwt>
<totfact> 0.13827230E+05</totfact>
</mgrwt>
</event>
<event>
 7    1  0.3891761E-009  0.9014909E+02  0.7818608E-02  0.1302491E+00
         -2   -1    0    0    0  501 -0.00000000000E+00  0.00000000000E+00  0.16681930162E+01  0.16681949652E+01  0.25500000000E-02 0.  1.
          2   -1    0    0  501    0  0.00000000000E+00 -0.00000000000E+00 -0.12179127325E+04  0.12179127325E+04  0.25500000000E-02 0. -1.
         23    2    1    2    0    0  0.00000000000E+00  0.00000000000E+00 -0.12162445395E+04  0.12195809275E+04  0.90149092172E+02 0.  0.
    9000005    2    3    3    0    0 -0.18305440116E+02  0.18204195738E+02 -0.11048329576E+04  0.11052173736E+04  0.13531325919E+02 0.  0.
         22    1    3    3    0    0  0.18305440116E+02 -0.18204195738E+02 -0.11141158189E+03  0.11436355390E+03  0.00000000000E+00 0.  1.
         22    1    4    4    0    0 -0.18303934130E+02  0.11858206851E+02 -0.95668569000E+03  0.95693425089E+03  0.00000000000E+00 0. -1.
         22    1    4    4    0    0 -0.15059861373E-02  0.63459888870E+01 -0.14814726764E+03  0.14828312273E+03  0.00000000000E+00 0. -1.
<mgrwt>
<rscale>  0 0.90149092E+02</rscale>
<asrwt>0</asrwt>
<pdfrwt beam="2">  1        2 0.18737048E+00 0.90149092E+02</pdfrwt>
<pdfrwt beam="1">  1       -2 0.25664620E-03 0.90149092E+02</pdfrwt>
<totfact> 0.25577025E+05</totfact>
</mgrwt>
</event>
<event>
 7    1  0.3891761E-009  0.9020502E+02  0.7818608E-02  0.1302356E+00
         -2   -1    0    0    0  501 -0.00000000000E+00  0.00000000000E+00  0.72795317376E+01  0.72795321842E+01  0.25500000000E-02 0.  1.
          2   -1    0    0  501    0  0.00000000000E+00 -0.00000000000E+00 -0.27944603078E+03  0.27944603079E+03  0.25500000000E-02 0. -1.
         23    2    1    2    0    0  0.00000000000E+00 -0.71054273576E-14 -0.27216649904E+03  0.28672556298E+03  0.90205017947E+02 0.  0.
    9000005    2    3    3    0    0  0.61889068052E+01  0.32851354711E+02 -0.23223003356E+03  0.23464451701E+03  0.31219867945E+01 0.  0.
         22    1    3    3    0    0 -0.61889068052E+01 -0.32851354711E+02 -0.39936465484E+02  0.52081045968E+02  0.00000000000E+00 0.  1.
         22    1    4    4    0    0  0.32101450523E+01  0.12254254079E+02 -0.96613331997E+02  0.97440277575E+02  0.00000000000E+00 0. -1.
         22    1    4    4    0    0  0.29787617529E+01  0.20597100632E+02 -0.13561670156E+03  0.13720423943E+03  0.00000000000E+00 0. -1.
<mgrwt>
<rscale>  0 0.90205018E+02</rscale>
<asrwt>0</asrwt>
<pdfrwt beam="2">  1        2 0.42991689E-01 0.90205018E+02</pdfrwt>
<pdfrwt beam="1">  1       -2 0.11199282E-02 0.90205018E+02</pdfrwt>
<totfact> 0.18004404E+05</totfact>
</mgrwt>
</event>
<event>
 7    1  0.3891761E-009  0.8342109E+02  0.7818608E-02  0.1319614E+00
         -2   -1    0    0    0  501 -0.00000000000E+00  0.00000000000E+00  0.13023485510E+02  0.13023485760E+02  0.25500000000E-02 0.  1.
          2   -1    0    0  501    0  0.00000000000E+00 -0.00000000000E+00 -0.13358708657E+03  0.13358708659E+03  0.25500000000E-02 0. -1.
         23    2    1    2    0    0  0.00000000000E+00  0.00000000000E+00 -0.12056360106E+03  0.14661057235E+03  0.83421088614E+02 0.  0.
    9000005    2    3    3    0    0 -0.69085465998E+01 -0.21804466430E+02 -0.12103613928E+03  0.12373293994E+03  0.11701736765E+02 0.  0.
         22    1    3    3    0    0  0.69085465998E+01  0.21804466430E+02  0.47253821682E+00  0.22877632412E+02  0.00000000000E+00 0.  1.
         22    1    4    4    0    0  0.16212001248E+01 -0.11171450797E+02 -0.40172805660E+02  0.41728694173E+02  0.00000000000E+00 0.  1.
         22    1    4    4    0    0 -0.85297467246E+01 -0.10633015633E+02 -0.80863333615E+02  0.82004245768E+02  0.00000000000E+00 0.  1.
<mgrwt>
<rscale>  0 0.83421089E+02</rscale>
<asrwt>0</asrwt>
<pdfrwt beam="2">  1        2 0.20551859E-01 0.83421089E+02</pdfrwt>
<pdfrwt beam="1">  1       -2 0.20036133E-02 0.83421089E+02</pdfrwt>
<totfact> 0.17106078E+05</totfact>
</mgrwt>
</event>
<event>
 7    1  0.3891761E-009  0.9171727E+02  0.7818608E-02  0.1298746E+00
         -2   -1    0    0    0  501 -0.00000000000E+00  0.00000000000E+00  0.27991329303E+03  0.27991329305E+03  0.25500000000E-02 0.  1.
          2   -1    0    0  501    0  0.00000000000E+00 -0.00000000000E+00 -0.75130926016E+01  0.75130930344E+01  0.25500000000E-02 0. -1.
         23    2    1    2    0    0 -0.11102230246E-15  0.17763568394E-14  0.27240020043E+03  0.28742638608E+03  0.91717273288E+02 0.  0.
    9000005    2    3    3    0    0 -0.37754365118E+00 -0.11542319878E+02  0.27509743201E+03  0.27556709666E+03  0.11191960301E+02 0.  0.
         22    1    3    3    0    0  0.37754365118E+00  0.11542319878E+02 -0.26972315778E+01  0.11859289420E+02  0.00000000000E+00 0. -1.
         22    1    4    4    0    0 -0.46015826771E+01 -0.37064366867E+01  0.16672663866E+03  0.16683130484E+03  0.00000000000E+00 0.  1.
         22    1    4    4    0    0  0.42240390260E+01 -0.78358831912E+01  0.10837079335E+03  0.10873579182E+03  0.00000000000E+00 0.  1.
<mgrwt>
<rscale>  0 0.91717273E+02</rscale>
<asrwt>0</asrwt>
<pdfrwt beam="2">  1        2 0.11558604E-02 0.91717273E+02</pdfrwt>
<pdfrwt beam="1">  1       -2 0.43063584E-01 0.91717273E+02</pdfrwt>
<totfact> 0.52182064E+04</totfact>
</mgrwt>
</event>
<event>
 7    1  0.3891761E-009  0.9243899E+02  0.7818608E-02  0.1297051E+00
          2   -1    0    0  501    0  0.00000000000E+00  0.00000000000E+00  0.50432414565E+03  0.50432414566E+03  0.25500000000E-02 0. -1.
         -2   -1    0    0    0  501 -0.00000000000E+00 -0.00000000000E+00 -0.42358501213E+01  0.42358508888E+01  0.25500000000E-02 0.  1.
         23    2    1    2    0    0  0.00000000000E+00  0.35527136788E-14  0.50008829553E+03  0.50855999655E+03  0.92438989401E+02 0.  0.
    9000005    2    3    3    0    0 -0.35268306471E+02  0.25416376183E+02  0.33359415511E+03  0.33648401213E+03  0.68252819884E+01 0.  0.
         22    1    3    3    0    0  0.35268306471E+02 -0.25416376183E+02  0.16649414042E+03  0.17207598442E+03  0.00000000000E+00 0.  1.
         22    1    4    4    0    0 -0.51494111890E-01  0.59576782075E+00  0.12226540325E+02  0.12241155144E+02  0.00000000000E+00 0.  1.
         22    1    4    4    0    0 -0.35216812359E+02  0.24820608363E+02  0.32136761479E+03  0.32424285699E+03  0.00000000000E+00 0.  1.
<mgrwt>
<rscale>  0 0.92438989E+02</rscale>
<asrwt>0</asrwt>
<pdfrwt beam="1">  1        2 0.77588268E-01 0.92438989E+02</pdfrwt>
<pdfrwt beam="2">  1       -2 0.65166983E-03 0.92438989E+02</pdfrwt>
<totfact> 0.20836988E+05</totfact>
</mgrwt>
</event>
<event>
 7    1  0.3891761E-009  0.9098181E+02  0.7818608E-02  0.1300491E+00
          2   -1    0    0  501    0  0.00000000000E+00  0.00000000000E+00  0.39832949504E+02  0.39832949585E+02  0.25500000000E-02 0. -1.
         -2   -1    0    0    0  501 -0.00000000000E+00 -0.00000000000E+00 -0.51952526748E+02  0.51952526811E+02  0.25500000000E-02 0.  1.
         23    2    1    2    0    0  0.44408920985E-15  0.00000000000E+00 -0.12119577244E+02  0.91785476396E+02  0.90981808757E+02 0.  0.
    9000005    2    3    3    0    0 -0.38291607137E+01 -0.23737752617E+02  0.31611839619E+02  0.41879763378E+02  0.13283930346E+02 0.  0.
         22    1    3    3    0    0  0.38291607137E+01  0.23737752617E+02 -0.43731416863E+02  0.49905713019E+02  0.00000000000E+00 0.  1.
         22    1    4    4    0    0 -0.80231266628E+01 -0.13125945315E+02  0.22603439203E+02  0.27341844592E+02  0.00000000000E+00 0. -1.
         22    1    4    4    0    0  0.41939659491E+01 -0.10611807301E+02  0.90084004151E+01  0.14537918786E+02  0.00000000000E+00 0. -1.
<mgrwt>
<rscale>  0 0.90981809E+02</rscale>
<asrwt>0</asrwt>
<pdfrwt beam="1">  1        2 0.61281461E-02 0.90981809E+02</pdfrwt>
<pdfrwt beam="2">  1       -2 0.79926965E-02 0.90981809E+02</pdfrwt>
<totfact> 0.95878360E+04</totfact>
</mgrwt>
</event>
<event>
 7    1  0.3891761E-009  0.9157554E+02  0.7818608E-02  0.1299081E+00
         -2   -1    0    0    0  501 -0.00000000000E+00  0.00000000000E+00  0.42847033874E+02  0.42847033950E+02  0.25500000000E-02 0.  1.
          2   -1    0    0  501    0  0.00000000000E+00 -0.00000000000E+00 -0.48930341557E+02  0.48930341624E+02  0.25500000000E-02 0. -1.
         23    2    1    2    0    0 -0.17763568394E-14  0.35527136788E-14 -0.60833076829E+01  0.91777375574E+02  0.91575542777E+02 0.  0.
    9000005    2    3    3    0    0  0.11291443600E+02  0.31761941847E+02 -0.33114546185E+02  0.48568516489E+02  0.11225416537E+02 0.  0.
         22    1    3    3    0    0 -0.11291443600E+02 -0.31761941847E+02  0.27031238502E+02  0.43208859085E+02  0.00000000000E+00 0.  1.
         22    1    4    4    0    0  0.24645376086E+01  0.21077301097E+02 -0.16178741259E+02  0.26684794094E+02  0.00000000000E+00 0. -1.
         22    1    4    4    0    0  0.88269059914E+01  0.10684640750E+02 -0.16935804926E+02  0.21883722395E+02  0.00000000000E+00 0. -1.
<mgrwt>
<rscale>  0 0.91575543E+02</rscale>
<asrwt>0</asrwt>
<pdfrwt beam="2">  1        2 0.75277449E-02 0.91575543E+02</pdfrwt>
<pdfrwt beam="1">  1       -2 0.65918513E-02 0.91575543E+02</pdfrwt>
<totfact> 0.99261200E+04</totfact>
</mgrwt>
</event>
<event>
 7    1  0.3891761E-009  0.8956180E+02  0.7818608E-02  0.1303916E+00
         -2   -1    0    0    0  501 -0.00000000000E+00  0.00000000000E+00  0.19120444491E+01  0.19120461495E+01  0.25500000000E-02 0.  1.
          2   -1    0    0  501    0  0.00000000000E+00 -0.00000000000E+00 -0.10487873486E+04  0.10487873486E+04  0.25500000000E-02 0. -1.
         23    2    1    2    0    0  0.00000000000E+00  0.00000000000E+00 -0.10468753042E+04  0.10506993948E+04  0.89561798175E+02 0.  0.
    9000005    2    3    3    0    0  0.62202416435E+01 -0.34066181999E+02 -0.84793468976E+03  0.84876731653E+03  0.14612438008E+02 0.  0.
         22    1    3    3    0    0 -0.62202416435E+01  0.34066181999E+02 -0.19894061439E+03  0.20193207822E+03  0.00000000000E+00 0.  1.
         22    1    4    4    0    0 -0.22701329272E+01 -0.15521620679E+02 -0.49087394645E+03  0.49112453158E+03  0.00000000000E+00 0.  1.
         22    1    4    4    0    0  0.84903745707E+01 -0.18544561321E+02 -0.35706074331E+03  0.35764278495E+03  0.00000000000E+00 0.  1.
<mgrwt>
<rscale>  0 0.89561798E+02</rscale>
<asrwt>0</asrwt>
<pdfrwt beam="2">  1        2 0.16135144E+00 0.89561798E+02</pdfrwt>
<pdfrwt beam="1">  1       -2 0.29416165E-03 0.89561798E+02</pdfrwt>
<totfact> 0.26237221E+05</totfact>
</mgrwt>
</event>
<event>
 7    1  0.3891761E-009  0.9133907E+02  0.7818608E-02  0.1299641E+00
          2   -1    0    0  501    0  0.00000000000E+00  0.00000000000E+00  0.36019526265E+02  0.36019526356E+02  0.25500000000E-02 0. -1.
         -2   -1    0    0    0  501 -0.00000000000E+00 -0.00000000000E+00 -0.57904887729E+02  0.57904887785E+02  0.25500000000E-02 0.  1.
         23    2    1    2    0    0  0.00000000000E+00  0.00000000000E+00 -0.21885361464E+02  0.93924414141E+02  0.91339074472E+02 0.  0.
    9000005    2    3    3    0    0 -0.36093278287E+02 -0.91474963410E+01  0.15307042191E+02  0.41296699804E+02  0.92038278585E+01 0.  0.
         22    1    3    3    0    0  0.36093278287E+02  0.91474963410E+01 -0.37192403655E+02  0.52627714337E+02  0.00000000000E+00 0.  1.
         22    1    4    4    0    0 -0.13022723433E+02  0.11640533806E+01  0.56747296340E+01  0.14253031337E+02  0.00000000000E+00 0.  1.
         22    1    4    4    0    0 -0.23070554853E+02 -0.10311549722E+02  0.96323125570E+01  0.27043668466E+02  0.00000000000E+00 0.  1.
<mgrwt>
<rscale>  0 0.91339074E+02</rscale>
<asrwt>0</asrwt>
<pdfrwt beam="1">  1        2 0.55414656E-02 0.91339074E+02</pdfrwt>
<pdfrwt beam="2">  1       -2 0.89084442E-02 0.91339074E+02</pdfrwt>
<totfact> 0.92349053E+04</totfact>
</mgrwt>
</event>
<event>
 7    1  0.3891761E-009  0.1147363E+03  0.7818608E-02  0.1252042E+00
          2   -1    0    0  501    0  0.00000000000E+00  0.00000000000E+00  0.20610181990E+03  0.20610181992E+03  0.25500000000E-02 0. -1.
         -2   -1    0    0    0  501 -0.00000000000E+00 -0.00000000000E+00 -0.15968338577E+02  0.15968338781E+02  0.25500000000E-02 0.  1.
         23    2    1    2    0    0  0.35527136788E-14  0.00000000000E+00  0.19013348133E+03  0.22207015870E+03  0.11473628312E+03 0.  0.
    9000005    2    3    3    0    0 -0.29489955365E+02 -0.36866772545E+02  0.36604772886E+02  0.61446746021E+02  0.14386688751E+02 0.  0.
         22    1    3    3    0    0  0.29489955365E+02  0.36866772545E+02  0.15352870844E+03  0.16062341268E+03  0.00000000000E+00 0. -1.
         22    1    4    4    0    0 -0.21880395834E+02 -0.16738606656E+02  0.17244988535E+02  0.32501112353E+02  0.00000000000E+00 0. -1.
         22    1    4    4    0    0 -0.76095595314E+01 -0.20128165889E+02  0.19359784351E+02  0.28945633668E+02  0.00000000000E+00 0. -1.
<mgrwt>
<rscale>  0 0.11473628E+03</rscale>
<asrwt>0</asrwt>
<pdfrwt beam="1">  1        2 0.31707972E-01 0.11473628E+03</pdfrwt>
<pdfrwt beam="2">  1       -2 0.24566675E-02 0.11473628E+03</pdfrwt>
<totfact> 0.83500320E+04</totfact>
</mgrwt>
</event>
<event>
 7    1  0.3891761E-009  0.8542323E+02  0.7818608E-02  0.1314329E+00
         -2   -1    0    0    0  501 -0.00000000000E+00  0.00000000000E+00  0.77893587840E+01  0.77893592014E+01  0.25500000000E-02 0.  1.
          2   -1    0    0  501    0  0.00000000000E+00 -0.00000000000E+00 -0.23420184686E+03  0.23420184688E+03  0.25500000000E-02 0. -1.
         23    2    1    2    0    0  0.00000000000E+00 -0.35527136788E-14 -0.22641248808E+03  0.24199120608E+03  0.85423234902E+02 0.  0.
    9000005    2    3    3    0    0  0.30359236983E+02 -0.29700040240E+02 -0.10729073089E+03  0.11552473346E+03  0.55576475101E+01 0.  0.
         22    1    3    3    0    0 -0.30359236983E+02  0.29700040240E+02 -0.11912175718E+03  0.12646647261E+03  0.00000000000E+00 0. -1.
         22    1    4    4    0    0  0.21375711268E+02 -0.17389097341E+02 -0.66745805977E+02  0.72210140244E+02  0.00000000000E+00 0. -1.
         22    1    4    4    0    0  0.89835257150E+01 -0.12310942899E+02 -0.40544924917E+02  0.43314593221E+02  0.00000000000E+00 0. -1.
<mgrwt>
<rscale>  0 0.85423235E+02</rscale>
<asrwt>0</asrwt>
<pdfrwt beam="2">  1        2 0.36031048E-01 0.85423235E+02</pdfrwt>
<pdfrwt beam="1">  1       -2 0.11983631E-02 0.85423235E+02</pdfrwt>
<totfact> 0.19501757E+05</totfact>
</mgrwt>
</event>
<event>
 7    1  0.3891761E-009  0.9237251E+02  0.7818608E-02  0.1297206E+00
          2   -1    0    0  501    0  0.00000000000E+00  0.00000000000E+00  0.98516220806E+01  0.98516224106E+01  0.25500000000E-02 0. -1.
         -2   -1    0    0    0  501 -0.00000000000E+00 -0.00000000000E+00 -0.21652981559E+03  0.21652981561E+03  0.25500000000E-02 0.  1.
         23    2    1    2    0    0  0.00000000000E+00  0.00000000000E+00 -0.20667819351E+03  0.22638143802E+03  0.92372505681E+02 0.  0.
    9000005    2    3    3    0    0 -0.71602303117E+01 -0.44745135395E+02 -0.11794558899E+03  0.12674775323E+03  0.10021723734E+02 0.  0.
         22    1    3    3    0    0  0.71602303117E+01  0.44745135395E+02 -0.88732604525E+02  0.99633684793E+02  0.00000000000E+00 0.  1.
         22    1    4    4    0    0 -0.62733886429E+01 -0.17874630720E+02 -0.58854170420E+02  0.61827754320E+02  0.00000000000E+00 0.  1.
         22    1    4    4    0    0 -0.88684166884E+00 -0.26870504674E+02 -0.59091418568E+02  0.64919998906E+02  0.00000000000E+00 0.  1.
<mgrwt>
<rscale>  0 0.92372506E+02</rscale>
<asrwt>0</asrwt>
<pdfrwt beam="1">  1        2 0.15156344E-02 0.92372506E+02</pdfrwt>
<pdfrwt beam="2">  1       -2 0.33312276E-01 0.92372506E+02</pdfrwt>
<totfact> 0.58186156E+04</totfact>
</mgrwt>
</event>
<event>
 7    1  0.3891761E-009  0.8990704E+02  0.7818608E-02  0.1303077E+00
          2   -1    0    0  501    0  0.00000000000E+00  0.00000000000E+00  0.27753133839E+03  0.27753133840E+03  0.25500000000E-02 0. -1.
         -2   -1    0    0    0  501 -0.00000000000E+00 -0.00000000000E+00 -0.72814085923E+01  0.72814090388E+01  0.25500000000E-02 0.  1.
         23    2    1    2    0    0  0.00000000000E+00  0.00000000000E+00  0.27024992979E+03  0.28481274744E+03  0.89907043933E+02 0.  0.
    9000005    2    3    3    0    0 -0.11239617042E+02 -0.41826314056E+02  0.10840517266E+03  0.11727321494E+03  0.11205174846E+02 0.  0.
         22    1    3    3    0    0  0.11239617042E+02  0.41826314056E+02  0.16184475713E+03  0.16753953250E+03  0.00000000000E+00 0. -1.
         22    1    4    4    0    0 -0.73153957406E+01 -0.10891051805E+02  0.25081786855E+02  0.28305936764E+02  0.00000000000E+00 0.  1.
         22    1    4    4    0    0 -0.39242213017E+01 -0.30935262250E+02  0.83323385805E+02  0.88967278172E+02  0.00000000000E+00 0.  1.
<mgrwt>
<rscale>  0 0.89907044E+02</rscale>
<asrwt>0</asrwt>
<pdfrwt beam="1">  1        2 0.42697133E-01 0.89907044E+02</pdfrwt>
<pdfrwt beam="2">  1       -2 0.11202166E-02 0.89907044E+02</pdfrwt>
<totfact> 0.18117495E+05</totfact>
</mgrwt>
</event>
<event>
 7    1  0.3891761E-009  0.8965354E+02  0.7818608E-02  0.1303693E+00
         -2   -1    0    0    0  501 -0.00000000000E+00  0.00000000000E+00  0.89467729196E+02  0.89467729232E+02  0.25500000000E-02 0.  1.
          2   -1    0    0  501    0  0.00000000000E+00 -0.00000000000E+00 -0.22459934446E+02  0.22459934591E+02  0.25500000000E-02 0. -1.
         23    2    1    2    0    0  0.00000000000E+00  0.00000000000E+00  0.67007794750E+02  0.11192766382E+03  0.89653540765E+02 0.  0.
    9000005    2    3    3    0    0  0.32617600429E+02 -0.29126726365E+02  0.32198572915E+02  0.56035303243E+02  0.13817853136E+02 0.  0.
         22    1    3    3    0    0 -0.32617600429E+02  0.29126726365E+02  0.34809221835E+02  0.55892360580E+02  0.00000000000E+00 0.  1.
         22    1    4    4    0    0  0.17919093402E+02 -0.24637256448E+02  0.20481910545E+02  0.36709630524E+02  0.00000000000E+00 0.  1.
         22    1    4    4    0    0  0.14698507027E+02 -0.44894699173E+01  0.11716662370E+02  0.19325672719E+02  0.00000000000E+00 0.  1.
<mgrwt>
<rscale>  0 0.89653541E+02</rscale>
<asrwt>0</asrwt>
<pdfrwt beam="2">  1        2 0.34553746E-02 0.89653541E+02</pdfrwt>
<pdfrwt beam="1">  1       -2 0.13764266E-01 0.89653541E+02</pdfrwt>
<totfact> 0.85950501E+04</totfact>
</mgrwt>
</event>
<event>
 7    1  0.3891761E-009  0.9208358E+02  0.7818608E-02  0.1297883E+00
         -2   -1    0    0    0  501 -0.00000000000E+00  0.00000000000E+00  0.14919950287E+01  0.14919972078E+01  0.25500000000E-02 0.  1.
          2   -1    0    0  501    0  0.00000000000E+00 -0.00000000000E+00 -0.14208124026E+04  0.14208124026E+04  0.25500000000E-02 0. -1.
         23    2    1    2    0    0  0.00000000000E+00  0.17763568394E-14 -0.14193204076E+04  0.14223043998E+04  0.92083583613E+02 0.  0.
    9000005    2    3    3    0    0 -0.26194665247E+02  0.14314908655E+02 -0.12500332276E+04  0.12504055155E+04  0.63092148547E+01 0.  0.
         22    1    3    3    0    0  0.26194665247E+02 -0.14314908655E+02 -0.16928718003E+03  0.17189888429E+03  0.00000000000E+00 0.  1.
         22    1    4    4    0    0 -0.88041290544E+01  0.39173852385E+01 -0.52854116937E+03  0.52862900631E+03  0.00000000000E+00 0. -1.
         22    1    4    4    0    0 -0.17390536192E+02  0.10397523416E+02 -0.72149205820E+03  0.72177650923E+03  0.00000000000E+00 0. -1.
<mgrwt>
<rscale>  0 0.92083584E+02</rscale>
<asrwt>0</asrwt>
<pdfrwt beam="2">  1        2 0.21858544E+00 0.92083584E+02</pdfrwt>
<pdfrwt beam="1">  1       -2 0.22953900E-03 0.92083584E+02</pdfrwt>
<totfact> 0.23417119E+05</totfact>
</mgrwt>
</event>
<event>
 7    1  0.3891761E-009  0.9240361E+02  0.7818608E-02  0.1297133E+00
          2   -1    0    0  501    0  0.00000000000E+00  0.00000000000E+00  0.59672510864E+03  0.59672510864E+03  0.25500000000E-02 0. -1.
         -2   -1    0    0    0  501 -0.00000000000E+00 -0.00000000000E+00 -0.35772021379E+01  0.35772030468E+01  0.25500000000E-02 0.  1.
         23    2    1    2    0    0 -0.22204460493E-15 -0.35527136788E-14  0.59314790650E+03  0.60030231169E+03  0.92403606181E+02 0.  0.
    9000005    2    3    3    0    0  0.99210276749E+00 -0.25212039513E+02  0.54640805301E+03  0.54718691742E+03  0.14667344556E+02 0.  0.
         22    1    3    3    0    0 -0.99210276749E+00  0.25212039513E+02  0.46739853493E+02  0.53115394274E+02  0.00000000000E+00 0.  1.
         22    1    4    4    0    0 -0.57682262824E+01 -0.19477275961E+02  0.38563206203E+03  0.38616670491E+03  0.00000000000E+00 0. -1.
         22    1    4    4    0    0  0.67603290499E+01 -0.57347635520E+01  0.16077599098E+03  0.16102021251E+03  0.00000000000E+00 0. -1.
<mgrwt>
<rscale>  0 0.92403606E+02</rscale>
<asrwt>0</asrwt>
<pdfrwt beam="1">  1        2 0.91803931E-01 0.92403606E+02</pdfrwt>
<pdfrwt beam="2">  1       -2 0.55033845E-03 0.92403606E+02</pdfrwt>
<totfact> 0.21959663E+05</totfact>
</mgrwt>
</event>
<event>
 7    1  0.3891761E-009  0.9325144E+02  0.7818608E-02  0.1295164E+00
         -2   -1    0    0    0  501 -0.00000000000E+00  0.00000000000E+00  0.43326854389E+03  0.43326854389E+03  0.25500000000E-02 0.  1.
          2   -1    0    0  501    0  0.00000000000E+00 -0.00000000000E+00 -0.50175750119E+01  0.50175756599E+01  0.25500000000E-02 0. -1.
         23    2    1    2    0    0  0.00000000000E+00  0.00000000000E+00  0.42825096887E+03  0.43828611955E+03  0.93251435654E+02 0.  0.
    9000005    2    3    3    0    0 -0.66408551711E+01  0.44516270276E+02  0.24588275863E+03  0.25044585926E+03  0.15459565193E+02 0.  0.
         22    1    3    3    0    0  0.66408551711E+01 -0.44516270276E+02  0.18236821025E+03  0.18784026029E+03  0.00000000000E+00 0. -1.
         22    1    4    4    0    0 -0.83426957169E+01  0.10215750720E+02  0.73883681069E+02  0.75051718587E+02  0.00000000000E+00 0. -1.
         22    1    4    4    0    0  0.17018405458E+01  0.34300519556E+02  0.17199907756E+03  0.17539414068E+03  0.00000000000E+00 0. -1.
<mgrwt>
<rscale>  0 0.93251436E+02</rscale>
<asrwt>0</asrwt>
<pdfrwt beam="2">  1        2 0.77193448E-03 0.93251436E+02</pdfrwt>
<pdfrwt beam="1">  1       -2 0.66656716E-01 0.93251436E+02</pdfrwt>
<totfact> 0.38103456E+04</totfact>
</mgrwt>
</event>
<event>
 7    1  0.3891761E-009  0.9157479E+02  0.7818608E-02  0.1299082E+00
          2   -1    0    0  501    0  0.00000000000E+00  0.00000000000E+00  0.54371236210E+03  0.54371236211E+03  0.25500000000E-02 0. -1.
         -2   -1    0    0    0  501 -0.00000000000E+00 -0.00000000000E+00 -0.38558718299E+01  0.38558726731E+01  0.25500000000E-02 0.  1.
         23    2    1    2    0    0 -0.35527136788E-14  0.00000000000E+00  0.53985649027E+03  0.54756823478E+03  0.91574787209E+02 0.  0.
    9000005    2    3    3    0    0  0.28414929006E+02 -0.74946253797E+01  0.47971598144E+03  0.48063200840E+03  0.40158494805E+01 0.  0.
         22    1    3    3    0    0 -0.28414929006E+02  0.74946253797E+01  0.60140508836E+02  0.66936226388E+02  0.00000000000E+00 0.  1.
         22    1    4    4    0    0  0.21161853614E+01 -0.26892249812E+00  0.54915416189E+02  0.54956833014E+02  0.00000000000E+00 0.  1.
         22    1    4    4    0    0  0.26298743644E+02 -0.72257028816E+01  0.42480056525E+03  0.42567517538E+03  0.00000000000E+00 0.  1.
<mgrwt>
<rscale>  0 0.91574787E+02</rscale>
<asrwt>0</asrwt>
<pdfrwt beam="1">  1        2 0.83648110E-01 0.91574787E+02</pdfrwt>
<pdfrwt beam="2">  1       -2 0.59321073E-03 0.91574787E+02</pdfrwt>
<totfact> 0.21875711E+05</totfact>
</mgrwt>
</event>
<event>
 6    1  0.3891761E-009  0.2186126E+03  0.7818608E-02  0.1134922E+00
          2   -1    0    0  501    0  0.00000000000E+00  0.00000000000E+00  0.63460420996E+03  0.63460420997E+03  0.25500000000E-02 0. -1.
         -2   -1    0    0    0  501 -0.00000000000E+00 -0.00000000000E+00 -0.18827266802E+02  0.18827266975E+02  0.25500000000E-02 0.  1.
    9000005    2    1    2    0    0  0.29436252691E+02 -0.69649446893E+01  0.62171861997E+03  0.62260442794E+03  0.13683122711E+02 0.  0.
         22    1    1    2    0    0 -0.29436252691E+02  0.69649446893E+01 -0.59416768070E+01  0.30827049004E+02  0.00000000000E+00 0.  1.
         22    1    3    3    0    0  0.17512636433E+02 -0.10426985270E+02  0.43143292839E+03  0.43191409580E+03  0.00000000000E+00 0.  1.
         22    1    3    3    0    0  0.11923616259E+02  0.34620405806E+01  0.19028569158E+03  0.19069033214E+03  0.00000000000E+00 0.  1.
<mgrwt>
<rscale>  0 0.21861256E+03</rscale>
<asrwt>0</asrwt>
<pdfrwt beam="1">  1        2 0.97631410E-01 0.21861256E+03</pdfrwt>
<pdfrwt beam="2">  1       -2 0.28965028E-02 0.21861256E+03</pdfrwt>
<totfact> 0.20648238E+04</totfact>
</mgrwt>
</event>
<event>
 7    1  0.3891761E-009  0.9150834E+02  0.7818608E-02  0.1299240E+00
         -2   -1    0    0    0  501 -0.00000000000E+00  0.00000000000E+00  0.30085918091E+02  0.30085918199E+02  0.25500000000E-02 0.  1.
          2   -1    0    0  501    0  0.00000000000E+00 -0.00000000000E+00 -0.69582188884E+02  0.69582188931E+02  0.25500000000E-02 0. -1.
         23    2    1    2    0    0  0.17763568394E-14 -0.71054273576E-14 -0.39496270793E+02  0.99668107130E+02  0.91508339359E+02 0.  0.
    9000005    2    3    3    0    0  0.99009310774E+01 -0.38961883271E+02 -0.40996599775E+02  0.59439910908E+02  0.15372866727E+02 0.  0.
         22    1    3    3    0    0 -0.99009310774E+01  0.38961883271E+02  0.15003289824E+01  0.40228196222E+02  0.00000000000E+00 0.  1.
         22    1    4    4    0    0  0.49842488763E+01 -0.44057872826E+01 -0.16719163307E+01  0.68592275554E+01  0.00000000000E+00 0. -1.
         22    1    4    4    0    0  0.49166822011E+01 -0.34556095988E+02 -0.39324683445E+02  0.52580683352E+02  0.00000000000E+00 0. -1.
<mgrwt>
<rscale>  0 0.91508339E+02</rscale>
<asrwt>0</asrwt>
<pdfrwt beam="2">  1        2 0.10704952E-01 0.91508339E+02</pdfrwt>
<pdfrwt beam="1">  1       -2 0.46286028E-02 0.91508339E+02</pdfrwt>
<totfact> 0.10931894E+05</totfact>
</mgrwt>
</event>
<event>
 7    1  0.3891761E-009  0.9335500E+02  0.7818608E-02  0.1294925E+00
         -2   -1    0    0    0  501 -0.00000000000E+00  0.00000000000E+00  0.80857862457E+02  0.80857862497E+02  0.25500000000E-02 0.  1.
          2   -1    0    0  501    0  0.00000000000E+00 -0.00000000000E+00 -0.26945912271E+02  0.26945912392E+02  0.25500000000E-02 0. -1.
         23    2    1    2    0    0  0.00000000000E+00 -0.35527136788E-14  0.53911950185E+02  0.10780377489E+03  0.93354997228E+02 0.  0.
    9000005    2    3    3    0    0 -0.31220450774E+02 -0.31525224878E+02  0.43367163849E+02  0.62199511174E+02  0.44172321404E+01 0.  0.
         22    1    3    3    0    0  0.31220450774E+02  0.31525224878E+02  0.10544786336E+02  0.45604263715E+02  0.00000000000E+00 0.  1.
         22    1    4    4    0    0 -0.29384111141E+02 -0.30382892911E+02  0.42259682117E+02  0.59769782514E+02  0.00000000000E+00 0. -1.
         22    1    4    4    0    0 -0.18363396332E+01 -0.11423319665E+01  0.11074817324E+01  0.24297286592E+01  0.00000000000E+00 0. -1.
<mgrwt>
<rscale>  0 0.93354997E+02</rscale>
<asrwt>0</asrwt>
<pdfrwt beam="2">  1        2 0.41455250E-02 0.93354997E+02</pdfrwt>
<pdfrwt beam="1">  1       -2 0.12439671E-01 0.93354997E+02</pdfrwt>
<totfact> 0.80042338E+04</totfact>
</mgrwt>
</event>
<event>
 7    1  0.3891761E-009  0.9078777E+02  0.7818608E-02  0.1300955E+00
          2   -1    0    0  501    0  0.00000000000E+00  0.00000000000E+00  0.41223771658E+03  0.41223771659E+03  0.25500000000E-02 0. -1.
         -2   -1    0    0    0  501 -0.00000000000E+00 -0.00000000000E+00 -0.49985829935E+01  0.49985836439E+01  0.25500000000E-02 0.  1.
         23    2    1    2    0    0  0.00000000000E+00  0.71054273576E-14  0.40723913359E+03  0.41723630023E+03  0.90787765182E+02 0.  0.
    9000005    2    3    3    0    0 -0.74489592854E+01  0.44464261759E+02  0.20083502208E+03  0.20596582237E+03  0.73929914999E+01 0.  0.
         22    1    3    3    0    0  0.74489592854E+01 -0.44464261759E+02  0.20640411151E+03  0.21127047786E+03  0.00000000000E+00 0. -1.
         22    1    4    4    0    0 -0.25089420522E+01  0.22406532891E+02  0.11601140107E+03  0.11818203199E+03  0.00000000000E+00 0.  1.
         22    1    4    4    0    0 -0.49400172331E+01  0.22057728868E+02  0.84823621012E+02  0.87783790387E+02  0.00000000000E+00 0.  1.
<mgrwt>
<rscale>  0 0.90787765E+02</rscale>
<asrwt>0</asrwt>
<pdfrwt beam="1">  1        2 0.63421192E-01 0.90787765E+02</pdfrwt>
<pdfrwt beam="2">  1       -2 0.76901276E-03 0.90787765E+02</pdfrwt>
<totfact> 0.20407939E+05</totfact>
</mgrwt>
</event>
<event>
 6    1  0.3891761E-009  0.1587027E+03  0.7818608E-02  0.1190169E+00
          2   -1    0    0  501    0  0.00000000000E+00  0.00000000000E+00  0.78828048250E+02  0.78828048291E+02  0.25500000000E-02 0. -1.
         -2   -1    0    0    0  501 -0.00000000000E+00 -0.00000000000E+00 -0.79878085758E+02  0.79878085799E+02  0.25500000000E-02 0.  1.
    9000005    2    1    2    0    0  0.17751640234E+02  0.51413571814E+02  0.57039360458E+02  0.79126901537E+02  0.70072682090E+01 0.  0.
         22    1    1    2    0    0 -0.17751640234E+02 -0.51413571814E+02 -0.58089397966E+02  0.79579232553E+02  0.00000000000E+00 0.  1.
         22    1    3    3    0    0  0.17504566297E+02  0.43431946422E+02  0.49619209401E+02  0.68226166188E+02  0.00000000000E+00 0.  1.
         22    1    3    3    0    0  0.24707393773E+00  0.79816253927E+01  0.74201510568E+01  0.10900735349E+02  0.00000000000E+00 0.  1.
<mgrwt>
<rscale>  0 0.15870266E+03</rscale>
<asrwt>0</asrwt>
<pdfrwt beam="1">  1        2 0.12127392E-01 0.15870266E+03</pdfrwt>
<pdfrwt beam="2">  1       -2 0.12288936E-01 0.15870266E+03</pdfrwt>
<totfact> 0.22510784E+04</totfact>
</mgrwt>
</event>
<event>
 7    1  0.3891761E-009  0.8979721E+02  0.7818608E-02  0.1303344E+00
         -2   -1    0    0    0  501 -0.00000000000E+00  0.00000000000E+00  0.50572159077E+02  0.50572159142E+02  0.25500000000E-02 0.  1.
          2   -1    0    0  501    0  0.00000000000E+00 -0.00000000000E+00 -0.39861554508E+02  0.39861554590E+02  0.25500000000E-02 0. -1.
         23    2    1    2    0    0  0.71054273576E-14  0.00000000000E+00  0.10710604569E+02  0.90433713731E+02  0.89797213370E+02 0.  0.
    9000005    2    3    3    0    0 -0.35454448537E+02 -0.26570721339E+02  0.15464469759E+01  0.45189897160E+02  0.87586616335E+01 0.  0.
         22    1    3    3    0    0  0.35454448537E+02  0.26570721339E+02  0.91641575933E+01  0.45243816571E+02  0.00000000000E+00 0.  1.
         22    1    4    4    0    0 -0.14982368147E+02 -0.13830997564E+02  0.45479513441E+01  0.20891426718E+02  0.00000000000E+00 0. -1.
         22    1    4    4    0    0 -0.20472080390E+02 -0.12739723775E+02 -0.30015043682E+01  0.24298470442E+02  0.00000000000E+00 0. -1.
<mgrwt>
<rscale>  0 0.89797213E+02</rscale>
<asrwt>0</asrwt>
<pdfrwt beam="2">  1        2 0.61325469E-02 0.89797213E+02</pdfrwt>
<pdfrwt beam="1">  1       -2 0.77803322E-02 0.89797213E+02</pdfrwt>
<totfact> 0.99596804E+04</totfact>
</mgrwt>
</event>
<event>
 6    1  0.5049408E-009  0.4703030E+03  0.7818608E-02  0.1021835E+00
          2   -1    0    0  501    0  0.00000000000E+00  0.00000000000E+00  0.12203454983E+04  0.12203454983E+04  0.25500000000E-02 0. -1.
         -2   -1    0    0    0  501 -0.00000000000E+00 -0.00000000000E+00 -0.45311950429E+02  0.45311950501E+02  0.25500000000E-02 0.  1.
    9000005    2    1    2    0    0 -0.14182035777E+03  0.83197718568E+02  0.10396786921E+04  0.10526884106E+04  0.13646711040E+02 0.  0.
         22    1    1    2    0    0  0.14182035777E+03 -0.83197718568E+02  0.13535485574E+03  0.21296903819E+03  0.00000000000E+00 0.  1.
         22    1    3    3    0    0 -0.13132055870E+03  0.75852073931E+02  0.97848662668E+03  0.99016902842E+03  0.00000000000E+00 0. -1.
         22    1    3    3    0    0 -0.10499799077E+02  0.73456446371E+01  0.61192065448E+02  0.62519382191E+02  0.00000000000E+00 0. -1.
<mgrwt>
<rscale>  0 0.47030303E+03</rscale>
<asrwt>0</asrwt>
<pdfrwt beam="1">  1        2 0.18774545E+00 0.47030303E+03</pdfrwt>
<pdfrwt beam="2">  1       -2 0.69710699E-02 0.47030303E+03</pdfrwt>
<totfact> 0.22801197E+03</totfact>
</mgrwt>
</event>
<event>
 7    1  0.3891761E-009  0.9187137E+02  0.7818608E-02  0.1298382E+00
         -2   -1    0    0    0  501 -0.00000000000E+00  0.00000000000E+00  0.44497935636E+02  0.44497935709E+02  0.25500000000E-02 0.  1.
          2   -1    0    0  501    0  0.00000000000E+00 -0.00000000000E+00 -0.47419893378E+02  0.47419893447E+02  0.25500000000E-02 0. -1.
         23    2    1    2    0    0  0.00000000000E+00  0.00000000000E+00 -0.29219577422E+01  0.91917829156E+02  0.91871374648E+02 0.  0.
    9000005    2    3    3    0    0  0.31238144566E+02  0.15825196547E+02  0.26728204278E+02  0.46033293313E+02  0.13356970752E+02 0.  0.
         22    1    3    3    0    0 -0.31238144566E+02 -0.15825196547E+02 -0.29650162020E+02  0.45884535843E+02  0.00000000000E+00 0. -1.
         22    1    4    4    0    0  0.27003898236E+02  0.10090938150E+02  0.26082621779E+02  0.38875965732E+02  0.00000000000E+00 0.  1.
         22    1    4    4    0    0  0.42342463295E+01  0.57342583972E+01  0.64558249898E+00  0.71573275814E+01  0.00000000000E+00 0.  1.
<mgrwt>
<rscale>  0 0.91871375E+02</rscale>
<asrwt>0</asrwt>
<pdfrwt beam="2">  1        2 0.72953682E-02 0.91871375E+02</pdfrwt>
<pdfrwt beam="1">  1       -2 0.68458363E-02 0.91871375E+02</pdfrwt>
<totfact> 0.97544332E+04</totfact>
</mgrwt>
</event>
<event>
 7    1  0.3891761E-009  0.9163709E+02  0.7818608E-02  0.1298935E+00
         -2   -1    0    0    0  501 -0.00000000000E+00  0.00000000000E+00  0.65914238833E+02  0.65914238882E+02  0.25500000000E-02 0.  1.
          2   -1    0    0  501    0  0.00000000000E+00 -0.00000000000E+00 -0.31849553921E+02  0.31849554023E+02  0.25500000000E-02 0. -1.
         23    2    1    2    0    0 -0.11102230246E-15  0.71054273576E-14  0.34064684912E+02  0.97763792905E+02  0.91637090990E+02 0.  0.
    9000005    2    3    3    0    0  0.73640751447E+00 -0.32604790850E+02  0.50090295317E+02  0.61426004430E+02  0.14159860625E+02 0.  0.
         22    1    3    3    0    0 -0.73640751447E+00  0.32604790850E+02 -0.16025610405E+02  0.36337788475E+02  0.00000000000E+00 0. -1.
         22    1    4    4    0    0 -0.19142398660E+01 -0.13007399139E+02  0.93298401712E+01  0.16121496960E+02  0.00000000000E+00 0. -1.
         22    1    4    4    0    0  0.26506473805E+01 -0.19597391712E+02  0.40760455145E+02  0.45304507470E+02  0.00000000000E+00 0. -1.
<mgrwt>
<rscale>  0 0.91637091E+02</rscale>
<asrwt>0</asrwt>
<pdfrwt beam="2">  1        2 0.48999314E-02 0.91637091E+02</pdfrwt>
<pdfrwt beam="1">  1       -2 0.10140652E-01 0.91637091E+02</pdfrwt>
<totfact> 0.88554918E+04</totfact>
</mgrwt>
</event>
<event>
 7    1  0.3891761E-009  0.8513299E+02  0.7818608E-02  0.1315085E+00
         -2   -1    0    0    0  501 -0.00000000000E+00  0.00000000000E+00  0.75839061241E+01  0.75839065528E+01  0.25500000000E-02 0.  1.
          2   -1    0    0  501    0  0.00000000000E+00 -0.00000000000E+00 -0.23891467938E+03  0.23891467940E+03  0.25500000000E-02 0. -1.
         23    2    1    2    0    0  0.00000000000E+00  0.35527136788E-14 -0.23133077326E+03  0.24649858595E+03  0.85132991363E+02 0.  0.
    9000005    2    3    3    0    0 -0.32261769827E+02 -0.25856862935E+02 -0.10636973900E+03  0.11487541460E+03  0.13131654551E+02 0.  0.
         22    1    3    3    0    0  0.32261769827E+02  0.25856862935E+02 -0.12496103426E+03  0.13162317135E+03  0.00000000000E+00 0. -1.
         22    1    4    4    0    0 -0.13254244182E+02 -0.17140944252E+02 -0.65087203122E+02  0.68599059534E+02  0.00000000000E+00 0.  1.
         22    1    4    4    0    0 -0.19007525645E+02 -0.87159186822E+01 -0.41282535881E+02  0.46276355068E+02  0.00000000000E+00 0.  1.
<mgrwt>
<rscale>  0 0.85132991E+02</rscale>
<asrwt>0</asrwt>
<pdfrwt beam="2">  1        2 0.36756099E-01 0.85132991E+02</pdfrwt>
<pdfrwt beam="1">  1       -2 0.11667550E-02 0.85132991E+02</pdfrwt>
<totfact> 0.19822641E+05</totfact>
</mgrwt>
</event>
<event>
 7    1  0.3891761E-009  0.9443769E+02  0.7818608E-02  0.1292448E+00
         -2   -1    0    0    0  501 -0.00000000000E+00  0.00000000000E+00  0.18520900274E+03  0.18520900276E+03  0.25500000000E-02 0.  1.
          2   -1    0    0  501    0  0.00000000000E+00 -0.00000000000E+00 -0.12038394866E+02  0.12038395136E+02  0.25500000000E-02 0. -1.
         23    2    1    2    0    0  0.00000000000E+00  0.17763568394E-14  0.17317060788E+03  0.19724739790E+03  0.94437686039E+02 0.  0.
    9000005    2    3    3    0    0  0.37256549671E+02  0.10123173807E+02  0.34961184705E+02  0.53746966556E+02  0.13263590642E+02 0.  0.
         22    1    3    3    0    0 -0.37256549671E+02 -0.10123173807E+02  0.13820942317E+03  0.14350043134E+03  0.00000000000E+00 0.  1.
         22    1    4    4    0    0  0.18893852250E+02 -0.17107651501E+01  0.16687562484E+02  0.25266165358E+02  0.00000000000E+00 0. -1.
         22    1    4    4    0    0  0.18362697421E+02  0.11833938958E+02  0.18273622222E+02  0.28480801199E+02  0.00000000000E+00 0. -1.
<mgrwt>
<rscale>  0 0.94437686E+02</rscale>
<asrwt>0</asrwt>
<pdfrwt beam="2">  1        2 0.18520608E-02 0.94437686E+02</pdfrwt>
<pdfrwt beam="1">  1       -2 0.28493693E-01 0.94437686E+02</pdfrwt>
<totfact> 0.58856921E+04</totfact>
</mgrwt>
</event>
<event>
 7    1  0.3891761E-009  0.8987706E+02  0.7818608E-02  0.1303150E+00
          2   -1    0    0  501    0  0.00000000000E+00  0.00000000000E+00  0.13891792937E+03  0.13891792939E+03  0.25500000000E-02 0. -1.
         -2   -1    0    0    0  501 -0.00000000000E+00 -0.00000000000E+00 -0.14537154618E+02  0.14537154842E+02  0.25500000000E-02 0.  1.
         23    2    1    2    0    0  0.00000000000E+00  0.35527136788E-14  0.12438077475E+03  0.15345508423E+03  0.89877059083E+02 0.  0.
    9000005    2    3    3    0    0 -0.33319309677E+02  0.22756026757E+02  0.93759946375E+02  0.10280285544E+03  0.12226462756E+02 0.  0.
         22    1    3    3    0    0  0.33319309677E+02 -0.22756026757E+02  0.30620828373E+02  0.50652228789E+02  0.00000000000E+00 0.  1.
         22    1    4    4    0    0 -0.33119303023E+02  0.18599875646E+02  0.83667919119E+02  0.91886692706E+02  0.00000000000E+00 0.  1.
         22    1    4    4    0    0 -0.20000665321E+00  0.41561511106E+01  0.10092027256E+02  0.10916162735E+02  0.00000000000E+00 0.  1.
<mgrwt>
<rscale>  0 0.89877059E+02</rscale>
<asrwt>0</asrwt>
<pdfrwt beam="1">  1        2 0.21371988E-01 0.89877059E+02</pdfrwt>
<pdfrwt beam="2">  1       -2 0.22364855E-02 0.89877059E+02</pdfrwt>
<totfact> 0.14165810E+05</totfact>
</mgrwt>
</event>
<event>
 7    1  0.3891761E-009  0.9156021E+02  0.7818608E-02  0.1299117E+00
         -2   -1    0    0    0  501 -0.00000000000E+00  0.00000000000E+00  0.90225455340E+01  0.90225458944E+01  0.25500000000E-02 0.  1.
          2   -1    0    0  501    0  0.00000000000E+00 -0.00000000000E+00 -0.23228678895E+03  0.23228678896E+03  0.25500000000E-02 0. -1.
         23    2    1    2    0    0  0.88817841970E-15 -0.17763568394E-14 -0.22326424342E+03  0.24130933486E+03  0.91560213530E+02 0.  0.
    9000005    2    3    3    0    0 -0.51251005940E+01  0.14983416953E+02 -0.22474158270E+03  0.22540487099E+03  0.69142918054E+01 0.  0.
         22    1    3    3    0    0  0.51251005940E+01 -0.14983416953E+02  0.14773392821E+01  0.15904463872E+02  0.00000000000E+00 0.  1.
         22    1    4    4    0    0 -0.57902930732E+01  0.67131018266E+01 -0.10295128547E+03  0.10333228155E+03  0.00000000000E+00 0. -1.
         22    1    4    4    0    0  0.66519247925E+00  0.82703151266E+01 -0.12179029723E+03  0.12207258944E+03  0.00000000000E+00 0. -1.
<mgrwt>
<rscale>  0 0.91560214E+02</rscale>
<asrwt>0</asrwt>
<pdfrwt beam="2">  1        2 0.35736425E-01 0.91560214E+02</pdfrwt>
<pdfrwt beam="1">  1       -2 0.13880841E-02 0.91560214E+02</pdfrwt>
<totfact> 0.16153784E+05</totfact>
</mgrwt>
</event>
<event>
 7    1  0.3891761E-009  0.9322154E+02  0.7818608E-02  0.1295233E+00
          2   -1    0    0  501    0  0.00000000000E+00  0.00000000000E+00  0.83996409501E+01  0.83996413372E+01  0.25500000000E-02 0. -1.
         -2   -1    0    0    0  501 -0.00000000000E+00 -0.00000000000E+00 -0.25864958638E+03  0.25864958639E+03  0.25500000000E-02 0.  1.
         23    2    1    2    0    0  0.11102230246E-15  0.00000000000E+00 -0.25024994543E+03  0.26704922773E+03  0.93221536370E+02 0.  0.
    9000005    2    3    3    0    0  0.76444709966E+00  0.38895590569E+02 -0.58335137902E+02  0.71231085839E+02  0.12547028757E+02 0.  0.
         22    1    3    3    0    0 -0.76444709966E+00 -0.38895590569E+02 -0.19191480752E+03  0.19581814189E+03  0.00000000000E+00 0. -1.
         22    1    4    4    0    0 -0.28682211600E+01  0.22161245182E+01 -0.85488584093E+01  0.92855199426E+01  0.00000000000E+00 0.  1.
         22    1    4    4    0    0  0.36326682596E+01  0.36679466051E+02 -0.49786279493E+02  0.61945565897E+02  0.00000000000E+00 0.  1.
<mgrwt>
<rscale>  0 0.93221536E+02</rscale>
<asrwt>0</asrwt>
<pdfrwt beam="1">  1        2 0.12922527E-02 0.93221536E+02</pdfrwt>
<pdfrwt beam="2">  1       -2 0.39792238E-01 0.93221536E+02</pdfrwt>
<totfact> 0.52159938E+04</totfact>
</mgrwt>
</event>
<event>
 7    1  0.3891761E-009  0.9157548E+02  0.7818608E-02  0.1299081E+00
          2   -1    0    0  501    0  0.00000000000E+00  0.00000000000E+00  0.97703489859E+03  0.97703489859E+03  0.25500000000E-02 0. -1.
         -2   -1    0    0    0  501 -0.00000000000E+00 -0.00000000000E+00 -0.21457949053E+01  0.21457964205E+01  0.25500000000E-02 0.  1.
         23    2    1    2    0    0  0.35527136788E-14  0.00000000000E+00  0.97488910368E+03  0.97918069501E+03  0.91575482551E+02 0.  0.
    9000005    2    3    3    0    0  0.23704351122E+02  0.23298517421E+01  0.90497189495E+03  0.90531771005E+03  0.76616577805E+01 0.  0.
         22    1    3    3    0    0 -0.23704351122E+02 -0.23298517421E+01  0.69917208729E+02  0.73862984964E+02  0.00000000000E+00 0.  1.
         22    1    4    4    0    0  0.62907014447E+00  0.68688136867E+00  0.91753347274E+01  0.92224889602E+01  0.00000000000E+00 0.  1.
         22    1    4    4    0    0  0.23075280977E+02  0.16429703735E+01  0.89579656022E+03  0.89609522109E+03  0.00000000000E+00 0.  1.
<mgrwt>
<rscale>  0 0.91575483E+02</rscale>
<asrwt>0</asrwt>
<pdfrwt beam="1">  1        2 0.15031289E+00 0.91575483E+02</pdfrwt>
<pdfrwt beam="2">  1       -2 0.33012278E-03 0.91575483E+02</pdfrwt>
<totfact> 0.24686094E+05</totfact>
</mgrwt>
</event>
<event>
 7    1  0.3891761E-009  0.8844060E+02  0.7818608E-02  0.1306673E+00
         -2   -1    0    0    0  501 -0.00000000000E+00  0.00000000000E+00  0.60672215108E+01  0.60672220467E+01  0.25500000000E-02 0.  1.
          2   -1    0    0  501    0  0.00000000000E+00 -0.00000000000E+00 -0.32229491963E+03  0.32229491964E+03  0.25500000000E-02 0. -1.
         23    2    1    2    0    0  0.00000000000E+00 -0.71054273576E-14 -0.31622769812E+03  0.32836214168E+03  0.88440596082E+02 0.  0.
    9000005    2    3    3    0    0  0.60828591718E+01  0.39218949811E+02 -0.22909807401E+03  0.23261926416E+03  0.71180996288E+01 0.  0.
         22    1    3    3    0    0 -0.60828591718E+01 -0.39218949811E+02 -0.87129624102E+02  0.95742877522E+02  0.00000000000E+00 0.  1.
         22    1    4    4    0    0  0.74092473590E+00  0.15312854962E+02 -0.71143585725E+02  0.72776660313E+02  0.00000000000E+00 0.  1.
         22    1    4    4    0    0  0.53419344359E+01  0.23906094849E+02 -0.15795448829E+03  0.15984260385E+03  0.00000000000E+00 0.  1.
<mgrwt>
<rscale>  0 0.88440596E+02</rscale>
<asrwt>0</asrwt>
<pdfrwt beam="2">  1        2 0.49583820E-01 0.88440596E+02</pdfrwt>
<pdfrwt beam="1">  1       -2 0.93341899E-03 0.88440596E+02</pdfrwt>
<totfact> 0.20007681E+05</totfact>
</mgrwt>
</event>
<event>
 7    1  0.3891761E-009  0.9136262E+02  0.7818608E-02  0.1299585E+00
         -2   -1    0    0    0  501 -0.00000000000E+00  0.00000000000E+00  0.13617169012E+02  0.13617169251E+02  0.25500000000E-02 0. -1.
          2   -1    0    0  501    0  0.00000000000E+00 -0.00000000000E+00 -0.15324640687E+03  0.15324640689E+03  0.25500000000E-02 0.  1.
         23    2    1    2    0    0  0.71054273576E-14  0.00000000000E+00 -0.13962923785E+03  0.16686357614E+03  0.91362623528E+02 0.  0.
    9000005    2    3    3    0    0  0.40681743417E+02  0.12244107398E+02 -0.47595264680E+02  0.65497040084E+02  0.14819940162E+02 0.  0.
         22    1    3    3    0    0 -0.40681743417E+02 -0.12244107398E+02 -0.92033973175E+02  0.10136653606E+03  0.00000000000E+00 0.  1.
         22    1    4    4    0    0  0.66716430654E+01 -0.10216286605E+01 -0.15433264563E+02  0.16844589677E+02  0.00000000000E+00 0.  1.
         22    1    4    4    0    0  0.34010100352E+02  0.13265736058E+02 -0.32162000117E+02  0.48652450407E+02  0.00000000000E+00 0.  1.
<mgrwt>
<rscale>  0 0.91362624E+02</rscale>
<asrwt>0</asrwt>
<pdfrwt beam="2">  1        2 0.23576369E-01 0.91362624E+02</pdfrwt>
<pdfrwt beam="1">  1       -2 0.20949492E-02 0.91362624E+02</pdfrwt>
<totfact> 0.14005803E+05</totfact>
</mgrwt>
</event>
<event>
 7    1  0.3891761E-009  0.7575057E+02  0.7818608E-02  0.1341562E+00
         -2   -1    0    0    0  501 -0.00000000000E+00  0.00000000000E+00  0.23002750389E+02  0.23002750530E+02  0.25500000000E-02 0.  1.
          2   -1    0    0  501    0  0.00000000000E+00 -0.00000000000E+00 -0.62363717100E+02  0.62363717152E+02  0.25500000000E-02 0. -1.
         23    2    1    2    0    0 -0.35527136788E-14 -0.35527136788E-14 -0.39360966712E+02  0.85366467683E+02  0.75750565042E+02 0.  0.
    9000005    2    3    3    0    0  0.30464426359E+02  0.17971396243E+02 -0.47464377410E+01  0.35876893304E+02  0.36838085754E+01 0.  0.
         22    1    3    3    0    0 -0.30464426359E+02 -0.17971396243E+02 -0.34614528971E+02  0.49489574378E+02  0.00000000000E+00 0. -1.
         22    1    4    4    0    0  0.21046438204E+02  0.12259961052E+02 -0.15417104050E+01  0.24405656661E+02  0.00000000000E+00 0. -1.
         22    1    4    4    0    0  0.94179881547E+01  0.57114351915E+01 -0.32047273360E+01  0.11471236643E+02  0.00000000000E+00 0. -1.
<mgrwt>
<rscale>  0 0.75750565E+02</rscale>
<asrwt>0</asrwt>
<pdfrwt beam="2">  1        2 0.95944180E-02 0.75750565E+02</pdfrwt>
<pdfrwt beam="1">  1       -2 0.35388847E-02 0.75750565E+02</pdfrwt>
<totfact> 0.17907377E+05</totfact>
</mgrwt>
</event>
<event>
 7    1  0.3891761E-009  0.9106958E+02  0.7818608E-02  0.1300282E+00
          2   -1    0    0  501    0  0.00000000000E+00  0.00000000000E+00  0.23201427362E+03  0.23201427363E+03  0.25500000000E-02 0. -1.
         -2   -1    0    0    0  501 -0.00000000000E+00 -0.00000000000E+00 -0.89365935341E+01  0.89365938979E+01  0.25500000000E-02 0.  1.
         23    2    1    2    0    0  0.22204460493E-15  0.00000000000E+00  0.22307768009E+03  0.24095086753E+03  0.91069584450E+02 0.  0.
    9000005    2    3    3    0    0 -0.16604578312E+01 -0.17713933930E+02  0.22239101226E+03  0.22314603425E+03  0.44552995479E+01 0.  0.
         22    1    3    3    0    0  0.16604578312E+01  0.17713933930E+02  0.68666783060E+00  0.17804833282E+02  0.00000000000E+00 0.  1.
         22    1    4    4    0    0 -0.63631050366E+00 -0.58818621823E+01  0.10175262396E+03  0.10192447045E+03  0.00000000000E+00 0.  1.
         22    1    4    4    0    0 -0.10241473276E+01 -0.11832071748E+02  0.12063838829E+03  0.12122156380E+03  0.00000000000E+00 0.  1.
<mgrwt>
<rscale>  0 0.91069584E+02</rscale>
<asrwt>0</asrwt>
<pdfrwt beam="1">  1        2 0.35694507E-01 0.91069584E+02</pdfrwt>
<pdfrwt beam="2">  1       -2 0.13748605E-02 0.91069584E+02</pdfrwt>
<totfact> 0.16381435E+05</totfact>
</mgrwt>
</event>
<event>
 7    1  0.3891761E-009  0.9768297E+02  0.7818608E-02  0.1285245E+00
          2   -1    0    0  501    0  0.00000000000E+00  0.00000000000E+00  0.62498547095E+03  0.62498547095E+03  0.25500000000E-02 0. -1.
         -2   -1    0    0    0  501 -0.00000000000E+00 -0.00000000000E+00 -0.38168730769E+01  0.38168739287E+01  0.25500000000E-02 0.  1.
         23    2    1    2    0    0  0.00000000000E+00  0.00000000000E+00  0.62116859787E+03  0.62880234488E+03  0.97682966519E+02 0.  0.
    9000005    2    3    3    0    0 -0.39743417386E+02  0.50874892310E+01  0.48488743365E+03  0.48675313689E+03  0.14400388173E+02 0.  0.
         22    1    3    3    0    0  0.39743417386E+02 -0.50874892310E+01  0.13628116422E+03  0.14204920800E+03  0.00000000000E+00 0.  1.
         22    1    4    4    0    0 -0.11192754788E+01  0.34897469081E+01  0.59529641683E+02  0.59642345276E+02  0.00000000000E+00 0.  1.
         22    1    4    4    0    0 -0.38624141907E+02  0.15977423229E+01  0.42535779197E+03  0.42711079161E+03  0.00000000000E+00 0.  1.
<mgrwt>
<rscale>  0 0.97682967E+02</rscale>
<asrwt>0</asrwt>
<pdfrwt beam="1">  1        2 0.96151658E-01 0.97682967E+02</pdfrwt>
<pdfrwt beam="2">  1       -2 0.58721102E-03 0.97682967E+02</pdfrwt>
<totfact> 0.19197048E+05</totfact>
</mgrwt>
</event>
<event>
 7    1  0.3891761E-009  0.9252686E+02  0.7818608E-02  0.1296845E+00
         -2   -1    0    0    0  501 -0.00000000000E+00  0.00000000000E+00  0.66466428393E+01  0.66466433285E+01  0.25500000000E-02 0.  1.
          2   -1    0    0  501    0  0.00000000000E+00 -0.00000000000E+00 -0.32201292045E+03  0.32201292046E+03  0.25500000000E-02 0. -1.
         23    2    1    2    0    0  0.00000000000E+00  0.00000000000E+00 -0.31536627761E+03  0.32865956379E+03  0.92526859969E+02 0.  0.
    9000005    2    3    3    0    0  0.38996695827E+02 -0.14997159175E+02 -0.97458863087E+02  0.10678279986E+03  0.12596796507E+02 0.  0.
         22    1    3    3    0    0 -0.38996695827E+02  0.14997159175E+02 -0.21790741453E+03  0.22187676394E+03  0.00000000000E+00 0. -1.
         22    1    4    4    0    0  0.10450499243E+02  0.24118242919E+00 -0.33677077741E+02  0.35262113785E+02  0.00000000000E+00 0. -1.
         22    1    4    4    0    0  0.28546196583E+02 -0.15238341604E+02 -0.63781785346E+02  0.71520686072E+02  0.00000000000E+00 0. -1.
<mgrwt>
<rscale>  0 0.92526860E+02</rscale>
<asrwt>0</asrwt>
<pdfrwt beam="2">  1        2 0.49540437E-01 0.92526860E+02</pdfrwt>
<pdfrwt beam="1">  1       -2 0.10225607E-02 0.92526860E+02</pdfrwt>
<totfact> 0.17735372E+05</totfact>
</mgrwt>
</event>
<event>
 7    1  0.3891761E-009  0.8969859E+02  0.7818608E-02  0.1303583E+00
          2   -1    0    0  501    0  0.00000000000E+00  0.00000000000E+00  0.38798835820E+03  0.38798835821E+03  0.25500000000E-02 0. -1.
         -2   -1    0    0    0  501 -0.00000000000E+00 -0.00000000000E+00 -0.51843285026E+01  0.51843291297E+01  0.25500000000E-02 0.  1.
         23    2    1    2    0    0  0.00000000000E+00  0.00000000000E+00  0.38280402970E+03  0.39317268734E+03  0.89698589265E+02 0.  0.
    9000005    2    3    3    0    0 -0.39799800685E+02 -0.14884449073E+02  0.15083906215E+03  0.15734792797E+03  0.14155451576E+02 0.  0.
         22    1    3    3    0    0  0.39799800685E+02  0.14884449073E+02  0.23196496755E+03  0.23582475936E+03  0.00000000000E+00 0. -1.
         22    1    4    4    0    0 -0.79026988230E+01 -0.47132088642E+01  0.16421707389E+02  0.18823906610E+02  0.00000000000E+00 0. -1.
         22    1    4    4    0    0 -0.31897101862E+02 -0.10171240209E+02  0.13441735476E+03  0.13852402136E+03  0.00000000000E+00 0. -1.
<mgrwt>
<rscale>  0 0.89698589E+02</rscale>
<asrwt>0</asrwt>
<pdfrwt beam="1">  1        2 0.59690519E-01 0.89698589E+02</pdfrwt>
<pdfrwt beam="2">  1       -2 0.79758902E-03 0.89698589E+02</pdfrwt>
<totfact> 0.20620140E+05</totfact>
</mgrwt>
</event>
<event>
 7    1  0.3891761E-009  0.8735828E+02  0.7818608E-02  0.1309378E+00
         -2   -1    0    0    0  501 -0.00000000000E+00  0.00000000000E+00  0.37792389365E+01  0.37792397967E+01  0.25500000000E-02 0.  1.
          2   -1    0    0  501    0  0.00000000000E+00 -0.00000000000E+00 -0.50482834826E+03  0.50482834827E+03  0.25500000000E-02 0. -1.
         23    2    1    2    0    0  0.00000000000E+00 -0.44408920985E-15 -0.50104910932E+03  0.50860758806E+03  0.87358277693E+02 0.  0.
    9000005    2    3    3    0    0  0.29187097321E+02  0.15155367672E+01 -0.43637704096E+03  0.43763815853E+03  0.15749680108E+02 0.  0.
         22    1    3    3    0    0 -0.29187097321E+02 -0.15155367672E+01 -0.64672068360E+02  0.70969429529E+02  0.00000000000E+00 0.  1.
         22    1    4    4    0    0  0.19823857497E+02 -0.20713901133E+01 -0.18691947273E+03  0.18797916179E+03  0.00000000000E+00 0. -1.
         22    1    4    4    0    0  0.93632398232E+01  0.35869268806E+01 -0.24945756824E+03  0.24965899674E+03  0.00000000000E+00 0. -1.
<mgrwt>
<rscale>  0 0.87358278E+02</rscale>
<asrwt>0</asrwt>
<pdfrwt beam="2">  1        2 0.77665846E-01 0.87358278E+02</pdfrwt>
<pdfrwt beam="1">  1       -2 0.58142184E-03 0.87358278E+02</pdfrwt>
<totfact> 0.24201157E+05</totfact>
</mgrwt>
</event>
<event>
 7    1  0.3891761E-009  0.7960999E+02  0.7818608E-02  0.1330162E+00
          2   -1    0    0  501    0  0.00000000000E+00  0.00000000000E+00  0.85384732631E+02  0.85384732669E+02  0.25500000000E-02 0. -1.
         -2   -1    0    0    0  501 -0.00000000000E+00 -0.00000000000E+00 -0.18556451884E+02  0.18556452059E+02  0.25500000000E-02 0.  1.
         23    2    1    2    0    0  0.88817841970E-15  0.00000000000E+00  0.66828280746E+02  0.10394118473E+03  0.79609991679E+02 0.  0.
    9000005    2    3    3    0    0  0.41789728807E+01 -0.21866335760E+02 -0.94015354916E+01  0.24527172504E+02  0.41943852382E+01 0.  0.
         22    1    3    3    0    0 -0.41789728807E+01  0.21866335760E+02  0.76229816238E+02  0.79414012224E+02  0.00000000000E+00 0. -1.
         22    1    4    4    0    0  0.10142950923E+01 -0.40374303152E+01 -0.36264656079E+01  0.55209501800E+01  0.00000000000E+00 0. -1.
         22    1    4    4    0    0  0.31646777885E+01 -0.17828905444E+02 -0.57750698837E+01  0.19006222324E+02  0.00000000000E+00 0. -1.
<mgrwt>
<rscale>  0 0.79609992E+02</rscale>
<asrwt>0</asrwt>
<pdfrwt beam="1">  1        2 0.13136113E-01 0.79609992E+02</pdfrwt>
<pdfrwt beam="2">  1       -2 0.28548387E-02 0.79609992E+02</pdfrwt>
<totfact> 0.16975380E+05</totfact>
</mgrwt>
</event>
<event>
 7    1  0.3891761E-009  0.5484749E+02  0.7818608E-02  0.1420822E+00
          2   -1    0    0  501    0  0.00000000000E+00  0.00000000000E+00  0.41593690303E+02  0.41593690381E+02  0.25500000000E-02 0. -1.
         -2   -1    0    0    0  501 -0.00000000000E+00 -0.00000000000E+00 -0.18081148464E+02  0.18081148644E+02  0.25500000000E-02 0.  1.
         23    2    1    2    0    0  0.00000000000E+00  0.00000000000E+00  0.23512541839E+02  0.59674839025E+02  0.54847486624E+02 0.  0.
    9000005    2    3    3    0    0 -0.26683319708E+02  0.44638228017E+01  0.15247288634E+02  0.31386331196E+02  0.45493637635E+01 0.  0.
         22    1    3    3    0    0  0.26683319708E+02 -0.44638228017E+01  0.82652532056E+01  0.28288507829E+02  0.00000000000E+00 0. -1.
         22    1    4    4    0    0 -0.97614868888E+01 -0.54408549712E+00  0.50312242934E+01  0.10995265945E+02  0.00000000000E+00 0.  1.
         22    1    4    4    0    0 -0.16921832819E+02  0.50079082988E+01  0.10216064340E+02  0.20391065251E+02  0.00000000000E+00 0.  1.
<mgrwt>
<rscale>  0 0.54847487E+02</rscale>
<asrwt>0</asrwt>
<pdfrwt beam="1">  1        2 0.63990292E-02 0.54847487E+02</pdfrwt>
<pdfrwt beam="2">  1       -2 0.27817152E-02 0.54847487E+02</pdfrwt>
<totfact> 0.38964979E+05</totfact>
</mgrwt>
</event>
<event>
 7    1  0.3891761E-009  0.8483971E+02  0.7818608E-02  0.1315852E+00
         -2   -1    0    0    0  501 -0.00000000000E+00  0.00000000000E+00  0.83487952642E+02  0.83487952681E+02  0.25500000000E-02 0. -1.
          2   -1    0    0  501    0  0.00000000000E+00 -0.00000000000E+00 -0.21553338776E+02  0.21553338927E+02  0.25500000000E-02 0.  1.
         23    2    1    2    0    0  0.00000000000E+00  0.00000000000E+00  0.61934613865E+02  0.10504129161E+03  0.84839710914E+02 0.  0.
    9000005    2    3    3    0    0 -0.26568270405E+02  0.10630290631E+02  0.69458732031E+02  0.75452637948E+02  0.70504642954E+01 0.  0.
         22    1    3    3    0    0  0.26568270405E+02 -0.10630290631E+02 -0.75241181660E+01  0.29588653660E+02  0.00000000000E+00 0.  1.
         22    1    4    4    0    0 -0.57258954782E+01 -0.33051561333E+00  0.10486206082E+02  0.11952223123E+02  0.00000000000E+00 0. -1.
         22    1    4    4    0    0 -0.20842374927E+02  0.10960806244E+02  0.58972525950E+02  0.63500414825E+02  0.00000000000E+00 0. -1.
<mgrwt>
<rscale>  0 0.84839711E+02</rscale>
<asrwt>0</asrwt>
<pdfrwt beam="2">  1        2 0.33158983E-02 0.84839711E+02</pdfrwt>
<pdfrwt beam="1">  1       -2 0.12844300E-01 0.84839711E+02</pdfrwt>
<totfact> 0.10040760E+05</totfact>
</mgrwt>
</event>
<event>
 7    1  0.3891761E-009  0.9018100E+02  0.7818608E-02  0.1302414E+00
          2   -1    0    0  501    0  0.00000000000E+00  0.00000000000E+00  0.52240773741E+03  0.52240773742E+03  0.25500000000E-02 0.  1.
         -2   -1    0    0    0  501 -0.00000000000E+00 -0.00000000000E+00 -0.38918890358E+01  0.38918898712E+01  0.25500000000E-02 0. -1.
         23    2    1    2    0    0  0.00000000000E+00  0.00000000000E+00  0.51851584838E+03  0.52629962729E+03  0.90180999482E+02 0.  0.
    9000005    2    3    3    0    0 -0.38266257366E+02  0.14895672739E+02  0.36072662128E+03  0.36325476319E+03  0.12005838843E+02 0.  0.
         22    1    3    3    0    0  0.38266257366E+02 -0.14895672739E+02  0.15778922710E+03  0.16304486409E+03  0.00000000000E+00 0. -1.
         22    1    4    4    0    0 -0.24271093465E+02  0.62190888292E+01  0.25837847429E+03  0.25959044477E+03  0.00000000000E+00 0. -1.
         22    1    4    4    0    0 -0.13995163902E+02  0.86765839102E+01  0.10234814699E+03  0.10366431842E+03  0.00000000000E+00 0. -1.
<mgrwt>
<rscale>  0 0.90180999E+02</rscale>
<asrwt>0</asrwt>
<pdfrwt beam="1">  1        2 0.80370378E-01 0.90180999E+02</pdfrwt>
<pdfrwt beam="2">  1       -2 0.59875255E-03 0.90180999E+02</pdfrwt>
<totfact> 0.22498392E+05</totfact>
</mgrwt>
</event>
<event>
 7    1  0.3891761E-009  0.9602927E+02  0.7818608E-02  0.1288875E+00
          2   -1    0    0  501    0  0.00000000000E+00  0.00000000000E+00  0.69125163318E+02  0.69125163365E+02  0.25500000000E-02 0. -1.
         -2   -1    0    0    0  501 -0.00000000000E+00 -0.00000000000E+00 -0.33351170719E+02  0.33351170816E+02  0.25500000000E-02 0.  1.
         23    2    1    2    0    0 -0.35527136788E-14  0.00000000000E+00  0.35773992599E+02  0.10247633418E+03  0.96029269083E+02 0.  0.
    9000005    2    3    3    0    0 -0.31919765074E+02  0.35052772406E+02  0.17581062937E+02  0.51696899905E+02  0.10766031306E+02 0.  0.
         22    1    3    3    0    0  0.31919765074E+02 -0.35052772406E+02  0.18192929662E+02  0.50779434276E+02  0.00000000000E+00 0.  1.
         22    1    4    4    0    0 -0.22856838765E+02  0.21591981148E+02  0.16306118038E+02  0.35419460946E+02  0.00000000000E+00 0. -1.
         22    1    4    4    0    0 -0.90629263092E+01  0.13460791258E+02  0.12749448989E+01  0.16277438959E+02  0.00000000000E+00 0. -1.
<mgrwt>
<rscale>  0 0.96029269E+02</rscale>
<asrwt>0</asrwt>
<pdfrwt beam="1">  1        2 0.10634640E-01 0.96029269E+02</pdfrwt>
<pdfrwt beam="2">  1       -2 0.51309495E-02 0.96029269E+02</pdfrwt>
<totfact> 0.95267993E+04</totfact>
</mgrwt>
</event>
<event>
 7    1  0.3891761E-009  0.9135682E+02  0.7818608E-02  0.1299599E+00
          2   -1    0    0  501    0  0.00000000000E+00  0.00000000000E+00  0.21854723626E+03  0.21854723627E+03  0.25500000000E-02 0.  1.
         -2   -1    0    0    0  501 -0.00000000000E+00 -0.00000000000E+00 -0.95472125693E+01  0.95472129098E+01  0.25500000000E-02 0. -1.
         23    2    1    2    0    0  0.00000000000E+00  0.00000000000E+00  0.20900002369E+03  0.22809444918E+03  0.91356816090E+02 0.  0.
    9000005    2    3    3    0    0 -0.66634215590E+01  0.34676057497E+02  0.17655358982E+03  0.18014029169E+03  0.57030219713E+01 0.  0.
         22    1    3    3    0    0  0.66634215590E+01 -0.34676057497E+02  0.32446433865E+02  0.47954157494E+02  0.00000000000E+00 0. -1.
         22    1    4    4    0    0 -0.72926770357E+01  0.29955978334E+02  0.14620186862E+03  0.14941730209E+03  0.00000000000E+00 0. -1.
         22    1    4    4    0    0  0.62925547663E+00  0.47200791632E+01  0.30351721207E+02  0.30722989601E+02  0.00000000000E+00 0. -1.
<mgrwt>
<rscale>  0 0.91356816E+02</rscale>
<asrwt>0</asrwt>
<pdfrwt beam="1">  1        2 0.33622651E-01 0.91356816E+02</pdfrwt>
<pdfrwt beam="2">  1       -2 0.14688020E-02 0.91356816E+02</pdfrwt>
<totfact> 0.15890749E+05</totfact>
</mgrwt>
</event>
<event>
 7    1  0.4072314E-009  0.9060208E+02  0.7818608E-02  0.1301400E+00
         -2   -1    0    0    0  501 -0.00000000000E+00  0.00000000000E+00  0.20982756614E+03  0.20982756615E+03  0.25500000000E-02 0.  1.
          2   -1    0    0  501    0  0.00000000000E+00 -0.00000000000E+00 -0.97803369928E+01  0.97803373252E+01  0.25500000000E-02 0. -1.
         23    2    1    2    0    0  0.00000000000E+00  0.00000000000E+00  0.20004722914E+03  0.21960790348E+03  0.90602082656E+02 0.  0.
    9000005    2    3    3    0    0 -0.11696861586E+02  0.19007237850E+02  0.19504939588E+03  0.19673717986E+03  0.12773388102E+02 0.  0.
         22    1    3    3    0    0  0.11696861586E+02 -0.19007237850E+02  0.49978332673E+01  0.22870723623E+02  0.00000000000E+00 0. -1.
         22    1    4    4    0    0 -0.10608547840E+02  0.51614802806E+01  0.94241774600E+02  0.94977335432E+02  0.00000000000E+00 0.  1.
         22    1    4    4    0    0 -0.10883137460E+01  0.13845757570E+02  0.10080762128E+03  0.10175984442E+03  0.00000000000E+00 0.  1.
<mgrwt>
<rscale>  0 0.90602083E+02</rscale>
<asrwt>0</asrwt>
<pdfrwt beam="2">  1        2 0.15046675E-02 0.90602083E+02</pdfrwt>
<pdfrwt beam="1">  1       -2 0.32281160E-01 0.90602083E+02</pdfrwt>
<totfact> 0.62013097E+04</totfact>
</mgrwt>
</event>
<event>
 7    1  0.3891761E-009  0.8694163E+02  0.7818608E-02  0.1310432E+00
         -2   -1    0    0    0  501 -0.00000000000E+00  0.00000000000E+00  0.73413135611E+02  0.73413135656E+02  0.25500000000E-02 0.  1.
          2   -1    0    0  501    0  0.00000000000E+00 -0.00000000000E+00 -0.25740785360E+02  0.25740785486E+02  0.25500000000E-02 0. -1.
         23    2    1    2    0    0  0.00000000000E+00  0.17763568394E-14  0.47672350251E+02  0.99153921142E+02  0.86941630416E+02 0.  0.
    9000005    2    3    3    0    0  0.30104653651E+02  0.10179961750E+02  0.55993863958E+02  0.66303207557E+02  0.15839215217E+02 0.  0.
         22    1    3    3    0    0 -0.30104653651E+02 -0.10179961750E+02 -0.83215137065E+01  0.32850713585E+02  0.00000000000E+00 0. -1.
         22    1    4    4    0    0  0.30770949593E+02  0.11658294539E+02  0.48321726550E+02  0.58461580779E+02  0.00000000000E+00 0. -1.
         22    1    4    4    0    0 -0.66629594179E+00 -0.14783327884E+01  0.76721374082E+01  0.78416267780E+01  0.00000000000E+00 0. -1.
<mgrwt>
<rscale>  0 0.86941630E+02</rscale>
<asrwt>0</asrwt>
<pdfrwt beam="2">  1        2 0.39601209E-02 0.86941630E+02</pdfrwt>
<pdfrwt beam="1">  1       -2 0.11294328E-01 0.86941630E+02</pdfrwt>
<totfact> 0.97834985E+04</totfact>
</mgrwt>
</event>
<event>
 7    1  0.3891761E-009  0.9090367E+02  0.7818608E-02  0.1300678E+00
          2   -1    0    0  501    0  0.00000000000E+00  0.00000000000E+00  0.21130887230E+03  0.21130887232E+03  0.25500000000E-02 0. -1.
         -2   -1    0    0    0  501 -0.00000000000E+00 -0.00000000000E+00 -0.97765384698E+01  0.97765388023E+01  0.25500000000E-02 0.  1.
         23    2    1    2    0    0  0.00000000000E+00 -0.35527136788E-14  0.20153233384E+03  0.22108541112E+03  0.90903671159E+02 0.  0.
    9000005    2    3    3    0    0 -0.35470235608E+02 -0.26463313265E+02  0.82381863965E+02  0.93981992469E+02  0.93487344096E+01 0.  0.
         22    1    3    3    0    0  0.35470235608E+02  0.26463313265E+02  0.11915046987E+03  0.12710341865E+03  0.00000000000E+00 0. -1.
         22    1    4    4    0    0 -0.53330372092E+01 -0.43951862567E+01  0.21209126934E+02  0.22306636084E+02  0.00000000000E+00 0.  1.
         22    1    4    4    0    0 -0.30137198399E+02 -0.22068127009E+02  0.61172737031E+02  0.71675356385E+02  0.00000000000E+00 0.  1.
<mgrwt>
<rscale>  0 0.90903671E+02</rscale>
<asrwt>0</asrwt>
<pdfrwt beam="1">  1        2 0.32509056E-01 0.90903671E+02</pdfrwt>
<pdfrwt beam="2">  1       -2 0.15040829E-02 0.90903671E+02</pdfrwt>
<totfact> 0.15907752E+05</totfact>
</mgrwt>
</event>
<event>
 7    1  0.3891761E-009  0.9310036E+02  0.7818608E-02  0.1295513E+00
         -2   -1    0    0    0  501 -0.00000000000E+00  0.00000000000E+00  0.16598535935E+02  0.16598536131E+02  0.25500000000E-02 0.  1.
          2   -1    0    0  501    0  0.00000000000E+00 -0.00000000000E+00 -0.13054881159E+03  0.13054881162E+03  0.25500000000E-02 0. -1.
         23    2    1    2    0    0  0.00000000000E+00 -0.33306690739E-15 -0.11395027566E+03  0.14714734775E+03  0.93100357825E+02 0.  0.
    9000005    2    3    3    0    0 -0.35522869931E+02 -0.64558293398E+00 -0.10286565187E+03  0.10992961071E+03  0.15520499737E+02 0.  0.
         22    1    3    3    0    0  0.35522869931E+02  0.64558293398E+00 -0.11084623791E+02  0.37217737036E+02  0.00000000000E+00 0.  1.
         22    1    4    4    0    0 -0.28686600968E+02 -0.47133404121E+01 -0.91857381013E+02  0.96347885807E+02  0.00000000000E+00 0.  1.
         22    1    4    4    0    0 -0.68362689633E+01  0.40677574781E+01 -0.11008270856E+02  0.13581724908E+02  0.00000000000E+00 0.  1.
<mgrwt>
<rscale>  0 0.93100358E+02</rscale>
<asrwt>0</asrwt>
<pdfrwt beam="2">  1        2 0.20084432E-01 0.93100358E+02</pdfrwt>
<pdfrwt beam="1">  1       -2 0.25536210E-02 0.93100358E+02</pdfrwt>
<totfact> 0.12606500E+05</totfact>
</mgrwt>
</event>
<event>
 7    1  0.3891761E-009  0.9459722E+02  0.7818608E-02  0.1292086E+00
         -2   -1    0    0    0  501 -0.00000000000E+00  0.00000000000E+00  0.61146670191E+01  0.61146675508E+01  0.25500000000E-02 0.  1.
          2   -1    0    0  501    0  0.00000000000E+00 -0.00000000000E+00 -0.36586757276E+03  0.36586757277E+03  0.25500000000E-02 0. -1.
         23    2    1    2    0    0  0.00000000000E+00  0.71054273576E-14 -0.35975290574E+03  0.37198224032E+03  0.94597219432E+02 0.  0.
    9000005    2    3    3    0    0 -0.81382239148E+01  0.36202841135E+02 -0.29185889362E+03  0.29460993728E+03  0.15379368273E+02 0.  0.
         22    1    3    3    0    0  0.81382239148E+01 -0.36202841135E+02 -0.67894012122E+02  0.77372303033E+02  0.00000000000E+00 0.  1.
         22    1    4    4    0    0  0.33260181369E+00  0.59610961691E+00 -0.27179182166E+00  0.73473902588E+00  0.00000000000E+00 0. -1.
         22    1    4    4    0    0 -0.84708257285E+01  0.35606731518E+02 -0.29158710179E+03  0.29387519826E+03  0.00000000000E+00 0. -1.
<mgrwt>
<rscale>  0 0.94597219E+02</rscale>
<asrwt>0</asrwt>
<pdfrwt beam="2">  1        2 0.56287302E-01 0.94597219E+02</pdfrwt>
<pdfrwt beam="1">  1       -2 0.94071833E-03 0.94597219E+02</pdfrwt>
<totfact> 0.17522519E+05</totfact>
</mgrwt>
</event>
<event>
 7    1  0.3891761E-009  0.9009184E+02  0.7818608E-02  0.1302629E+00
         -2   -1    0    0    0  501 -0.00000000000E+00  0.00000000000E+00  0.51201869597E+02  0.51201869661E+02  0.25500000000E-02 0.  1.
          2   -1    0    0  501    0  0.00000000000E+00 -0.00000000000E+00 -0.39630094953E+02  0.39630095035E+02  0.25500000000E-02 0. -1.
         23    2    1    2    0    0  0.88817841970E-15 -0.17763568394E-14  0.11571774644E+02  0.90831964696E+02  0.90091841151E+02 0.  0.
    9000005    2    3    3    0    0  0.59659937091E+01 -0.13532144591E+02  0.48439701341E+02  0.51108469921E+02  0.68526647048E+01 0.  0.
         22    1    3    3    0    0 -0.59659937091E+01  0.13532144591E+02 -0.36867926697E+02  0.39723494774E+02  0.00000000000E+00 0. -1.
         22    1    4    4    0    0  0.12741601058E+01 -0.47438712246E+01  0.74359777854E+01  0.89118776807E+01  0.00000000000E+00 0. -1.
         22    1    4    4    0    0  0.46918336033E+01 -0.87882733664E+01  0.41003723555E+02  0.42196592241E+02  0.00000000000E+00 0. -1.
<mgrwt>
<rscale>  0 0.90091841E+02</rscale>
<asrwt>0</asrwt>
<pdfrwt beam="2">  1        2 0.60969377E-02 0.90091841E+02</pdfrwt>
<pdfrwt beam="1">  1       -2 0.78772107E-02 0.90091841E+02</pdfrwt>
<totfact> 0.98512492E+04</totfact>
</mgrwt>
</event>
<event>
 7    1  0.3891761E-009  0.9196680E+02  0.7818608E-02  0.1298158E+00
         -2   -1    0    0    0  501 -0.00000000000E+00  0.00000000000E+00  0.75093764869E+02  0.75093764912E+02  0.25500000000E-02 0. -1.
          2   -1    0    0  501    0  0.00000000000E+00 -0.00000000000E+00 -0.28157769457E+02  0.28157769573E+02  0.25500000000E-02 0.  1.
         23    2    1    2    0    0 -0.71054273576E-14 -0.35527136788E-14  0.46935995411E+02  0.10325153448E+03  0.91966796771E+02 0.  0.
    9000005    2    3    3    0    0  0.33084905482E+02  0.31185244227E+02  0.21999176854E+02  0.51396203535E+02  0.95118624542E+01 0.  0.
         22    1    3    3    0    0 -0.33084905482E+02 -0.31185244227E+02  0.24936818557E+02  0.51855330950E+02  0.00000000000E+00 0. -1.
         22    1    4    4    0    0  0.20425108712E+02  0.24810817775E+02  0.17074928932E+02  0.36391138242E+02  0.00000000000E+00 0. -1.
         22    1    4    4    0    0  0.12659796769E+02  0.63744264519E+01  0.49242479223E+01  0.15005065292E+02  0.00000000000E+00 0. -1.
<mgrwt>
<rscale>  0 0.91966797E+02</rscale>
<asrwt>0</asrwt>
<pdfrwt beam="2">  1        2 0.43319646E-02 0.91966797E+02</pdfrwt>
<pdfrwt beam="1">  1       -2 0.11552887E-01 0.91966797E+02</pdfrwt>
<totfact> 0.84756482E+04</totfact>
</mgrwt>
</event>
<event>
 7    1  0.3891761E-009  0.9096071E+02  0.7818608E-02  0.1300542E+00
          2   -1    0    0  501    0  0.00000000000E+00  0.00000000000E+00  0.82152280964E+02  0.82152281003E+02  0.25500000000E-02 0. -1.
         -2   -1    0    0    0  501 -0.00000000000E+00 -0.00000000000E+00 -0.25178398440E+02  0.25178398569E+02  0.25500000000E-02 0.  1.
         23    2    1    2    0    0  0.00000000000E+00  0.00000000000E+00  0.56973882523E+02  0.10733067957E+03  0.90960713980E+02 0.  0.
    9000005    2    3    3    0    0  0.38800793229E+02  0.20672505847E+02  0.20393707977E+02  0.50138344221E+02  0.12848975950E+02 0.  0.
         22    1    3    3    0    0 -0.38800793229E+02 -0.20672505847E+02  0.36580174546E+02  0.57192335352E+02  0.00000000000E+00 0. -1.
         22    1    4    4    0    0  0.62760085244E+01 -0.10765642258E+01  0.92079592658E+00  0.64339053979E+01  0.00000000000E+00 0. -1.
         22    1    4    4    0    0  0.32524784705E+02  0.21749070072E+02  0.19472912051E+02  0.43704438823E+02  0.00000000000E+00 0. -1.
<mgrwt>
<rscale>  0 0.90960714E+02</rscale>
<asrwt>0</asrwt>
<pdfrwt beam="1">  1        2 0.12638813E-01 0.90960714E+02</pdfrwt>
<pdfrwt beam="2">  1       -2 0.38735997E-02 0.90960714E+02</pdfrwt>
<totfact> 0.11649935E+05</totfact>
</mgrwt>
</event>
<event>
 7    1  0.3891761E-009  0.8736163E+02  0.7818608E-02  0.1309370E+00
         -2   -1    0    0    0  501 -0.00000000000E+00  0.00000000000E+00  0.41833647129E+02  0.41833647207E+02  0.25500000000E-02 0. -1.
          2   -1    0    0  501    0  0.00000000000E+00 -0.00000000000E+00 -0.45609547471E+02  0.45609547543E+02  0.25500000000E-02 0.  1.
         23    2    1    2    0    0 -0.35527136788E-14 -0.17763568394E-14 -0.37759003421E+01  0.87443194750E+02  0.87361632795E+02 0.  0.
    9000005    2    3    3    0    0 -0.25021033495E+02 -0.15524184258E+02  0.29715646696E+02  0.42847946830E+02  0.92668481690E+01 0.  0.
         22    1    3    3    0    0  0.25021033495E+02  0.15524184258E+02 -0.33491547038E+02  0.44595247920E+02  0.00000000000E+00 0.  1.
         22    1    4    4    0    0 -0.58412946400E+01 -0.85390824968E+01  0.11750594596E+02  0.15656089113E+02  0.00000000000E+00 0. -1.
         22    1    4    4    0    0 -0.19179738855E+02 -0.69851017614E+01  0.17965052099E+02  0.27191857717E+02  0.00000000000E+00 0. -1.
<mgrwt>
<rscale>  0 0.87361633E+02</rscale>
<asrwt>0</asrwt>
<pdfrwt beam="2">  1        2 0.70168535E-02 0.87361633E+02</pdfrwt>
<pdfrwt beam="1">  1       -2 0.64359457E-02 0.87361633E+02</pdfrwt>
<totfact> 0.11149528E+05</totfact>
</mgrwt>
</event>
<event>
 7    1  0.3891761E-009  0.1082679E+03  0.7818608E-02  0.1263811E+00
         -2   -1    0    0    0  501 -0.00000000000E+00  0.00000000000E+00  0.58482517805E+01  0.58482523365E+01  0.25500000000E-02 0.  1.
          2   -1    0    0  501    0  0.00000000000E+00 -0.00000000000E+00 -0.50108719565E+03  0.50108719566E+03  0.25500000000E-02 0. -1.
         23    2    1    2    0    0  0.00000000000E+00  0.00000000000E+00 -0.49523894387E+03  0.50693544799E+03  0.10826789416E+03 0.  0.
    9000005    2    3    3    0    0 -0.53072726981E+01 -0.41346792730E+02 -0.40676623252E+03  0.40913388836E+03  0.13930049379E+02 0.  0.
         22    1    3    3    0    0  0.53072726981E+01  0.41346792730E+02 -0.88472711350E+02  0.97801559630E+02  0.00000000000E+00 0.  1.
         22    1    4    4    0    0 -0.53395449896E+01 -0.39764074169E+02 -0.40364606855E+03  0.40563510818E+03  0.00000000000E+00 0.  1.
         22    1    4    4    0    0  0.32272291498E-01 -0.15827185616E+01 -0.31201639747E+01  0.34987801839E+01  0.00000000000E+00 0.  1.
<mgrwt>
<rscale>  0 0.10826789E+03</rscale>
<asrwt>0</asrwt>
<pdfrwt beam="2">  1        2 0.77090304E-01 0.10826789E+03</pdfrwt>
<pdfrwt beam="1">  1       -2 0.89973149E-03 0.10826789E+03</pdfrwt>
<totfact> 0.13629497E+05</totfact>
</mgrwt>
</event>
<event>
 7    1  0.3891761E-009  0.9020325E+02  0.7818608E-02  0.1302360E+00
          2   -1    0    0  501    0  0.00000000000E+00  0.00000000000E+00  0.32619022135E+03  0.32619022136E+03  0.25500000000E-02 0. -1.
         -2   -1    0    0    0  501 -0.00000000000E+00 -0.00000000000E+00 -0.62361057115E+01  0.62361062329E+01  0.25500000000E-02 0.  1.
         23    2    1    2    0    0  0.00000000000E+00  0.17763568394E-14  0.31995411564E+03  0.33242632759E+03  0.90203254724E+02 0.  0.
    9000005    2    3    3    0    0 -0.38316460842E+02 -0.14034908981E+02  0.93979461319E+02  0.10279689952E+03  0.83626287635E+01 0.  0.
         22    1    3    3    0    0  0.38316460842E+02  0.14034908981E+02  0.22597465432E+03  0.22962942807E+03  0.00000000000E+00 0. -1.
         22    1    4    4    0    0 -0.16483893820E+02 -0.67160725890E+01  0.31094348543E+02  0.35828520732E+02  0.00000000000E+00 0.  1.
         22    1    4    4    0    0 -0.21832567022E+02 -0.73188363920E+01  0.62885112776E+02  0.66968378790E+02  0.00000000000E+00 0.  1.
<mgrwt>
<rscale>  0 0.90203255E+02</rscale>
<asrwt>0</asrwt>
<pdfrwt beam="1">  1        2 0.50183109E-01 0.90203255E+02</pdfrwt>
<pdfrwt beam="2">  1       -2 0.95940096E-03 0.90203255E+02</pdfrwt>
<totfact> 0.19070090E+05</totfact>
</mgrwt>
</event>
<event>
 7    1  0.3891761E-009  0.9218115E+02  0.7818608E-02  0.1297654E+00
          2   -1    0    0  501    0  0.00000000000E+00  0.00000000000E+00  0.67620010136E+03  0.67620010137E+03  0.25500000000E-02 0. -1.
         -2   -1    0    0    0  501 -0.00000000000E+00 -0.00000000000E+00 -0.31415858192E+01  0.31415868541E+01  0.25500000000E-02 0.  1.
         23    2    1    2    0    0  0.00000000000E+00  0.00000000000E+00  0.67305851554E+03  0.67934168822E+03  0.92181147803E+02 0.  0.
    9000005    2    3    3    0    0  0.19507711448E+02  0.10828792726E+02  0.63256922150E+03  0.63311186570E+03  0.13747761603E+02 0.  0.
         22    1    3    3    0    0 -0.19507711448E+02 -0.10828792726E+02  0.40489294049E+02  0.46229822523E+02  0.00000000000E+00 0.  1.
         22    1    4    4    0    0  0.85970656058E+01 -0.24109108558E+01  0.18844994621E+03  0.18866134807E+03  0.00000000000E+00 0. -1.
         22    1    4    4    0    0  0.10910645843E+02  0.13239703582E+02  0.44411927529E+03  0.44445051763E+03  0.00000000000E+00 0. -1.
<mgrwt>
<rscale>  0 0.92181148E+02</rscale>
<asrwt>0</asrwt>
<pdfrwt beam="1">  1        2 0.10403085E+00 0.92181148E+02</pdfrwt>
<pdfrwt beam="2">  1       -2 0.48332067E-03 0.92181148E+02</pdfrwt>
<totfact> 0.22848244E+05</totfact>
</mgrwt>
</event>
<event>
 7    1  0.3891761E-009  0.9101391E+02  0.7818608E-02  0.1300415E+00
         -2   -1    0    0    0  501 -0.00000000000E+00  0.00000000000E+00  0.15958897058E+02  0.15958897262E+02  0.25500000000E-02 0.  1.
          2   -1    0    0  501    0  0.00000000000E+00 -0.00000000000E+00 -0.12976353155E+03  0.12976353157E+03  0.25500000000E-02 0. -1.
         23    2    1    2    0    0  0.35527136788E-14  0.00000000000E+00 -0.11380463449E+03  0.14572242883E+03  0.91013907915E+02 0.  0.
    9000005    2    3    3    0    0  0.25701918908E+02  0.18334509631E+02 -0.10935949125E+03  0.11383979755E+03  0.18050762755E+01 0.  0.
         22    1    3    3    0    0 -0.25701918908E+02 -0.18334509631E+02 -0.44451432341E+01  0.31882631281E+02  0.00000000000E+00 0.  1.
         22    1    4    4    0    0  0.15851877742E+02  0.12194463136E+02 -0.70933965155E+02  0.73699486916E+02  0.00000000000E+00 0. -1.
         22    1    4    4    0    0  0.98500411664E+01  0.61400464950E+01 -0.38425526099E+02  0.40140310636E+02  0.00000000000E+00 0. -1.
<mgrwt>
<rscale>  0 0.91013908E+02</rscale>
<asrwt>0</asrwt>
<pdfrwt beam="2">  1        2 0.19963620E-01 0.91013908E+02</pdfrwt>
<pdfrwt beam="1">  1       -2 0.24552150E-02 0.91013908E+02</pdfrwt>
<totfact> 0.13385263E+05</totfact>
</mgrwt>
</event>
<event>
 7    1  0.3891761E-009  0.9559812E+02  0.7818608E-02  0.1289835E+00
         -2   -1    0    0    0  501 -0.00000000000E+00  0.00000000000E+00  0.44795842031E+02  0.44795842104E+02  0.25500000000E-02 0.  1.
          2   -1    0    0  501    0  0.00000000000E+00 -0.00000000000E+00 -0.51003625090E+02  0.51003625154E+02  0.25500000000E-02 0. -1.
         23    2    1    2    0    0 -0.35527136788E-14  0.00000000000E+00 -0.62077830588E+01  0.95799467257E+02  0.95598124230E+02 0.  0.
    9000005    2    3    3    0    0 -0.30734273986E+02 -0.27829701795E+02  0.20130978448E+02  0.46679020831E+02  0.73882875577E+01 0.  0.
         22    1    3    3    0    0  0.30734273986E+02  0.27829701795E+02 -0.26338761506E+02  0.49120446426E+02  0.00000000000E+00 0. -1.
         22    1    4    4    0    0 -0.16078699293E+02 -0.16282653143E+02  0.72418860826E+01  0.24001964052E+02  0.00000000000E+00 0.  1.
         22    1    4    4    0    0 -0.14655574692E+02 -0.11547048652E+02  0.12889092365E+02  0.22677056778E+02  0.00000000000E+00 0.  1.
<mgrwt>
<rscale>  0 0.95598124E+02</rscale>
<asrwt>0</asrwt>
<pdfrwt beam="2">  1        2 0.78467116E-02 0.95598124E+02</pdfrwt>
<pdfrwt beam="1">  1       -2 0.68916680E-02 0.95598124E+02</pdfrwt>
<totfact> 0.88717059E+04</totfact>
</mgrwt>
</event>
<event>
 7    1  0.3891761E-009  0.9317516E+02  0.7818608E-02  0.1295340E+00
          2   -1    0    0  501    0  0.00000000000E+00  0.00000000000E+00  0.42836902860E+03  0.42836902861E+03  0.25500000000E-02 0. -1.
         -2   -1    0    0    0  501 -0.00000000000E+00 -0.00000000000E+00 -0.50666652562E+01  0.50666658979E+01  0.25500000000E-02 0.  1.
         23    2    1    2    0    0 -0.35527136788E-14  0.00000000000E+00  0.42330236334E+03  0.43343569451E+03  0.93175160096E+02 0.  0.
    9000005    2    3    3    0    0 -0.22116673288E+02 -0.38487531530E+02  0.16386888211E+03  0.17023203095E+03  0.12469824336E+02 0.  0.
         22    1    3    3    0    0  0.22116673288E+02  0.38487531530E+02  0.25943348124E+03  0.26320366355E+03  0.00000000000E+00 0. -1.
         22    1    4    4    0    0 -0.13492640801E+02 -0.33347224537E+02  0.12341742990E+03  0.12855329923E+03  0.00000000000E+00 0. -1.
         22    1    4    4    0    0 -0.86240324869E+01 -0.51403069922E+01  0.40451452210E+02  0.41678731725E+02  0.00000000000E+00 0. -1.
<mgrwt>
<rscale>  0 0.93175160E+02</rscale>
<asrwt>0</asrwt>
<pdfrwt beam="1">  1        2 0.65902914E-01 0.93175160E+02</pdfrwt>
<pdfrwt beam="2">  1       -2 0.77948717E-03 0.93175160E+02</pdfrwt>
<totfact> 0.19307538E+05</totfact>
</mgrwt>
</event>
<event>
 7    1  0.3891761E-009  0.9606059E+02  0.7818608E-02  0.1288805E+00
          2   -1    0    0  501    0  0.00000000000E+00  0.00000000000E+00  0.49279431261E+03  0.49279431262E+03  0.25500000000E-02 0. -1.
         -2   -1    0    0    0  501 -0.00000000000E+00 -0.00000000000E+00 -0.46812822444E+01  0.46812829389E+01  0.25500000000E-02 0.  1.
         23    2    1    2    0    0  0.00000000000E+00  0.00000000000E+00  0.48811303037E+03  0.49747559556E+03  0.96060594213E+02 0.  0.
    9000005    2    3    3    0    0 -0.46024183572E+02  0.10951038127E+02  0.24449697569E+03  0.24930844865E+03  0.11738003882E+02 0.  0.
         22    1    3    3    0    0  0.46024183572E+02 -0.10951038127E+02  0.24361605467E+03  0.24816714690E+03  0.00000000000E+00 0.  1.
         22    1    4    4    0    0 -0.18177643241E+02 -0.85811434574E+00  0.78866108099E+02  0.80938409181E+02  0.00000000000E+00 0. -1.
         22    1    4    4    0    0 -0.27846540331E+02  0.11809152472E+02  0.16563086760E+03  0.16837003947E+03  0.00000000000E+00 0. -1.
<mgrwt>
<rscale>  0 0.96060594E+02</rscale>
<asrwt>0</asrwt>
<pdfrwt beam="1">  1        2 0.75814495E-01 0.96060594E+02</pdfrwt>
<pdfrwt beam="2">  1       -2 0.72019747E-03 0.96060594E+02</pdfrwt>
<totfact> 0.18672900E+05</totfact>
</mgrwt>
</event>
<event>
 7    1  0.3891761E-009  0.9174075E+02  0.7818608E-02  0.1298690E+00
         -2   -1    0    0    0  501 -0.00000000000E+00  0.00000000000E+00  0.79229976289E+01  0.79229980393E+01  0.25500000000E-02 0.  1.
          2   -1    0    0  501    0  0.00000000000E+00 -0.00000000000E+00 -0.26556759746E+03  0.26556759747E+03  0.25500000000E-02 0. -1.
         23    2    1    2    0    0  0.00000000000E+00  0.00000000000E+00 -0.25764459983E+03  0.27349059551E+03  0.91740754364E+02 0.  0.
    9000005    2    3    3    0    0 -0.87095816002E+01  0.14277418318E+02 -0.25593848315E+03  0.25667951822E+03  0.10008318207E+02 0.  0.
         22    1    3    3    0    0  0.87095816002E+01 -0.14277418318E+02 -0.17061166828E+01  0.16811077289E+02  0.00000000000E+00 0.  1.
         22    1    4    4    0    0  0.88441220898E+00  0.72999108872E+00 -0.67901397658E+02  0.67911080656E+02  0.00000000000E+00 0.  1.
         22    1    4    4    0    0 -0.95939938091E+01  0.13547427229E+02 -0.18803708549E+03  0.18876843757E+03  0.00000000000E+00 0.  1.
<mgrwt>
<rscale>  0 0.91740754E+02</rscale>
<asrwt>0</asrwt>
<pdfrwt beam="2">  1        2 0.40856547E-01 0.91740754E+02</pdfrwt>
<pdfrwt beam="1">  1       -2 0.12189229E-02 0.91740754E+02</pdfrwt>
<totfact> 0.16886220E+05</totfact>
</mgrwt>
</event>
<event>
 7    1  0.3891761E-009  0.9040087E+02  0.7818608E-02  0.1301884E+00
         -2   -1    0    0    0  501 -0.00000000000E+00  0.00000000000E+00  0.74592582871E+02  0.74592582914E+02  0.25500000000E-02 0.  1.
          2   -1    0    0  501    0  0.00000000000E+00 -0.00000000000E+00 -0.27389844112E+02  0.27389844231E+02  0.25500000000E-02 0. -1.
         23    2    1    2    0    0  0.00000000000E+00  0.00000000000E+00  0.47202738758E+02  0.10198242715E+03  0.90400867807E+02 0.  0.
    9000005    2    3    3    0    0 -0.22004652979E+02 -0.38440268179E+02  0.28308843750E+02  0.53828110216E+02  0.11585156216E+02 0.  0.
         22    1    3    3    0    0  0.22004652979E+02  0.38440268179E+02  0.18893895008E+02  0.48154316930E+02  0.00000000000E+00 0.  1.
         22    1    4    4    0    0 -0.17781996532E+02 -0.27302967198E+02  0.14707333425E+02  0.35748525493E+02  0.00000000000E+00 0.  1.
         22    1    4    4    0    0 -0.42226564473E+01 -0.11137300981E+02  0.13601510326E+02  0.18079584723E+02  0.00000000000E+00 0.  1.
<mgrwt>
<rscale>  0 0.90400868E+02</rscale>
<asrwt>0</asrwt>
<pdfrwt beam="2">  1        2 0.42138223E-02 0.90400868E+02</pdfrwt>
<pdfrwt beam="1">  1       -2 0.11475782E-01 0.90400868E+02</pdfrwt>
<totfact> 0.88555093E+04</totfact>
</mgrwt>
</event>
<event>
 7    1  0.3891761E-009  0.9055557E+02  0.7818608E-02  0.1301512E+00
         -2   -1    0    0    0  501 -0.00000000000E+00  0.00000000000E+00  0.17726991323E+01  0.17727009663E+01  0.25500000000E-02 0. -1.
          2   -1    0    0  501    0  0.00000000000E+00 -0.00000000000E+00 -0.11564718588E+04  0.11564718588E+04  0.25500000000E-02 0.  1.
         23    2    1    2    0    0 -0.35527136788E-14  0.00000000000E+00 -0.11546991596E+04  0.11582445597E+04  0.90555568008E+02 0.  0.
    9000005    2    3    3    0    0 -0.27733206105E+02  0.68965672226E+01 -0.10211125868E+04  0.10216353880E+04  0.15851111518E+02 0.  0.
         22    1    3    3    0    0  0.27733206105E+02 -0.68965672226E+01 -0.13358657286E+03  0.13660917176E+03  0.00000000000E+00 0. -1.
         22    1    4    4    0    0 -0.11160084380E+02  0.37951650904E+01 -0.19828702439E+03  0.19863709322E+03  0.00000000000E+00 0.  1.
         22    1    4    4    0    0 -0.16573121725E+02  0.31014021321E+01 -0.82282556238E+03  0.82299829475E+03  0.00000000000E+00 0.  1.
<mgrwt>
<rscale>  0 0.90555568E+02</rscale>
<asrwt>0</asrwt>
<pdfrwt beam="2">  1        2 0.17791814E+00 0.90555568E+02</pdfrwt>
<pdfrwt beam="1">  1       -2 0.27272401E-03 0.90555568E+02</pdfrwt>
<totfact> 0.25406438E+05</totfact>
</mgrwt>
</event>
<event>
 7    1  0.3891761E-009  0.9047825E+02  0.7818608E-02  0.1301698E+00
         -2   -1    0    0    0  501 -0.00000000000E+00  0.00000000000E+00  0.20530076720E+02  0.20530076878E+02  0.25500000000E-02 0.  1.
          2   -1    0    0  501    0  0.00000000000E+00 -0.00000000000E+00 -0.99686828156E+02  0.99686828189E+02  0.25500000000E-02 0. -1.
         23    2    1    2    0    0  0.00000000000E+00  0.71054273576E-14 -0.79156751437E+02  0.12021690507E+03  0.90478245815E+02 0.  0.
    9000005    2    3    3    0    0 -0.16125135639E+02  0.35412177275E+02 -0.89451343051E+01  0.39944160757E+02  0.12158339306E+01 0.  0.
         22    1    3    3    0    0  0.16125135639E+02 -0.35412177275E+02 -0.70211617132E+02  0.80272744310E+02  0.00000000000E+00 0. -1.
         22    1    4    4    0    0 -0.94174772108E+01  0.22104906647E+02 -0.55582471574E+01  0.24661911652E+02  0.00000000000E+00 0.  1.
         22    1    4    4    0    0 -0.67076584286E+01  0.13307270628E+02 -0.33868871477E+01  0.15282249105E+02  0.00000000000E+00 0.  1.
<mgrwt>
<rscale>  0 0.90478246E+02</rscale>
<asrwt>0</asrwt>
<pdfrwt beam="2">  1        2 0.15336435E-01 0.90478246E+02</pdfrwt>
<pdfrwt beam="1">  1       -2 0.31584734E-02 0.90478246E+02</pdfrwt>
<totfact> 0.12517927E+05</totfact>
</mgrwt>
</event>
<event>
 7    1  0.3891761E-009  0.8887239E+02  0.7818608E-02  0.1305606E+00
          2   -1    0    0  501    0  0.00000000000E+00  0.00000000000E+00  0.19706192352E+03  0.19706192353E+03  0.25500000000E-02 0. -1.
         -2   -1    0    0    0  501 -0.00000000000E+00 -0.00000000000E+00 -0.10020074786E+02  0.10020075111E+02  0.25500000000E-02 0.  1.
         23    2    1    2    0    0 -0.88817841970E-15  0.00000000000E+00  0.18704184873E+03  0.20708199864E+03  0.88872385958E+02 0.  0.
    9000005    2    3    3    0    0 -0.72411122036E+01  0.42844214244E+02  0.97979494151E+02  0.10798526104E+03  0.13144387698E+02 0.  0.
         22    1    3    3    0    0  0.72411122036E+01 -0.42844214244E+02  0.89062354579E+02  0.99096737602E+02  0.00000000000E+00 0.  1.
         22    1    4    4    0    0  0.34987435665E+01  0.10889401694E+02  0.29989192157E+02  0.32096291406E+02  0.00000000000E+00 0. -1.
         22    1    4    4    0    0 -0.10739855770E+02  0.31954812550E+02  0.67990301994E+02  0.75888969636E+02  0.00000000000E+00 0. -1.
<mgrwt>
<rscale>  0 0.88872386E+02</rscale>
<asrwt>0</asrwt>
<pdfrwt beam="1">  1        2 0.30317216E-01 0.88872386E+02</pdfrwt>
<pdfrwt beam="2">  1       -2 0.15415502E-02 0.88872386E+02</pdfrwt>
<totfact> 0.16481236E+05</totfact>
</mgrwt>
</event>
<event>
 7    1  0.3891761E-009  0.9125808E+02  0.7818608E-02  0.1299833E+00
         -2   -1    0    0    0  501 -0.00000000000E+00  0.00000000000E+00  0.48698968193E+01  0.48698974869E+01  0.25500000000E-02 0.  1.
          2   -1    0    0  501    0  0.00000000000E+00 -0.00000000000E+00 -0.42752629015E+03  0.42752629016E+03  0.25500000000E-02 0. -1.
         23    2    1    2    0    0  0.71054273576E-14 -0.35527136788E-14 -0.42265639333E+03  0.43239618765E+03  0.91258075074E+02 0.  0.
    9000005    2    3    3    0    0  0.33296741515E+02 -0.29611119517E+02 -0.19983685341E+03  0.20516494252E+03  0.13129899473E+02 0.  0.
         22    1    3    3    0    0 -0.33296741515E+02  0.29611119517E+02 -0.22281953992E+03  0.22723124513E+03  0.00000000000E+00 0. -1.
         22    1    4    4    0    0  0.53337686537E+01 -0.31626615627E-01 -0.33379355991E+02  0.33802832643E+02  0.00000000000E+00 0. -1.
         22    1    4    4    0    0  0.27962972861E+02 -0.29579492901E+02 -0.16645749742E+03  0.17136210987E+03  0.00000000000E+00 0. -1.
<mgrwt>
<rscale>  0 0.91258075E+02</rscale>
<asrwt>0</asrwt>
<pdfrwt beam="2">  1        2 0.65773246E-01 0.91258075E+02</pdfrwt>
<pdfrwt beam="1">  1       -2 0.74921528E-03 0.91258075E+02</pdfrwt>
<totfact> 0.20389847E+05</totfact>
</mgrwt>
</event>
<event>
 7    1  0.3891761E-009  0.9076693E+02  0.7818608E-02  0.1301005E+00
          2   -1    0    0  501    0  0.00000000000E+00  0.00000000000E+00  0.16278005645E+04  0.16278005645E+04  0.25500000000E-02 0. -1.
         -2   -1    0    0    0  501 -0.00000000000E+00 -0.00000000000E+00 -0.12653005056E+01  0.12653030752E+01  0.25500000000E-02 0.  1.
         23    2    1    2    0    0  0.35527136788E-14  0.00000000000E+00  0.16265352640E+04  0.16290658676E+04  0.90766931686E+02 0.  0.
    9000005    2    3    3    0    0 -0.24593427890E+02 -0.30893359990E+01  0.14944707453E+04  0.14946954177E+04  0.75632370806E+01 0.  0.
         22    1    3    3    0    0  0.24593427890E+02  0.30893359990E+01  0.13206451872E+03  0.13437044987E+03  0.00000000000E+00 0.  1.
         22    1    4    4    0    0 -0.10026937373E+02  0.96082076948E+00  0.77773360579E+03  0.77779883274E+03  0.00000000000E+00 0. -1.
         22    1    4    4    0    0 -0.14566490517E+02 -0.40501567685E+01  0.71673713947E+03  0.71689658495E+03  0.00000000000E+00 0. -1.
<mgrwt>
<rscale>  0 0.90766932E+02</rscale>
<asrwt>0</asrwt>
<pdfrwt beam="1">  1        2 0.25042996E+00 0.90766932E+02</pdfrwt>
<pdfrwt beam="2">  1       -2 0.19466251E-03 0.90766932E+02</pdfrwt>
<totfact> 0.23032663E+05</totfact>
</mgrwt>
</event>
<event>
 7    1  0.4472402E-009  0.9059999E+02  0.7818608E-02  0.1301405E+00
         -2   -1    0    0    0  501 -0.00000000000E+00  0.00000000000E+00  0.27081426848E+01  0.27081438853E+01  0.25500000000E-02 0.  1.
          2   -1    0    0  501    0  0.00000000000E+00 -0.00000000000E+00 -0.75774780105E+03  0.75774780106E+03  0.25500000000E-02 0. -1.
         23    2    1    2    0    0  0.71054273576E-14 -0.11102230246E-15 -0.75503965837E+03  0.76045594494E+03  0.90599991665E+02 0.  0.
    9000005    2    3    3    0    0  0.35031543414E+02  0.93897817806E+00 -0.61121082997E+03  0.61241938664E+03  0.15834637757E+02 0.  0.
         22    1    3    3    0    0 -0.35031543414E+02 -0.93897817806E+00 -0.14382882840E+03  0.14803655830E+03  0.00000000000E+00 0.  1.
         22    1    4    4    0    0  0.21824544712E+01 -0.34047631049E+01 -0.13325968076E+03  0.13332103373E+03  0.00000000000E+00 0. -1.
         22    1    4    4    0    0  0.32849088943E+02  0.43437412830E+01 -0.47795114921E+03  0.47909835291E+03  0.00000000000E+00 0. -1.
<mgrwt>
<rscale>  0 0.90599992E+02</rscale>
<asrwt>0</asrwt>
<pdfrwt beam="2">  1        2 0.11657642E+00 0.90599992E+02</pdfrwt>
<pdfrwt beam="1">  1       -2 0.41663803E-03 0.90599992E+02</pdfrwt>
<totfact> 0.24533001E+05</totfact>
</mgrwt>
</event>
<event>
 7    1  0.3891761E-009  0.9260165E+02  0.7818608E-02  0.1296671E+00
         -2   -1    0    0    0  501 -0.00000000000E+00  0.00000000000E+00  0.68974158723E+01  0.68974163437E+01  0.25500000000E-02 0.  1.
          2   -1    0    0  501    0  0.00000000000E+00 -0.00000000000E+00 -0.31080716516E+03  0.31080716517E+03  0.25500000000E-02 0. -1.
         23    2    1    2    0    0  0.00000000000E+00  0.00000000000E+00 -0.30390974929E+03  0.31770458151E+03  0.92601649030E+02 0.  0.
    9000005    2    3    3    0    0 -0.42510313607E+02 -0.11618920985E+02 -0.11834795300E+03  0.12698146722E+03  0.13263821019E+02 0.  0.
         22    1    3    3    0    0  0.42510313607E+02  0.11618920985E+02 -0.18556179628E+03  0.19072311430E+03  0.00000000000E+00 0.  1.
         22    1    4    4    0    0 -0.20955697583E+02 -0.37823405001E+01 -0.39608285518E+02  0.44969585750E+02  0.00000000000E+00 0.  1.
         22    1    4    4    0    0 -0.21554616024E+02 -0.78365804853E+01 -0.78739667486E+02  0.82011881465E+02  0.00000000000E+00 0.  1.
<mgrwt>
<rscale>  0 0.92601649E+02</rscale>
<asrwt>0</asrwt>
<pdfrwt beam="2">  1        2 0.47816476E-01 0.92601649E+02</pdfrwt>
<pdfrwt beam="1">  1       -2 0.10611412E-02 0.92601649E+02</pdfrwt>
<totfact> 0.17465700E+05</totfact>
</mgrwt>
</event>
<event>
 7    1  0.3891761E-009  0.9168329E+02  0.7818608E-02  0.1298826E+00
          2   -1    0    0  501    0  0.00000000000E+00  0.00000000000E+00  0.26066593841E+03  0.26066593843E+03  0.25500000000E-02 0. -1.
         -2   -1    0    0    0  501 -0.00000000000E+00 -0.00000000000E+00 -0.80618753981E+01  0.80618758014E+01  0.25500000000E-02 0.  1.
         23    2    1    2    0    0  0.71054273576E-14  0.00000000000E+00  0.25260406301E+03  0.26872781423E+03  0.91683289031E+02 0.  0.
    9000005    2    3    3    0    0  0.44151616423E+02  0.60996982465E+01  0.13961706041E+03  0.14726739141E+03  0.14428772154E+02 0.  0.
         22    1    3    3    0    0 -0.44151616423E+02 -0.60996982465E+01  0.11298700261E+03  0.12146042281E+03  0.00000000000E+00 0.  1.
         22    1    4    4    0    0 -0.61068741683E+00 -0.10905323266E+01  0.71156231913E+01  0.72245618052E+01  0.00000000000E+00 0. -1.
         22    1    4    4    0    0  0.44762303840E+02  0.71902305732E+01  0.13250143721E+03  0.14004282961E+03  0.00000000000E+00 0. -1.
<mgrwt>
<rscale>  0 0.91683289E+02</rscale>
<asrwt>0</asrwt>
<pdfrwt beam="1">  1        2 0.40102455E-01 0.91683289E+02</pdfrwt>
<pdfrwt beam="2">  1       -2 0.12402885E-02 0.91683289E+02</pdfrwt>
<totfact> 0.16797375E+05</totfact>
</mgrwt>
</event>
<event>
 7    1  0.3891761E-009  0.8629003E+02  0.7818608E-02  0.1312093E+00
         -2   -1    0    0    0  501 -0.00000000000E+00  0.00000000000E+00  0.93514112304E+01  0.93514115781E+01  0.25500000000E-02 0. -1.
          2   -1    0    0  501    0  0.00000000000E+00 -0.00000000000E+00 -0.19906004901E+03  0.19906004903E+03  0.25500000000E-02 0.  1.
         23    2    1    2    0    0  0.00000000000E+00  0.00000000000E+00 -0.18970863778E+03  0.20841146061E+03  0.86290032235E+02 0.  0.
    9000005    2    3    3    0    0 -0.12254780130E+02  0.25229478083E+01 -0.19419386738E+03  0.19512002779E+03  0.14283634499E+02 0.  0.
         22    1    3    3    0    0  0.12254780130E+02 -0.25229478083E+01  0.44852296020E+01  0.13291432814E+02  0.00000000000E+00 0. -1.
         22    1    4    4    0    0 -0.86680727987E+01  0.36971650079E+00 -0.18239940661E+03  0.18260562891E+03  0.00000000000E+00 0. -1.
         22    1    4    4    0    0 -0.35867073312E+01  0.21532313075E+01 -0.11794460770E+02  0.12514398883E+02  0.00000000000E+00 0. -1.
<mgrwt>
<rscale>  0 0.86290032E+02</rscale>
<asrwt>0</asrwt>
<pdfrwt beam="2">  1        2 0.30624620E-01 0.86290032E+02</pdfrwt>
<pdfrwt beam="1">  1       -2 0.14386788E-02 0.86290032E+02</pdfrwt>
<totfact> 0.17900318E+05</totfact>
</mgrwt>
</event>
<event>
 7    1  0.3891761E-009  0.9223082E+02  0.7818608E-02  0.1297538E+00
          2   -1    0    0  501    0  0.00000000000E+00  0.00000000000E+00  0.42239342207E+02  0.42239342284E+02  0.25500000000E-02 0. -1.
         -2   -1    0    0    0  501 -0.00000000000E+00 -0.00000000000E+00 -0.50347162873E+02  0.50347162938E+02  0.25500000000E-02 0.  1.
         23    2    1    2    0    0 -0.35527136788E-14  0.00000000000E+00 -0.81078206661E+01  0.92586505221E+02  0.92230820191E+02 0.  0.
    9000005    2    3    3    0    0 -0.21881434898E+02  0.23718584608E+02  0.27192758989E+02  0.44758695602E+02  0.14917313481E+02 0.  0.
         22    1    3    3    0    0  0.21881434898E+02 -0.23718584608E+02 -0.35300579655E+02  0.47827809620E+02  0.00000000000E+00 0.  1.
         22    1    4    4    0    0 -0.95556844795E+01  0.47632943549E+01  0.16725690421E+02  0.19843104571E+02  0.00000000000E+00 0. -1.
         22    1    4    4    0    0 -0.12325750419E+02  0.18955290253E+02  0.10467068569E+02  0.24915591030E+02  0.00000000000E+00 0. -1.
<mgrwt>
<rscale>  0 0.92230820E+02</rscale>
<asrwt>0</asrwt>
<pdfrwt beam="1">  1        2 0.64983603E-02 0.92230820E+02</pdfrwt>
<pdfrwt beam="2">  1       -2 0.77457174E-02 0.92230820E+02</pdfrwt>
<totfact> 0.93580600E+04</totfact>
</mgrwt>
</event>
<event>
 7    1  0.3891761E-009  0.9163230E+02  0.7818608E-02  0.1298946E+00
          2   -1    0    0  501    0  0.00000000000E+00  0.00000000000E+00  0.23971766375E+03  0.23971766376E+03  0.25500000000E-02 0. -1.
         -2   -1    0    0    0  501 -0.00000000000E+00 -0.00000000000E+00 -0.87566331353E+01  0.87566335065E+01  0.25500000000E-02 0.  1.
         23    2    1    2    0    0  0.00000000000E+00 -0.35527136788E-14  0.23096103061E+03  0.24847429727E+03  0.91632301844E+02 0.  0.
    9000005    2    3    3    0    0  0.33467481767E+02 -0.20588744146E+02  0.17866484880E+03  0.18306130656E+03  0.68077192086E+01 0.  0.
         22    1    3    3    0    0 -0.33467481767E+02  0.20588744146E+02  0.52296181809E+02  0.65412990706E+02  0.00000000000E+00 0.  1.
         22    1    4    4    0    0  0.78915584234E+01 -0.19504082884E+01  0.42095831906E+02  0.42873533219E+02  0.00000000000E+00 0.  1.
         22    1    4    4    0    0  0.25575923343E+02 -0.18638335857E+02  0.13656901690E+03  0.14018777334E+03  0.00000000000E+00 0.  1.
<mgrwt>
<rscale>  0 0.91632302E+02</rscale>
<asrwt>0</asrwt>
<pdfrwt beam="1">  1        2 0.36879638E-01 0.91632302E+02</pdfrwt>
<pdfrwt beam="2">  1       -2 0.13471744E-02 0.91632302E+02</pdfrwt>
<totfact> 0.16307999E+05</totfact>
</mgrwt>
</event>
<event>
 7    1  0.3891761E-009  0.9078736E+02  0.7818608E-02  0.1300956E+00
         -2   -1    0    0    0  501 -0.00000000000E+00  0.00000000000E+00  0.18542967685E+02  0.18542967861E+02  0.25500000000E-02 0. -1.
          2   -1    0    0  501    0  0.00000000000E+00 -0.00000000000E+00 -0.11112493735E+03  0.11112493738E+03  0.25500000000E-02 0.  1.
         23    2    1    2    0    0 -0.71054273576E-14  0.00000000000E+00 -0.92581969666E+02  0.12966790524E+03  0.90787358935E+02 0.  0.
    9000005    2    3    3    0    0  0.41385133897E+02  0.17982579608E+02 -0.41669986115E+02  0.61637525658E+02  0.51666574701E+01 0.  0.
         22    1    3    3    0    0 -0.41385133897E+02 -0.17982579608E+02 -0.50911983551E+02  0.68030379582E+02  0.00000000000E+00 0. -1.
         22    1    4    4    0    0  0.16684877386E+02  0.10037108566E+02 -0.17913483210E+02  0.26457920600E+02  0.00000000000E+00 0. -1.
         22    1    4    4    0    0  0.24700256511E+02  0.79454710418E+01 -0.23756502905E+02  0.35179605058E+02  0.00000000000E+00 0. -1.
<mgrwt>
<rscale>  0 0.90787359E+02</rscale>
<asrwt>0</asrwt>
<pdfrwt beam="2">  1        2 0.17096144E-01 0.90787359E+02</pdfrwt>
<pdfrwt beam="1">  1       -2 0.28527643E-02 0.90787359E+02</pdfrwt>
<totfact> 0.12823636E+05</totfact>
</mgrwt>
</event>
<event>
 7    1  0.3891761E-009  0.9746921E+02  0.7818608E-02  0.1285710E+00
          2   -1    0    0  501    0  0.00000000000E+00  0.00000000000E+00  0.24750201938E+01  0.24750215075E+01  0.25500000000E-02 0. -1.
         -2   -1    0    0    0  501 -0.00000000000E+00 -0.00000000000E+00 -0.95961278664E+03  0.95961278664E+03  0.25500000000E-02 0.  1.
         23    2    1    2    0    0  0.00000000000E+00 -0.35527136788E-14 -0.95713776644E+03  0.96208780815E+03  0.97469208650E+02 0.  0.
    9000005    2    3    3    0    0 -0.19035941191E+02  0.16910252264E+02 -0.88778788142E+03  0.88821135560E+03  0.10186566036E+02 0.  0.
         22    1    3    3    0    0  0.19035941191E+02 -0.16910252264E+02 -0.69349885022E+02  0.73876452550E+02  0.00000000000E+00 0. -1.
         22    1    4    4    0    0 -0.13230748948E+02  0.11554012424E+02 -0.74347510153E+03  0.74368257645E+03  0.00000000000E+00 0. -1.
         22    1    4    4    0    0 -0.58051922428E+01  0.53562398406E+01 -0.14431277990E+03  0.14452877915E+03  0.00000000000E+00 0. -1.
<mgrwt>
<rscale>  0 0.97469209E+02</rscale>
<asrwt>0</asrwt>
<pdfrwt beam="1">  1        2 0.38077321E-03 0.97469209E+02</pdfrwt>
<pdfrwt beam="2">  1       -2 0.14763244E+00 0.97469209E+02</pdfrwt>
<totfact> 0.16466242E+04</totfact>
</mgrwt>
</event>
<event>
 7    1  0.3891761E-009  0.9432470E+02  0.7818608E-02  0.1292704E+00
          2   -1    0    0  501    0  0.00000000000E+00  0.00000000000E+00  0.11628045471E+03  0.11628045474E+03  0.25500000000E-02 0. -1.
         -2   -1    0    0    0  501 -0.00000000000E+00 -0.00000000000E+00 -0.19128644021E+02  0.19128644191E+02  0.25500000000E-02 0.  1.
         23    2    1    2    0    0  0.00000000000E+00  0.00000000000E+00  0.97151810687E+02  0.13540909893E+03  0.94324703830E+02 0.  0.
    9000005    2    3    3    0    0  0.37401072399E+02  0.11463958179E+02  0.15058620942E+02  0.44472008826E+02  0.14857151498E+02 0.  0.
         22    1    3    3    0    0 -0.37401072399E+02 -0.11463958179E+02  0.82093189745E+02  0.90937090102E+02  0.00000000000E+00 0. -1.
         22    1    4    4    0    0  0.33454378745E+02  0.50824044678E+01  0.14882930745E+02  0.36966578418E+02  0.00000000000E+00 0. -1.
         22    1    4    4    0    0  0.39466936537E+01  0.63815537108E+01  0.17569019745E+00  0.75054304077E+01  0.00000000000E+00 0. -1.
<mgrwt>
<rscale>  0 0.94324704E+02</rscale>
<asrwt>0</asrwt>
<pdfrwt beam="1">  1        2 0.17889301E-01 0.94324704E+02</pdfrwt>
<pdfrwt beam="2">  1       -2 0.29428683E-02 0.94324704E+02</pdfrwt>
<totfact> 0.11712599E+05</totfact>
</mgrwt>
</event>
<event>
 7    1  0.3891761E-009  0.9083951E+02  0.7818608E-02  0.1300831E+00
          2   -1    0    0  501    0  0.00000000000E+00  0.00000000000E+00  0.16309030394E+03  0.16309030396E+03  0.25500000000E-02 0. -1.
         -2   -1    0    0    0  501 -0.00000000000E+00 -0.00000000000E+00 -0.12649151199E+02  0.12649151457E+02  0.25500000000E-02 0.  1.
         23    2    1    2    0    0  0.00000000000E+00  0.35527136788E-14  0.15044115274E+03  0.17573945541E+03  0.90839505459E+02 0.  0.
    9000005    2    3    3    0    0 -0.23284383060E+02  0.30330756011E+02  0.12113349603E+03  0.12756211638E+03  0.11689842621E+02 0.  0.
         22    1    3    3    0    0  0.23284383060E+02 -0.30330756011E+02  0.29307656712E+02  0.48177339036E+02  0.00000000000E+00 0. -1.
         22    1    4    4    0    0  0.13568896309E+01  0.18477683722E+01  0.58863062305E+01  0.63169611735E+01  0.00000000000E+00 0. -1.
         22    1    4    4    0    0 -0.24641272690E+02  0.28482987639E+02  0.11524718979E+03  0.12124515520E+03  0.00000000000E+00 0. -1.
<mgrwt>
<rscale>  0 0.90839505E+02</rscale>
<asrwt>0</asrwt>
<pdfrwt beam="1">  1        2 0.25090816E-01 0.90839505E+02</pdfrwt>
<pdfrwt beam="2">  1       -2 0.19460233E-02 0.90839505E+02</pdfrwt>
<totfact> 0.14533564E+05</totfact>
</mgrwt>
</event>
<event>
 7    1  0.3891761E-009  0.9105856E+02  0.7818608E-02  0.1300308E+00
          2   -1    0    0  501    0  0.00000000000E+00  0.00000000000E+00  0.24835365491E+03  0.24835365492E+03  0.25500000000E-02 0. -1.
         -2   -1    0    0    0  501 -0.00000000000E+00 -0.00000000000E+00 -0.83466273767E+01  0.83466277663E+01  0.25500000000E-02 0.  1.
         23    2    1    2    0    0  0.00000000000E+00 -0.35527136788E-14  0.24000702753E+03  0.25670028269E+03  0.91058562845E+02 0.  0.
    9000005    2    3    3    0    0 -0.17282054949E+02 -0.30969423201E+02  0.41912305361E+02  0.55455919913E+02  0.78066072049E+01 0.  0.
         22    1    3    3    0    0  0.17282054949E+02  0.30969423201E+02  0.19809472217E+03  0.20124436277E+03  0.00000000000E+00 0. -1.
         22    1    4    4    0    0 -0.13987443237E+02 -0.29614658646E+02  0.37756684156E+02  0.49982434649E+02  0.00000000000E+00 0. -1.
         22    1    4    4    0    0 -0.32946117120E+01 -0.13547645556E+01  0.41556212043E+01  0.54734852633E+01  0.00000000000E+00 0. -1.
<mgrwt>
<rscale>  0 0.91058563E+02</rscale>
<asrwt>0</asrwt>
<pdfrwt beam="1">  1        2 0.38208250E-01 0.91058563E+02</pdfrwt>
<pdfrwt beam="2">  1       -2 0.12840967E-02 0.91058563E+02</pdfrwt>
<totfact> 0.16803415E+05</totfact>
</mgrwt>
</event>
<event>
 7    1  0.5577198E-009  0.9304603E+02  0.7818608E-02  0.1295639E+00
         -2   -1    0    0    0  501 -0.00000000000E+00  0.00000000000E+00  0.17405010192E+01  0.17405028872E+01  0.25500000000E-02 0.  1.
          2   -1    0    0  501    0  0.00000000000E+00 -0.00000000000E+00 -0.12435441075E+04  0.12435441075E+04  0.25500000000E-02 0. -1.
         23    2    1    2    0    0 -0.17763568394E-14  0.00000000000E+00 -0.12418036064E+04  0.12452846104E+04  0.93046030569E+02 0.  0.
    9000005    2    3    3    0    0  0.98025581961E+01  0.14208663543E+02 -0.11979990302E+04  0.11982015224E+04  0.13683412124E+02 0.  0.
         22    1    3    3    0    0 -0.98025581961E+01 -0.14208663543E+02 -0.43804576248E+02  0.47083087910E+02  0.00000000000E+00 0.  1.
         22    1    4    4    0    0 -0.33616168049E+01  0.47407196621E+01 -0.31231172581E+03  0.31236579353E+03  0.00000000000E+00 0.  1.
         22    1    4    4    0    0  0.13164175001E+02  0.94679438810E+01 -0.88568730439E+03  0.88583572892E+03  0.00000000000E+00 0.  1.
<mgrwt>
<rscale>  0 0.93046031E+02</rscale>
<asrwt>0</asrwt>
<pdfrwt beam="2">  1        2 0.19131377E+00 0.93046031E+02</pdfrwt>
<pdfrwt beam="1">  1       -2 0.26777053E-03 0.93046031E+02</pdfrwt>
<totfact> 0.23466294E+05</totfact>
</mgrwt>
</event>
<event>
 7    1  0.3891761E-009  0.9231918E+02  0.7818608E-02  0.1297331E+00
          2   -1    0    0  501    0  0.00000000000E+00  0.00000000000E+00  0.24719287579E+02  0.24719287711E+02  0.25500000000E-02 0.  1.
         -2   -1    0    0    0  501 -0.00000000000E+00 -0.00000000000E+00 -0.86196170803E+02  0.86196170841E+02  0.25500000000E-02 0. -1.
         23    2    1    2    0    0  0.00000000000E+00  0.00000000000E+00 -0.61476883224E+02  0.11091545855E+03  0.92319184218E+02 0.  0.
    9000005    2    3    3    0    0  0.19937589410E+02 -0.15235216620E+02  0.14126416312E+02  0.31256948662E+02  0.12158203195E+02 0.  0.
         22    1    3    3    0    0 -0.19937589410E+02  0.15235216620E+02 -0.75603299537E+02  0.79658509889E+02  0.00000000000E+00 0. -1.
         22    1    4    4    0    0  0.19730397791E+02 -0.15892081617E+02  0.10266127614E+02  0.27335695186E+02  0.00000000000E+00 0.  1.
         22    1    4    4    0    0  0.20719161897E+00  0.65686499736E+00  0.38602886984E+01  0.39212534765E+01  0.00000000000E+00 0.  1.
<mgrwt>
<rscale>  0 0.92319184E+02</rscale>
<asrwt>0</asrwt>
<pdfrwt beam="1">  1        2 0.38029674E-02 0.92319184E+02</pdfrwt>
<pdfrwt beam="2">  1       -2 0.13260949E-01 0.92319184E+02</pdfrwt>
<totfact> 0.80800036E+04</totfact>
</mgrwt>
</event>
<event>
 7    1  0.3891761E-009  0.9364100E+02  0.7818608E-02  0.1294267E+00
         -2   -1    0    0    0  501 -0.00000000000E+00  0.00000000000E+00  0.64772397218E+02  0.64772397268E+02  0.25500000000E-02 0.  1.
          2   -1    0    0  501    0  0.00000000000E+00 -0.00000000000E+00 -0.33844036439E+02  0.33844036535E+02  0.25500000000E-02 0. -1.
         23    2    1    2    0    0  0.00000000000E+00  0.00000000000E+00  0.30928360779E+02  0.98616433804E+02  0.93641003389E+02 0.  0.
    9000005    2    3    3    0    0  0.18483988027E+02 -0.33100563368E+02 -0.12640930113E+02  0.40861882316E+02  0.85202818996E+01 0.  0.
         22    1    3    3    0    0 -0.18483988027E+02  0.33100563368E+02  0.43569290892E+02  0.57754551487E+02  0.00000000000E+00 0.  1.
         22    1    4    4    0    0  0.13555357312E+02 -0.25123217354E+02 -0.13235688199E+02  0.31465968985E+02  0.00000000000E+00 0. -1.
         22    1    4    4    0    0  0.49286307149E+01 -0.79773460140E+01  0.59475808533E+00  0.93959133314E+01  0.00000000000E+00 0. -1.
<mgrwt>
<rscale>  0 0.93641003E+02</rscale>
<asrwt>0</asrwt>
<pdfrwt beam="2">  1        2 0.52067748E-02 0.93641003E+02</pdfrwt>
<pdfrwt beam="1">  1       -2 0.99649842E-02 0.93641003E+02</pdfrwt>
<totfact> 0.84425620E+04</totfact>
</mgrwt>
</event>
<event>
 7    1  0.3891761E-009  0.9132455E+02  0.7818608E-02  0.1299675E+00
         -2   -1    0    0    0  501 -0.00000000000E+00  0.00000000000E+00  0.75995048668E+02  0.75995048711E+02  0.25500000000E-02 0.  1.
          2   -1    0    0  501    0  0.00000000000E+00 -0.00000000000E+00 -0.27436567971E+02  0.27436568090E+02  0.25500000000E-02 0. -1.
         23    2    1    2    0    0  0.71054273576E-14  0.00000000000E+00  0.48558480697E+02  0.10343161680E+03  0.91324549308E+02 0.  0.
    9000005    2    3    3    0    0 -0.39468869216E+02 -0.81068830759E+01  0.46651099835E+02  0.63093653390E+02  0.13452538489E+02 0.  0.
         22    1    3    3    0    0  0.39468869216E+02  0.81068830759E+01  0.19073808620E+01  0.40337963411E+02  0.00000000000E+00 0. -1.
         22    1    4    4    0    0 -0.25221607225E+02 -0.45379519263E+01  0.38633855440E+02  0.46360514070E+02  0.00000000000E+00 0.  1.
         22    1    4    4    0    0 -0.14247261991E+02 -0.35689311496E+01  0.80172443956E+01  0.16733139320E+02  0.00000000000E+00 0.  1.
<mgrwt>
<rscale>  0 0.91324549E+02</rscale>
<asrwt>0</asrwt>
<pdfrwt beam="2">  1        2 0.42210105E-02 0.91324549E+02</pdfrwt>
<pdfrwt beam="1">  1       -2 0.11691546E-01 0.91324549E+02</pdfrwt>
<totfact> 0.85944150E+04</totfact>
</mgrwt>
</event>
<event>
 7    1  0.4103418E-009  0.9279328E+02  0.7818608E-02  0.1296225E+00
          2   -1    0    0  501    0  0.00000000000E+00  0.00000000000E+00  0.90836334387E+03  0.90836334387E+03  0.25500000000E-02 0. -1.
         -2   -1    0    0    0  501 -0.00000000000E+00 -0.00000000000E+00 -0.23698089294E+01  0.23698103014E+01  0.25500000000E-02 0.  1.
         23    2    1    2    0    0  0.00000000000E+00  0.00000000000E+00  0.90599353494E+03  0.91073315417E+03  0.92793279709E+02 0.  0.
    9000005    2    3    3    0    0  0.12089263664E+02 -0.94365454428E+01  0.88220024123E+03  0.88242556665E+03  0.12744268023E+02 0.  0.
         22    1    3    3    0    0 -0.12089263664E+02  0.94365454428E+01  0.23793293711E+02  0.28307587524E+02  0.00000000000E+00 0.  1.
         22    1    4    4    0    0  0.11141552058E+02 -0.12386580621E+02  0.69481405112E+03  0.69501376044E+03  0.00000000000E+00 0.  1.
         22    1    4    4    0    0  0.94771160592E+00  0.29500351779E+01  0.18738619010E+03  0.18741180621E+03  0.00000000000E+00 0.  1.
<mgrwt>
<rscale>  0 0.92793280E+02</rscale>
<asrwt>0</asrwt>
<pdfrwt beam="1">  1        2 0.13974834E+00 0.92793280E+02</pdfrwt>
<pdfrwt beam="2">  1       -2 0.36458575E-03 0.92793280E+02</pdfrwt>
<totfact> 0.23695712E+05</totfact>
</mgrwt>
</event>
<event>
 7    1  0.3891761E-009  0.9099998E+02  0.7818608E-02  0.1300448E+00
         -2   -1    0    0    0  501 -0.00000000000E+00  0.00000000000E+00  0.47596022117E+02  0.47596022186E+02  0.25500000000E-02 0.  1.
          2   -1    0    0  501    0  0.00000000000E+00 -0.00000000000E+00 -0.43496258491E+02  0.43496258566E+02  0.25500000000E-02 0. -1.
         23    2    1    2    0    0  0.00000000000E+00  0.00000000000E+00  0.40997636264E+01  0.91092280751E+02  0.90999975553E+02 0.  0.
    9000005    2    3    3    0    0 -0.89012921420E+01 -0.40458724570E+02 -0.15949020511E+02  0.45069513114E+02  0.77941235220E+01 0.  0.
         22    1    3    3    0    0  0.89012921420E+01  0.40458724570E+02  0.20048784137E+02  0.46022767637E+02  0.00000000000E+00 0.  1.
         22    1    4    4    0    0  0.11211978144E+01 -0.22697573765E+01 -0.12622232115E+00  0.25347219101E+01  0.00000000000E+00 0.  1.
         22    1    4    4    0    0 -0.10022489956E+02 -0.38188967193E+02 -0.15822798190E+02  0.42534791204E+02  0.00000000000E+00 0.  1.
<mgrwt>
<rscale>  0 0.90999976E+02</rscale>
<asrwt>0</asrwt>
<pdfrwt beam="2">  1        2 0.66917321E-02 0.90999976E+02</pdfrwt>
<pdfrwt beam="1">  1       -2 0.73224649E-02 0.90999976E+02</pdfrwt>
<totfact> 0.98026735E+04</totfact>
</mgrwt>
</event>
<event>
 7    1  0.4907906E-009  0.9011043E+02  0.7818608E-02  0.1302585E+00
         -2   -1    0    0    0  501 -0.00000000000E+00  0.00000000000E+00  0.20726418999E+01  0.20726434685E+01  0.25500000000E-02 0.  1.
          2   -1    0    0  501    0  0.00000000000E+00 -0.00000000000E+00 -0.97941255508E+03  0.97941255509E+03  0.25500000000E-02 0. -1.
         23    2    1    2    0    0  0.00000000000E+00  0.00000000000E+00 -0.97733991318E+03  0.98148519856E+03  0.90110427152E+02 0.  0.
    9000005    2    3    3    0    0  0.21034095417E+02  0.19305092024E+02 -0.86439909982E+03  0.86499164907E+03  0.14478585787E+02 0.  0.
         22    1    3    3    0    0 -0.21034095417E+02 -0.19305092024E+02 -0.11294081337E+03  0.11649354949E+03  0.00000000000E+00 0.  1.
         22    1    4    4    0    0  0.19790647091E+02  0.18889904190E+02 -0.63532072678E+03  0.63590952507E+03  0.00000000000E+00 0. -1.
         22    1    4    4    0    0  0.12434483262E+01  0.41518783343E+00 -0.22907837304E+03  0.22908212400E+03  0.00000000000E+00 0. -1.
<mgrwt>
<rscale>  0 0.90110427E+02</rscale>
<asrwt>0</asrwt>
<pdfrwt beam="2">  1        2 0.15067849E+00 0.90110427E+02</pdfrwt>
<pdfrwt beam="1">  1       -2 0.31886889E-03 0.90110427E+02</pdfrwt>
<totfact> 0.25760292E+05</totfact>
</mgrwt>
</event>
<event>
 7    1  0.3891761E-009  0.9255404E+02  0.7818608E-02  0.1296782E+00
          2   -1    0    0  501    0  0.00000000000E+00  0.00000000000E+00  0.15912982443E+04  0.15912982443E+04  0.25500000000E-02 0. -1.
         -2   -1    0    0    0  501 -0.00000000000E+00 -0.00000000000E+00 -0.13457947379E+01  0.13457971538E+01  0.25500000000E-02 0.  1.
         23    2    1    2    0    0  0.00000000000E+00 -0.35527136788E-14  0.15899524496E+04  0.15926440415E+04  0.92554043221E+02 0.  0.
    9000005    2    3    3    0    0  0.20458598173E+02 -0.17919646153E+02  0.14369925132E+04  0.14372850697E+04  0.10060853848E+02 0.  0.
         22    1    3    3    0    0 -0.20458598173E+02  0.17919646153E+02  0.15295993643E+03  0.15535897177E+03  0.00000000000E+00 0.  1.
         22    1    4    4    0    0  0.20216897698E+02 -0.18561585187E+02  0.12945294024E+04  0.12948203076E+04  0.00000000000E+00 0.  1.
         22    1    4    4    0    0  0.24170047512E+00  0.64193903417E+00  0.14246311080E+03  0.14246476211E+03  0.00000000000E+00 0.  1.
<mgrwt>
<rscale>  0 0.92554043E+02</rscale>
<asrwt>0</asrwt>
<pdfrwt beam="1">  1        2 0.24481583E+00 0.92554043E+02</pdfrwt>
<pdfrwt beam="2">  1       -2 0.20704493E-03 0.92554043E+02</pdfrwt>
<totfact> 0.22121900E+05</totfact>
</mgrwt>
</event>
<event>
 7    1  0.3891761E-009  0.9224178E+02  0.7818608E-02  0.1297512E+00
         -2   -1    0    0    0  501 -0.00000000000E+00  0.00000000000E+00  0.26121148693E+01  0.26121161140E+01  0.25500000000E-02 0.  1.
          2   -1    0    0  501    0  0.00000000000E+00 -0.00000000000E+00 -0.81433471196E+03  0.81433471196E+03  0.25500000000E-02 0. -1.
         23    2    1    2    0    0  0.00000000000E+00  0.00000000000E+00 -0.81172259709E+03  0.81694682808E+03  0.92241776214E+02 0.  0.
    9000005    2    3    3    0    0  0.34109544332E+02  0.20481194787E+02 -0.60602404589E+03  0.60743588726E+03  0.11413701669E+02 0.  0.
         22    1    3    3    0    0 -0.34109544332E+02 -0.20481194787E+02 -0.20569855120E+03  0.20951094082E+03  0.00000000000E+00 0.  1.
         22    1    4    4    0    0 -0.86902196180E+00  0.10491362805E+01 -0.17245448870E+02  0.17299173183E+02  0.00000000000E+00 0.  1.
         22    1    4    4    0    0  0.34978566293E+02  0.19432058507E+02 -0.58877859702E+03  0.59013671408E+03  0.00000000000E+00 0.  1.
<mgrwt>
<rscale>  0 0.92241776E+02</rscale>
<asrwt>0</asrwt>
<pdfrwt beam="2">  1        2 0.12528206E+00 0.92241776E+02</pdfrwt>
<pdfrwt beam="1">  1       -2 0.40186457E-03 0.92241776E+02</pdfrwt>
<totfact> 0.23710924E+05</totfact>
</mgrwt>
</event>
<event>
 7    1  0.3891761E-009  0.9165841E+02  0.7818608E-02  0.1298885E+00
         -2   -1    0    0    0  501 -0.00000000000E+00  0.00000000000E+00  0.38086698034E+02  0.38086698119E+02  0.25500000000E-02 0.  1.
          2   -1    0    0  501    0  0.00000000000E+00 -0.00000000000E+00 -0.55145662699E+02  0.55145662758E+02  0.25500000000E-02 0. -1.
         23    2    1    2    0    0  0.00000000000E+00  0.00000000000E+00 -0.17058964665E+02  0.93232360877E+02  0.91658413904E+02 0.  0.
    9000005    2    3    3    0    0 -0.20075100893E+02 -0.21306727541E+02  0.25260537896E+02  0.41774352644E+02  0.15811876855E+02 0.  0.
         22    1    3    3    0    0  0.20075100893E+02  0.21306727541E+02 -0.42319502561E+02  0.51458008233E+02  0.00000000000E+00 0. -1.
         22    1    4    4    0    0 -0.18355932318E+02 -0.21634784919E+02  0.27099952072E+02  0.39235335759E+02  0.00000000000E+00 0.  1.
         22    1    4    4    0    0 -0.17191685747E+01  0.32805737873E+00 -0.18394141764E+01  0.25390168854E+01  0.00000000000E+00 0.  1.
<mgrwt>
<rscale>  0 0.91658414E+02</rscale>
<asrwt>0</asrwt>
<pdfrwt beam="2">  1        2 0.84839482E-02 0.91658414E+02</pdfrwt>
<pdfrwt beam="1">  1       -2 0.58594920E-02 0.91658414E+02</pdfrwt>
<totfact> 0.10217375E+05</totfact>
</mgrwt>
</event>
<event>
 7    1  0.3891761E-009  0.9087445E+02  0.7818608E-02  0.1300748E+00
          2   -1    0    0  501    0  0.00000000000E+00  0.00000000000E+00  0.20621656434E+02  0.20621656592E+02  0.25500000000E-02 0. -1.
         -2   -1    0    0    0  501 -0.00000000000E+00 -0.00000000000E+00 -0.10011521657E+03  0.10011521661E+03  0.25500000000E-02 0.  1.
         23    2    1    2    0    0  0.00000000000E+00  0.00000000000E+00 -0.79493560140E+02  0.12073687320E+03  0.90874454309E+02 0.  0.
    9000005    2    3    3    0    0 -0.11646553827E+02 -0.25178177666E+02 -0.87479272092E+02  0.91868994128E+02  0.42078723495E+01 0.  0.
         22    1    3    3    0    0  0.11646553827E+02  0.25178177666E+02  0.79857119524E+01  0.28867879070E+02  0.00000000000E+00 0. -1.
         22    1    4    4    0    0 -0.87786276791E+01 -0.15903871184E+02 -0.61862001885E+02  0.64474062225E+02  0.00000000000E+00 0.  1.
         22    1    4    4    0    0 -0.28679261474E+01 -0.92743064821E+01 -0.25617270207E+02  0.27394931903E+02  0.00000000000E+00 0.  1.
<mgrwt>
<rscale>  0 0.90874454E+02</rscale>
<asrwt>0</asrwt>
<pdfrwt beam="1">  1        2 0.31725626E-02 0.90874454E+02</pdfrwt>
<pdfrwt beam="2">  1       -2 0.15402341E-01 0.90874454E+02</pdfrwt>
<totfact> 0.80441070E+04</totfact>
</mgrwt>
</event>
<event>
 7    1  0.3891761E-009  0.9008780E+02  0.7818608E-02  0.1302639E+00
          2   -1    0    0  501    0  0.00000000000E+00  0.00000000000E+00  0.14456197924E+03  0.14456197926E+03  0.25500000000E-02 0.  1.
         -2   -1    0    0    0  501 -0.00000000000E+00 -0.00000000000E+00 -0.14035177897E+02  0.14035178128E+02  0.25500000000E-02 0. -1.
         23    2    1    2    0    0  0.00000000000E+00  0.00000000000E+00  0.13052680134E+03  0.15859715739E+03  0.90087804188E+02 0.  0.
    9000005    2    3    3    0    0  0.25476117541E+02  0.36114560074E+02  0.66113411999E+02  0.80479433786E+02  0.12355646570E+02 0.  0.
         22    1    3    3    0    0 -0.25476117541E+02 -0.36114560074E+02  0.64413389344E+02  0.78117723604E+02  0.00000000000E+00 0. -1.
         22    1    4    4    0    0  0.13886163577E+02  0.28578107343E+02  0.41726697775E+02  0.52446649706E+02  0.00000000000E+00 0.  1.
         22    1    4    4    0    0  0.11589953964E+02  0.75364527306E+01  0.24386714224E+02  0.28032784080E+02  0.00000000000E+00 0.  1.
<mgrwt>
<rscale>  0 0.90087804E+02</rscale>
<asrwt>0</asrwt>
<pdfrwt beam="1">  1        2 0.22240305E-01 0.90087804E+02</pdfrwt>
<pdfrwt beam="2">  1       -2 0.21592581E-02 0.90087804E+02</pdfrwt>
<totfact> 0.14264813E+05</totfact>
</mgrwt>
</event>
<event>
 7    1  0.3891761E-009  0.1043891E+03  0.7818608E-02  0.1271328E+00
          2   -1    0    0  501    0  0.00000000000E+00  0.00000000000E+00  0.37132787465E+03  0.37132787466E+03  0.25500000000E-02 0.  1.
         -2   -1    0    0    0  501 -0.00000000000E+00 -0.00000000000E+00 -0.73365606446E+01  0.73365610877E+01  0.25500000000E-02 0. -1.
         23    2    1    2    0    0  0.00000000000E+00 -0.35527136788E-14  0.36399131401E+03  0.37866443575E+03  0.10438907140E+03 0.  0.
    9000005    2    3    3    0    0  0.17572685742E+01  0.23189608918E+02  0.35089155160E+03  0.35197268178E+03  0.14800060213E+02 0.  0.
         22    1    3    3    0    0 -0.17572685742E+01 -0.23189608918E+02  0.13099762407E+02  0.26691753965E+02  0.00000000000E+00 0. -1.
         22    1    4    4    0    0 -0.58693177172E+01  0.77030738096E+01  0.92636887283E+02  0.93141715262E+02  0.00000000000E+00 0.  1.
         22    1    4    4    0    0  0.76265862914E+01  0.15486535109E+02  0.25825466432E+03  0.25883096652E+03  0.00000000000E+00 0.  1.
<mgrwt>
<rscale>  0 0.10438907E+03</rscale>
<asrwt>0</asrwt>
<pdfrwt beam="1">  1        2 0.57127355E-01 0.10438907E+03</pdfrwt>
<pdfrwt beam="2">  1       -2 0.11287019E-02 0.10438907E+03</pdfrwt>
<totfact> 0.13525532E+05</totfact>
</mgrwt>
</event>
<event>
 7    1  0.3891761E-009  0.1018061E+03  0.7818608E-02  0.1276543E+00
          2   -1    0    0  501    0  0.00000000000E+00  0.00000000000E+00  0.13087410448E+03  0.13087410450E+03  0.25500000000E-02 0. -1.
         -2   -1    0    0    0  501 -0.00000000000E+00 -0.00000000000E+00 -0.19798560585E+02  0.19798560749E+02  0.25500000000E-02 0.  1.
         23    2    1    2    0    0  0.00000000000E+00  0.00000000000E+00  0.11107554390E+03  0.15067266525E+03  0.10180606860E+03 0.  0.
    9000005    2    3    3    0    0 -0.43848448526E+02  0.50156263163E+01  0.92865041866E+02  0.10292891876E+03  0.47543001678E+01 0.  0.
         22    1    3    3    0    0  0.43848448526E+02 -0.50156263163E+01  0.18210502029E+02  0.47743746498E+02  0.00000000000E+00 0.  1.
         22    1    4    4    0    0 -0.11727572133E+02 -0.69226356151E+00  0.25884739959E+02  0.28425955388E+02  0.00000000000E+00 0.  1.
         22    1    4    4    0    0 -0.32120876393E+02  0.57078898778E+01  0.66980301907E+02  0.74502963368E+02  0.00000000000E+00 0.  1.
<mgrwt>
<rscale>  0 0.10180607E+03</rscale>
<asrwt>0</asrwt>
<pdfrwt beam="1">  1        2 0.20134478E-01 0.10180607E+03</pdfrwt>
<pdfrwt beam="2">  1       -2 0.30459323E-02 0.10180607E+03</pdfrwt>
<totfact> 0.98653697E+04</totfact>
</mgrwt>
</event>
<event>
 7    1  0.3891761E-009  0.9154606E+02  0.7818608E-02  0.1299150E+00
         -2   -1    0    0    0  501 -0.00000000000E+00  0.00000000000E+00  0.64124544921E+02  0.64124544972E+02  0.25500000000E-02 0.  1.
          2   -1    0    0  501    0  0.00000000000E+00 -0.00000000000E+00 -0.32673453498E+02  0.32673453597E+02  0.25500000000E-02 0. -1.
         23    2    1    2    0    0  0.00000000000E+00  0.00000000000E+00  0.31451091423E+02  0.96797998569E+02  0.91546061495E+02 0.  0.
    9000005    2    3    3    0    0  0.17479071757E+02  0.11143215095E+02 -0.26237318780E+02  0.35498391197E+02  0.11918459995E+02 0.  0.
         22    1    3    3    0    0 -0.17479071757E+02 -0.11143215095E+02  0.57688410204E+02  0.61299607372E+02  0.00000000000E+00 0.  1.
         22    1    4    4    0    0  0.57783547219E+01  0.16492945615E+01 -0.16494598445E+02  0.17555094238E+02  0.00000000000E+00 0. -1.
         22    1    4    4    0    0  0.11700717035E+02  0.94939205332E+01 -0.97427203352E+01  0.17943296959E+02  0.00000000000E+00 0. -1.
<mgrwt>
<rscale>  0 0.91546061E+02</rscale>
<asrwt>0</asrwt>
<pdfrwt beam="2">  1        2 0.50266852E-02 0.91546061E+02</pdfrwt>
<pdfrwt beam="1">  1       -2 0.98653145E-02 0.91546061E+02</pdfrwt>
<totfact> 0.89418450E+04</totfact>
</mgrwt>
</event>
<event>
 7    1  0.3891761E-009  0.9340976E+02  0.7818608E-02  0.1294798E+00
         -2   -1    0    0    0  501 -0.00000000000E+00  0.00000000000E+00  0.25161306515E+02  0.25161306644E+02  0.25500000000E-02 0.  1.
          2   -1    0    0  501    0  0.00000000000E+00 -0.00000000000E+00 -0.86694464567E+02  0.86694464605E+02  0.25500000000E-02 0. -1.
         23    2    1    2    0    0  0.00000000000E+00 -0.35527136788E-14 -0.61533158052E+02  0.11185577125E+03  0.93409764060E+02 0.  0.
    9000005    2    3    3    0    0 -0.83627013855E+01  0.30396890195E+02  0.10396614574E+02  0.33320442269E+02  0.28734248487E+01 0.  0.
         22    1    3    3    0    0  0.83627013855E+01 -0.30396890195E+02 -0.71929772626E+02  0.78535328980E+02  0.00000000000E+00 0. -1.
         22    1    4    4    0    0 -0.83762659271E+00  0.43097595060E+01  0.48519948772E+00  0.44171329900E+01  0.00000000000E+00 0.  1.
         22    1    4    4    0    0 -0.75250747927E+01  0.26087130689E+02  0.99114150863E+01  0.28903309278E+02  0.00000000000E+00 0.  1.
<mgrwt>
<rscale>  0 0.93409764E+02</rscale>
<asrwt>0</asrwt>
<pdfrwt beam="2">  1        2 0.13337610E-01 0.93409764E+02</pdfrwt>
<pdfrwt beam="1">  1       -2 0.38709703E-02 0.93409764E+02</pdfrwt>
<totfact> 0.10991808E+05</totfact>
</mgrwt>
</event>
<event>
 7    1  0.3891761E-009  0.9145062E+02  0.7818608E-02  0.1299376E+00
          2   -1    0    0  501    0  0.00000000000E+00  0.00000000000E+00  0.19322838221E+03  0.19322838223E+03  0.25500000000E-02 0. -1.
         -2   -1    0    0    0  501 -0.00000000000E+00 -0.00000000000E+00 -0.10820377417E+02  0.10820377717E+02  0.25500000000E-02 0.  1.
         23    2    1    2    0    0 -0.88817841970E-15 -0.71054273576E-14  0.18240800480E+03  0.20404875995E+03  0.91450621769E+02 0.  0.
    9000005    2    3    3    0    0  0.67437369809E+01  0.42101499834E+02  0.12496891504E+03  0.13251371043E+03  0.11164203949E+02 0.  0.
         22    1    3    3    0    0 -0.67437369809E+01 -0.42101499834E+02  0.57439089755E+02  0.71535049512E+02  0.00000000000E+00 0.  1.
         22    1    4    4    0    0  0.98436132430E+01  0.34134080260E+02  0.10111968811E+03  0.10717846556E+03  0.00000000000E+00 0. -1.
         22    1    4    4    0    0 -0.30998762620E+01  0.79674195747E+01  0.23849226935E+02  0.25335244875E+02  0.00000000000E+00 0. -1.
<mgrwt>
<rscale>  0 0.91450622E+02</rscale>
<asrwt>0</asrwt>
<pdfrwt beam="1">  1        2 0.29727444E-01 0.91450622E+02</pdfrwt>
<pdfrwt beam="2">  1       -2 0.16646735E-02 0.91450622E+02</pdfrwt>
<totfact> 0.15153954E+05</totfact>
</mgrwt>
</event>
<event>
 7    1  0.3891761E-009  0.9107305E+02  0.7818608E-02  0.1300274E+00
          2   -1    0    0  501    0  0.00000000000E+00  0.00000000000E+00  0.24428054762E+02  0.24428054895E+02  0.25500000000E-02 0. -1.
         -2   -1    0    0    0  501 -0.00000000000E+00 -0.00000000000E+00 -0.84884983693E+02  0.84884983731E+02  0.25500000000E-02 0.  1.
         23    2    1    2    0    0  0.00000000000E+00 -0.35527136788E-14 -0.60456928931E+02  0.10931303863E+03  0.91073048472E+02 0.  0.
    9000005    2    3    3    0    0 -0.31096963700E+02  0.21140629228E+02 -0.59098056902E+02  0.71686001955E+02  0.15243201472E+02 0.  0.
         22    1    3    3    0    0  0.31096963700E+02 -0.21140629228E+02 -0.13588720287E+01  0.37627036672E+02  0.00000000000E+00 0. -1.
         22    1    4    4    0    0 -0.16565860261E+02  0.10522950750E+02 -0.17237444469E+02  0.26120675919E+02  0.00000000000E+00 0.  1.
         22    1    4    4    0    0 -0.14531103440E+02  0.10617678478E+02 -0.41860612433E+02  0.45565326035E+02  0.00000000000E+00 0.  1.
<mgrwt>
<rscale>  0 0.91073048E+02</rscale>
<asrwt>0</asrwt>
<pdfrwt beam="1">  1        2 0.37581623E-02 0.91073048E+02</pdfrwt>
<pdfrwt beam="2">  1       -2 0.13059228E-01 0.91073048E+02</pdfrwt>
<totfact> 0.83920664E+04</totfact>
</mgrwt>
</event>
<event>
 7    1  0.3891761E-009  0.9171834E+02  0.7818608E-02  0.1298743E+00
          2   -1    0    0  501    0  0.00000000000E+00  0.00000000000E+00  0.63294180495E+02  0.63294180546E+02  0.25500000000E-02 0. -1.
         -2   -1    0    0    0  501 -0.00000000000E+00 -0.00000000000E+00 -0.33226807856E+02  0.33226807954E+02  0.25500000000E-02 0.  1.
         23    2    1    2    0    0  0.00000000000E+00  0.00000000000E+00  0.30067372639E+02  0.96520988500E+02  0.91718342351E+02 0.  0.
    9000005    2    3    3    0    0  0.44329692219E+02 -0.28149682630E+01  0.91652170160E+01  0.47429790020E+02  0.13875810603E+02 0.  0.
         22    1    3    3    0    0 -0.44329692219E+02  0.28149682630E+01  0.20902155623E+02  0.49091198480E+02  0.00000000000E+00 0. -1.
         22    1    4    4    0    0  0.40939170271E+01  0.25732279444E+01 -0.21432725761E+01  0.52891659091E+01  0.00000000000E+00 0. -1.
         22    1    4    4    0    0  0.40235775191E+02 -0.53881962074E+01  0.11308489592E+02  0.42140624111E+02  0.00000000000E+00 0. -1.
<mgrwt>
<rscale>  0 0.91718342E+02</rscale>
<asrwt>0</asrwt>
<pdfrwt beam="1">  1        2 0.97375662E-02 0.91718342E+02</pdfrwt>
<pdfrwt beam="2">  1       -2 0.51118166E-02 0.91718342E+02</pdfrwt>
<totfact> 0.10582935E+05</totfact>
</mgrwt>
</event>
<event>
 7    1  0.3891761E-009  0.8975579E+02  0.7818608E-02  0.1303444E+00
         -2   -1    0    0    0  501 -0.00000000000E+00  0.00000000000E+00  0.20156681605E+01  0.20156697735E+01  0.25500000000E-02 0. -1.
          2   -1    0    0  501    0  0.00000000000E+00 -0.00000000000E+00 -0.99918467603E+03  0.99918467603E+03  0.25500000000E-02 0.  1.
         23    2    1    2    0    0  0.00000000000E+00  0.00000000000E+00 -0.99716900787E+03  0.10012003458E+04  0.89755791947E+02 0.  0.
    9000005    2    3    3    0    0 -0.13154997652E+02  0.76775992547E+01 -0.96892614986E+03  0.96911205320E+03  0.11326442090E+02 0.  0.
         22    1    3    3    0    0  0.13154997652E+02 -0.76775992547E+01 -0.28242858006E+02  0.32088292599E+02  0.00000000000E+00 0. -1.
         22    1    4    4    0    0 -0.52872214865E-01  0.15760549620E+01 -0.39756768080E+03  0.39757080824E+03  0.00000000000E+00 0.  1.
         22    1    4    4    0    0 -0.13102125437E+02  0.61015442927E+01 -0.57135846906E+03  0.57154124497E+03  0.00000000000E+00 0.  1.
<mgrwt>
<rscale>  0 0.89755792E+02</rscale>
<asrwt>0</asrwt>
<pdfrwt beam="2">  1        2 0.15372032E+00 0.89755792E+02</pdfrwt>
<pdfrwt beam="1">  1       -2 0.31010372E-03 0.89755792E+02</pdfrwt>
<totfact> 0.26055354E+05</totfact>
</mgrwt>
</event>
<event>
 7    1  0.3891761E-009  0.1139205E+03  0.7818608E-02  0.1253477E+00
          2   -1    0    0  501    0  0.00000000000E+00  0.00000000000E+00  0.37640969585E+04  0.37640969585E+04  0.25500000000E-02 0.  1.
         -2   -1    0    0    0  501 -0.00000000000E+00 -0.00000000000E+00 -0.86194989983E+00  0.86195367180E+00  0.25500000000E-02 0. -1.
         23    2    1    2    0    0  0.00000000000E+00  0.00000000000E+00  0.37632350086E+04  0.37649589121E+04  0.11392050033E+03 0.  0.
    9000005    2    3    3    0    0 -0.16096794028E+02  0.47021537340E+01  0.36806061676E+04  0.36806455538E+04  0.29521217746E+01 0.  0.
         22    1    3    3    0    0  0.16096794028E+02 -0.47021537340E+01  0.82628840992E+02  0.84313358322E+02  0.00000000000E+00 0. -1.
         22    1    4    4    0    0 -0.10126348848E+02  0.33852430093E+01  0.26209603311E+04  0.26209820793E+04  0.00000000000E+00 0.  1.
         22    1    4    4    0    0 -0.59704451806E+01  0.13169107246E+01  0.10596458365E+04  0.10596634745E+04  0.00000000000E+00 0.  1.
<mgrwt>
<rscale>  0 0.11392050E+03</rscale>
<asrwt>0</asrwt>
<pdfrwt beam="1">  1        2 0.57909164E+00 0.11392050E+03</pdfrwt>
<pdfrwt beam="2">  1       -2 0.13260801E-03 0.11392050E+03</pdfrwt>
<totfact> 0.25411806E+04</totfact>
</mgrwt>
</event>
<event>
 7    1  0.3891761E-009  0.7757965E+02  0.7818608E-02  0.1336064E+00
         -2   -1    0    0    0  501 -0.00000000000E+00  0.00000000000E+00  0.13951421218E+03  0.13951421220E+03  0.25500000000E-02 0. -1.
          2   -1    0    0  501    0  0.00000000000E+00 -0.00000000000E+00 -0.10784926091E+02  0.10784926393E+02  0.25500000000E-02 0.  1.
         23    2    1    2    0    0  0.35527136788E-14  0.00000000000E+00  0.12872928609E+03  0.15029913859E+03  0.77579649172E+02 0.  0.
    9000005    2    3    3    0    0 -0.22988695385E+02 -0.27010471622E+02  0.41058744255E+02  0.55725518605E+02  0.12706976478E+02 0.  0.
         22    1    3    3    0    0  0.22988695385E+02  0.27010471622E+02  0.87670541831E+02  0.94573619988E+02  0.00000000000E+00 0. -1.
         22    1    4    4    0    0 -0.16520364095E+02 -0.11917439485E+02  0.16658793905E+02  0.26314695667E+02  0.00000000000E+00 0.  1.
         22    1    4    4    0    0 -0.64683312908E+01 -0.15093032137E+02  0.24399950350E+02  0.29410822937E+02  0.00000000000E+00 0.  1.
<mgrwt>
<rscale>  0 0.77579649E+02</rscale>
<asrwt>0</asrwt>
<pdfrwt beam="2">  1        2 0.16592195E-02 0.77579649E+02</pdfrwt>
<pdfrwt beam="1">  1       -2 0.21463724E-01 0.77579649E+02</pdfrwt>
<totfact> 0.10770820E+05</totfact>
</mgrwt>
</event>
<event>
 7    1  0.3891761E-009  0.8501052E+02  0.7818608E-02  0.1315405E+00
          2   -1    0    0  501    0  0.00000000000E+00  0.00000000000E+00  0.67567894009E+03  0.67567894009E+03  0.25500000000E-02 0.  1.
         -2   -1    0    0    0  501 -0.00000000000E+00 -0.00000000000E+00 -0.26738981899E+01  0.26738994058E+01  0.25500000000E-02 0. -1.
         23    2    1    2    0    0  0.00000000000E+00 -0.35527136788E-14  0.67300504190E+03  0.67835283950E+03  0.85010519558E+02 0.  0.
    9000005    2    3    3    0    0  0.10716832763E+02 -0.24582930196E+02  0.59860943897E+03  0.59927138341E+03  0.85883405122E+01 0.  0.
         22    1    3    3    0    0 -0.10716832763E+02  0.24582930196E+02  0.74395602928E+02  0.79081456085E+02  0.00000000000E+00 0. -1.
         22    1    4    4    0    0  0.48107680522E+01 -0.17873370525E+02  0.33554664308E+03  0.33605676685E+03  0.00000000000E+00 0. -1.
         22    1    4    4    0    0  0.59060647111E+01 -0.67095596709E+01  0.26306279589E+03  0.26321461656E+03  0.00000000000E+00 0. -1.
<mgrwt>
<rscale>  0 0.85010520E+02</rscale>
<asrwt>0</asrwt>
<pdfrwt beam="1">  1        2 0.10395058E+00 0.85010520E+02</pdfrwt>
<pdfrwt beam="2">  1       -2 0.41136916E-03 0.85010520E+02</pdfrwt>
<totfact> 0.28266551E+05</totfact>
</mgrwt>
</event>
<event>
 7    1  0.3891761E-009  0.8252052E+02  0.7818608E-02  0.1322047E+00
          2   -1    0    0  501    0  0.00000000000E+00  0.00000000000E+00  0.12589878342E+03  0.12589878345E+03  0.25500000000E-02 0. -1.
         -2   -1    0    0    0  501 -0.00000000000E+00 -0.00000000000E+00 -0.13522046775E+02  0.13522047016E+02  0.25500000000E-02 0.  1.
         23    2    1    2    0    0  0.00000000000E+00  0.00000000000E+00  0.11237673665E+03  0.13942083046E+03  0.82520524888E+02 0.  0.
    9000005    2    3    3    0    0  0.21029103133E+01 -0.20418073759E+02  0.11636248362E+03  0.11851135542E+03  0.91320206008E+01 0.  0.
         22    1    3    3    0    0 -0.21029103133E+01  0.20418073759E+02 -0.39857469741E+01  0.20909475048E+02  0.00000000000E+00 0.  1.
         22    1    4    4    0    0  0.29645422015E+01 -0.18736945578E+02  0.84958617311E+02  0.87050722544E+02  0.00000000000E+00 0.  1.
         22    1    4    4    0    0 -0.86163188823E+00 -0.16811281807E+01  0.31403866311E+02  0.31460632873E+02  0.00000000000E+00 0.  1.
<mgrwt>
<rscale>  0 0.82520525E+02</rscale>
<asrwt>0</asrwt>
<pdfrwt beam="1">  1        2 0.19369043E-01 0.82520525E+02</pdfrwt>
<pdfrwt beam="2">  1       -2 0.20803150E-02 0.82520525E+02</pdfrwt>
<totfact> 0.17282416E+05</totfact>
</mgrwt>
</event>
<event>
 7    1  0.3891761E-009  0.8596430E+02  0.7818608E-02  0.1312930E+00
         -2   -1    0    0    0  501 -0.00000000000E+00  0.00000000000E+00  0.20048024617E+02  0.20048024779E+02  0.25500000000E-02 0.  1.
          2   -1    0    0  501    0  0.00000000000E+00 -0.00000000000E+00 -0.92151979189E+02  0.92151979225E+02  0.25500000000E-02 0. -1.
         23    2    1    2    0    0  0.00000000000E+00  0.00000000000E+00 -0.72103954572E+02  0.11220000400E+03  0.85964298599E+02 0.  0.
    9000005    2    3    3    0    0  0.37077122311E+02  0.13032478460E+02 -0.13590819508E+02  0.41713512612E+02  0.32784547935E+01 0.  0.
         22    1    3    3    0    0 -0.37077122311E+02 -0.13032478460E+02 -0.58513135064E+02  0.70486491392E+02  0.00000000000E+00 0. -1.
         22    1    4    4    0    0  0.80154428527E-01 -0.12729549155E+00 -0.14119392021E+00  0.20631189419E+00  0.00000000000E+00 0. -1.
         22    1    4    4    0    0  0.36996967883E+02  0.13159773952E+02 -0.13449625588E+02  0.41507200718E+02  0.00000000000E+00 0. -1.
<mgrwt>
<rscale>  0 0.85964299E+02</rscale>
<asrwt>0</asrwt>
<pdfrwt beam="2">  1        2 0.14177227E-01 0.85964299E+02</pdfrwt>
<pdfrwt beam="1">  1       -2 0.30843116E-02 0.85964299E+02</pdfrwt>
<totfact> 0.14071080E+05</totfact>
</mgrwt>
</event>
<event>
 7    1  0.3891761E-009  0.9080358E+02  0.7818608E-02  0.1300917E+00
          2   -1    0    0  501    0  0.00000000000E+00  0.00000000000E+00  0.18422737820E+03  0.18422737822E+03  0.25500000000E-02 0. -1.
         -2   -1    0    0    0  501 -0.00000000000E+00 -0.00000000000E+00 -0.11189013717E+02  0.11189014008E+02  0.25500000000E-02 0.  1.
         23    2    1    2    0    0  0.00000000000E+00  0.00000000000E+00  0.17303836448E+03  0.19541639223E+03  0.90803583452E+02 0.  0.
    9000005    2    3    3    0    0 -0.30565916790E+02 -0.11531365722E+02  0.15349319789E+03  0.15734722883E+03  0.11434201195E+02 0.  0.
         22    1    3    3    0    0  0.30565916790E+02  0.11531365722E+02  0.19545166592E+02  0.38069163397E+02  0.00000000000E+00 0.  1.
         22    1    4    4    0    0 -0.93715137895E+01 -0.68752749840E+01  0.34885045133E+02  0.36770382793E+02  0.00000000000E+00 0. -1.
         22    1    4    4    0    0 -0.21194403000E+02 -0.46560907380E+01  0.11860815276E+03  0.12057684604E+03  0.00000000000E+00 0. -1.
<mgrwt>
<rscale>  0 0.90803583E+02</rscale>
<asrwt>0</asrwt>
<pdfrwt beam="1">  1        2 0.28342676E-01 0.90803583E+02</pdfrwt>
<pdfrwt beam="2">  1       -2 0.17213866E-02 0.90803583E+02</pdfrwt>
<totfact> 0.15185279E+05</totfact>
</mgrwt>
</event>
<event>
 7    1  0.3891761E-009  0.9250516E+02  0.7818608E-02  0.1296896E+00
          2   -1    0    0  501    0  0.00000000000E+00  0.00000000000E+00  0.98148713736E+02  0.98148713770E+02  0.25500000000E-02 0. -1.
         -2   -1    0    0    0  501 -0.00000000000E+00 -0.00000000000E+00 -0.21796526374E+02  0.21796526523E+02  0.25500000000E-02 0.  1.
         23    2    1    2    0    0  0.00000000000E+00  0.00000000000E+00  0.76352187362E+02  0.11994524029E+03  0.92505157445E+02 0.  0.
    9000005    2    3    3    0    0 -0.39657536609E+02 -0.94503756965E+00  0.67470497397E+02  0.79294315057E+02  0.12716409691E+02 0.  0.
         22    1    3    3    0    0  0.39657536609E+02  0.94503756965E+00  0.88816899656E+01  0.40650925236E+02  0.00000000000E+00 0.  1.
         22    1    4    4    0    0 -0.34101303839E+02 -0.43608502211E+01  0.50294784109E+02  0.60921927471E+02  0.00000000000E+00 0.  1.
         22    1    4    4    0    0 -0.55562327700E+01  0.34158126514E+01  0.17175713288E+02  0.18372387586E+02  0.00000000000E+00 0.  1.
<mgrwt>
<rscale>  0 0.92505157E+02</rscale>
<asrwt>0</asrwt>
<pdfrwt beam="1">  1        2 0.15099802E-01 0.92505157E+02</pdfrwt>
<pdfrwt beam="2">  1       -2 0.33533118E-02 0.92505157E+02</pdfrwt>
<totfact> 0.11720759E+05</totfact>
</mgrwt>
</event>
<event>
 7    1  0.3891761E-009  0.9098020E+02  0.7818608E-02  0.1300495E+00
         -2   -1    0    0    0  501 -0.00000000000E+00  0.00000000000E+00  0.31186964263E+02  0.31186964368E+02  0.25500000000E-02 0.  1.
          2   -1    0    0  501    0  0.00000000000E+00 -0.00000000000E+00 -0.66353018822E+02  0.66353018871E+02  0.25500000000E-02 0. -1.
         23    2    1    2    0    0  0.00000000000E+00  0.00000000000E+00 -0.35166054559E+02  0.97539983239E+02  0.90980200797E+02 0.  0.
    9000005    2    3    3    0    0  0.60722315925E+01  0.43290070244E+02 -0.45761625278E+01  0.44186036124E+02  0.45345723701E+01 0.  0.
         22    1    3    3    0    0 -0.60722315925E+01 -0.43290070244E+02 -0.30589892031E+02  0.53353947115E+02  0.00000000000E+00 0.  1.
         22    1    4    4    0    0  0.37971658471E+01  0.12248858566E+02 -0.13098362564E+01  0.12890642950E+02  0.00000000000E+00 0.  1.
         22    1    4    4    0    0  0.22750657454E+01  0.31041211678E+02 -0.32663262714E+01  0.31295393174E+02  0.00000000000E+00 0.  1.
<mgrwt>
<rscale>  0 0.90980201E+02</rscale>
<asrwt>0</asrwt>
<pdfrwt beam="2">  1        2 0.10208157E-01 0.90980201E+02</pdfrwt>
<pdfrwt beam="1">  1       -2 0.47979945E-02 0.90980201E+02</pdfrwt>
<totfact> 0.10966397E+05</totfact>
</mgrwt>
</event>
<event>
 7    1  0.3891761E-009  0.9080644E+02  0.7818608E-02  0.1300910E+00
         -2   -1    0    0    0  501 -0.00000000000E+00  0.00000000000E+00  0.15535351431E+03  0.15535351433E+03  0.25500000000E-02 0.  1.
          2   -1    0    0  501    0  0.00000000000E+00 -0.00000000000E+00 -0.13269427159E+02  0.13269427404E+02  0.25500000000E-02 0. -1.
         23    2    1    2    0    0  0.35527136788E-14  0.11102230246E-15  0.14208408715E+03  0.16862294173E+03  0.90806435111E+02 0.  0.
    9000005    2    3    3    0    0  0.30829147519E+02  0.61052804725E+00  0.13272165915E+03  0.13639773205E+03  0.62043064443E+01 0.  0.
         22    1    3    3    0    0 -0.30829147519E+02 -0.61052804725E+00  0.93624279959E+01  0.32225209684E+02  0.00000000000E+00 0. -1.
         22    1    4    4    0    0  0.10661183978E+02 -0.76129011498E+00  0.34509070800E+02  0.36126394422E+02  0.00000000000E+00 0.  1.
         22    1    4    4    0    0  0.20167963541E+02  0.13718181622E+01  0.98212588350E+02  0.10027133762E+03  0.00000000000E+00 0.  1.
<mgrwt>
<rscale>  0 0.90806435E+02</rscale>
<asrwt>0</asrwt>
<pdfrwt beam="2">  1        2 0.20414504E-02 0.90806435E+02</pdfrwt>
<pdfrwt beam="1">  1       -2 0.23900540E-01 0.90806435E+02</pdfrwt>
<totfact> 0.69676807E+04</totfact>
</mgrwt>
</event>
<event>
 7    1  0.3891761E-009  0.9129681E+02  0.7818608E-02  0.1299741E+00
          2   -1    0    0  501    0  0.00000000000E+00  0.00000000000E+00  0.14362249557E+02  0.14362249783E+02  0.25500000000E-02 0. -1.
         -2   -1    0    0    0  501 -0.00000000000E+00 -0.00000000000E+00 -0.14508707999E+03  0.14508708001E+03  0.25500000000E-02 0.  1.
         23    2    1    2    0    0  0.35527136788E-14  0.00000000000E+00 -0.13072483043E+03  0.15944932979E+03  0.91296809804E+02 0.  0.
    9000005    2    3    3    0    0  0.20278887867E+02 -0.94580502349E+01 -0.13414956888E+03  0.13681270370E+03  0.14863413340E+02 0.  0.
         22    1    3    3    0    0 -0.20278887867E+02  0.94580502349E+01  0.34247384493E+01  0.22636626092E+02  0.00000000000E+00 0. -1.
         22    1    4    4    0    0  0.14162368915E+02 -0.72235974243E+00 -0.49408215689E+02  0.51402979238E+02  0.00000000000E+00 0. -1.
         22    1    4    4    0    0  0.61165189518E+01 -0.87356904925E+01 -0.84741353189E+02  0.85409724462E+02  0.00000000000E+00 0. -1.
<mgrwt>
<rscale>  0 0.91296810E+02</rscale>
<asrwt>0</asrwt>
<pdfrwt beam="1">  1        2 0.22095770E-02 0.91296810E+02</pdfrwt>
<pdfrwt beam="2">  1       -2 0.22321088E-01 0.91296810E+02</pdfrwt>
<totfact> 0.70465871E+04</totfact>
</mgrwt>
</event>
<event>
 7    1  0.3891761E-009  0.9055449E+02  0.7818608E-02  0.1301514E+00
          2   -1    0    0  501    0  0.00000000000E+00  0.00000000000E+00  0.17195419278E+03  0.17195419280E+03  0.25500000000E-02 0. -1.
         -2   -1    0    0    0  501 -0.00000000000E+00 -0.00000000000E+00 -0.11921948863E+02  0.11921949136E+02  0.25500000000E-02 0.  1.
         23    2    1    2    0    0  0.35527136788E-14 -0.17763568394E-14  0.16003224392E+03  0.18387614194E+03  0.90554494533E+02 0.  0.
    9000005    2    3    3    0    0  0.26907986757E+02 -0.10209023365E+02  0.15026759971E+03  0.15348515337E+03  0.12209704090E+02 0.  0.
         22    1    3    3    0    0 -0.26907986757E+02  0.10209023365E+02  0.97646442085E+01  0.30390988564E+02  0.00000000000E+00 0.  1.
         22    1    4    4    0    0  0.26628262425E+02 -0.72915156133E+01  0.12299638657E+03  0.12605689854E+03  0.00000000000E+00 0.  1.
         22    1    4    4    0    0  0.27972433216E+00 -0.29175077513E+01  0.27271213137E+02  0.27428254832E+02  0.00000000000E+00 0.  1.
<mgrwt>
<rscale>  0 0.90554495E+02</rscale>
<asrwt>0</asrwt>
<pdfrwt beam="1">  1        2 0.26454490E-01 0.90554495E+02</pdfrwt>
<pdfrwt beam="2">  1       -2 0.18341461E-02 0.90554495E+02</pdfrwt>
<totfact> 0.14930001E+05</totfact>
</mgrwt>
</event>
<event>
 7    1  0.3891761E-009  0.9242094E+02  0.7818608E-02  0.1297093E+00
          2   -1    0    0  501    0  0.00000000000E+00  0.00000000000E+00  0.25997738132E+02  0.25997738257E+02  0.25500000000E-02 0.  1.
         -2   -1    0    0    0  501 -0.00000000000E+00 -0.00000000000E+00 -0.82138203495E+02  0.82138203534E+02  0.25500000000E-02 0. -1.
         23    2    1    2    0    0  0.00000000000E+00  0.71054273576E-14 -0.56140465363E+02  0.10813594179E+03  0.92420939489E+02 0.  0.
    9000005    2    3    3    0    0  0.19956809020E+02  0.40749296305E+02 -0.20496774319E+02  0.50436270330E+02  0.80573092084E+01 0.  0.
         22    1    3    3    0    0 -0.19956809020E+02 -0.40749296305E+02 -0.35643691044E+02  0.57699671462E+02  0.00000000000E+00 0. -1.
         22    1    4    4    0    0  0.10113284786E+02  0.29236445251E+02 -0.13813327650E+02  0.33880027757E+02  0.00000000000E+00 0.  1.
         22    1    4    4    0    0  0.98435242340E+01  0.11512851054E+02 -0.66834466693E+01  0.16556242572E+02  0.00000000000E+00 0.  1.
<mgrwt>
<rscale>  0 0.92420939E+02</rscale>
<asrwt>0</asrwt>
<pdfrwt beam="1">  1        2 0.39996521E-02 0.92420939E+02</pdfrwt>
<pdfrwt beam="2">  1       -2 0.12636647E-01 0.92420939E+02</pdfrwt>
<totfact> 0.81686366E+04</totfact>
</mgrwt>
</event>
<event>
 7    1  0.3891761E-009  0.9212259E+02  0.7818608E-02  0.1297791E+00
          2   -1    0    0  501    0  0.00000000000E+00  0.00000000000E+00  0.20332835975E+03  0.20332835976E+03  0.25500000000E-02 0. -1.
         -2   -1    0    0    0  501 -0.00000000000E+00 -0.00000000000E+00 -0.10434563899E+02  0.10434564210E+02  0.25500000000E-02 0.  1.
         23    2    1    2    0    0  0.00000000000E+00 -0.11102230246E-15  0.19289379585E+03  0.21376292397E+03  0.92122587832E+02 0.  0.
    9000005    2    3    3    0    0 -0.37867975005E+02 -0.87052699923E+00  0.15471948272E+03  0.15998542374E+03  0.14915633702E+02 0.  0.
         22    1    3    3    0    0  0.37867975005E+02  0.87052699923E+00  0.38174313127E+02  0.53777500229E+02  0.00000000000E+00 0.  1.
         22    1    4    4    0    0 -0.27668936863E+02  0.14363351656E+01  0.82866837888E+02  0.87375888822E+02  0.00000000000E+00 0. -1.
         22    1    4    4    0    0 -0.10199038142E+02 -0.23068621648E+01  0.71852644832E+02  0.72609534921E+02  0.00000000000E+00 0. -1.
<mgrwt>
<rscale>  0 0.92122588E+02</rscale>
<asrwt>0</asrwt>
<pdfrwt beam="1">  1        2 0.31281285E-01 0.92122588E+02</pdfrwt>
<pdfrwt beam="2">  1       -2 0.16053176E-02 0.92122588E+02</pdfrwt>
<totfact> 0.15133888E+05</totfact>
</mgrwt>
</event>
<event>
 7    1  0.3891761E-009  0.9682483E+02  0.7818608E-02  0.1287118E+00
         -2   -1    0    0    0  501 -0.00000000000E+00  0.00000000000E+00  0.32696795305E+02  0.32696795405E+02  0.25500000000E-02 0.  1.
          2   -1    0    0  501    0  0.00000000000E+00 -0.00000000000E+00 -0.71681698243E+02  0.71681698289E+02  0.25500000000E-02 0. -1.
         23    2    1    2    0    0  0.00000000000E+00  0.00000000000E+00 -0.38984902938E+02  0.10437849369E+03  0.96824827852E+02 0.  0.
    9000005    2    3    3    0    0  0.20375903233E+02 -0.85284716483E+01 -0.65404579916E+02  0.69941426559E+02  0.11230842087E+02 0.  0.
         22    1    3    3    0    0 -0.20375903233E+02  0.85284716483E+01  0.26419676978E+02  0.34437067134E+02  0.00000000000E+00 0.  1.
         22    1    4    4    0    0  0.69179601284E+01 -0.12873603776E+00 -0.34673938464E+02  0.35357555825E+02  0.00000000000E+00 0.  1.
         22    1    4    4    0    0  0.13457943104E+02 -0.83997356105E+01 -0.30730641451E+02  0.34583870734E+02  0.00000000000E+00 0.  1.
<mgrwt>
<rscale>  0 0.96824828E+02</rscale>
<asrwt>0</asrwt>
<pdfrwt beam="2">  1        2 0.11027954E-01 0.96824828E+02</pdfrwt>
<pdfrwt beam="1">  1       -2 0.50302762E-02 0.96824828E+02</pdfrwt>
<totfact> 0.94043172E+04</totfact>
</mgrwt>
</event>
<event>
 6    1  0.3891761E-009  0.1951745E+03  0.7818608E-02  0.1153875E+00
         -2   -1    0    0    0  501 -0.00000000000E+00  0.00000000000E+00  0.52119416713E+02  0.52119416775E+02  0.25500000000E-02 0.  1.
          2   -1    0    0  501    0  0.00000000000E+00 -0.00000000000E+00 -0.18272025614E+03  0.18272025615E+03  0.25500000000E-02 0. -1.
    9000005    2    1    2    0    0 -0.88997596488E+02  0.28255003355E+02 -0.33871698941E+02  0.10039472504E+03  0.14590799532E+02 0.  0.
         22    1    1    2    0    0  0.88997596488E+02 -0.28255003355E+02 -0.96729140483E+02  0.13444494789E+03  0.00000000000E+00 0. -1.
         22    1    3    3    0    0 -0.38880760971E+02  0.10494864223E+02 -0.72050972062E+01  0.40911724169E+02  0.00000000000E+00 0.  1.
         22    1    3    3    0    0 -0.50116835517E+02  0.17760139132E+02 -0.26666601735E+02  0.59483000868E+02  0.00000000000E+00 0.  1.
<mgrwt>
<rscale>  0 0.19517452E+03</rscale>
<asrwt>0</asrwt>
<pdfrwt beam="2">  1        2 0.28110808E-01 0.19517452E+03</pdfrwt>
<pdfrwt beam="1">  1       -2 0.80183719E-02 0.19517452E+03</pdfrwt>
<totfact> 0.17107334E+04</totfact>
</mgrwt>
</event>
<event>
 7    1  0.3891761E-009  0.9161246E+02  0.7818608E-02  0.1298993E+00
         -2   -1    0    0    0  501 -0.00000000000E+00  0.00000000000E+00  0.52583462632E+02  0.52583462694E+02  0.25500000000E-02 0.  1.
          2   -1    0    0  501    0  0.00000000000E+00 -0.00000000000E+00 -0.39902479270E+02  0.39902479351E+02  0.25500000000E-02 0. -1.
         23    2    1    2    0    0  0.00000000000E+00 -0.17763568394E-14  0.12680983362E+02  0.92485942045E+02  0.91612456232E+02 0.  0.
    9000005    2    3    3    0    0  0.38465000479E+02 -0.15724273257E+02  0.23721072663E+02  0.49489516576E+02  0.12637797723E+02 0.  0.
         22    1    3    3    0    0 -0.38465000479E+02  0.15724273257E+02 -0.11040089301E+02  0.42996425469E+02  0.00000000000E+00 0. -1.
         22    1    4    4    0    0  0.21277420056E+02 -0.13890510842E+02  0.95769682058E+01  0.27154985099E+02  0.00000000000E+00 0. -1.
         22    1    4    4    0    0  0.17187580424E+02 -0.18337624144E+01  0.14144104457E+02  0.22334531477E+02  0.00000000000E+00 0. -1.
<mgrwt>
<rscale>  0 0.91612456E+02</rscale>
<asrwt>0</asrwt>
<pdfrwt beam="2">  1        2 0.61388430E-02 0.91612456E+02</pdfrwt>
<pdfrwt beam="1">  1       -2 0.80897635E-02 0.91612456E+02</pdfrwt>
<totfact> 0.94018906E+04</totfact>
</mgrwt>
</event>
<event>
 7    1  0.3891761E-009  0.9460476E+02  0.7818608E-02  0.1292069E+00
         -2   -1    0    0    0  501 -0.00000000000E+00  0.00000000000E+00  0.67058186191E+02  0.67058186239E+02  0.25500000000E-02 0.  1.
          2   -1    0    0  501    0  0.00000000000E+00 -0.00000000000E+00 -0.33366770579E+02  0.33366770677E+02  0.25500000000E-02 0. -1.
         23    2    1    2    0    0  0.00000000000E+00  0.00000000000E+00  0.33691415612E+02  0.10042495692E+03  0.94604759318E+02 0.  0.
    9000005    2    3    3    0    0  0.18680926363E+02  0.27345368356E+02 -0.18356515392E+02  0.38734331193E+02  0.81633678873E+01 0.  0.
         22    1    3    3    0    0 -0.18680926363E+02 -0.27345368356E+02  0.52047931004E+02  0.61690625723E+02  0.00000000000E+00 0. -1.
         22    1    4    4    0    0  0.10661494185E+02  0.17815168534E+02 -0.15621344057E+02  0.25982187712E+02  0.00000000000E+00 0.  1.
         22    1    4    4    0    0  0.80194321784E+01  0.95301998224E+01 -0.27351713350E+01  0.12752143481E+02  0.00000000000E+00 0.  1.
<mgrwt>
<rscale>  0 0.94604759E+02</rscale>
<asrwt>0</asrwt>
<pdfrwt beam="2">  1        2 0.51333494E-02 0.94604759E+02</pdfrwt>
<pdfrwt beam="1">  1       -2 0.10316644E-01 0.94604759E+02</pdfrwt>
<totfact> 0.81588670E+04</totfact>
</mgrwt>
</event>
<event>
 7    1  0.3891761E-009  0.9022496E+02  0.7818608E-02  0.1302308E+00
          2   -1    0    0  501    0  0.00000000000E+00  0.00000000000E+00  0.12518662230E+03  0.12518662232E+03  0.25500000000E-02 0. -1.
         -2   -1    0    0    0  501 -0.00000000000E+00 -0.00000000000E+00 -0.16256816078E+02  0.16256816278E+02  0.25500000000E-02 0.  1.
         23    2    1    2    0    0  0.35527136788E-14  0.00000000000E+00  0.10892980622E+03  0.14144343860E+03  0.90224961295E+02 0.  0.
    9000005    2    3    3    0    0 -0.21924305562E+02  0.16783090420E+02  0.10961760942E+03  0.11382423565E+03  0.13326253326E+02 0.  0.
         22    1    3    3    0    0  0.21924305562E+02 -0.16783090420E+02 -0.68780320272E+00  0.27619202951E+02  0.00000000000E+00 0.  1.
         22    1    4    4    0    0 -0.94079243649E+01  0.12754948441E+02  0.77779564433E+02  0.79377946521E+02  0.00000000000E+00 0.  1.
         22    1    4    4    0    0 -0.12516381197E+02  0.40281419790E+01  0.31838044990E+02  0.34446289131E+02  0.00000000000E+00 0.  1.
<mgrwt>
<rscale>  0 0.90224961E+02</rscale>
<asrwt>0</asrwt>
<pdfrwt beam="1">  1        2 0.19259480E-01 0.90224961E+02</pdfrwt>
<pdfrwt beam="2">  1       -2 0.25010488E-02 0.90224961E+02</pdfrwt>
<totfact> 0.13547027E+05</totfact>
</mgrwt>
</event>
<event>
 7    1  0.5506826E-009  0.9040680E+02  0.7818608E-02  0.1301870E+00
          2   -1    0    0  501    0  0.00000000000E+00  0.00000000000E+00  0.93013086559E+03  0.93013086559E+03  0.25500000000E-02 0. -1.
         -2   -1    0    0    0  501 -0.00000000000E+00 -0.00000000000E+00 -0.21968378202E+01  0.21968393001E+01  0.25500000000E-02 0.  1.
         23    2    1    2    0    0  0.00000000000E+00 -0.22204460493E-15  0.92793402777E+03  0.93232770489E+03  0.90406799628E+02 0.  0.
    9000005    2    3    3    0    0 -0.27907650236E+02 -0.11807747315E+01  0.82757738173E+03  0.82815627131E+03  0.13351246666E+02 0.  0.
         22    1    3    3    0    0  0.27907650236E+02  0.11807747315E+01  0.10035664604E+03  0.10417143359E+03  0.00000000000E+00 0.  1.
         22    1    4    4    0    0 -0.41028608958E+01  0.47845705795E+01  0.14203072950E+03  0.14217050927E+03  0.00000000000E+00 0.  1.
         22    1    4    4    0    0 -0.23804789340E+02 -0.59653453110E+01  0.68554665222E+03  0.68598576204E+03  0.00000000000E+00 0.  1.
<mgrwt>
<rscale>  0 0.90406800E+02</rscale>
<asrwt>0</asrwt>
<pdfrwt beam="1">  1        2 0.14309755E+00 0.90406800E+02</pdfrwt>
<pdfrwt beam="2">  1       -2 0.33797401E-03 0.90406800E+02</pdfrwt>
<totfact> 0.25439585E+05</totfact>
</mgrwt>
</event>
<event>
 7    1  0.3891761E-009  0.8862373E+02  0.7818608E-02  0.1306219E+00
         -2   -1    0    0    0  501 -0.00000000000E+00  0.00000000000E+00  0.88815946664E+02  0.88815946701E+02  0.25500000000E-02 0.  1.
          2   -1    0    0  501    0  0.00000000000E+00 -0.00000000000E+00 -0.22107980039E+02  0.22107980186E+02  0.25500000000E-02 0. -1.
         23    2    1    2    0    0  0.00000000000E+00  0.00000000000E+00  0.66707966625E+02  0.11092392689E+03  0.88623725631E+02 0.  0.
    9000005    2    3    3    0    0 -0.42259542356E+02  0.26344539852E+00  0.22756946254E+02  0.49951551869E+02  0.13832592227E+02 0.  0.
         22    1    3    3    0    0  0.42259542356E+02 -0.26344539852E+00  0.43951020371E+02  0.60972375018E+02  0.00000000000E+00 0.  1.
         22    1    4    4    0    0 -0.26718554349E+02  0.27888579356E+01  0.71873979734E+01  0.27808587967E+02  0.00000000000E+00 0. -1.
         22    1    4    4    0    0 -0.15540988007E+02 -0.25254125371E+01  0.15569548281E+02  0.22142963902E+02  0.00000000000E+00 0. -1.
<mgrwt>
<rscale>  0 0.88623726E+02</rscale>
<asrwt>0</asrwt>
<pdfrwt beam="2">  1        2 0.34012277E-02 0.88623726E+02</pdfrwt>
<pdfrwt beam="1">  1       -2 0.13663992E-01 0.88623726E+02</pdfrwt>
<totfact> 0.88623836E+04</totfact>
</mgrwt>
</event>
<event>
 7    1  0.3891761E-009  0.9165826E+02  0.7818608E-02  0.1298885E+00
          2   -1    0    0  501    0  0.00000000000E+00  0.00000000000E+00  0.30720887614E+03  0.30720887615E+03  0.25500000000E-02 0. -1.
         -2   -1    0    0    0  501 -0.00000000000E+00 -0.00000000000E+00 -0.68367456456E+01  0.68367461212E+01  0.25500000000E-02 0.  1.
         23    2    1    2    0    0  0.00000000000E+00  0.00000000000E+00  0.30037213049E+03  0.31404562227E+03  0.91658257076E+02 0.  0.
    9000005    2    3    3    0    0 -0.31302021516E+02 -0.32638188030E+02  0.15599226161E+03  0.16274917681E+03  0.10423099477E+02 0.  0.
         22    1    3    3    0    0  0.31302021516E+02  0.32638188030E+02  0.14437986888E+03  0.15129644545E+03  0.00000000000E+00 0. -1.
         22    1    4    4    0    0 -0.31195193315E+01 -0.74435657879E+00  0.56310391940E+01  0.64802831713E+01  0.00000000000E+00 0.  1.
         22    1    4    4    0    0 -0.28182502184E+02 -0.31893831452E+02  0.15036122242E+03  0.15626889364E+03  0.00000000000E+00 0.  1.
<mgrwt>
<rscale>  0 0.91658257E+02</rscale>
<asrwt>0</asrwt>
<pdfrwt beam="1">  1        2 0.47262912E-01 0.91658257E+02</pdfrwt>
<pdfrwt beam="2">  1       -2 0.10518069E-02 0.91658257E+02</pdfrwt>
<totfact> 0.17872439E+05</totfact>
</mgrwt>
</event>
<event>
 7    1  0.3891761E-009  0.9103256E+02  0.7818608E-02  0.1300370E+00
          2   -1    0    0  501    0  0.00000000000E+00  0.00000000000E+00  0.15894429113E+04  0.15894429113E+04  0.25500000000E-02 0. -1.
         -2   -1    0    0    0  501 -0.00000000000E+00 -0.00000000000E+00 -0.13034312880E+01  0.13034337823E+01  0.25500000000E-02 0.  1.
         23    2    1    2    0    0  0.00000000000E+00  0.00000000000E+00  0.15881394800E+04  0.15907463451E+04  0.91032556959E+02 0.  0.
    9000005    2    3    3    0    0 -0.14283815079E+02 -0.43335312641E+01  0.15445336479E+04  0.15446564822E+04  0.12516055337E+02 0.  0.
         22    1    3    3    0    0  0.14283815079E+02  0.43335312641E+01  0.43605832095E+02  0.46089862868E+02  0.00000000000E+00 0.  1.
         22    1    4    4    0    0 -0.12934123937E+02 -0.63011013323E+01  0.14912894751E+04  0.14913588750E+04  0.00000000000E+00 0. -1.
         22    1    4    4    0    0 -0.13496911414E+01  0.19675700682E+01  0.53244172823E+02  0.53297607242E+02  0.00000000000E+00 0. -1.
<mgrwt>
<rscale>  0 0.91032557E+02</rscale>
<asrwt>0</asrwt>
<pdfrwt beam="1">  1        2 0.24453041E+00 0.91032557E+02</pdfrwt>
<pdfrwt beam="2">  1       -2 0.20052748E-03 0.91032557E+02</pdfrwt>
<totfact> 0.23122775E+05</totfact>
</mgrwt>
</event>
<event>
 7    1  0.3891761E-009  0.9007677E+02  0.7818608E-02  0.1302666E+00
          2   -1    0    0  501    0  0.00000000000E+00  0.00000000000E+00  0.58393951389E+01  0.58393956957E+01  0.25500000000E-02 0. -1.
         -2   -1    0    0    0  501 -0.00000000000E+00 -0.00000000000E+00 -0.34737436860E+03  0.34737436861E+03  0.25500000000E-02 0.  1.
         23    2    1    2    0    0 -0.35527136788E-14  0.00000000000E+00 -0.34153497346E+03  0.35321376431E+03  0.90076773907E+02 0.  0.
    9000005    2    3    3    0    0 -0.24793060808E+02  0.26112116918E+01 -0.31682578588E+03  0.31811307711E+03  0.13994175157E+02 0.  0.
         22    1    3    3    0    0  0.24793060808E+02 -0.26112116918E+01 -0.24709187580E+02  0.35100687195E+02  0.00000000000E+00 0. -1.
         22    1    4    4    0    0 -0.13423135231E+02  0.43942297752E+01 -0.24154947526E+03  0.24196206069E+03  0.00000000000E+00 0.  1.
         22    1    4    4    0    0 -0.11369925577E+02 -0.17830180833E+01 -0.75276310622E+02  0.76151016421E+02  0.00000000000E+00 0.  1.
<mgrwt>
<rscale>  0 0.90076774E+02</rscale>
<asrwt>0</asrwt>
<pdfrwt beam="1">  1        2 0.89836880E-03 0.90076774E+02</pdfrwt>
<pdfrwt beam="2">  1       -2 0.53442194E-01 0.90076774E+02</pdfrwt>
<totfact> 0.48261028E+04</totfact>
</mgrwt>
</event>
<event>
 7    1  0.3891761E-009  0.9145188E+02  0.7818608E-02  0.1299373E+00
         -2   -1    0    0    0  501 -0.00000000000E+00  0.00000000000E+00  0.73276452172E+01  0.73276456609E+01  0.25500000000E-02 0.  1.
          2   -1    0    0  501    0  0.00000000000E+00 -0.00000000000E+00 -0.28533879822E+03  0.28533879823E+03  0.25500000000E-02 0. -1.
         23    2    1    2    0    0  0.00000000000E+00  0.00000000000E+00 -0.27801115300E+03  0.29266644389E+03  0.91451879076E+02 0.  0.
    9000005    2    3    3    0    0 -0.34950281159E+02 -0.27860991334E+02 -0.15008566759E+03  0.15715745227E+03  0.13228764044E+02 0.  0.
         22    1    3    3    0    0  0.34950281159E+02  0.27860991334E+02 -0.12792548541E+03  0.13550899162E+03  0.00000000000E+00 0.  1.
         22    1    4    4    0    0 -0.95836574622E+01 -0.23564346364E+01 -0.45517766674E+02  0.46575383601E+02  0.00000000000E+00 0. -1.
         22    1    4    4    0    0 -0.25366623697E+02 -0.25504556698E+02 -0.10456790091E+03  0.11058206867E+03  0.00000000000E+00 0. -1.
<mgrwt>
<rscale>  0 0.91451879E+02</rscale>
<asrwt>0</asrwt>
<pdfrwt beam="2">  1        2 0.43898268E-01 0.91451879E+02</pdfrwt>
<pdfrwt beam="1">  1       -2 0.11273303E-02 0.91451879E+02</pdfrwt>
<totfact> 0.17492148E+05</totfact>
</mgrwt>
</event>
<event>
 7    1  0.3891761E-009  0.8970053E+02  0.7818608E-02  0.1303579E+00
          2   -1    0    0  501    0  0.00000000000E+00  0.00000000000E+00  0.10350751547E+03  0.10350751550E+03  0.25500000000E-02 0. -1.
         -2   -1    0    0    0  501 -0.00000000000E+00 -0.00000000000E+00 -0.19433819885E+02  0.19433820052E+02  0.25500000000E-02 0.  1.
         23    2    1    2    0    0 -0.17763568394E-14  0.35527136788E-14  0.84073695583E+02  0.12294133555E+03  0.89700533432E+02 0.  0.
    9000005    2    3    3    0    0 -0.10142502232E+02  0.30777812649E+02  0.83919087691E+02  0.90535039765E+02  0.10199806041E+02 0.  0.
         22    1    3    3    0    0  0.10142502232E+02 -0.30777812649E+02  0.15460789160E+00  0.32406295786E+02  0.00000000000E+00 0.  1.
         22    1    4    4    0    0 -0.10144595248E+02  0.15626757203E+02  0.41460940821E+02  0.45454570367E+02  0.00000000000E+00 0.  1.
         22    1    4    4    0    0  0.20930167369E-02  0.15151055446E+02  0.42458146870E+02  0.45080469398E+02  0.00000000000E+00 0.  1.
<mgrwt>
<rscale>  0 0.89700533E+02</rscale>
<asrwt>0</asrwt>
<pdfrwt beam="1">  1        2 0.15924233E-01 0.89700533E+02</pdfrwt>
<pdfrwt beam="2">  1       -2 0.29898184E-02 0.89700533E+02</pdfrwt>
<totfact> 0.12965668E+05</totfact>
</mgrwt>
</event>
<event>
 7    1  0.3891761E-009  0.9050654E+02  0.7818608E-02  0.1301630E+00
         -2   -1    0    0    0  501 -0.00000000000E+00  0.00000000000E+00  0.96076830595E+01  0.96076833979E+01  0.25500000000E-02 0.  1.
          2   -1    0    0  501    0  0.00000000000E+00 -0.00000000000E+00 -0.21314798128E+03  0.21314798130E+03  0.25500000000E-02 0. -1.
         23    2    1    2    0    0  0.00000000000E+00 -0.33306690739E-15 -0.20354029822E+03  0.22275566469E+03  0.90506536522E+02 0.  0.
    9000005    2    3    3    0    0  0.32381349425E+02  0.90544951043E+00 -0.17845588504E+03  0.18178495059E+03  0.12243109360E+02 0.  0.
         22    1    3    3    0    0 -0.32381349425E+02 -0.90544951043E+00 -0.25084413181E+02  0.40970714102E+02  0.00000000000E+00 0.  1.
         22    1    4    4    0    0  0.16681763529E+02 -0.24514321567E+01 -0.62961488274E+02  0.65180056457E+02  0.00000000000E+00 0. -1.
         22    1    4    4    0    0  0.15699585896E+02  0.33568816672E+01 -0.11549439676E+03  0.11660489413E+03  0.00000000000E+00 0. -1.
<mgrwt>
<rscale>  0 0.90506537E+02</rscale>
<asrwt>0</asrwt>
<pdfrwt beam="2">  1        2 0.32791993E-01 0.90506537E+02</pdfrwt>
<pdfrwt beam="1">  1       -2 0.14781053E-02 0.90506537E+02</pdfrwt>
<totfact> 0.16146730E+05</totfact>
</mgrwt>
</event>
<event>
 7    1  0.3891761E-009  0.8413480E+02  0.7818608E-02  0.1317711E+00
         -2   -1    0    0    0  501 -0.00000000000E+00  0.00000000000E+00  0.27451029804E+02  0.27451029923E+02  0.25500000000E-02 0.  1.
          2   -1    0    0  501    0  0.00000000000E+00 -0.00000000000E+00 -0.64466288199E+02  0.64466288250E+02  0.25500000000E-02 0. -1.
         23    2    1    2    0    0 -0.88817841970E-15  0.00000000000E+00 -0.37015258395E+02  0.91917318173E+02  0.84134796761E+02 0.  0.
    9000005    2    3    3    0    0 -0.56351057743E+01 -0.15913335174E+02 -0.59918415226E+02  0.63464844708E+02  0.12352383461E+02 0.  0.
         22    1    3    3    0    0  0.56351057743E+01  0.15913335174E+02  0.22903156831E+02  0.28452473465E+02  0.00000000000E+00 0.  1.
         22    1    4    4    0    0  0.12350084629E+01 -0.97924471429E+01 -0.43862513366E+02  0.44959285423E+02  0.00000000000E+00 0.  1.
         22    1    4    4    0    0 -0.68701142371E+01 -0.61208880308E+01 -0.16055901860E+02  0.18505559285E+02  0.00000000000E+00 0.  1.
<mgrwt>
<rscale>  0 0.84134797E+02</rscale>
<asrwt>0</asrwt>
<pdfrwt beam="2">  1        2 0.99178905E-02 0.84134797E+02</pdfrwt>
<pdfrwt beam="1">  1       -2 0.42232354E-02 0.84134797E+02</pdfrwt>
<totfact> 0.13531586E+05</totfact>
</mgrwt>
</event>
<event>
 7    1  0.3891761E-009  0.9206595E+02  0.7818608E-02  0.1297924E+00
          2   -1    0    0  501    0  0.00000000000E+00  0.00000000000E+00  0.70001820155E+02  0.70001820201E+02  0.25500000000E-02 0.  1.
         -2   -1    0    0    0  501 -0.00000000000E+00 -0.00000000000E+00 -0.30271135388E+02  0.30271135495E+02  0.25500000000E-02 0. -1.
         23    2    1    2    0    0  0.00000000000E+00  0.17763568394E-14  0.39730684767E+02  0.10027295570E+03  0.92065945561E+02 0.  0.
    9000005    2    3    3    0    0  0.31077756993E+02  0.13584996156E+02  0.52169830762E+02  0.64146629377E+02  0.15579464639E+02 0.  0.
         22    1    3    3    0    0 -0.31077756993E+02 -0.13584996156E+02 -0.12439145995E+02  0.36126326320E+02  0.00000000000E+00 0. -1.
         22    1    4    4    0    0  0.18099064121E+02  0.14466394219E+02  0.25381138995E+02  0.34366479314E+02  0.00000000000E+00 0.  1.
         22    1    4    4    0    0  0.12978692872E+02 -0.88139806265E+00  0.26788691767E+02  0.29780150063E+02  0.00000000000E+00 0.  1.
<mgrwt>
<rscale>  0 0.92065946E+02</rscale>
<asrwt>0</asrwt>
<pdfrwt beam="1">  1        2 0.10769511E-01 0.92065946E+02</pdfrwt>
<pdfrwt beam="2">  1       -2 0.46570978E-02 0.92065946E+02</pdfrwt>
<totfact> 0.10765227E+05</totfact>
</mgrwt>
</event>
<event>
 7    1  0.3891761E-009  0.9224087E+02  0.7818608E-02  0.1297514E+00
         -2   -1    0    0    0  501 -0.00000000000E+00  0.00000000000E+00  0.39686954844E+01  0.39686963036E+01  0.25500000000E-02 0.  1.
          2   -1    0    0  501    0  0.00000000000E+00 -0.00000000000E+00 -0.53596818793E+03  0.53596818793E+03  0.25500000000E-02 0. -1.
         23    2    1    2    0    0 -0.27755575616E-16 -0.35527136788E-14 -0.53199949244E+03  0.53993688424E+03  0.92240874887E+02 0.  0.
    9000005    2    3    3    0    0 -0.17858739919E+00 -0.22798792889E+02 -0.50066774244E+03  0.50118774994E+03  0.10749504838E+01 0.  0.
         22    1    3    3    0    0  0.17858739919E+00  0.22798792889E+02 -0.31331750007E+02  0.38749134302E+02  0.00000000000E+00 0.  1.
         22    1    4    4    0    0 -0.56903170366E+00 -0.82216692620E+01 -0.17839605366E+03  0.17858631415E+03  0.00000000000E+00 0.  1.
         22    1    4    4    0    0  0.39044430447E+00 -0.14577123627E+02 -0.32227168878E+03  0.32260143578E+03  0.00000000000E+00 0.  1.
<mgrwt>
<rscale>  0 0.92240875E+02</rscale>
<asrwt>0</asrwt>
<pdfrwt beam="2">  1        2 0.82456587E-01 0.92240875E+02</pdfrwt>
<pdfrwt beam="1">  1       -2 0.61056902E-03 0.92240875E+02</pdfrwt>
<totfact> 0.21364755E+05</totfact>
</mgrwt>
</event>
<event>
 7    1  0.3891761E-009  0.9156115E+02  0.7818608E-02  0.1299115E+00
         -2   -1    0    0    0  501 -0.00000000000E+00  0.00000000000E+00  0.74446976216E+02  0.74446976260E+02  0.25500000000E-02 0.  1.
          2   -1    0    0  501    0  0.00000000000E+00 -0.00000000000E+00 -0.28152401051E+02  0.28152401166E+02  0.25500000000E-02 0. -1.
         23    2    1    2    0    0  0.00000000000E+00  0.00000000000E+00  0.46294575165E+02  0.10259937743E+03  0.91561152015E+02 0.  0.
    9000005    2    3    3    0    0  0.43683945613E+02  0.35323325483E+01  0.32858462485E+02  0.56759508299E+02  0.14872751863E+02 0.  0.
         22    1    3    3    0    0 -0.43683945613E+02 -0.35323325483E+01  0.13436112681E+02  0.45839869126E+02  0.00000000000E+00 0. -1.
         22    1    4    4    0    0  0.19651905931E+02 -0.13167604771E+01  0.64496014864E+01  0.20725072357E+02  0.00000000000E+00 0. -1.
         22    1    4    4    0    0  0.24032039682E+02  0.48490930254E+01  0.26408860998E+02  0.36034435942E+02  0.00000000000E+00 0. -1.
<mgrwt>
<rscale>  0 0.91561152E+02</rscale>
<asrwt>0</asrwt>
<pdfrwt beam="2">  1        2 0.43311387E-02 0.91561152E+02</pdfrwt>
<pdfrwt beam="1">  1       -2 0.11453381E-01 0.91561152E+02</pdfrwt>
<totfact> 0.85880895E+04</totfact>
</mgrwt>
</event>
<event>
 7    1  0.3891761E-009  0.8891068E+02  0.7818608E-02  0.1305511E+00
         -2   -1    0    0    0  501 -0.00000000000E+00  0.00000000000E+00  0.39841209890E+02  0.39841209972E+02  0.25500000000E-02 0.  1.
          2   -1    0    0  501    0  0.00000000000E+00 -0.00000000000E+00 -0.49603850036E+02  0.49603850102E+02  0.25500000000E-02 0. -1.
         23    2    1    2    0    0  0.00000000000E+00  0.00000000000E+00 -0.97626401460E+01  0.89445060073E+02  0.88910683435E+02 0.  0.
    9000005    2    3    3    0    0  0.16307727948E+02  0.50723091815E+01 -0.45330954972E+02  0.49989067742E+02  0.12342653837E+02 0.  0.
         22    1    3    3    0    0 -0.16307727948E+02 -0.50723091815E+01  0.35568314826E+02  0.39455992331E+02  0.00000000000E+00 0.  1.
         22    1    4    4    0    0  0.18045678193E+02  0.48347795566E+01 -0.36697504046E+02  0.41179222892E+02  0.00000000000E+00 0. -1.
         22    1    4    4    0    0 -0.17379502450E+01  0.23752962496E+00 -0.86334509267E+01  0.88098448499E+01  0.00000000000E+00 0. -1.
<mgrwt>
<rscale>  0 0.88910683E+02</rscale>
<asrwt>0</asrwt>
<pdfrwt beam="2">  1        2 0.76313615E-02 0.88910683E+02</pdfrwt>
<pdfrwt beam="1">  1       -2 0.61294169E-02 0.88910683E+02</pdfrwt>
<totfact> 0.10835289E+05</totfact>
</mgrwt>
</event>
<event>
 7    1  0.3891761E-009  0.8993925E+02  0.7818608E-02  0.1302999E+00
         -2   -1    0    0    0  501 -0.00000000000E+00  0.00000000000E+00  0.41969261278E+02  0.41969261356E+02  0.25500000000E-02 0.  1.
          2   -1    0    0  501    0  0.00000000000E+00 -0.00000000000E+00 -0.48184487306E+02  0.48184487374E+02  0.25500000000E-02 0. -1.
         23    2    1    2    0    0  0.00000000000E+00  0.00000000000E+00 -0.62152260282E+01  0.90153748730E+02  0.89939253807E+02 0.  0.
    9000005    2    3    3    0    0  0.83780300257E+01 -0.24314298339E+02 -0.39715987165E+02  0.47920142590E+02  0.75897258499E+01 0.  0.
         22    1    3    3    0    0 -0.83780300257E+01  0.24314298339E+02  0.33500761137E+02  0.42233606140E+02  0.00000000000E+00 0.  1.
         22    1    4    4    0    0  0.60801056588E+01 -0.97835552244E+01 -0.22481393659E+02  0.25260615560E+02  0.00000000000E+00 0.  1.
         22    1    4    4    0    0  0.22979243668E+01 -0.14530743114E+02 -0.17234593507E+02  0.22659527029E+02  0.00000000000E+00 0.  1.
<mgrwt>
<rscale>  0 0.89939254E+02</rscale>
<asrwt>0</asrwt>
<pdfrwt beam="2">  1        2 0.74129980E-02 0.89939254E+02</pdfrwt>
<pdfrwt beam="1">  1       -2 0.64568095E-02 0.89939254E+02</pdfrwt>
<totfact> 0.10408644E+05</totfact>
</mgrwt>
</event>
<event>
 7    1  0.3891761E-009  0.9210180E+02  0.7818608E-02  0.1297840E+00
         -2   -1    0    0    0  501 -0.00000000000E+00  0.00000000000E+00  0.64803773585E+01  0.64803778602E+01  0.25500000000E-02 0.  1.
          2   -1    0    0  501    0  0.00000000000E+00 -0.00000000000E+00 -0.32724716477E+03  0.32724716478E+03  0.25500000000E-02 0. -1.
         23    2    1    2    0    0  0.71054273576E-14  0.17763568394E-14 -0.32076678741E+03  0.33372754264E+03  0.92101795913E+02 0.  0.
    9000005    2    3    3    0    0 -0.43417517089E+02 -0.93943579696E+01 -0.19235856639E+03  0.19785257814E+03  0.13057176627E+02 0.  0.
         22    1    3    3    0    0  0.43417517089E+02  0.93943579696E+01 -0.12840822102E+03  0.13587496450E+03  0.00000000000E+00 0.  1.
         22    1    4    4    0    0 -0.11146768587E+02 -0.19637838081E+01 -0.28188777939E+02  0.30376209416E+02  0.00000000000E+00 0.  1.
         22    1    4    4    0    0 -0.32270748502E+02 -0.74305741614E+01 -0.16416978845E+03  0.16747636873E+03  0.00000000000E+00 0.  1.
<mgrwt>
<rscale>  0 0.92101796E+02</rscale>
<asrwt>0</asrwt>
<pdfrwt beam="2">  1        2 0.50345705E-01 0.92101796E+02</pdfrwt>
<pdfrwt beam="1">  1       -2 0.99698142E-03 0.92101796E+02</pdfrwt>
<totfact> 0.18062309E+05</totfact>
</mgrwt>
</event>
<event>
 7    1  0.3891761E-009  0.9965561E+02  0.7818608E-02  0.1281022E+00
         -2   -1    0    0    0  501 -0.00000000000E+00  0.00000000000E+00  0.47246569504E+01  0.47246576385E+01  0.25500000000E-02 0.  1.
          2   -1    0    0  501    0  0.00000000000E+00 -0.00000000000E+00 -0.52550062037E+03  0.52550062038E+03  0.25500000000E-02 0. -1.
         23    2    1    2    0    0  0.00000000000E+00  0.00000000000E+00 -0.52077596342E+03  0.53022527802E+03  0.99655613842E+02 0.  0.
    9000005    2    3    3    0    0 -0.42172065063E+02 -0.15179949857E+02 -0.36725708810E+03  0.37029729726E+03  0.15277619187E+02 0.  0.
         22    1    3    3    0    0  0.42172065063E+02  0.15179949857E+02 -0.15351887532E+03  0.15992798076E+03  0.00000000000E+00 0. -1.
         22    1    4    4    0    0 -0.16632316056E+01 -0.54402376485E+01 -0.43320163162E+02  0.43692093809E+02  0.00000000000E+00 0.  1.
         22    1    4    4    0    0 -0.40508833457E+02 -0.97397122083E+01 -0.32393692494E+03  0.32660520345E+03  0.00000000000E+00 0.  1.
<mgrwt>
<rscale>  0 0.99655614E+02</rscale>
<asrwt>0</asrwt>
<pdfrwt beam="2">  1        2 0.80846203E-01 0.99655614E+02</pdfrwt>
<pdfrwt beam="1">  1       -2 0.72687077E-03 0.99655614E+02</pdfrwt>
<totfact> 0.17286710E+05</totfact>
</mgrwt>
</event>
<event>
 7    1  0.3891761E-009  0.9101910E+02  0.7818608E-02  0.1300402E+00
         -2   -1    0    0    0  501 -0.00000000000E+00  0.00000000000E+00  0.28777954229E+03  0.28777954230E+03  0.25500000000E-02 0.  1.
          2   -1    0    0  501    0  0.00000000000E+00 -0.00000000000E+00 -0.71968953259E+01  0.71968957776E+01  0.25500000000E-02 0. -1.
         23    2    1    2    0    0  0.00000000000E+00  0.00000000000E+00  0.28058264696E+03  0.29497643808E+03  0.91019103732E+02 0.  0.
    9000005    2    3    3    0    0 -0.43932092445E+01 -0.35770891896E+02  0.22719467891E+03  0.23056268080E+03  0.15584307986E+02 0.  0.
         22    1    3    3    0    0  0.43932092445E+01  0.35770891896E+02  0.53387968049E+02  0.64413757280E+02  0.00000000000E+00 0. -1.
         22    1    4    4    0    0  0.11380871335E+01 -0.32004289564E+02  0.17119481437E+03  0.17416438861E+03  0.00000000000E+00 0.  1.
         22    1    4    4    0    0 -0.55312963780E+01 -0.37666023324E+01  0.55999864539E+02  0.56398292182E+02  0.00000000000E+00 0.  1.
<mgrwt>
<rscale>  0 0.91019104E+02</rscale>
<asrwt>0</asrwt>
<pdfrwt beam="2">  1        2 0.11072147E-02 0.91019104E+02</pdfrwt>
<pdfrwt beam="1">  1       -2 0.44273774E-01 0.91019104E+02</pdfrwt>
<totfact> 0.52424865E+04</totfact>
</mgrwt>
</event>
<event>
 7    1  0.3891761E-009  0.8796082E+02  0.7818608E-02  0.1307866E+00
         -2   -1    0    0    0  501 -0.00000000000E+00  0.00000000000E+00  0.17345698854E+03  0.17345698856E+03  0.25500000000E-02 0. -1.
          2   -1    0    0  501    0  0.00000000000E+00 -0.00000000000E+00 -0.11151332237E+02  0.11151332529E+02  0.25500000000E-02 0.  1.
         23    2    1    2    0    0  0.00000000000E+00  0.00000000000E+00  0.16230565630E+03  0.18460832109E+03  0.87960821659E+02 0.  0.
    9000005    2    3    3    0    0  0.26245705906E+02 -0.30393798343E+02  0.11862460177E+03  0.12527321696E+03  0.29937747442E+01 0.  0.
         22    1    3    3    0    0 -0.26245705906E+02  0.30393798343E+02  0.43681054530E+02  0.59335104121E+02  0.00000000000E+00 0.  1.
         22    1    4    4    0    0  0.22604456127E+02 -0.25430733741E+02  0.97273407312E+02  0.10305241106E+03  0.00000000000E+00 0.  1.
         22    1    4    4    0    0  0.36412497782E+01 -0.49630646025E+01  0.21351194458E+02  0.22220805903E+02  0.00000000000E+00 0.  1.
<mgrwt>
<rscale>  0 0.87960822E+02</rscale>
<asrwt>0</asrwt>
<pdfrwt beam="2">  1        2 0.17155897E-02 0.87960822E+02</pdfrwt>
<pdfrwt beam="1">  1       -2 0.26685689E-01 0.87960822E+02</pdfrwt>
<totfact> 0.72421864E+04</totfact>
</mgrwt>
</event>
<event>
 7    1  0.3891761E-009  0.9260934E+02  0.7818608E-02  0.1296653E+00
          2   -1    0    0  501    0  0.00000000000E+00  0.00000000000E+00  0.33578168496E+03  0.33578168497E+03  0.25500000000E-02 0. -1.
         -2   -1    0    0    0  501 -0.00000000000E+00 -0.00000000000E+00 -0.63854648913E+01  0.63854654004E+01  0.25500000000E-02 0.  1.
         23    2    1    2    0    0  0.00000000000E+00  0.00000000000E+00  0.32939622007E+03  0.34216715037E+03  0.92609335366E+02 0.  0.
    9000005    2    3    3    0    0 -0.19528811677E+02  0.18012134099E+02  0.30418664455E+03  0.30554292125E+03  0.11006840981E+02 0.  0.
         22    1    3    3    0    0  0.19528811677E+02 -0.18012134099E+02  0.25209575523E+02  0.36624229116E+02  0.00000000000E+00 0.  1.
         22    1    4    4    0    0 -0.51592055738E+01  0.49084571008E+01  0.14468008269E+03  0.14485522662E+03  0.00000000000E+00 0.  1.
         22    1    4    4    0    0 -0.14369606103E+02  0.13103676998E+02  0.15950656186E+03  0.16068769463E+03  0.00000000000E+00 0.  1.
<mgrwt>
<rscale>  0 0.92609335E+02</rscale>
<asrwt>0</asrwt>
<pdfrwt beam="1">  1        2 0.51658716E-01 0.92609335E+02</pdfrwt>
<pdfrwt beam="2">  1       -2 0.98237935E-03 0.92609335E+02</pdfrwt>
<totfact> 0.17969554E+05</totfact>
</mgrwt>
</event>
<event>
 7    1  0.3891761E-009  0.1050893E+03  0.7818608E-02  0.1269944E+00
         -2   -1    0    0    0  501 -0.00000000000E+00  0.00000000000E+00  0.29188781269E+02  0.29188781381E+02  0.25500000000E-02 0.  1.
          2   -1    0    0  501    0  0.00000000000E+00 -0.00000000000E+00 -0.94589000724E+02  0.94589000758E+02  0.25500000000E-02 0. -1.
         23    2    1    2    0    0 -0.35527136788E-14  0.00000000000E+00 -0.65400219455E+02  0.12377778214E+03  0.10508925086E+03 0.  0.
    9000005    2    3    3    0    0  0.24674448189E+02 -0.16334743374E+02 -0.83288241735E+02  0.89199847331E+02  0.12001221523E+02 0.  0.
         22    1    3    3    0    0 -0.24674448189E+02  0.16334743374E+02  0.17888022280E+02  0.34577934808E+02  0.00000000000E+00 0.  1.
         22    1    4    4    0    0 -0.79774820433E+00  0.44105623996E+00 -0.66941828642E+00  0.11309525395E+01  0.00000000000E+00 0. -1.
         22    1    4    4    0    0  0.25472196393E+02 -0.16775799613E+02 -0.82618823448E+02  0.88068894791E+02  0.00000000000E+00 0. -1.
<mgrwt>
<rscale>  0 0.10508925E+03</rscale>
<asrwt>0</asrwt>
<pdfrwt beam="2">  1        2 0.14552154E-01 0.10508925E+03</pdfrwt>
<pdfrwt beam="1">  1       -2 0.44905818E-02 0.10508925E+03</pdfrwt>
<totfact> 0.81156604E+04</totfact>
</mgrwt>
</event>
<event>
 7    1  0.3891761E-009  0.9081783E+02  0.7818608E-02  0.1300883E+00
         -2   -1    0    0    0  501 -0.00000000000E+00  0.00000000000E+00  0.54326774575E+03  0.54326774575E+03  0.25500000000E-02 0.  1.
          2   -1    0    0  501    0  0.00000000000E+00 -0.00000000000E+00 -0.37954941442E+01  0.37954950008E+01  0.25500000000E-02 0. -1.
         23    2    1    2    0    0  0.00000000000E+00  0.00000000000E+00  0.53947225160E+03  0.54706324075E+03  0.90817834892E+02 0.  0.
    9000005    2    3    3    0    0  0.14155932850E+02  0.31538557072E+02  0.44207109101E+03  0.44370920309E+03  0.15998011789E+02 0.  0.
         22    1    3    3    0    0 -0.14155932850E+02 -0.31538557072E+02  0.97401160594E+02  0.10335403767E+03  0.00000000000E+00 0. -1.
         22    1    4    4    0    0  0.15627435941E+02  0.32513567397E+02  0.42988217183E+03  0.43139312753E+03  0.00000000000E+00 0. -1.
         22    1    4    4    0    0 -0.14715030914E+01 -0.97501032534E+00  0.12188919173E+02  0.12316075556E+02  0.00000000000E+00 0. -1.
<mgrwt>
<rscale>  0 0.90817835E+02</rscale>
<asrwt>0</asrwt>
<pdfrwt beam="2">  1        2 0.58392169E-03 0.90817835E+02</pdfrwt>
<pdfrwt beam="1">  1       -2 0.83579732E-01 0.90817835E+02</pdfrwt>
<totfact> 0.34329264E+04</totfact>
</mgrwt>
</event>
<event>
 7    1  0.3891761E-009  0.9168639E+02  0.7818608E-02  0.1298819E+00
          2   -1    0    0  501    0  0.00000000000E+00  0.00000000000E+00  0.30330456450E+02  0.30330456557E+02  0.25500000000E-02 0. -1.
         -2   -1    0    0    0  501 -0.00000000000E+00 -0.00000000000E+00 -0.69290034353E+02  0.69290034400E+02  0.25500000000E-02 0.  1.
         23    2    1    2    0    0  0.00000000000E+00  0.00000000000E+00 -0.38959577903E+02  0.99620490957E+02  0.91686386711E+02 0.  0.
    9000005    2    3    3    0    0 -0.36661358327E+01 -0.19826028663E+02 -0.63225630808E+02  0.68071270871E+02  0.15156040464E+02 0.  0.
         22    1    3    3    0    0  0.36661358327E+01  0.19826028663E+02  0.24266052904E+02  0.31549220086E+02  0.00000000000E+00 0. -1.
         22    1    4    4    0    0 -0.56002765561E+01 -0.56619594663E+00 -0.10657950670E+02  0.12053032309E+02  0.00000000000E+00 0.  1.
         22    1    4    4    0    0  0.19341407234E+01 -0.19259832716E+02 -0.52567680138E+02  0.56018238563E+02  0.00000000000E+00 0.  1.
<mgrwt>
<rscale>  0 0.91686387E+02</rscale>
<asrwt>0</asrwt>
<pdfrwt beam="1">  1        2 0.46662241E-02 0.91686387E+02</pdfrwt>
<pdfrwt beam="2">  1       -2 0.10660005E-01 0.91686387E+02</pdfrwt>
<totfact> 0.87268629E+04</totfact>
</mgrwt>
</event>
<event>
 7    1  0.3891761E-009  0.9010423E+02  0.7818608E-02  0.1302599E+00
         -2   -1    0    0    0  501 -0.00000000000E+00  0.00000000000E+00  0.71976824591E+02  0.71976824637E+02  0.25500000000E-02 0.  1.
          2   -1    0    0  501    0  0.00000000000E+00 -0.00000000000E+00 -0.28199259444E+02  0.28199259559E+02  0.25500000000E-02 0. -1.
         23    2    1    2    0    0  0.00000000000E+00  0.00000000000E+00  0.43777565148E+02  0.10017608420E+03  0.90104232057E+02 0.  0.
    9000005    2    3    3    0    0  0.13214841984E+02  0.34166030892E+02  0.49284012895E+02  0.63131912153E+02  0.14655193258E+02 0.  0.
         22    1    3    3    0    0 -0.13214841984E+02 -0.34166030892E+02 -0.55064477475E+01  0.37044172043E+02  0.00000000000E+00 0. -1.
         22    1    4    4    0    0 -0.30918066680E+01  0.41138275890E+01  0.49052842407E+01  0.71094767309E+01  0.00000000000E+00 0.  1.
         22    1    4    4    0    0  0.16306648652E+02  0.30052203303E+02  0.44378728654E+02  0.56022435422E+02  0.00000000000E+00 0.  1.
<mgrwt>
<rscale>  0 0.90104232E+02</rscale>
<asrwt>0</asrwt>
<pdfrwt beam="2">  1        2 0.43383477E-02 0.90104232E+02</pdfrwt>
<pdfrwt beam="1">  1       -2 0.11073358E-01 0.90104232E+02</pdfrwt>
<totfact> 0.90128201E+04</totfact>
</mgrwt>
</event>
<event>
 7    1  0.3891761E-009  0.9148689E+02  0.7818608E-02  0.1299290E+00
         -2   -1    0    0    0  501 -0.00000000000E+00  0.00000000000E+00  0.41067374010E+01  0.41067381927E+01  0.25500000000E-02 0.  1.
          2   -1    0    0  501    0  0.00000000000E+00 -0.00000000000E+00 -0.50951945289E+03  0.50951945289E+03  0.25500000000E-02 0. -1.
         23    2    1    2    0    0  0.00000000000E+00  0.00000000000E+00 -0.50541271548E+03  0.51362619109E+03  0.91486890835E+02 0.  0.
    9000005    2    3    3    0    0  0.23597055032E+02 -0.14397483241E+02 -0.45563405334E+03  0.45668741928E+03  0.14032100138E+02 0.  0.
         22    1    3    3    0    0 -0.23597055032E+02  0.14397483241E+02 -0.49778662142E+02  0.56938771803E+02  0.00000000000E+00 0.  1.
         22    1    4    4    0    0  0.15434335713E+02 -0.13214169191E+01 -0.24620142742E+03  0.24668828048E+03  0.00000000000E+00 0. -1.
         22    1    4    4    0    0  0.81627193192E+01 -0.13076066322E+02 -0.20943262592E+03  0.20999913880E+03  0.00000000000E+00 0. -1.
<mgrwt>
<rscale>  0 0.91486891E+02</rscale>
<asrwt>0</asrwt>
<pdfrwt beam="2">  1        2 0.78387558E-01 0.91486891E+02</pdfrwt>
<pdfrwt beam="1">  1       -2 0.63180622E-03 0.91486891E+02</pdfrwt>
<totfact> 0.21487417E+05</totfact>
</mgrwt>
</event>
<event>
 7    1  0.3891761E-009  0.9158760E+02  0.7818608E-02  0.1299052E+00
         -2   -1    0    0    0  501 -0.00000000000E+00  0.00000000000E+00  0.45394504371E+02  0.45394504442E+02  0.25500000000E-02 0.  1.
          2   -1    0    0  501    0  0.00000000000E+00 -0.00000000000E+00 -0.46196609961E+02  0.46196610031E+02  0.25500000000E-02 0. -1.
         23    2    1    2    0    0  0.35527136788E-14  0.88817841970E-15 -0.80210559009E+00  0.91591114473E+02  0.91587602202E+02 0.  0.
    9000005    2    3    3    0    0  0.20743215813E+02  0.49297106458E+01  0.39991238334E+02  0.45561993715E+02  0.46918097305E+01 0.  0.
         22    1    3    3    0    0 -0.20743215813E+02 -0.49297106458E+01 -0.40793343924E+02  0.46029120758E+02  0.00000000000E+00 0. -1.
         22    1    4    4    0    0  0.97968590568E+00 -0.50480828302E+00  0.89980069310E+00  0.14227639171E+01  0.00000000000E+00 0. -1.
         22    1    4    4    0    0  0.19763529907E+02  0.54345189288E+01  0.39091437640E+02  0.44139229798E+02  0.00000000000E+00 0. -1.
<mgrwt>
<rscale>  0 0.91587602E+02</rscale>
<asrwt>0</asrwt>
<pdfrwt beam="2">  1        2 0.71071708E-02 0.91587602E+02</pdfrwt>
<pdfrwt beam="1">  1       -2 0.69837699E-02 0.91587602E+02</pdfrwt>
<totfact> 0.97745046E+04</totfact>
</mgrwt>
</event>
<event>
 7    1  0.3891761E-009  0.9099932E+02  0.7818608E-02  0.1300450E+00
          2   -1    0    0  501    0  0.00000000000E+00  0.00000000000E+00  0.40083206799E+03  0.40083206800E+03  0.25500000000E-02 0.  1.
         -2   -1    0    0    0  501 -0.00000000000E+00 -0.00000000000E+00 -0.51648040916E+01  0.51648047211E+01  0.25500000000E-02 0. -1.
         23    2    1    2    0    0  0.00000000000E+00 -0.35527136788E-14  0.39566726390E+03  0.40599687272E+03  0.90999323827E+02 0.  0.
    9000005    2    3    3    0    0  0.35164588071E+02  0.27298842462E+02  0.23611420436E+03  0.24034979649E+03  0.60276131385E+01 0.  0.
         22    1    3    3    0    0 -0.35164588071E+02 -0.27298842462E+02  0.15955305954E+03  0.16564707623E+03  0.00000000000E+00 0. -1.
         22    1    4    4    0    0  0.23635893809E+02  0.19642285240E+02  0.17600545265E+03  0.17866839174E+03  0.00000000000E+00 0.  1.
         22    1    4    4    0    0  0.11528694261E+02  0.76565572212E+01  0.60108751708E+02  0.61681404749E+02  0.00000000000E+00 0.  1.
<mgrwt>
<rscale>  0 0.90999324E+02</rscale>
<asrwt>0</asrwt>
<pdfrwt beam="1">  1        2 0.61666450E-01 0.90999324E+02</pdfrwt>
<pdfrwt beam="2">  1       -2 0.79458558E-03 0.90999324E+02</pdfrwt>
<totfact> 0.20080974E+05</totfact>
</mgrwt>
</event>
<event>
 7    1  0.3891761E-009  0.9669745E+02  0.7818608E-02  0.1287398E+00
          2   -1    0    0  501    0  0.00000000000E+00  0.00000000000E+00  0.12878974360E+04  0.12878974360E+04  0.25500000000E-02 0. -1.
         -2   -1    0    0    0  501 -0.00000000000E+00 -0.00000000000E+00 -0.18150500117E+01  0.18150518030E+01  0.25500000000E-02 0.  1.
         23    2    1    2    0    0  0.00000000000E+00  0.00000000000E+00  0.12860823860E+04  0.12897124878E+04  0.96697454216E+02 0.  0.
    9000005    2    3    3    0    0  0.32554460445E+02 -0.36530628519E+01  0.11130692592E+04  0.11136253509E+04  0.12849455087E+02 0.  0.
         22    1    3    3    0    0 -0.32554460445E+02  0.36530628519E+01  0.17301312674E+03  0.17608713692E+03  0.00000000000E+00 0.  1.
         22    1    4    4    0    0  0.13923863445E+02 -0.78321992809E+01  0.55308304492E+03  0.55331371924E+03  0.00000000000E+00 0.  1.
         22    1    4    4    0    0  0.18630597001E+02  0.41791364290E+01  0.55998621429E+03  0.56031163162E+03  0.00000000000E+00 0.  1.
<mgrwt>
<rscale>  0 0.96697454E+02</rscale>
<asrwt>0</asrwt>
<pdfrwt beam="1">  1        2 0.19813787E+00 0.96697454E+02</pdfrwt>
<pdfrwt beam="2">  1       -2 0.27923888E-03 0.96697454E+02</pdfrwt>
<totfact> 0.21074193E+05</totfact>
</mgrwt>
</event>
<event>
 7    1  0.3891761E-009  0.8842984E+02  0.7818608E-02  0.1306699E+00
         -2   -1    0    0    0  501 -0.00000000000E+00  0.00000000000E+00  0.30220504072E+01  0.30220514830E+01  0.25500000000E-02 0.  1.
          2   -1    0    0  501    0  0.00000000000E+00 -0.00000000000E+00 -0.64689814524E+03  0.64689814524E+03  0.25500000000E-02 0. -1.
         23    2    1    2    0    0  0.00000000000E+00  0.00000000000E+00 -0.64387609483E+03  0.64992019673E+03  0.88429840088E+02 0.  0.
    9000005    2    3    3    0    0 -0.36654443214E+02 -0.21177454672E+02 -0.40471993164E+03  0.40704635461E+03  0.98223692717E+01 0.  0.
         22    1    3    3    0    0  0.36654443214E+02  0.21177454672E+02 -0.23915616319E+03  0.24287384212E+03  0.00000000000E+00 0. -1.
         22    1    4    4    0    0 -0.19223468815E+02 -0.54761249621E+01 -0.18211622884E+03  0.18320985373E+03  0.00000000000E+00 0. -1.
         22    1    4    4    0    0 -0.17430974399E+02 -0.15701329710E+02 -0.22260370280E+03  0.22383650088E+03  0.00000000000E+00 0. -1.
<mgrwt>
<rscale>  0 0.88429840E+02</rscale>
<asrwt>0</asrwt>
<pdfrwt beam="2">  1        2 0.99522681E-01 0.88429840E+02</pdfrwt>
<pdfrwt beam="1">  1       -2 0.46493143E-03 0.88429840E+02</pdfrwt>
<totfact> 0.25208652E+05</totfact>
</mgrwt>
</event>
<event>
 7    1  0.3891761E-009  0.8908668E+02  0.7818608E-02  0.1305079E+00
          2   -1    0    0  501    0  0.00000000000E+00  0.00000000000E+00  0.69623143218E+03  0.69623143218E+03  0.25500000000E-02 0. -1.
         -2   -1    0    0    0  501 -0.00000000000E+00 -0.00000000000E+00 -0.28497836074E+01  0.28497847482E+01  0.25500000000E-02 0.  1.
         23    2    1    2    0    0 -0.35527136788E-14  0.00000000000E+00  0.69338164857E+03  0.69908121693E+03  0.89086684140E+02 0.  0.
    9000005    2    3    3    0    0 -0.17919086539E+02 -0.23810711734E+02  0.60563800871E+03  0.60641520378E+03  0.73456202211E+01 0.  0.
         22    1    3    3    0    0  0.17919086539E+02  0.23810711734E+02  0.87743639866E+02  0.92666013147E+02  0.00000000000E+00 0.  1.
         22    1    4    4    0    0 -0.74463606608E+01 -0.44801766593E+01  0.16271955028E+03  0.16295144158E+03  0.00000000000E+00 0. -1.
         22    1    4    4    0    0 -0.10472725878E+02 -0.19330535075E+02  0.44291845843E+03  0.44346376220E+03  0.00000000000E+00 0. -1.
<mgrwt>
<rscale>  0 0.89086684E+02</rscale>
<asrwt>0</asrwt>
<pdfrwt beam="1">  1        2 0.10711260E+00 0.89086684E+02</pdfrwt>
<pdfrwt beam="2">  1       -2 0.43842802E-03 0.89086684E+02</pdfrwt>
<totfact> 0.25176338E+05</totfact>
</mgrwt>
</event>
<event>
 7    1  0.3891761E-009  0.9230902E+02  0.7818608E-02  0.1297354E+00
         -2   -1    0    0    0  501 -0.00000000000E+00  0.00000000000E+00  0.45089475629E+03  0.45089475630E+03  0.25500000000E-02 0.  1.
          2   -1    0    0  501    0  0.00000000000E+00 -0.00000000000E+00 -0.47244700032E+01  0.47244706913E+01  0.25500000000E-02 0. -1.
         23    2    1    2    0    0  0.00000000000E+00  0.17763568394E-14  0.44617028629E+03  0.45561922699E+03  0.92309022508E+02 0.  0.
    9000005    2    3    3    0    0  0.42963581664E+02 -0.13675798958E+02  0.20324091483E+03  0.20854114956E+03  0.12232938105E+02 0.  0.
         22    1    3    3    0    0 -0.42963581664E+02  0.13675798958E+02  0.24292937146E+03  0.24707807743E+03  0.00000000000E+00 0.  1.
         22    1    4    4    0    0  0.33172820077E+02 -0.81217858002E+01  0.17139140387E+03  0.17476101601E+03  0.00000000000E+00 0. -1.
         22    1    4    4    0    0  0.97907615877E+01 -0.55540131579E+01  0.31849510958E+02  0.33780133553E+02  0.00000000000E+00 0. -1.
<mgrwt>
<rscale>  0 0.92309023E+02</rscale>
<asrwt>0</asrwt>
<pdfrwt beam="2">  1        2 0.72684125E-03 0.92309023E+02</pdfrwt>
<pdfrwt beam="1">  1       -2 0.69368457E-01 0.92309023E+02</pdfrwt>
<totfact> 0.38011078E+04</totfact>
</mgrwt>
</event>
<event>
 7    1  0.3891761E-009  0.9474546E+02  0.7818608E-02  0.1291750E+00
         -2   -1    0    0    0  501 -0.00000000000E+00  0.00000000000E+00  0.58933058222E+02  0.58933058278E+02  0.25500000000E-02 0. -1.
          2   -1    0    0  501    0  0.00000000000E+00 -0.00000000000E+00 -0.38080077315E+02  0.38080077401E+02  0.25500000000E-02 0.  1.
         23    2    1    2    0    0  0.00000000000E+00  0.00000000000E+00  0.20852980907E+02  0.97013135678E+02  0.94745457313E+02 0.  0.
    9000005    2    3    3    0    0  0.11254521917E+01 -0.37065370384E+02 -0.19209999040E+02  0.42422379258E+02  0.74515685905E+01 0.  0.
         22    1    3    3    0    0 -0.11254521917E+01  0.37065370384E+02  0.40062979947E+02  0.54590756420E+02  0.00000000000E+00 0. -1.
         22    1    4    4    0    0  0.79125727473E+00 -0.78559003190E+00 -0.19465314706E+01  0.22432620308E+01  0.00000000000E+00 0. -1.
         22    1    4    4    0    0  0.33419491700E+00 -0.36279780352E+02 -0.17263467569E+02  0.40179117227E+02  0.00000000000E+00 0. -1.
<mgrwt>
<rscale>  0 0.94745457E+02</rscale>
<asrwt>0</asrwt>
<pdfrwt beam="2">  1        2 0.58584734E-02 0.94745457E+02</pdfrwt>
<pdfrwt beam="1">  1       -2 0.90666244E-02 0.94745457E+02</pdfrwt>
<totfact> 0.84183650E+04</totfact>
</mgrwt>
</event>
<event>
 7    1  0.3891761E-009  0.8852693E+02  0.7818608E-02  0.1306459E+00
          2   -1    0    0  501    0  0.00000000000E+00  0.00000000000E+00  0.25525595426E+03  0.25525595427E+03  0.25500000000E-02 0. -1.
         -2   -1    0    0    0  501 -0.00000000000E+00 -0.00000000000E+00 -0.76756450637E+01  0.76756454873E+01  0.25500000000E-02 0.  1.
         23    2    1    2    0    0  0.00000000000E+00  0.00000000000E+00  0.24758030919E+03  0.26293159976E+03  0.88526926132E+02 0.  0.
    9000005    2    3    3    0    0 -0.10406961562E+02 -0.37231464525E+02  0.62334929764E+02  0.73695405018E+02  0.71331936994E+01 0.  0.
         22    1    3    3    0    0  0.10406961562E+02  0.37231464525E+02  0.18524537943E+03  0.18923619474E+03  0.00000000000E+00 0. -1.
         22    1    4    4    0    0 -0.67430193507E+00 -0.42618420943E+01  0.35087228543E+01  0.55613952570E+01  0.00000000000E+00 0.  1.
         22    1    4    4    0    0 -0.97326596273E+01 -0.32969622431E+02  0.58826206910E+02  0.68134009761E+02  0.00000000000E+00 0.  1.
<mgrwt>
<rscale>  0 0.88526926E+02</rscale>
<asrwt>0</asrwt>
<pdfrwt beam="1">  1        2 0.39270140E-01 0.88526926E+02</pdfrwt>
<pdfrwt beam="2">  1       -2 0.11808687E-02 0.88526926E+02</pdfrwt>
<totfact> 0.18302249E+05</totfact>
</mgrwt>
</event>
<event>
 7    1  0.3891761E-009  0.9065643E+02  0.7818608E-02  0.1301270E+00
         -2   -1    0    0    0  501 -0.00000000000E+00  0.00000000000E+00  0.53137637218E+02  0.53137637280E+02  0.25500000000E-02 0.  1.
          2   -1    0    0  501    0  0.00000000000E+00 -0.00000000000E+00 -0.38666508526E+02  0.38666508610E+02  0.25500000000E-02 0. -1.
         23    2    1    2    0    0  0.71054273576E-14  0.00000000000E+00  0.14471128692E+02  0.91804145890E+02  0.90656426341E+02 0.  0.
    9000005    2    3    3    0    0  0.37923820527E+02 -0.10063232453E+02 -0.13626554587E+02  0.43544798438E+02  0.13075995959E+02 0.  0.
         22    1    3    3    0    0 -0.37923820527E+02  0.10063232453E+02  0.28097683279E+02  0.48259347452E+02  0.00000000000E+00 0.  1.
         22    1    4    4    0    0  0.10771632329E+02 -0.24633733067E+01 -0.10383992007E+02  0.15163230562E+02  0.00000000000E+00 0.  1.
         22    1    4    4    0    0  0.27152188199E+02 -0.75998591463E+01 -0.32425625799E+01  0.28381567876E+02  0.00000000000E+00 0.  1.
<mgrwt>
<rscale>  0 0.90656426E+02</rscale>
<asrwt>0</asrwt>
<pdfrwt beam="2">  1        2 0.59486937E-02 0.90656426E+02</pdfrwt>
<pdfrwt beam="1">  1       -2 0.81750211E-02 0.90656426E+02</pdfrwt>
<totfact> 0.96137860E+04</totfact>
</mgrwt>
</event>
<event>
 7    1  0.3891761E-009  0.9003579E+02  0.7818608E-02  0.1302765E+00
         -2   -1    0    0    0  501 -0.00000000000E+00  0.00000000000E+00  0.63269589079E+02  0.63269589130E+02  0.25500000000E-02 0.  1.
          2   -1    0    0  501    0  0.00000000000E+00 -0.00000000000E+00 -0.32031354965E+02  0.32031355067E+02  0.25500000000E-02 0. -1.
         23    2    1    2    0    0  0.00000000000E+00  0.11102230246E-15  0.31238234114E+02  0.95300944197E+02  0.90035785631E+02 0.  0.
    9000005    2    3    3    0    0  0.20614710943E+02 -0.81500076808E+00 -0.25396664541E+02  0.35025391282E+02  0.12496276692E+02 0.  0.
         22    1    3    3    0    0 -0.20614710943E+02  0.81500076808E+00  0.56634898655E+02  0.60275552914E+02  0.00000000000E+00 0.  1.
         22    1    4    4    0    0  0.82444143285E+01  0.57875059820E+01 -0.98315611612E+01  0.14075694938E+02  0.00000000000E+00 0.  1.
         22    1    4    4    0    0  0.12370296615E+02 -0.66025067501E+01 -0.15565103379E+02  0.20949696345E+02  0.00000000000E+00 0.  1.
<mgrwt>
<rscale>  0 0.90035786E+02</rscale>
<asrwt>0</asrwt>
<pdfrwt beam="2">  1        2 0.49279008E-02 0.90035786E+02</pdfrwt>
<pdfrwt beam="1">  1       -2 0.97337829E-02 0.90035786E+02</pdfrwt>
<totfact> 0.93418192E+04</totfact>
</mgrwt>
</event>
<event>
 7    1  0.3891761E-009  0.9406180E+02  0.7818608E-02  0.1293303E+00
          2   -1    0    0  501    0  0.00000000000E+00  0.00000000000E+00  0.47715352979E+03  0.47715352980E+03  0.25500000000E-02 0. -1.
         -2   -1    0    0    0  501 -0.00000000000E+00 -0.00000000000E+00 -0.46356265502E+01  0.46356272515E+01  0.25500000000E-02 0.  1.
         23    2    1    2    0    0  0.00000000000E+00  0.00000000000E+00  0.47251790324E+03  0.48178915705E+03  0.94061803976E+02 0.  0.
    9000005    2    3    3    0    0 -0.22856592858E+02  0.35061111531E+02  0.34107620677E+03  0.34384487500E+03  0.12025550321E+02 0.  0.
         22    1    3    3    0    0  0.22856592858E+02 -0.35061111531E+02  0.13144169647E+03  0.13794428205E+03  0.00000000000E+00 0.  1.
         22    1    4    4    0    0 -0.64995558679E+01  0.94059899091E+01  0.14169354246E+03  0.14215406026E+03  0.00000000000E+00 0.  1.
         22    1    4    4    0    0 -0.16357036990E+02  0.25655121622E+02  0.19938266431E+03  0.20169081474E+03  0.00000000000E+00 0.  1.
<mgrwt>
<rscale>  0 0.94061804E+02</rscale>
<asrwt>0</asrwt>
<pdfrwt beam="1">  1        2 0.73408187E-01 0.94061804E+02</pdfrwt>
<pdfrwt beam="2">  1       -2 0.71317384E-03 0.94061804E+02</pdfrwt>
<totfact> 0.19536714E+05</totfact>
</mgrwt>
</event>
<event>
 7    1  0.3891761E-009  0.9192033E+02  0.7818608E-02  0.1298267E+00
          2   -1    0    0  501    0  0.00000000000E+00  0.00000000000E+00  0.56576642353E+02  0.56576642410E+02  0.25500000000E-02 0. -1.
         -2   -1    0    0    0  501 -0.00000000000E+00 -0.00000000000E+00 -0.37335843765E+02  0.37335843852E+02  0.25500000000E-02 0.  1.
         23    2    1    2    0    0 -0.71054273576E-14  0.17763568394E-14  0.19240798588E+02  0.93912486262E+02  0.91920328250E+02 0.  0.
    9000005    2    3    3    0    0 -0.38765048311E+02  0.11133827505E+02 -0.10046026241E+02  0.44068638155E+02  0.14643467490E+02 0.  0.
         22    1    3    3    0    0  0.38765048311E+02 -0.11133827505E+02  0.29286824829E+02  0.49843848107E+02  0.00000000000E+00 0. -1.
         22    1    4    4    0    0 -0.10674768550E+02 -0.29068112471E+01  0.10795820116E+00  0.11063990699E+02  0.00000000000E+00 0. -1.
         22    1    4    4    0    0 -0.28090279761E+02  0.14040638752E+02 -0.10153984442E+02  0.33004647456E+02  0.00000000000E+00 0. -1.
<mgrwt>
<rscale>  0 0.91920328E+02</rscale>
<asrwt>0</asrwt>
<pdfrwt beam="1">  1        2 0.87040987E-02 0.91920328E+02</pdfrwt>
<pdfrwt beam="2">  1       -2 0.57439760E-02 0.91920328E+02</pdfrwt>
<totfact> 0.10204265E+05</totfact>
</mgrwt>
</event>
<event>
 7    1  0.3891761E-009  0.9254072E+02  0.7818608E-02  0.1296813E+00
          2   -1    0    0  501    0  0.00000000000E+00  0.00000000000E+00  0.11203721498E+04  0.11203721498E+04  0.25500000000E-02 0. -1.
         -2   -1    0    0    0  501 -0.00000000000E+00 -0.00000000000E+00 -0.19109231370E+01  0.19109248384E+01  0.25500000000E-02 0.  1.
         23    2    1    2    0    0  0.00000000000E+00  0.00000000000E+00  0.11184612267E+04  0.11222830747E+04  0.92540715786E+02 0.  0.
    9000005    2    3    3    0    0  0.26537624906E+02 -0.11689441809E+02  0.99460842806E+03  0.99508085647E+03  0.99547559197E+01 0.  0.
         22    1    3    3    0    0 -0.26537624906E+02  0.11689441809E+02  0.12385279865E+03  0.12720221821E+03  0.00000000000E+00 0.  1.
         22    1    4    4    0    0  0.78359083325E+01 -0.78451826595E+01  0.45399306134E+03  0.45412844889E+03  0.00000000000E+00 0.  1.
         22    1    4    4    0    0  0.18701716573E+02 -0.38442591494E+01  0.54061536672E+03  0.54095240758E+03  0.00000000000E+00 0.  1.
<mgrwt>
<rscale>  0 0.92540716E+02</rscale>
<asrwt>0</asrwt>
<pdfrwt beam="1">  1        2 0.17236446E+00 0.92540716E+02</pdfrwt>
<pdfrwt beam="2">  1       -2 0.29398914E-03 0.92540716E+02</pdfrwt>
<totfact> 0.24042229E+05</totfact>
</mgrwt>
</event>
<event>
 7    1  0.3891761E-009  0.8634225E+02  0.7818608E-02  0.1311959E+00
         -2   -1    0    0    0  501 -0.00000000000E+00  0.00000000000E+00  0.11465131261E+02  0.11465131544E+02  0.25500000000E-02 0. -1.
          2   -1    0    0  501    0  0.00000000000E+00 -0.00000000000E+00 -0.16255776931E+03  0.16255776933E+03  0.25500000000E-02 0.  1.
         23    2    1    2    0    0  0.00000000000E+00 -0.71054273576E-14 -0.15109263805E+03  0.17402290088E+03  0.86342253596E+02 0.  0.
    9000005    2    3    3    0    0  0.18613773659E+02 -0.38235679257E+02 -0.84021661251E+02  0.94606557048E+02  0.90731107706E+01 0.  0.
         22    1    3    3    0    0 -0.18613773659E+02  0.38235679257E+02 -0.67070976799E+02  0.79416343827E+02  0.00000000000E+00 0. -1.
         22    1    4    4    0    0  0.17781472591E+02 -0.36691971466E+02 -0.74528946751E+02  0.84953195592E+02  0.00000000000E+00 0. -1.
         22    1    4    4    0    0  0.83230106829E+00 -0.15437077904E+01 -0.94927145003E+01  0.96533614557E+01  0.00000000000E+00 0. -1.
<mgrwt>
<rscale>  0 0.86342254E+02</rscale>
<asrwt>0</asrwt>
<pdfrwt beam="2">  1        2 0.25008886E-01 0.86342254E+02</pdfrwt>
<pdfrwt beam="1">  1       -2 0.17638665E-02 0.86342254E+02</pdfrwt>
<totfact> 0.16646440E+05</totfact>
</mgrwt>
</event>
<event>
 7    1  0.3891761E-009  0.9224892E+02  0.7818608E-02  0.1297495E+00
          2   -1    0    0  501    0  0.00000000000E+00  0.00000000000E+00  0.10224334364E+04  0.10224334364E+04  0.25500000000E-02 0.  1.
         -2   -1    0    0    0  501 -0.00000000000E+00 -0.00000000000E+00 -0.20807859347E+01  0.20807874972E+01  0.25500000000E-02 0. -1.
         23    2    1    2    0    0  0.00000000000E+00  0.00000000000E+00  0.10203526505E+04  0.10245142239E+04  0.92248922284E+02 0.  0.
    9000005    2    3    3    0    0  0.16496209381E+02  0.23370632767E+02  0.90953561017E+03  0.91006455016E+03  0.12006160385E+02 0.  0.
         22    1    3    3    0    0 -0.16496209381E+02 -0.23370632767E+02  0.11081704029E+03  0.11444967373E+03  0.00000000000E+00 0. -1.
         22    1    4    4    0    0  0.15155404210E+02  0.12498940428E+02  0.65246138435E+03  0.65275705117E+03  0.00000000000E+00 0.  1.
         22    1    4    4    0    0  0.13408051712E+01  0.10871692339E+02  0.25707422582E+03  0.25730749898E+03  0.00000000000E+00 0.  1.
<mgrwt>
<rscale>  0 0.92248922E+02</rscale>
<asrwt>0</asrwt>
<pdfrwt beam="1">  1        2 0.15729753E+00 0.92248922E+02</pdfrwt>
<pdfrwt beam="2">  1       -2 0.32012087E-03 0.92248922E+02</pdfrwt>
<totfact> 0.24262268E+05</totfact>
</mgrwt>
</event>
<event>
 7    1  0.3891761E-009  0.9041949E+02  0.7818608E-02  0.1301839E+00
         -2   -1    0    0    0  501 -0.00000000000E+00  0.00000000000E+00  0.36263915141E+01  0.36263924106E+01  0.25500000000E-02 0. -1.
          2   -1    0    0  501    0  0.00000000000E+00 -0.00000000000E+00 -0.56362391181E+03  0.56362391182E+03  0.25500000000E-02 0.  1.
         23    2    1    2    0    0  0.35527136788E-14 -0.17763568394E-14 -0.55999752030E+03  0.56725030423E+03  0.90419494067E+02 0.  0.
    9000005    2    3    3    0    0  0.25639970921E+02 -0.12025764122E+02 -0.49943719561E+03  0.50039538640E+03  0.12490126508E+02 0.  0.
         22    1    3    3    0    0 -0.25639970921E+02  0.12025764122E+02 -0.60560324692E+02  0.66854917832E+02  0.00000000000E+00 0. -1.
         22    1    4    4    0    0  0.22678367786E+02 -0.14418905862E+02 -0.45619421916E+03  0.45698509692E+03  0.00000000000E+00 0.  1.
         22    1    4    4    0    0  0.29616031347E+01  0.23931417401E+01 -0.43242976444E+02  0.43410289474E+02  0.00000000000E+00 0.  1.
<mgrwt>
<rscale>  0 0.90419494E+02</rscale>
<asrwt>0</asrwt>
<pdfrwt beam="2">  1        2 0.86711301E-01 0.90419494E+02</pdfrwt>
<pdfrwt beam="1">  1       -2 0.55790690E-03 0.90419494E+02</pdfrwt>
<totfact> 0.22871149E+05</totfact>
</mgrwt>
</event>
<event>
 7    1  0.3891761E-009  0.9060380E+02  0.7818608E-02  0.1301396E+00
         -2   -1    0    0    0  501 -0.00000000000E+00  0.00000000000E+00  0.11995597066E+02  0.11995597337E+02  0.25500000000E-02 0. -1.
          2   -1    0    0  501    0  0.00000000000E+00 -0.00000000000E+00 -0.17108460691E+03  0.17108460693E+03  0.25500000000E-02 0.  1.
         23    2    1    2    0    0  0.00000000000E+00  0.00000000000E+00 -0.15908900984E+03  0.18308020426E+03  0.90603797606E+02 0.  0.
    9000005    2    3    3    0    0 -0.20239667587E+01 -0.39498521222E+02 -0.35552714593E+02  0.53367267885E+02  0.44542279196E+01 0.  0.
         22    1    3    3    0    0  0.20239667587E+01  0.39498521222E+02 -0.12353629525E+03  0.12971293638E+03  0.00000000000E+00 0.  1.
         22    1    4    4    0    0  0.71183101867E+00 -0.26222500316E+02 -0.22784221050E+02  0.34745459489E+02  0.00000000000E+00 0.  1.
         22    1    4    4    0    0 -0.27357977774E+01 -0.13276020906E+02 -0.12768493543E+02  0.18621808396E+02  0.00000000000E+00 0.  1.
<mgrwt>
<rscale>  0 0.90603798E+02</rscale>
<asrwt>0</asrwt>
<pdfrwt beam="2">  1        2 0.26320707E-01 0.90603798E+02</pdfrwt>
<pdfrwt beam="1">  1       -2 0.18454766E-02 0.90603798E+02</pdfrwt>
<totfact> 0.14881669E+05</totfact>
</mgrwt>
</event>
<event>
 7    1  0.3891761E-009  0.9027153E+02  0.7818608E-02  0.1302195E+00
         -2   -1    0    0    0  501 -0.00000000000E+00  0.00000000000E+00  0.11228579020E+03  0.11228579023E+03  0.25500000000E-02 0. -1.
          2   -1    0    0  501    0  0.00000000000E+00 -0.00000000000E+00 -0.18143320513E+02  0.18143320692E+02  0.25500000000E-02 0.  1.
         23    2    1    2    0    0  0.00000000000E+00  0.00000000000E+00  0.94142469684E+02  0.13042911092E+03  0.90271525836E+02 0.  0.
    9000005    2    3    3    0    0 -0.20991784014E+02  0.17936713649E+02 -0.24339260100E+01  0.29983200609E+02  0.11431869065E+02 0.  0.
         22    1    3    3    0    0  0.20991784014E+02 -0.17936713649E+02  0.96576395694E+02  0.10044591031E+03  0.00000000000E+00 0. -1.
         22    1    4    4    0    0 -0.16285055548E+02  0.12677233100E+02  0.32869571205E+01  0.20897831476E+02  0.00000000000E+00 0. -1.
         22    1    4    4    0    0 -0.47067284661E+01  0.52594805491E+01 -0.57208831305E+01  0.90853691336E+01  0.00000000000E+00 0. -1.
<mgrwt>
<rscale>  0 0.90271526E+02</rscale>
<asrwt>0</asrwt>
<pdfrwt beam="2">  1        2 0.27912801E-02 0.90271526E+02</pdfrwt>
<pdfrwt beam="1">  1       -2 0.17274737E-01 0.90271526E+02</pdfrwt>
<totfact> 0.78975099E+04</totfact>
</mgrwt>
</event>
<event>
 7    1  0.3891761E-009  0.8777978E+02  0.7818608E-02  0.1308319E+00
         -2   -1    0    0    0  501 -0.00000000000E+00  0.00000000000E+00  0.42613123016E+02  0.42613123092E+02  0.25500000000E-02 0.  1.
          2   -1    0    0  501    0  0.00000000000E+00 -0.00000000000E+00 -0.45204911085E+02  0.45204911157E+02  0.25500000000E-02 0. -1.
         23    2    1    2    0    0  0.00000000000E+00  0.88817841970E-15 -0.25917880697E+01  0.87818034249E+02  0.87779779984E+02 0.  0.
    9000005    2    3    3    0    0  0.93025022073E+01 -0.62300612910E+01  0.40362504577E+02  0.43428604564E+02  0.11470035204E+02 0.  0.
         22    1    3    3    0    0 -0.93025022073E+01  0.62300612910E+01 -0.42954292647E+02  0.44389429686E+02  0.00000000000E+00 0. -1.
         22    1    4    4    0    0 -0.13968602365E+01  0.15458382246E+01  0.21592837162E+01  0.30005566990E+01  0.00000000000E+00 0.  1.
         22    1    4    4    0    0  0.10699362444E+02 -0.77758995156E+01  0.38203220861E+02  0.40428047865E+02  0.00000000000E+00 0.  1.
<mgrwt>
<rscale>  0 0.87779780E+02</rscale>
<asrwt>0</asrwt>
<pdfrwt beam="2">  1        2 0.69546018E-02 0.87779780E+02</pdfrwt>
<pdfrwt beam="1">  1       -2 0.65558650E-02 0.87779780E+02</pdfrwt>
<totfact> 0.10974428E+05</totfact>
</mgrwt>
</event>
<event>
 7    1  0.3891761E-009  0.9231104E+02  0.7818608E-02  0.1297350E+00
         -2   -1    0    0    0  501 -0.00000000000E+00  0.00000000000E+00  0.35310200158E+02  0.35310200251E+02  0.25500000000E-02 0.  1.
          2   -1    0    0  501    0  0.00000000000E+00 -0.00000000000E+00 -0.60331921635E+02  0.60331921688E+02  0.25500000000E-02 0. -1.
         23    2    1    2    0    0 -0.35527136788E-14  0.71054273576E-14 -0.25021721476E+02  0.95642121939E+02  0.92311044536E+02 0.  0.
    9000005    2    3    3    0    0  0.23114888153E+02  0.34920636629E+02  0.74185886869E+01  0.42669273796E+02  0.34471076672E+01 0.  0.
         22    1    3    3    0    0 -0.23114888153E+02 -0.34920636629E+02 -0.32440310163E+02  0.52972848143E+02  0.00000000000E+00 0. -1.
         22    1    4    4    0    0  0.23125380866E+02  0.34918166758E+02  0.72549079509E+01  0.42505238493E+02  0.00000000000E+00 0.  1.
         22    1    4    4    0    0 -0.10492713732E-01  0.24698711536E-02  0.16368073607E+00  0.16403530311E+00  0.00000000000E+00 0.  1.
<mgrwt>
<rscale>  0 0.92311045E+02</rscale>
<asrwt>0</asrwt>
<pdfrwt beam="2">  1        2 0.92818341E-02 0.92311045E+02</pdfrwt>
<pdfrwt beam="1">  1       -2 0.54323385E-02 0.92311045E+02</pdfrwt>
<totfact> 0.10257980E+05</totfact>
</mgrwt>
</event>
<event>
 7    1  0.3891761E-009  0.8525607E+02  0.7818608E-02  0.1314764E+00
         -2   -1    0    0    0  501 -0.00000000000E+00  0.00000000000E+00  0.83076145036E+02  0.83076145075E+02  0.25500000000E-02 0.  1.
          2   -1    0    0  501    0  0.00000000000E+00 -0.00000000000E+00 -0.21873300064E+02  0.21873300213E+02  0.25500000000E-02 0. -1.
         23    2    1    2    0    0  0.00000000000E+00  0.00000000000E+00  0.61202844972E+02  0.10494944529E+03  0.85256072122E+02 0.  0.
    9000005    2    3    3    0    0  0.16476739470E+02  0.17154782621E+02 -0.11370725113E+02  0.28577378503E+02  0.11027405051E+02 0.  0.
         22    1    3    3    0    0 -0.16476739470E+02 -0.17154782621E+02  0.72573570084E+02  0.76372066786E+02  0.00000000000E+00 0.  1.
         22    1    4    4    0    0  0.18079385592E+02  0.14956565182E+02 -0.97375784099E+01  0.25404398413E+02  0.00000000000E+00 0.  1.
         22    1    4    4    0    0 -0.16026461215E+01  0.21982174385E+01 -0.16331467027E+01  0.31729800898E+01  0.00000000000E+00 0.  1.
<mgrwt>
<rscale>  0 0.85256072E+02</rscale>
<asrwt>0</asrwt>
<pdfrwt beam="2">  1        2 0.33651231E-02 0.85256072E+02</pdfrwt>
<pdfrwt beam="1">  1       -2 0.12780945E-01 0.85256072E+02</pdfrwt>
<totfact> 0.99334579E+04</totfact>
</mgrwt>
</event>
<event>
 7    1  0.3891761E-009  0.9226031E+02  0.7818608E-02  0.1297469E+00
          2   -1    0    0  501    0  0.00000000000E+00  0.00000000000E+00  0.88132823417E+01  0.88132827106E+01  0.25500000000E-02 0.  1.
         -2   -1    0    0    0  501 -0.00000000000E+00 -0.00000000000E+00 -0.24145274945E+03  0.24145274946E+03  0.25500000000E-02 0. -1.
         23    2    1    2    0    0 -0.35527136788E-14  0.71054273576E-14 -0.23263946710E+03  0.25026603217E+03  0.92260312180E+02 0.  0.
    9000005    2    3    3    0    0 -0.27978117692E+02  0.34335772268E+02 -0.13966009525E+03  0.14727630493E+03  0.14954847419E+02 0.  0.
         22    1    3    3    0    0  0.27978117692E+02 -0.34335772268E+02 -0.92979371849E+02  0.10298972724E+03  0.00000000000E+00 0.  1.
         22    1    4    4    0    0 -0.24292225030E+02  0.35309196640E+02 -0.13038468899E+03  0.13724801889E+03  0.00000000000E+00 0.  1.
         22    1    4    4    0    0 -0.36858926617E+01 -0.97342437222E+00 -0.92754062621E+01  0.10028286047E+02  0.00000000000E+00 0.  1.
<mgrwt>
<rscale>  0 0.92260312E+02</rscale>
<asrwt>0</asrwt>
<pdfrwt beam="1">  1        2 0.13558898E-02 0.92260312E+02</pdfrwt>
<pdfrwt beam="2">  1       -2 0.37146572E-01 0.92260312E+02</pdfrwt>
<totfact> 0.55442504E+04</totfact>
</mgrwt>
</event>
<event>
 7    1  0.3891761E-009  0.9279971E+02  0.7818608E-02  0.1296210E+00
          2   -1    0    0  501    0  0.00000000000E+00  0.00000000000E+00  0.42171348633E+01  0.42171356343E+01  0.25500000000E-02 0. -1.
         -2   -1    0    0    0  501 -0.00000000000E+00 -0.00000000000E+00 -0.51052351773E+03  0.51052351774E+03  0.25500000000E-02 0.  1.
         23    2    1    2    0    0 -0.17763568394E-14  0.00000000000E+00 -0.50630638287E+03  0.51474065337E+03  0.92799713906E+02 0.  0.
    9000005    2    3    3    0    0  0.12450051283E+02  0.39028246135E+02 -0.36677109688E+03  0.36931608939E+03  0.13968844019E+02 0.  0.
         22    1    3    3    0    0 -0.12450051283E+02 -0.39028246135E+02 -0.13953528599E+03  0.14542456398E+03  0.00000000000E+00 0. -1.
         22    1    4    4    0    0  0.30995334203E+01  0.22785705303E+01 -0.14209406443E+02  0.14720945029E+02  0.00000000000E+00 0. -1.
         22    1    4    4    0    0  0.93505178629E+01  0.36749675604E+02 -0.35256169044E+03  0.35459514436E+03  0.00000000000E+00 0. -1.
<mgrwt>
<rscale>  0 0.92799714E+02</rscale>
<asrwt>0</asrwt>
<pdfrwt beam="1">  1        2 0.64879044E-03 0.92799714E+02</pdfrwt>
<pdfrwt beam="2">  1       -2 0.78542031E-01 0.92799714E+02</pdfrwt>
<totfact> 0.34120180E+04</totfact>
</mgrwt>
</event>
<event>
 7    1  0.3891761E-009  0.9222567E+02  0.7818608E-02  0.1297550E+00
          2   -1    0    0  501    0  0.00000000000E+00  0.00000000000E+00  0.26411994805E+03  0.26411994806E+03  0.25500000000E-02 0. -1.
         -2   -1    0    0    0  501 -0.00000000000E+00 -0.00000000000E+00 -0.80508629392E+01  0.80508633431E+01  0.25500000000E-02 0.  1.
         23    2    1    2    0    0  0.00000000000E+00 -0.71054273576E-14  0.25606908511E+03  0.27217081141E+03  0.92225670134E+02 0.  0.
    9000005    2    3    3    0    0  0.25032199613E+02 -0.33014885152E+02  0.18355864690E+03  0.18865819375E+03  0.13473809996E+02 0.  0.
         22    1    3    3    0    0 -0.25032199613E+02  0.33014885152E+02  0.72510438207E+02  0.83512617658E+02  0.00000000000E+00 0.  1.
         22    1    4    4    0    0  0.26207234590E+02 -0.33109128084E+02  0.18065700086E+03  0.18552623930E+03  0.00000000000E+00 0.  1.
         22    1    4    4    0    0 -0.11750349769E+01  0.94242931447E-01  0.29016460436E+01  0.31319544520E+01  0.00000000000E+00 0.  1.
<mgrwt>
<rscale>  0 0.92225670E+02</rscale>
<asrwt>0</asrwt>
<pdfrwt beam="1">  1        2 0.40633837E-01 0.92225670E+02</pdfrwt>
<pdfrwt beam="2">  1       -2 0.12385944E-02 0.92225670E+02</pdfrwt>
<totfact> 0.16615432E+05</totfact>
</mgrwt>
</event>
<event>
 7    1  0.3891761E-009  0.1000415E+03  0.7818608E-02  0.1280209E+00
          2   -1    0    0  501    0  0.00000000000E+00  0.00000000000E+00  0.11062989698E+03  0.11062989701E+03  0.25500000000E-02 0.  1.
         -2   -1    0    0    0  501 -0.00000000000E+00 -0.00000000000E+00 -0.22616634211E+02  0.22616634354E+02  0.25500000000E-02 0. -1.
         23    2    1    2    0    0 -0.35527136788E-14  0.17763568394E-14  0.88013262774E+02  0.13324653137E+03  0.10004150987E+03 0.  0.
    9000005    2    3    3    0    0  0.26123757630E+02 -0.14022993027E+02  0.97633504867E+02  0.10207532504E+03  0.28241216373E+01 0.  0.
         22    1    3    3    0    0 -0.26123757630E+02  0.14022993027E+02 -0.96202420931E+01  0.31171206330E+02  0.00000000000E+00 0. -1.
         22    1    4    4    0    0  0.23185903572E+02 -0.13077593597E+02  0.85028974961E+02  0.89098463295E+02  0.00000000000E+00 0.  1.
         22    1    4    4    0    0  0.29378540579E+01 -0.94539942986E+00  0.12604529906E+02  0.12976861744E+02  0.00000000000E+00 0.  1.
<mgrwt>
<rscale>  0 0.10004151E+03</rscale>
<asrwt>0</asrwt>
<pdfrwt beam="1">  1        2 0.17019984E-01 0.10004151E+03</pdfrwt>
<pdfrwt beam="2">  1       -2 0.34794822E-02 0.10004151E+03</pdfrwt>
<totfact> 0.97946600E+04</totfact>
</mgrwt>
</event>
<event>
 7    1  0.3891761E-009  0.8974223E+02  0.7818608E-02  0.1303477E+00
         -2   -1    0    0    0  501 -0.00000000000E+00  0.00000000000E+00  0.72092245338E+01  0.72092249848E+01  0.25500000000E-02 0.  1.
          2   -1    0    0  501    0  0.00000000000E+00 -0.00000000000E+00 -0.27928344701E+03  0.27928344702E+03  0.25500000000E-02 0. -1.
         23    2    1    2    0    0  0.00000000000E+00  0.00000000000E+00 -0.27207422248E+03  0.28649267201E+03  0.89742234078E+02 0.  0.
    9000005    2    3    3    0    0  0.14757568325E+02  0.10301309378E+02 -0.26704810725E+03  0.26780672456E+03  0.90469516749E+01 0.  0.
         22    1    3    3    0    0 -0.14757568325E+02 -0.10301309378E+02 -0.50261152255E+01  0.18685947448E+02  0.00000000000E+00 0.  1.
         22    1    4    4    0    0  0.16028877918E+02  0.95875940328E+01 -0.24956210276E+03  0.25026004479E+03  0.00000000000E+00 0. -1.
         22    1    4    4    0    0 -0.12713095923E+01  0.71371534543E+00 -0.17486004491E+02  0.17546679764E+02  0.00000000000E+00 0. -1.
<mgrwt>
<rscale>  0 0.89742234E+02</rscale>
<asrwt>0</asrwt>
<pdfrwt beam="2">  1        2 0.42966676E-01 0.89742234E+02</pdfrwt>
<pdfrwt beam="1">  1       -2 0.11091117E-02 0.89742234E+02</pdfrwt>
<totfact> 0.18249052E+05</totfact>
</mgrwt>
</event>
<event>
 7    1  0.3891761E-009  0.9067037E+02  0.7818608E-02  0.1301236E+00
         -2   -1    0    0    0  501 -0.00000000000E+00  0.00000000000E+00  0.44237598931E+01  0.44237606281E+01  0.25500000000E-02 0.  1.
          2   -1    0    0  501    0  0.00000000000E+00 -0.00000000000E+00 -0.46460001739E+03  0.46460001739E+03  0.25500000000E-02 0. -1.
         23    2    1    2    0    0  0.00000000000E+00  0.00000000000E+00 -0.46017625749E+03  0.46902377802E+03  0.90670372167E+02 0.  0.
    9000005    2    3    3    0    0 -0.24178197739E+02 -0.27417523707E+02 -0.36490658309E+03  0.36698154798E+03  0.13503196618E+02 0.  0.
         22    1    3    3    0    0  0.24178197739E+02  0.27417523707E+02 -0.95269674400E+02  0.10204223004E+03  0.00000000000E+00 0.  1.
         22    1    4    4    0    0  0.11830513825E+01  0.15364461575E+00 -0.22542561967E+02  0.22574107231E+02  0.00000000000E+00 0.  1.
         22    1    4    4    0    0 -0.25361249121E+02 -0.27571168323E+02 -0.34236402112E+03  0.34440744074E+03  0.00000000000E+00 0.  1.
<mgrwt>
<rscale>  0 0.90670372E+02</rscale>
<asrwt>0</asrwt>
<pdfrwt beam="2">  1        2 0.71476887E-01 0.90670372E+02</pdfrwt>
<pdfrwt beam="1">  1       -2 0.68057887E-03 0.90670372E+02</pdfrwt>
<totfact> 0.21343810E+05</totfact>
</mgrwt>
</event>
<event>
 7    1  0.3891761E-009  0.8999504E+02  0.7818608E-02  0.1302864E+00
         -2   -1    0    0    0  501 -0.00000000000E+00  0.00000000000E+00  0.94448047948E+01  0.94448051391E+01  0.25500000000E-02 0.  1.
          2   -1    0    0  501    0  0.00000000000E+00 -0.00000000000E+00 -0.21437995179E+03  0.21437995181E+03  0.25500000000E-02 0. -1.
         23    2    1    2    0    0 -0.44408920985E-15  0.00000000000E+00 -0.20493514700E+03  0.22382475695E+03  0.89995040682E+02 0.  0.
    9000005    2    3    3    0    0 -0.24635460489E+01 -0.19556825772E+02 -0.20291636824E+03  0.20401026828E+03  0.75232023480E+01 0.  0.
         22    1    3    3    0    0  0.24635460489E+01  0.19556825772E+02 -0.20187787642E+01  0.19814488666E+02  0.00000000000E+00 0.  1.
         22    1    4    4    0    0 -0.51066477315E+01 -0.14740537908E+02 -0.15186715369E+03  0.15266628206E+03  0.00000000000E+00 0. -1.
         22    1    4    4    0    0  0.26431016826E+01 -0.48162878632E+01 -0.51049214544E+02  0.51343986219E+02  0.00000000000E+00 0. -1.
<mgrwt>
<rscale>  0 0.89995041E+02</rscale>
<asrwt>0</asrwt>
<pdfrwt beam="2">  1        2 0.32981527E-01 0.89995041E+02</pdfrwt>
<pdfrwt beam="1">  1       -2 0.14530471E-02 0.89995041E+02</pdfrwt>
<totfact> 0.16428558E+05</totfact>
</mgrwt>
</event>
<event>
 7    1  0.3891761E-009  0.9052563E+02  0.7818608E-02  0.1301584E+00
          2   -1    0    0  501    0  0.00000000000E+00  0.00000000000E+00  0.66131156457E+03  0.66131156458E+03  0.25500000000E-02 0. -1.
         -2   -1    0    0    0  501 -0.00000000000E+00 -0.00000000000E+00 -0.30979678368E+01  0.30979688863E+01  0.25500000000E-02 0.  1.
         23    2    1    2    0    0  0.00000000000E+00  0.00000000000E+00  0.65821359673E+03  0.66440953346E+03  0.90525627474E+02 0.  0.
    9000005    2    3    3    0    0  0.31229382950E+02 -0.18014545553E+02  0.52902033773E+03  0.53028013183E+03  0.58908630211E+01 0.  0.
         22    1    3    3    0    0 -0.31229382950E+02  0.18014545553E+02  0.12919325900E+03  0.13412940163E+03  0.00000000000E+00 0.  1.
         22    1    4    4    0    0  0.29220858571E+02 -0.16773459252E+02  0.46645596550E+03  0.46767122561E+03  0.00000000000E+00 0. -1.
         22    1    4    4    0    0  0.20085243796E+01 -0.12410863013E+01  0.62564372235E+02  0.62608906224E+02  0.00000000000E+00 0. -1.
<mgrwt>
<rscale>  0 0.90525627E+02</rscale>
<asrwt>0</asrwt>
<pdfrwt beam="1">  1        2 0.10174036E+00 0.90525627E+02</pdfrwt>
<pdfrwt beam="2">  1       -2 0.47660995E-03 0.90525627E+02</pdfrwt>
<totfact> 0.23835006E+05</totfact>
</mgrwt>
</event>
<event>
 7    1  0.3891761E-009  0.1106030E+03  0.7818608E-02  0.1259457E+00
         -2   -1    0    0    0  501 -0.00000000000E+00  0.00000000000E+00  0.26114237931E+02  0.26114238055E+02  0.25500000000E-02 0.  1.
          2   -1    0    0  501    0  0.00000000000E+00 -0.00000000000E+00 -0.11711061483E+03  0.11711061486E+03  0.25500000000E-02 0. -1.
         23    2    1    2    0    0  0.00000000000E+00  0.00000000000E+00 -0.90996376897E+02  0.14322485291E+03  0.11060297411E+03 0.  0.
    9000005    2    3    3    0    0  0.21184691325E+02  0.19950511672E+02  0.14036685983E+02  0.34235136145E+02  0.11322629155E+02 0.  0.
         22    1    3    3    0    0 -0.21184691325E+02 -0.19950511672E+02 -0.10503306288E+03  0.10898971677E+03  0.00000000000E+00 0. -1.
         22    1    4    4    0    0  0.15573908037E+02  0.19857462220E+02  0.13440020513E+02  0.28591949370E+02  0.00000000000E+00 0.  1.
         22    1    4    4    0    0  0.56107832878E+01  0.93049452285E-01  0.59666547058E+00  0.56431867758E+01  0.00000000000E+00 0.  1.
<mgrwt>
<rscale>  0 0.11060297E+03</rscale>
<asrwt>0</asrwt>
<pdfrwt beam="2">  1        2 0.18017017E-01 0.11060297E+03</pdfrwt>
<pdfrwt beam="1">  1       -2 0.40175751E-02 0.11060297E+03</pdfrwt>
<totfact> 0.75377083E+04</totfact>
</mgrwt>
</event>
<event>
 7    1  0.3891761E-009  0.9127247E+02  0.7818608E-02  0.1299799E+00
         -2   -1    0    0    0  501 -0.00000000000E+00  0.00000000000E+00  0.31059512830E+03  0.31059512831E+03  0.25500000000E-02 0. -1.
          2   -1    0    0  501    0  0.00000000000E+00 -0.00000000000E+00 -0.67054038607E+01  0.67054043456E+01  0.25500000000E-02 0.  1.
         23    2    1    2    0    0  0.71054273576E-14  0.00000000000E+00  0.30388972444E+03  0.31730053266E+03  0.91272467941E+02 0.  0.
    9000005    2    3    3    0    0 -0.41480317710E+02  0.75808053652E+00  0.21648747770E+03  0.22055166094E+03  0.74172568171E+01 0.  0.
         22    1    3    3    0    0  0.41480317710E+02 -0.75808053652E+00  0.87402246740E+02  0.96748871718E+02  0.00000000000E+00 0.  1.
         22    1    4    4    0    0 -0.39814739565E+02  0.21246665056E+01  0.20114188013E+03  0.20505556232E+03  0.00000000000E+00 0. -1.
         22    1    4    4    0    0 -0.16655781457E+01 -0.13665859691E+01  0.15345597571E+02  0.15496098625E+02  0.00000000000E+00 0. -1.
<mgrwt>
<rscale>  0 0.91272468E+02</rscale>
<asrwt>0</asrwt>
<pdfrwt beam="2">  1        2 0.10316006E-02 0.91272468E+02</pdfrwt>
<pdfrwt beam="1">  1       -2 0.47783865E-01 0.91272468E+02</pdfrwt>
<totfact> 0.49869444E+04</totfact>
</mgrwt>
</event>
<event>
 7    1  0.3891761E-009  0.8628158E+02  0.7818608E-02  0.1312115E+00
         -2   -1    0    0    0  501 -0.00000000000E+00  0.00000000000E+00  0.21023268826E+02  0.21023268981E+02  0.25500000000E-02 0.  1.
          2   -1    0    0  501    0  0.00000000000E+00 -0.00000000000E+00 -0.88527041134E+02  0.88527041171E+02  0.25500000000E-02 0. -1.
         23    2    1    2    0    0  0.00000000000E+00  0.00000000000E+00 -0.67503772308E+02  0.10955031015E+03  0.86281580761E+02 0.  0.
    9000005    2    3    3    0    0 -0.34508546713E+02  0.12210140935E+02 -0.84325938180E+01  0.40056918623E+02  0.13911173682E+02 0.  0.
         22    1    3    3    0    0  0.34508546713E+02 -0.12210140935E+02 -0.59071178490E+02  0.69493391528E+02  0.00000000000E+00 0.  1.
         22    1    4    4    0    0 -0.88450328734E+01 -0.10724975811E+01  0.23485215101E+01  0.92141418958E+01  0.00000000000E+00 0. -1.
         22    1    4    4    0    0 -0.25663513840E+02  0.13282638516E+02 -0.10781115328E+02  0.30842776728E+02  0.00000000000E+00 0. -1.
<mgrwt>
<rscale>  0 0.86281581E+02</rscale>
<asrwt>0</asrwt>
<pdfrwt beam="2">  1        2 0.13619545E-01 0.86281581E+02</pdfrwt>
<pdfrwt beam="1">  1       -2 0.32343491E-02 0.86281581E+02</pdfrwt>
<totfact> 0.13768829E+05</totfact>
</mgrwt>
</event>
<event>
 7    1  0.3891761E-009  0.9325593E+02  0.7818608E-02  0.1295153E+00
          2   -1    0    0  501    0  0.00000000000E+00  0.00000000000E+00  0.68643235466E+02  0.68643235514E+02  0.25500000000E-02 0. -1.
         -2   -1    0    0    0  501 -0.00000000000E+00 -0.00000000000E+00 -0.31673438092E+02  0.31673438194E+02  0.25500000000E-02 0.  1.
         23    2    1    2    0    0  0.00000000000E+00 -0.35527136788E-14  0.36969797375E+02  0.10031667371E+03  0.93255933355E+02 0.  0.
    9000005    2    3    3    0    0  0.33673262982E+01  0.31604145485E+02  0.54340860138E+02  0.64096310378E+02  0.12051847382E+02 0.  0.
         22    1    3    3    0    0 -0.33673262982E+01 -0.31604145485E+02 -0.17371062763E+02  0.36220363330E+02  0.00000000000E+00 0.  1.
         22    1    4    4    0    0 -0.91313145653E+00  0.26179603775E+02  0.48169726434E+02  0.54831815651E+02  0.00000000000E+00 0. -1.
         22    1    4    4    0    0  0.42804577547E+01  0.54245417098E+01  0.61711337037E+01  0.92644947266E+01  0.00000000000E+00 0. -1.
<mgrwt>
<rscale>  0 0.93255933E+02</rscale>
<asrwt>0</asrwt>
<pdfrwt beam="1">  1        2 0.10560498E-01 0.93255933E+02</pdfrwt>
<pdfrwt beam="2">  1       -2 0.48728366E-02 0.93255933E+02</pdfrwt>
<totfact> 0.10327193E+05</totfact>
</mgrwt>
</event>
<event>
 6    1  0.3891761E-009  0.3773385E+03  0.7818608E-02  0.1051922E+00
         -2   -1    0    0    0  501 -0.00000000000E+00  0.00000000000E+00  0.15112831350E+03  0.15112831353E+03  0.25500000000E-02 0. -1.
          2   -1    0    0  501    0  0.00000000000E+00 -0.00000000000E+00 -0.23553549108E+03  0.23553549109E+03  0.25500000000E-02 0.  1.
    9000005    2    1    2    0    0  0.16209404732E+03 -0.48769317859E+02  0.42817002077E+02  0.17491178354E+03  0.10387964825E+02 0.  0.
         22    1    1    2    0    0 -0.16209404732E+03  0.48769317859E+02 -0.12722417965E+03  0.21175202108E+03  0.00000000000E+00 0.  1.
         22    1    3    3    0    0  0.91100440958E+02 -0.32765799144E+02  0.24079345382E+02  0.99763233760E+02  0.00000000000E+00 0. -1.
         22    1    3    3    0    0  0.70993606364E+02 -0.16003518715E+02  0.18737656695E+02  0.75148549782E+02  0.00000000000E+00 0. -1.
<mgrwt>
<rscale>  0 0.37733848E+03</rscale>
<asrwt>0</asrwt>
<pdfrwt beam="2">  1        2 0.36236229E-01 0.37733848E+03</pdfrwt>
<pdfrwt beam="1">  1       -2 0.23250510E-01 0.37733848E+03</pdfrwt>
<totfact> 0.23146400E+03</totfact>
</mgrwt>
</event>
<event>
 7    1  0.3891761E-009  0.9412989E+02  0.7818608E-02  0.1293148E+00
         -2   -1    0    0    0  501 -0.00000000000E+00  0.00000000000E+00  0.41961691393E+03  0.41961691394E+03  0.25500000000E-02 0.  1.
          2   -1    0    0  501    0  0.00000000000E+00 -0.00000000000E+00 -0.52788840687E+01  0.52788846846E+01  0.25500000000E-02 0. -1.
         23    2    1    2    0    0  0.35527136788E-14 -0.35527136788E-14  0.41433802986E+03  0.42489579862E+03  0.94129892688E+02 0.  0.
    9000005    2    3    3    0    0  0.23576534009E+02 -0.21514374351E+02  0.36183517096E+03  0.36345256098E+03  0.12423843085E+02 0.  0.
         22    1    3    3    0    0 -0.23576534009E+02  0.21514374351E+02  0.52502858900E+02  0.61443237644E+02  0.00000000000E+00 0. -1.
         22    1    4    4    0    0  0.15300327961E+02 -0.72930593249E+01  0.14332485192E+03  0.14432360142E+03  0.00000000000E+00 0.  1.
         22    1    4    4    0    0  0.82762060475E+01 -0.14221315026E+02  0.21851031904E+03  0.21912895955E+03  0.00000000000E+00 0.  1.
<mgrwt>
<rscale>  0 0.94129893E+02</rscale>
<asrwt>0</asrwt>
<pdfrwt beam="2">  1        2 0.81213615E-03 0.94129893E+02</pdfrwt>
<pdfrwt beam="1">  1       -2 0.64556441E-01 0.94129893E+02</pdfrwt>
<totfact> 0.38037709E+04</totfact>
</mgrwt>
</event>
<event>
 7    1  0.3891761E-009  0.9106602E+02  0.7818608E-02  0.1300291E+00
         -2   -1    0    0    0  501 -0.00000000000E+00  0.00000000000E+00  0.15638221243E+02  0.15638221451E+02  0.25500000000E-02 0. -1.
          2   -1    0    0  501    0  0.00000000000E+00 -0.00000000000E+00 -0.13257614305E+03  0.13257614308E+03  0.25500000000E-02 0.  1.
         23    2    1    2    0    0  0.22204460493E-15  0.00000000000E+00 -0.11693792181E+03  0.14821436453E+03  0.91066021630E+02 0.  0.
    9000005    2    3    3    0    0  0.15778951727E+01  0.27511815724E+02 -0.11674239932E+03  0.12065664353E+03  0.13032577314E+02 0.  0.
         22    1    3    3    0    0 -0.15778951727E+01 -0.27511815724E+02 -0.19552249113E+00  0.27557720999E+02  0.00000000000E+00 0. -1.
         22    1    4    4    0    0  0.67130234220E+01  0.20456325584E+02 -0.89379367296E+02  0.91935832177E+02  0.00000000000E+00 0.  1.
         22    1    4    4    0    0 -0.51351282493E+01  0.70554901401E+01 -0.27363032024E+02  0.28720811353E+02  0.00000000000E+00 0.  1.
<mgrwt>
<rscale>  0 0.91066022E+02</rscale>
<asrwt>0</asrwt>
<pdfrwt beam="2">  1        2 0.20396329E-01 0.91066022E+02</pdfrwt>
<pdfrwt beam="1">  1       -2 0.24058803E-02 0.91066022E+02</pdfrwt>
<totfact> 0.13458934E+05</totfact>
</mgrwt>
</event>
<event>
 7    1  0.3891761E-009  0.9291982E+02  0.7818608E-02  0.1295931E+00
          2   -1    0    0  501    0  0.00000000000E+00  0.00000000000E+00  0.16873379499E+03  0.16873379501E+03  0.25500000000E-02 0.  1.
         -2   -1    0    0    0  501 -0.00000000000E+00 -0.00000000000E+00 -0.12792477050E+02  0.12792477304E+02  0.25500000000E-02 0. -1.
         23    2    1    2    0    0  0.00000000000E+00 -0.44408920985E-15  0.15594131794E+03  0.18152627231E+03  0.92919819732E+02 0.  0.
    9000005    2    3    3    0    0  0.37214387657E+02  0.28870479807E+01  0.13199430155E+03  0.13717872121E+03  0.15034017776E+01 0.  0.
         22    1    3    3    0    0 -0.37214387657E+02 -0.28870479807E+01  0.23947016391E+02  0.44347551102E+02  0.00000000000E+00 0. -1.
         22    1    4    4    0    0  0.53062114048E+01 -0.11396858281E+00  0.18679098197E+02  0.19418485465E+02  0.00000000000E+00 0. -1.
         22    1    4    4    0    0  0.31908176252E+02  0.30010165635E+01  0.11331520335E+03  0.11776023574E+03  0.00000000000E+00 0. -1.
<mgrwt>
<rscale>  0 0.92919820E+02</rscale>
<asrwt>0</asrwt>
<pdfrwt beam="1">  1        2 0.25959044E-01 0.92919820E+02</pdfrwt>
<pdfrwt beam="2">  1       -2 0.19680735E-02 0.92919820E+02</pdfrwt>
<totfact> 0.13831489E+05</totfact>
</mgrwt>
</event>
<event>
 7    1  0.3891761E-009  0.9045648E+02  0.7818608E-02  0.1301750E+00
         -2   -1    0    0    0  501 -0.00000000000E+00  0.00000000000E+00  0.21545889212E+02  0.21545889363E+02  0.25500000000E-02 0.  1.
          2   -1    0    0  501    0  0.00000000000E+00 -0.00000000000E+00 -0.94941245873E+02  0.94941245907E+02  0.25500000000E-02 0. -1.
         23    2    1    2    0    0  0.00000000000E+00  0.00000000000E+00 -0.73395356660E+02  0.11648713527E+03  0.90456477403E+02 0.  0.
    9000005    2    3    3    0    0 -0.15888115149E+02 -0.70813487067E+01  0.16486118733E+02  0.24937928166E+02  0.68942329378E+01 0.  0.
         22    1    3    3    0    0  0.15888115149E+02  0.70813487067E+01 -0.89881475394E+02  0.91549207104E+02  0.00000000000E+00 0. -1.
         22    1    4    4    0    0 -0.24720127149E+01  0.32890941667E+00  0.92257795298E-01  0.24955039106E+01  0.00000000000E+00 0. -1.
         22    1    4    4    0    0 -0.13416102434E+02 -0.74102581234E+01  0.16393860938E+02  0.22442424255E+02  0.00000000000E+00 0. -1.
<mgrwt>
<rscale>  0 0.90456477E+02</rscale>
<asrwt>0</asrwt>
<pdfrwt beam="2">  1        2 0.14606345E-01 0.90456477E+02</pdfrwt>
<pdfrwt beam="1">  1       -2 0.33147522E-02 0.90456477E+02</pdfrwt>
<totfact> 0.12343465E+05</totfact>
</mgrwt>
</event>
<event>
 7    1  0.3891761E-009  0.9295840E+02  0.7818608E-02  0.1295842E+00
         -2   -1    0    0    0  501 -0.00000000000E+00  0.00000000000E+00  0.54014484895E+01  0.54014490914E+01  0.25500000000E-02 0.  1.
          2   -1    0    0  501    0  0.00000000000E+00 -0.00000000000E+00 -0.39995123437E+03  0.39995123438E+03  0.25500000000E-02 0. -1.
         23    2    1    2    0    0 -0.44408920985E-15  0.00000000000E+00 -0.39454978588E+03  0.40535268347E+03  0.92958401758E+02 0.  0.
    9000005    2    3    3    0    0 -0.25162390726E+01  0.21989014144E+02 -0.37507988438E+03  0.37587514513E+03  0.10361315458E+02 0.  0.
         22    1    3    3    0    0  0.25162390726E+01 -0.21989014144E+02 -0.19469901501E+02  0.29477538340E+02  0.00000000000E+00 0.  1.
         22    1    4    4    0    0 -0.17716453314E+01  0.74657255636E+00 -0.10390649299E+02  0.10567009540E+02  0.00000000000E+00 0.  1.
         22    1    4    4    0    0 -0.74459374117E+00  0.21242441588E+02 -0.36468923508E+03  0.36530813559E+03  0.00000000000E+00 0.  1.
<mgrwt>
<rscale>  0 0.92958402E+02</rscale>
<asrwt>0</asrwt>
<pdfrwt beam="2">  1        2 0.61530936E-01 0.92958402E+02</pdfrwt>
<pdfrwt beam="1">  1       -2 0.83099243E-03 0.92958402E+02</pdfrwt>
<totfact> 0.18960493E+05</totfact>
</mgrwt>
</event>
<event>
 7    1  0.3891761E-009  0.9235810E+02  0.7818608E-02  0.1297240E+00
         -2   -1    0    0    0  501 -0.00000000000E+00  0.00000000000E+00  0.37712506539E+03  0.37712506540E+03  0.25500000000E-02 0.  1.
          2   -1    0    0  501    0  0.00000000000E+00 -0.00000000000E+00 -0.56546348202E+01  0.56546353952E+01  0.25500000000E-02 0. -1.
         23    2    1    2    0    0 -0.35527136788E-14  0.00000000000E+00  0.37147043057E+03  0.38277970080E+03  0.92358099548E+02 0.  0.
    9000005    2    3    3    0    0 -0.18113288132E+02 -0.34492322855E+02  0.28637329389E+03  0.28918838595E+03  0.10121638837E+02 0.  0.
         22    1    3    3    0    0  0.18113288132E+02  0.34492322855E+02  0.85097136680E+02  0.93591314843E+02  0.00000000000E+00 0. -1.
         22    1    4    4    0    0  0.63856755199E+00 -0.56711085074E+01  0.50648005440E+02  0.50968516707E+02  0.00000000000E+00 0.  1.
         22    1    4    4    0    0 -0.18751855684E+02 -0.28821214348E+02  0.23572528845E+03  0.23821986925E+03  0.00000000000E+00 0.  1.
<mgrwt>
<rscale>  0 0.92358100E+02</rscale>
<asrwt>0</asrwt>
<pdfrwt beam="2">  1        2 0.86994366E-03 0.92358100E+02</pdfrwt>
<pdfrwt beam="1">  1       -2 0.58019255E-01 0.92358100E+02</pdfrwt>
<totfact> 0.42941116E+04</totfact>
</mgrwt>
</event>
<event>
 7    1  0.3891761E-009  0.9154169E+02  0.7818608E-02  0.1299161E+00
          2   -1    0    0  501    0  0.00000000000E+00  0.00000000000E+00  0.30931770540E+03  0.30931770541E+03  0.25500000000E-02 0. -1.
         -2   -1    0    0    0  501 -0.00000000000E+00 -0.00000000000E+00 -0.67728749102E+01  0.67728753902E+01  0.25500000000E-02 0.  1.
         23    2    1    2    0    0  0.71054273576E-14 -0.17763568394E-14  0.30254483049E+03  0.31609058080E+03  0.91541688945E+02 0.  0.
    9000005    2    3    3    0    0  0.42358286418E+02 -0.96386941524E+01  0.18893015205E+03  0.19445413885E+03  0.15188183214E+02 0.  0.
         22    1    3    3    0    0 -0.42358286418E+02  0.96386941524E+01  0.11361467844E+03  0.12163644195E+03  0.00000000000E+00 0.  1.
         22    1    4    4    0    0  0.38139355617E+02 -0.53533180102E+01  0.14162265650E+03  0.14676595414E+03  0.00000000000E+00 0.  1.
         22    1    4    4    0    0  0.42189308011E+01 -0.42853761421E+01  0.47307495544E+02  0.47688184704E+02  0.00000000000E+00 0.  1.
<mgrwt>
<rscale>  0 0.91541689E+02</rscale>
<asrwt>0</asrwt>
<pdfrwt beam="1">  1        2 0.47587316E-01 0.91541689E+02</pdfrwt>
<pdfrwt beam="2">  1       -2 0.10419813E-02 0.91541689E+02</pdfrwt>
<totfact> 0.17978952E+05</totfact>
</mgrwt>
</event>
<event>
 7    1  0.3891761E-009  0.9135359E+02  0.7818608E-02  0.1299607E+00
          2   -1    0    0  501    0  0.00000000000E+00  0.00000000000E+00  0.23509926890E+03  0.23509926892E+03  0.25500000000E-02 0. -1.
         -2   -1    0    0    0  501 -0.00000000000E+00 -0.00000000000E+00 -0.88744188872E+01  0.88744192535E+01  0.25500000000E-02 0.  1.
         23    2    1    2    0    0 -0.71054273576E-14  0.00000000000E+00  0.22622485001E+03  0.24397368817E+03  0.91353586436E+02 0.  0.
    9000005    2    3    3    0    0 -0.43978116294E+02 -0.55283165069E+01  0.10880950789E+03  0.11847070190E+03  0.15203986493E+02 0.  0.
         22    1    3    3    0    0  0.43978116294E+02  0.55283165069E+01  0.11741534212E+03  0.12550298626E+03  0.00000000000E+00 0.  1.
         22    1    4    4    0    0 -0.14566916807E+02 -0.88270231681E+01  0.34230452633E+02  0.38233954684E+02  0.00000000000E+00 0. -1.
         22    1    4    4    0    0 -0.29411199487E+02  0.32987066612E+01  0.74579055261E+02  0.80236747221E+02  0.00000000000E+00 0. -1.
<mgrwt>
<rscale>  0 0.91353586E+02</rscale>
<asrwt>0</asrwt>
<pdfrwt beam="1">  1        2 0.36169119E-01 0.91353586E+02</pdfrwt>
<pdfrwt beam="2">  1       -2 0.13652952E-02 0.91353586E+02</pdfrwt>
<totfact> 0.16324304E+05</totfact>
</mgrwt>
</event>
<event>
 7    1  0.3891761E-009  0.9221085E+02  0.7818608E-02  0.1297584E+00
         -2   -1    0    0    0  501 -0.00000000000E+00  0.00000000000E+00  0.20343750558E+01  0.20343766539E+01  0.25500000000E-02 0.  1.
          2   -1    0    0  501    0  0.00000000000E+00 -0.00000000000E+00 -0.10448955853E+04  0.10448955853E+04  0.25500000000E-02 0. -1.
         23    2    1    2    0    0 -0.88817841970E-15  0.35527136788E-14 -0.10428612103E+04  0.10469299620E+04  0.92210853003E+02 0.  0.
    9000005    2    3    3    0    0  0.79349992669E+01  0.30987174707E+02 -0.89441240235E+03  0.89507405073E+03  0.12682334272E+02 0.  0.
         22    1    3    3    0    0 -0.79349992669E+01 -0.30987174707E+02 -0.14844880793E+03  0.15185591127E+03  0.00000000000E+00 0.  1.
         22    1    4    4    0    0  0.12655427486E+01  0.26117183779E+02 -0.67431741731E+03  0.67482419057E+03  0.00000000000E+00 0.  1.
         22    1    4    4    0    0  0.66694565184E+01  0.48699909284E+01 -0.22009498503E+03  0.22024986016E+03  0.00000000000E+00 0.  1.
<mgrwt>
<rscale>  0 0.92210853E+02</rscale>
<asrwt>0</asrwt>
<pdfrwt beam="2">  1        2 0.16075274E+00 0.92210853E+02</pdfrwt>
<pdfrwt beam="1">  1       -2 0.31298174E-03 0.92210853E+02</pdfrwt>
<totfact> 0.24298822E+05</totfact>
</mgrwt>
</event>
<event>
 6    1  0.3891761E-009  0.1583962E+03  0.7818608E-02  0.1190519E+00
         -2   -1    0    0    0  501 -0.00000000000E+00  0.00000000000E+00  0.10224033763E+03  0.10224033766E+03  0.25500000000E-02 0.  1.
          2   -1    0    0  501    0  0.00000000000E+00 -0.00000000000E+00 -0.61348970651E+02  0.61348970704E+02  0.25500000000E-02 0. -1.
    9000005    2    1    2    0    0  0.69429184230E+02  0.19061541252E+01 -0.17567438930E+02  0.72806727247E+02  0.12967635690E+02 0.  0.
         22    1    1    2    0    0 -0.69429184230E+02 -0.19061541252E+01  0.58458805910E+02  0.90782581120E+02  0.00000000000E+00 0.  1.
         22    1    3    3    0    0  0.65318133365E+02 -0.75765182917E+00 -0.18338298812E+02  0.67847813421E+02  0.00000000000E+00 0. -1.
         22    1    3    3    0    0  0.41110508651E+01  0.26638059543E+01  0.77085988247E+00  0.49589138262E+01  0.00000000000E+00 0. -1.
<mgrwt>
<rscale>  0 0.15839621E+03</rscale>
<asrwt>0</asrwt>
<pdfrwt beam="2">  1        2 0.94383033E-02 0.15839621E+03</pdfrwt>
<pdfrwt beam="1">  1       -2 0.15729283E-01 0.15839621E+03</pdfrwt>
<totfact> 0.20468318E+04</totfact>
</mgrwt>
</event>
<event>
 7    1  0.3891761E-009  0.8979873E+02  0.7818608E-02  0.1303340E+00
         -2   -1    0    0    0  501 -0.00000000000E+00  0.00000000000E+00  0.17353949590E+03  0.17353949592E+03  0.25500000000E-02 0.  1.
          2   -1    0    0  501    0  0.00000000000E+00 -0.00000000000E+00 -0.11616681587E+02  0.11616681867E+02  0.25500000000E-02 0. -1.
         23    2    1    2    0    0  0.00000000000E+00 -0.71054273576E-14  0.16192281432E+03  0.18515617779E+03  0.89798732603E+02 0.  0.
    9000005    2    3    3    0    0 -0.14588893613E+02  0.34652849392E+02  0.35349599833E+02  0.53116659414E+02  0.12574955710E+02 0.  0.
         22    1    3    3    0    0  0.14588893613E+02 -0.34652849392E+02  0.12657321448E+03  0.13203951837E+03  0.00000000000E+00 0.  1.
         22    1    4    4    0    0 -0.37175925501E+01  0.52506510884E+00  0.43597775091E+01  0.57535943257E+01  0.00000000000E+00 0.  1.
         22    1    4    4    0    0 -0.10871301063E+02  0.34127784283E+02  0.30989822324E+02  0.47363065088E+02  0.00000000000E+00 0.  1.
<mgrwt>
<rscale>  0 0.89798733E+02</rscale>
<asrwt>0</asrwt>
<pdfrwt beam="2">  1        2 0.17871821E-02 0.89798733E+02</pdfrwt>
<pdfrwt beam="1">  1       -2 0.26698380E-01 0.89798733E+02</pdfrwt>
<totfact> 0.68703313E+04</totfact>
</mgrwt>
</event>
<event>
 7    1  0.3891761E-009  0.9096428E+02  0.7818608E-02  0.1300533E+00
          2   -1    0    0  501    0  0.00000000000E+00  0.00000000000E+00  0.42035255019E+03  0.42035255020E+03  0.25500000000E-02 0. -1.
         -2   -1    0    0    0  501 -0.00000000000E+00 -0.00000000000E+00 -0.49211667823E+01  0.49211674429E+01  0.25500000000E-02 0.  1.
         23    2    1    2    0    0  0.00000000000E+00  0.17763568394E-14  0.41543138341E+03  0.42527371764E+03  0.90964281978E+02 0.  0.
    9000005    2    3    3    0    0  0.17360307967E+01 -0.15139050275E+02  0.40782656106E+03  0.40824321650E+03  0.10383412927E+02 0.  0.
         22    1    3    3    0    0 -0.17360307967E+01  0.15139050275E+02  0.76048223433E+01  0.17030501139E+02  0.00000000000E+00 0.  1.
         22    1    4    4    0    0 -0.76994137193E-01 -0.12997233749E+02  0.38815130881E+03  0.38836886145E+03  0.00000000000E+00 0. -1.
         22    1    4    4    0    0  0.18130249339E+01 -0.21418165264E+01  0.19675252252E+02  0.19874355050E+02  0.00000000000E+00 0. -1.
<mgrwt>
<rscale>  0 0.90964282E+02</rscale>
<asrwt>0</asrwt>
<pdfrwt beam="1">  1        2 0.64669621E-01 0.90964282E+02</pdfrwt>
<pdfrwt beam="2">  1       -2 0.75710266E-03 0.90964282E+02</pdfrwt>
<totfact> 0.20443303E+05</totfact>
</mgrwt>
</event>
<event>
 7    1  0.3891761E-009  0.8775822E+02  0.7818608E-02  0.1308373E+00
          2   -1    0    0  501    0  0.00000000000E+00  0.00000000000E+00  0.91011809835E+01  0.91011813407E+01  0.25500000000E-02 0. -1.
         -2   -1    0    0    0  501 -0.00000000000E+00 -0.00000000000E+00 -0.21155236973E+03  0.21155236974E+03  0.25500000000E-02 0.  1.
         23    2    1    2    0    0  0.00000000000E+00 -0.88817841970E-15 -0.20245118875E+03  0.22065355109E+03  0.87758223444E+02 0.  0.
    9000005    2    3    3    0    0  0.33457118164E+02 -0.68453640622E+01 -0.37309269951E+02  0.52017578920E+02  0.12149449676E+02 0.  0.
         22    1    3    3    0    0 -0.33457118164E+02  0.68453640622E+01 -0.16514191880E+03  0.16863597217E+03  0.00000000000E+00 0.  1.
         22    1    4    4    0    0  0.26499829767E+02 -0.40642572115E+01 -0.20951006784E+02  0.34025047387E+02  0.00000000000E+00 0. -1.
         22    1    4    4    0    0  0.69572883966E+01 -0.27811068507E+01 -0.16358263166E+02  0.17992531533E+02  0.00000000000E+00 0. -1.
<mgrwt>
<rscale>  0 0.87758223E+02</rscale>
<asrwt>0</asrwt>
<pdfrwt beam="1">  1        2 0.14001819E-02 0.87758223E+02</pdfrwt>
<pdfrwt beam="2">  1       -2 0.32546515E-01 0.87758223E+02</pdfrwt>
<totfact> 0.67028588E+04</totfact>
</mgrwt>
</event>
<event>
 7    1  0.3891761E-009  0.9164738E+02  0.7818608E-02  0.1298911E+00
          2   -1    0    0  501    0  0.00000000000E+00  0.00000000000E+00  0.37979387317E+03  0.37979387317E+03  0.25500000000E-02 0. -1.
         -2   -1    0    0    0  501 -0.00000000000E+00 -0.00000000000E+00 -0.55288154948E+01  0.55288160828E+01  0.25500000000E-02 0.  1.
         23    2    1    2    0    0  0.00000000000E+00  0.00000000000E+00  0.37426505767E+03  0.38532268926E+03  0.91647375647E+02 0.  0.
    9000005    2    3    3    0    0  0.32501319700E+02  0.15381046077E+01  0.32153787042E+03  0.32336417230E+03  0.10912573726E+02 0.  0.
         22    1    3    3    0    0 -0.32501319700E+02 -0.15381046077E+01  0.52727187250E+02  0.61958516955E+02  0.00000000000E+00 0.  1.
         22    1    4    4    0    0  0.45015656890E+01  0.40478126170E+01  0.69581463819E+02  0.69844319653E+02  0.00000000000E+00 0.  1.
         22    1    4    4    0    0  0.27999754011E+02 -0.25097080093E+01  0.25195640660E+03  0.25351985265E+03  0.00000000000E+00 0.  1.
<mgrwt>
<rscale>  0 0.91647376E+02</rscale>
<asrwt>0</asrwt>
<pdfrwt beam="1">  1        2 0.58429849E-01 0.91647376E+02</pdfrwt>
<pdfrwt beam="2">  1       -2 0.85058672E-03 0.91647376E+02</pdfrwt>
<totfact> 0.19327060E+05</totfact>
</mgrwt>
</event>
<event>
 7    1  0.3891761E-009  0.9191123E+02  0.7818608E-02  0.1298288E+00
          2   -1    0    0  501    0  0.00000000000E+00  0.00000000000E+00  0.13076126740E+02  0.13076126989E+02  0.25500000000E-02 0. -1.
         -2   -1    0    0    0  501 -0.00000000000E+00 -0.00000000000E+00 -0.16150949675E+03  0.16150949677E+03  0.25500000000E-02 0.  1.
         23    2    1    2    0    0  0.00000000000E+00  0.00000000000E+00 -0.14843337001E+03  0.17458562376E+03  0.91911232670E+02 0.  0.
    9000005    2    3    3    0    0  0.14143299115E+02  0.33800348646E+02 -0.12563811992E+03  0.13143333639E+03  0.12136237478E+02 0.  0.
         22    1    3    3    0    0 -0.14143299115E+02 -0.33800348646E+02 -0.22795250098E+02  0.43152287373E+02  0.00000000000E+00 0. -1.
         22    1    4    4    0    0  0.14394710093E+02  0.32813773939E+02 -0.12535627124E+03  0.13037693883E+03  0.00000000000E+00 0.  1.
         22    1    4    4    0    0 -0.25141097762E+00  0.98657470713E+00 -0.28184867461E+00  0.10563975614E+01  0.00000000000E+00 0.  1.
<mgrwt>
<rscale>  0 0.91911233E+02</rscale>
<asrwt>0</asrwt>
<pdfrwt beam="1">  1        2 0.20117119E-02 0.91911233E+02</pdfrwt>
<pdfrwt beam="2">  1       -2 0.24847614E-01 0.91911233E+02</pdfrwt>
<totfact> 0.66591822E+04</totfact>
</mgrwt>
</event>
<event>
 7    1  0.3891761E-009  0.9078728E+02  0.7818608E-02  0.1300956E+00
         -2   -1    0    0    0  501 -0.00000000000E+00  0.00000000000E+00  0.12888845344E+03  0.12888845347E+03  0.25500000000E-02 0.  1.
          2   -1    0    0  501    0  0.00000000000E+00 -0.00000000000E+00 -0.15987332029E+02  0.15987332233E+02  0.25500000000E-02 0. -1.
         23    2    1    2    0    0  0.00000000000E+00  0.17763568394E-14  0.11290112141E+03  0.14487578570E+03  0.90787279206E+02 0.  0.
    9000005    2    3    3    0    0 -0.39363135251E+02  0.11709806984E+02  0.83923923287E+02  0.94613931300E+02  0.14899499984E+02 0.  0.
         22    1    3    3    0    0  0.39363135251E+02 -0.11709806984E+02  0.28977198124E+02  0.50261854397E+02  0.00000000000E+00 0.  1.
         22    1    4    4    0    0 -0.22273278209E+02  0.10723719890E+02  0.62362656727E+02  0.67083515445E+02  0.00000000000E+00 0.  1.
         22    1    4    4    0    0 -0.17089857041E+02  0.98608709388E+00  0.21561266560E+02  0.27530415855E+02  0.00000000000E+00 0.  1.
<mgrwt>
<rscale>  0 0.90787279E+02</rscale>
<asrwt>0</asrwt>
<pdfrwt beam="2">  1        2 0.24595895E-02 0.90787279E+02</pdfrwt>
<pdfrwt beam="1">  1       -2 0.19828993E-01 0.90787279E+02</pdfrwt>
<totfact> 0.74458445E+04</totfact>
</mgrwt>
</event>
<event>
 7    1  0.3891761E-009  0.9287572E+02  0.7818608E-02  0.1296033E+00
         -2   -1    0    0    0  501 -0.00000000000E+00  0.00000000000E+00  0.11054120244E+02  0.11054120538E+02  0.25500000000E-02 0.  1.
          2   -1    0    0  501    0  0.00000000000E+00 -0.00000000000E+00 -0.19508335192E+03  0.19508335193E+03  0.25500000000E-02 0. -1.
         23    2    1    2    0    0  0.00000000000E+00 -0.88817841970E-15 -0.18402923167E+03  0.20613747247E+03  0.92875720439E+02 0.  0.
    9000005    2    3    3    0    0  0.45875083762E+02 -0.65905222730E+01 -0.95946148540E+02  0.10660562918E+03  0.33374331731E+01 0.  0.
         22    1    3    3    0    0 -0.45875083762E+02  0.65905222730E+01 -0.88083083134E+02  0.99531843288E+02  0.00000000000E+00 0. -1.
         22    1    4    4    0    0  0.28166248008E+02 -0.52399774438E+01 -0.56651707368E+02  0.63483941577E+02  0.00000000000E+00 0.  1.
         22    1    4    4    0    0  0.17708835754E+02 -0.13505448292E+01 -0.39294441171E+02  0.43121687607E+02  0.00000000000E+00 0.  1.
<mgrwt>
<rscale>  0 0.92875720E+02</rscale>
<asrwt>0</asrwt>
<pdfrwt beam="2">  1        2 0.30012821E-01 0.92875720E+02</pdfrwt>
<pdfrwt beam="1">  1       -2 0.17006341E-02 0.92875720E+02</pdfrwt>
<totfact> 0.14584488E+05</totfact>
</mgrwt>
</event>
<event>
 7    1  0.3891761E-009  0.9097259E+02  0.7818608E-02  0.1300513E+00
          2   -1    0    0  501    0  0.00000000000E+00  0.00000000000E+00  0.11921562573E+02  0.11921562846E+02  0.25500000000E-02 0. -1.
         -2   -1    0    0    0  501 -0.00000000000E+00 -0.00000000000E+00 -0.17355132196E+03  0.17355132198E+03  0.25500000000E-02 0.  1.
         23    2    1    2    0    0 -0.17763568394E-14  0.00000000000E+00 -0.16162975939E+03  0.18547288482E+03  0.90972588650E+02 0.  0.
    9000005    2    3    3    0    0 -0.11710101268E+02  0.34040677210E+02 -0.13578868005E+03  0.14115973149E+03  0.13842326040E+02 0.  0.
         22    1    3    3    0    0  0.11710101268E+02 -0.34040677210E+02 -0.25841079341E+02  0.44313153331E+02  0.00000000000E+00 0. -1.
         22    1    4    4    0    0  0.17261406751E+01  0.15855497446E+02 -0.57632169605E+02  0.59798355615E+02  0.00000000000E+00 0.  1.
         22    1    4    4    0    0 -0.13436241943E+02  0.18185179764E+02 -0.78156510441E+02  0.81361375879E+02  0.00000000000E+00 0.  1.
<mgrwt>
<rscale>  0 0.90972589E+02</rscale>
<asrwt>0</asrwt>
<pdfrwt beam="1">  1        2 0.18340867E-02 0.90972589E+02</pdfrwt>
<pdfrwt beam="2">  1       -2 0.26700202E-01 0.90972589E+02</pdfrwt>
<totfact> 0.66471658E+04</totfact>
</mgrwt>
</event>
<event>
 7    1  0.3891761E-009  0.9172341E+02  0.7818608E-02  0.1298731E+00
         -2   -1    0    0    0  501 -0.00000000000E+00  0.00000000000E+00  0.31754868520E+01  0.31754878758E+01  0.25500000000E-02 0.  1.
          2   -1    0    0  501    0  0.00000000000E+00 -0.00000000000E+00 -0.66235375750E+03  0.66235375751E+03  0.25500000000E-02 0. -1.
         23    2    1    2    0    0  0.17763568394E-14  0.00000000000E+00 -0.65917827065E+03  0.66552924538E+03  0.91723410112E+02 0.  0.
    9000005    2    3    3    0    0  0.95604983065E+01 -0.36236355742E+02 -0.51393962554E+03  0.51553344331E+03  0.15372568690E+02 0.  0.
         22    1    3    3    0    0 -0.95604983065E+01  0.36236355742E+02 -0.14523864511E+03  0.14999580207E+03  0.00000000000E+00 0.  1.
         22    1    4    4    0    0  0.49959322219E+01 -0.25433326596E+02 -0.42974594135E+03  0.43052687204E+03  0.00000000000E+00 0.  1.
         22    1    4    4    0    0  0.45645660846E+01 -0.10803029146E+02 -0.84193684188E+02  0.85006571271E+02  0.00000000000E+00 0.  1.
<mgrwt>
<rscale>  0 0.91723410E+02</rscale>
<asrwt>0</asrwt>
<pdfrwt beam="2">  1        2 0.10190047E+00 0.91723410E+02</pdfrwt>
<pdfrwt beam="1">  1       -2 0.48853704E-03 0.91723410E+02</pdfrwt>
<totfact> 0.23031568E+05</totfact>
</mgrwt>
</event>
<event>
 7    1  0.3891761E-009  0.8388468E+02  0.7818608E-02  0.1318375E+00
          2   -1    0    0  501    0  0.00000000000E+00  0.00000000000E+00  0.12951475192E+04  0.12951475192E+04  0.25500000000E-02 0. -1.
         -2   -1    0    0    0  501 -0.00000000000E+00 -0.00000000000E+00 -0.13582686186E+01  0.13582710123E+01  0.25500000000E-02 0.  1.
         23    2    1    2    0    0  0.00000000000E+00  0.00000000000E+00  0.12937892506E+04  0.12965057902E+04  0.83884677626E+02 0.  0.
    9000005    2    3    3    0    0 -0.16190352381E+02  0.33226292365E+01  0.12418231192E+04  0.12419746415E+04  0.10157914760E+02 0.  0.
         22    1    3    3    0    0  0.16190352381E+02 -0.33226292365E+01  0.51966131312E+02  0.54531148703E+02  0.00000000000E+00 0.  1.
         22    1    4    4    0    0 -0.11641244494E+02 -0.24039375714E+01  0.85207424958E+03  0.85215715938E+03  0.00000000000E+00 0. -1.
         22    1    4    4    0    0 -0.45491078880E+01  0.57265668079E+01  0.38974886967E+03  0.38981748211E+03  0.00000000000E+00 0. -1.
<mgrwt>
<rscale>  0 0.83884678E+02</rscale>
<asrwt>0</asrwt>
<pdfrwt beam="1">  1        2 0.19925421E+00 0.83884678E+02</pdfrwt>
<pdfrwt beam="2">  1       -2 0.20896381E-03 0.83884678E+02</pdfrwt>
<totfact> 0.30595440E+05</totfact>
</mgrwt>
</event>
<event>
 7    1  0.3891761E-009  0.9046345E+02  0.7818608E-02  0.1301733E+00
         -2   -1    0    0    0  501 -0.00000000000E+00  0.00000000000E+00  0.82901811387E+02  0.82901811427E+02  0.25500000000E-02 0. -1.
          2   -1    0    0  501    0  0.00000000000E+00 -0.00000000000E+00 -0.24678697961E+02  0.24678698092E+02  0.25500000000E-02 0.  1.
         23    2    1    2    0    0  0.35527136788E-14  0.00000000000E+00  0.58223113427E+02  0.10758050952E+03  0.90463446161E+02 0.  0.
    9000005    2    3    3    0    0  0.28733700646E+02 -0.88875934889E+01  0.69023068632E+02  0.75623446086E+02  0.70786103029E+01 0.  0.
         22    1    3    3    0    0 -0.28733700646E+02  0.88875934889E+01 -0.10799955205E+02  0.31957063433E+02  0.00000000000E+00 0.  1.
         22    1    4    4    0    0 -0.24662372437E+00 -0.76113235127E+00  0.18434739315E+01  0.20096123640E+01  0.00000000000E+00 0.  1.
         22    1    4    4    0    0  0.28980324370E+02 -0.81264611377E+01  0.67179594700E+02  0.73613833722E+02  0.00000000000E+00 0.  1.
<mgrwt>
<rscale>  0 0.90463446E+02</rscale>
<asrwt>0</asrwt>
<pdfrwt beam="2">  1        2 0.37967228E-02 0.90463446E+02</pdfrwt>
<pdfrwt beam="1">  1       -2 0.12754125E-01 0.90463446E+02</pdfrwt>
<totfact> 0.85885709E+04</totfact>
</mgrwt>
</event>
<event>
 7    1  0.3891761E-009  0.9494530E+02  0.7818608E-02  0.1291299E+00
         -2   -1    0    0    0  501 -0.00000000000E+00  0.00000000000E+00  0.25160224033E+02  0.25160224163E+02  0.25500000000E-02 0.  1.
          2   -1    0    0  501    0  0.00000000000E+00 -0.00000000000E+00 -0.89572028434E+02  0.89572028470E+02  0.25500000000E-02 0. -1.
         23    2    1    2    0    0  0.00000000000E+00  0.00000000000E+00 -0.64411804401E+02  0.11473225263E+03  0.94945296082E+02 0.  0.
    9000005    2    3    3    0    0 -0.22354691785E+02  0.40566971665E+02 -0.21862188191E+02  0.51836455679E+02  0.79781846316E+01 0.  0.
         22    1    3    3    0    0  0.22354691785E+02 -0.40566971665E+02 -0.42549616210E+02  0.62895796954E+02  0.00000000000E+00 0. -1.
         22    1    4    4    0    0 -0.61422706689E+01  0.14149537965E+02 -0.35248050979E+01  0.15822805206E+02  0.00000000000E+00 0.  1.
         22    1    4    4    0    0 -0.16212421116E+02  0.26417433700E+02 -0.18337383093E+02  0.36013650474E+02  0.00000000000E+00 0.  1.
<mgrwt>
<rscale>  0 0.94945296E+02</rscale>
<asrwt>0</asrwt>
<pdfrwt beam="2">  1        2 0.13780312E-01 0.94945296E+02</pdfrwt>
<pdfrwt beam="1">  1       -2 0.38708038E-02 0.94945296E+02</pdfrwt>
<totfact> 0.10606803E+05</totfact>
</mgrwt>
</event>
<event>
 7    1  0.4031495E-009  0.9123976E+02  0.7818608E-02  0.1299877E+00
         -2   -1    0    0    0  501 -0.00000000000E+00  0.00000000000E+00  0.63899494712E+01  0.63899499800E+01  0.25500000000E-02 0.  1.
          2   -1    0    0  501    0  0.00000000000E+00 -0.00000000000E+00 -0.32569479083E+03  0.32569479084E+03  0.25500000000E-02 0. -1.
         23    2    1    2    0    0  0.35527136788E-14 -0.35527136788E-14 -0.31930484136E+03  0.33208474082E+03  0.91239757620E+02 0.  0.
    9000005    2    3    3    0    0 -0.26427582565E+02  0.22454009183E+02 -0.26471318879E+03  0.26740979839E+03  0.15242319565E+02 0.  0.
         22    1    3    3    0    0  0.26427582565E+02 -0.22454009183E+02 -0.54591652575E+02  0.64674942439E+02  0.00000000000E+00 0.  1.
         22    1    4    4    0    0 -0.40275030991E+01  0.12380674409E+02 -0.10835275819E+03  0.10913213133E+03  0.00000000000E+00 0. -1.
         22    1    4    4    0    0 -0.22400079465E+02  0.10073334774E+02 -0.15636043059E+03  0.15827766706E+03  0.00000000000E+00 0. -1.
<mgrwt>
<rscale>  0 0.91239758E+02</rscale>
<asrwt>0</asrwt>
<pdfrwt beam="2">  1        2 0.50106878E-01 0.91239758E+02</pdfrwt>
<pdfrwt beam="1">  1       -2 0.98306944E-03 0.91239758E+02</pdfrwt>
<totfact> 0.18488520E+05</totfact>
</mgrwt>
</event>
<event>
 7    1  0.3891761E-009  0.9160031E+02  0.7818608E-02  0.1299022E+00
         -2   -1    0    0    0  501 -0.00000000000E+00  0.00000000000E+00  0.14501432830E+02  0.14501433055E+02  0.25500000000E-02 0.  1.
          2   -1    0    0  501    0  0.00000000000E+00 -0.00000000000E+00 -0.14465150592E+03  0.14465150594E+03  0.25500000000E-02 0. -1.
         23    2    1    2    0    0  0.00000000000E+00  0.00000000000E+00 -0.13015007309E+03  0.15915293900E+03  0.91600308222E+02 0.  0.
    9000005    2    3    3    0    0 -0.57574358425E+01  0.28818791399E+02 -0.82861822983E+01  0.33795535211E+02  0.14484701515E+02 0.  0.
         22    1    3    3    0    0  0.57574358425E+01 -0.28818791399E+02 -0.12186389079E+03  0.12535740379E+03  0.00000000000E+00 0. -1.
         22    1    4    4    0    0  0.34253807867E+00  0.21276688977E+02 -0.10673002547E+02  0.23806045651E+02  0.00000000000E+00 0.  1.
         22    1    4    4    0    0 -0.60999739211E+01  0.75421024219E+01  0.23868202492E+01  0.99894895607E+01  0.00000000000E+00 0.  1.
<mgrwt>
<rscale>  0 0.91600308E+02</rscale>
<asrwt>0</asrwt>
<pdfrwt beam="2">  1        2 0.22254077E-01 0.91600308E+02</pdfrwt>
<pdfrwt beam="1">  1       -2 0.22309898E-02 0.91600308E+02</pdfrwt>
<totfact> 0.13637109E+05</totfact>
</mgrwt>
</event>
<event>
 7    1  0.3891761E-009  0.9165874E+02  0.7818608E-02  0.1298884E+00
         -2   -1    0    0    0  501 -0.00000000000E+00  0.00000000000E+00  0.21945936027E+03  0.21945936029E+03  0.25500000000E-02 0.  1.
          2   -1    0    0  501    0  0.00000000000E+00 -0.00000000000E+00 -0.95704783988E+01  0.95704787385E+01  0.25500000000E-02 0. -1.
         23    2    1    2    0    0  0.00000000000E+00 -0.35527136788E-14  0.20988888187E+03  0.22902983902E+03  0.91658738972E+02 0.  0.
    9000005    2    3    3    0    0 -0.29091835120E+02  0.30518231881E+02  0.68788381359E+02  0.81764606899E+02  0.13263189043E+02 0.  0.
         22    1    3    3    0    0  0.29091835120E+02 -0.30518231881E+02  0.14110050051E+03  0.14726523212E+03  0.00000000000E+00 0. -1.
         22    1    4    4    0    0 -0.23688918919E+02  0.15685950236E+02  0.43805749032E+02  0.52212618806E+02  0.00000000000E+00 0.  1.
         22    1    4    4    0    0 -0.54029162018E+01  0.14832281644E+02  0.24982632328E+02  0.29551988094E+02  0.00000000000E+00 0.  1.
<mgrwt>
<rscale>  0 0.91658739E+02</rscale>
<asrwt>0</asrwt>
<pdfrwt beam="2">  1        2 0.14723814E-02 0.91658739E+02</pdfrwt>
<pdfrwt beam="1">  1       -2 0.33762978E-01 0.91658739E+02</pdfrwt>
<totfact> 0.58990214E+04</totfact>
</mgrwt>
</event>
<event>
 7    1  0.3891761E-009  0.9261637E+02  0.7818608E-02  0.1296637E+00
         -2   -1    0    0    0  501 -0.00000000000E+00  0.00000000000E+00  0.40803467640E+01  0.40803475608E+01  0.25500000000E-02 0.  1.
          2   -1    0    0  501    0  0.00000000000E+00 -0.00000000000E+00 -0.52555525563E+03  0.52555525564E+03  0.25500000000E-02 0. -1.
         23    2    1    2    0    0  0.00000000000E+00 -0.17763568394E-14 -0.52147490887E+03  0.52963560320E+03  0.92616367868E+02 0.  0.
    9000005    2    3    3    0    0 -0.51824422881E+01 -0.15740748877E+02 -0.50801188050E+03  0.50828420942E+03  0.14621689043E+01 0.  0.
         22    1    3    3    0    0  0.51824422881E+01  0.15740748877E+02 -0.13463028369E+02  0.21351393775E+02  0.00000000000E+00 0.  1.
         22    1    4    4    0    0 -0.41838571523E+01 -0.13694166048E+02 -0.42525736650E+03  0.42549836969E+03  0.00000000000E+00 0. -1.
         22    1    4    4    0    0 -0.99858513581E+00 -0.20465828297E+01 -0.82754514001E+02  0.82785839738E+02  0.00000000000E+00 0. -1.
<mgrwt>
<rscale>  0 0.92616368E+02</rscale>
<asrwt>0</asrwt>
<pdfrwt beam="2">  1        2 0.80854601E-01 0.92616368E+02</pdfrwt>
<pdfrwt beam="1">  1       -2 0.62774613E-03 0.92616368E+02</pdfrwt>
<totfact> 0.21006488E+05</totfact>
</mgrwt>
</event>
<event>
 7    1  0.3891761E-009  0.8787466E+02  0.7818608E-02  0.1308082E+00
          2   -1    0    0  501    0  0.00000000000E+00  0.00000000000E+00  0.44184254998E+03  0.44184254999E+03  0.25500000000E-02 0. -1.
         -2   -1    0    0    0  501 -0.00000000000E+00 -0.00000000000E+00 -0.43691780360E+01  0.43691787802E+01  0.25500000000E-02 0.  1.
         23    2    1    2    0    0  0.17763568394E-14  0.00000000000E+00  0.43747337194E+03  0.44621172877E+03  0.87874659201E+02 0.  0.
    9000005    2    3    3    0    0  0.82982135631E+01 -0.22712170980E+02  0.40494002367E+03  0.40567628984E+03  0.34822854153E+01 0.  0.
         22    1    3    3    0    0 -0.82982135631E+01  0.22712170980E+02  0.32533348276E+02  0.40535438927E+02  0.00000000000E+00 0.  1.
         22    1    4    4    0    0  0.58875429520E+01 -0.14796268677E+02  0.23886131990E+03  0.23939156809E+03  0.00000000000E+00 0.  1.
         22    1    4    4    0    0  0.24106706112E+01 -0.79159023029E+01  0.16607870376E+03  0.16628472175E+03  0.00000000000E+00 0.  1.
<mgrwt>
<rscale>  0 0.87874659E+02</rscale>
<asrwt>0</asrwt>
<pdfrwt beam="1">  1        2 0.67975783E-01 0.87874659E+02</pdfrwt>
<pdfrwt beam="2">  1       -2 0.67218123E-03 0.87874659E+02</pdfrwt>
<totfact> 0.22792170E+05</totfact>
</mgrwt>
</event>
<event>
 7    1  0.3891761E-009  0.1006747E+03  0.7818608E-02  0.1278884E+00
         -2   -1    0    0    0  501 -0.00000000000E+00  0.00000000000E+00  0.66948420379E+02  0.66948420428E+02  0.25500000000E-02 0.  1.
          2   -1    0    0  501    0  0.00000000000E+00 -0.00000000000E+00 -0.37847774041E+02  0.37847774127E+02  0.25500000000E-02 0. -1.
         23    2    1    2    0    0  0.00000000000E+00  0.00000000000E+00  0.29100646338E+02  0.10479619455E+03  0.10067469779E+03 0.  0.
    9000005    2    3    3    0    0  0.24032470953E+02  0.10658212292E+02  0.58630102721E+02  0.65259554034E+02  0.11408913108E+02 0.  0.
         22    1    3    3    0    0 -0.24032470953E+02 -0.10658212292E+02 -0.29529456383E+02  0.39536640520E+02  0.00000000000E+00 0. -1.
         22    1    4    4    0    0  0.19829808506E+02  0.10835699401E+02  0.38052091512E+02  0.44256020555E+02  0.00000000000E+00 0. -1.
         22    1    4    4    0    0  0.42026624472E+01 -0.17748710897E+00  0.20578011209E+02  0.21003533480E+02  0.00000000000E+00 0. -1.
<mgrwt>
<rscale>  0 0.10067470E+03</rscale>
<asrwt>0</asrwt>
<pdfrwt beam="2">  1        2 0.58227346E-02 0.10067470E+03</pdfrwt>
<pdfrwt beam="1">  1       -2 0.10299757E-01 0.10067470E+03</pdfrwt>
<totfact> 0.70232582E+04</totfact>
</mgrwt>
</event>
<event>
 7    1  0.3891761E-009  0.9050938E+02  0.7818608E-02  0.1301623E+00
          2   -1    0    0  501    0  0.00000000000E+00  0.00000000000E+00  0.55139845126E+01  0.55139851023E+01  0.25500000000E-02 0. -1.
         -2   -1    0    0    0  501 -0.00000000000E+00 -0.00000000000E+00 -0.37141688123E+03  0.37141688124E+03  0.25500000000E-02 0.  1.
         23    2    1    2    0    0  0.35527136788E-14  0.00000000000E+00 -0.36590289672E+03  0.37693086634E+03  0.90509381693E+02 0.  0.
    9000005    2    3    3    0    0 -0.27339048324E+02 -0.17728347807E+02 -0.31123670236E+03  0.31329038642E+03  0.14861475266E+02 0.  0.
         22    1    3    3    0    0  0.27339048324E+02  0.17728347807E+02 -0.54666194359E+02  0.63640479924E+02  0.00000000000E+00 0. -1.
         22    1    4    4    0    0 -0.81574139975E+01  0.18759370117E+01 -0.76733569902E+02  0.77188751077E+02  0.00000000000E+00 0.  1.
         22    1    4    4    0    0 -0.19181634327E+02 -0.19604284819E+02 -0.23450313246E+03  0.23610163534E+03  0.00000000000E+00 0.  1.
<mgrwt>
<rscale>  0 0.90509382E+02</rscale>
<asrwt>0</asrwt>
<pdfrwt beam="1">  1        2 0.84830565E-03 0.90509382E+02</pdfrwt>
<pdfrwt beam="2">  1       -2 0.57141039E-01 0.90509382E+02</pdfrwt>
<totfact> 0.45694118E+04</totfact>
</mgrwt>
</event>
<event>
 7    1  0.3891761E-009  0.9132981E+02  0.7818608E-02  0.1299663E+00
          2   -1    0    0  501    0  0.00000000000E+00  0.00000000000E+00  0.11512926307E+02  0.11512926590E+02  0.25500000000E-02 0.  1.
         -2   -1    0    0    0  501 -0.00000000000E+00 -0.00000000000E+00 -0.18112542311E+03  0.18112542313E+03  0.25500000000E-02 0. -1.
         23    2    1    2    0    0  0.00000000000E+00 -0.88817841970E-15 -0.16961249680E+03  0.19263834972E+03  0.91329812824E+02 0.  0.
    9000005    2    3    3    0    0  0.11555585940E+02  0.71910159224E+01 -0.17664267180E+03  0.17731954961E+03  0.73720348640E+01 0.  0.
         22    1    3    3    0    0 -0.11555585940E+02 -0.71910159224E+01  0.70301749912E+01  0.15318800110E+02  0.00000000000E+00 0.  1.
         22    1    4    4    0    0  0.27265586876E+01 -0.44918678875E+00 -0.66998820201E+02  0.67055781252E+02  0.00000000000E+00 0.  1.
         22    1    4    4    0    0  0.88290272526E+01  0.76402027112E+01 -0.10964385160E+03  0.11026376836E+03  0.00000000000E+00 0.  1.
<mgrwt>
<rscale>  0 0.91329813E+02</rscale>
<asrwt>0</asrwt>
<pdfrwt beam="1">  1        2 0.17712196E-02 0.91329813E+02</pdfrwt>
<pdfrwt beam="2">  1       -2 0.27865448E-01 0.91329813E+02</pdfrwt>
<totfact> 0.64691672E+04</totfact>
</mgrwt>
</event>
<event>
 7    1  0.3891761E-009  0.9147009E+02  0.7818608E-02  0.1299330E+00
          2   -1    0    0  501    0  0.00000000000E+00  0.00000000000E+00  0.27050400878E+03  0.27050400880E+03  0.25500000000E-02 0. -1.
         -2   -1    0    0    0  501 -0.00000000000E+00 -0.00000000000E+00 -0.77325817361E+01  0.77325821566E+01  0.25500000000E-02 0.  1.
         23    2    1    2    0    0 -0.17763568394E-14  0.00000000000E+00  0.26277142705E+03  0.27823659095E+03  0.91470091681E+02 0.  0.
    9000005    2    3    3    0    0 -0.13309887676E+02 -0.10049487423E+02  0.26047218076E+03  0.26140115687E+03  0.14375762720E+02 0.  0.
         22    1    3    3    0    0  0.13309887676E+02  0.10049487423E+02  0.22992462892E+01  0.16835434088E+02  0.00000000000E+00 0.  1.
         22    1    4    4    0    0  0.30185224141E+01 -0.27064554812E+01  0.41009402651E+02  0.41209313081E+02  0.00000000000E+00 0. -1.
         22    1    4    4    0    0 -0.16328410090E+02 -0.73430319414E+01  0.21946277811E+03  0.22019184378E+03  0.00000000000E+00 0. -1.
<mgrwt>
<rscale>  0 0.91470092E+02</rscale>
<asrwt>0</asrwt>
<pdfrwt beam="1">  1        2 0.41615993E-01 0.91470092E+02</pdfrwt>
<pdfrwt beam="2">  1       -2 0.11896282E-02 0.91470092E+02</pdfrwt>
<totfact> 0.17137779E+05</totfact>
</mgrwt>
</event>
<event>
 7    1  0.3891761E-009  0.9105994E+02  0.7818608E-02  0.1300305E+00
          2   -1    0    0  501    0  0.00000000000E+00  0.00000000000E+00  0.29213807697E+03  0.29213807698E+03  0.25500000000E-02 0. -1.
         -2   -1    0    0    0  501 -0.00000000000E+00 -0.00000000000E+00 -0.70958845894E+01  0.70958850476E+01  0.25500000000E-02 0.  1.
         23    2    1    2    0    0  0.17763568394E-14  0.00000000000E+00  0.28504219238E+03  0.29923396203E+03  0.91059939569E+02 0.  0.
    9000005    2    3    3    0    0  0.15128608361E+02  0.30188561634E+02  0.24122826726E+03  0.24391774308E+03  0.12828266393E+02 0.  0.
         22    1    3    3    0    0 -0.15128608361E+02 -0.30188561634E+02  0.43813925117E+02  0.55316218947E+02  0.00000000000E+00 0.  1.
         22    1    4    4    0    0  0.11696272320E+02  0.24295839174E+02  0.14770088511E+03  0.15014207288E+03  0.00000000000E+00 0. -1.
         22    1    4    4    0    0  0.34323360403E+01  0.58927224591E+01  0.93527382154E+02  0.93775670199E+02  0.00000000000E+00 0. -1.
<mgrwt>
<rscale>  0 0.91059940E+02</rscale>
<asrwt>0</asrwt>
<pdfrwt beam="1">  1        2 0.44944312E-01 0.91059940E+02</pdfrwt>
<pdfrwt beam="2">  1       -2 0.10916748E-02 0.91059940E+02</pdfrwt>
<totfact> 0.17850181E+05</totfact>
</mgrwt>
</event>
<event>
 7    1  0.3891761E-009  0.9145916E+02  0.7818608E-02  0.1299356E+00
         -2   -1    0    0    0  501 -0.00000000000E+00  0.00000000000E+00  0.45642560613E+02  0.45642560684E+02  0.25500000000E-02 0. -1.
          2   -1    0    0  501    0  0.00000000000E+00 -0.00000000000E+00 -0.45816762648E+02  0.45816762719E+02  0.25500000000E-02 0.  1.
         23    2    1    2    0    0  0.00000000000E+00  0.00000000000E+00 -0.17420203477E+00  0.91459323403E+02  0.91459157502E+02 0.  0.
    9000005    2    3    3    0    0 -0.73883112272E+01 -0.22807131421E+02 -0.37736854342E+02  0.46898070786E+02  0.14163561750E+02 0.  0.
         22    1    3    3    0    0  0.73883112272E+01  0.22807131421E+02  0.37562652307E+02  0.44561252617E+02  0.00000000000E+00 0. -1.
         22    1    4    4    0    0 -0.18748526696E+01 -0.16133539319E+02 -0.33565978684E+02  0.37289155106E+02  0.00000000000E+00 0. -1.
         22    1    4    4    0    0 -0.55134585576E+01 -0.66735921015E+01 -0.41708756577E+01  0.96089156805E+01  0.00000000000E+00 0. -1.
<mgrwt>
<rscale>  0 0.91459158E+02</rscale>
<asrwt>0</asrwt>
<pdfrwt beam="2">  1        2 0.70487327E-02 0.91459158E+02</pdfrwt>
<pdfrwt beam="1">  1       -2 0.70219324E-02 0.91459158E+02</pdfrwt>
<totfact> 0.97929135E+04</totfact>
</mgrwt>
</event>
<event>
 7    1  0.3891761E-009  0.9370369E+02  0.7818608E-02  0.1294123E+00
         -2   -1    0    0    0  501 -0.00000000000E+00  0.00000000000E+00  0.73668726943E+02  0.73668726987E+02  0.25500000000E-02 0.  1.
          2   -1    0    0  501    0  0.00000000000E+00 -0.00000000000E+00 -0.29796843992E+02  0.29796844101E+02  0.25500000000E-02 0. -1.
         23    2    1    2    0    0  0.00000000000E+00 -0.35527136788E-14  0.43871882951E+02  0.10346557109E+03  0.93703694095E+02 0.  0.
    9000005    2    3    3    0    0 -0.27097721799E+01 -0.29640423172E+02 -0.16658752224E+02  0.36012955529E+02  0.11555145570E+02 0.  0.
         22    1    3    3    0    0  0.27097721799E+01  0.29640423172E+02  0.60530635175E+02  0.67452615560E+02  0.00000000000E+00 0.  1.
         22    1    4    4    0    0 -0.32929305434E+01 -0.90744210707E+01 -0.11080714431E+02  0.14695943033E+02  0.00000000000E+00 0.  1.
         22    1    4    4    0    0  0.58315836352E+00 -0.20566002102E+02 -0.55780377935E+01  0.21317012496E+02  0.00000000000E+00 0.  1.
<mgrwt>
<rscale>  0 0.93703694E+02</rscale>
<asrwt>0</asrwt>
<pdfrwt beam="2">  1        2 0.45841298E-02 0.93703694E+02</pdfrwt>
<pdfrwt beam="1">  1       -2 0.11333650E-01 0.93703694E+02</pdfrwt>
<totfact> 0.81391667E+04</totfact>
</mgrwt>
</event>
<event>
 7    1  0.3891761E-009  0.9407144E+02  0.7818608E-02  0.1293281E+00
         -2   -1    0    0    0  501 -0.00000000000E+00  0.00000000000E+00  0.36659286061E+02  0.36659286150E+02  0.25500000000E-02 0.  1.
          2   -1    0    0  501    0  0.00000000000E+00 -0.00000000000E+00 -0.60349212312E+02  0.60349212366E+02  0.25500000000E-02 0. -1.
         23    2    1    2    0    0  0.00000000000E+00  0.00000000000E+00 -0.23689926251E+02  0.97008498516E+02  0.94071441887E+02 0.  0.
    9000005    2    3    3    0    0 -0.24882557285E+02 -0.25701224802E+02  0.19472013690E+02  0.40949175716E+02  0.42404081538E+01 0.  0.
         22    1    3    3    0    0  0.24882557285E+02  0.25701224802E+02 -0.43161939941E+02  0.56059322800E+02  0.00000000000E+00 0. -1.
         22    1    4    4    0    0 -0.19800163380E+02 -0.20772008272E+02  0.13627419223E+02  0.31768370311E+02  0.00000000000E+00 0.  1.
         22    1    4    4    0    0 -0.50823939051E+01 -0.49292165301E+01  0.58445944667E+01  0.91808054051E+01  0.00000000000E+00 0.  1.
<mgrwt>
<rscale>  0 0.94071442E+02</rscale>
<asrwt>0</asrwt>
<pdfrwt beam="2">  1        2 0.92844942E-02 0.94071442E+02</pdfrwt>
<pdfrwt beam="1">  1       -2 0.56398902E-02 0.94071442E+02</pdfrwt>
<totfact> 0.97241313E+04</totfact>
</mgrwt>
</event>
<event>
 7    1  0.3891761E-009  0.8689356E+02  0.7818608E-02  0.1310554E+00
          2   -1    0    0  501    0  0.00000000000E+00  0.00000000000E+00  0.12216689129E+03  0.12216689132E+03  0.25500000000E-02 0. -1.
         -2   -1    0    0    0  501 -0.00000000000E+00 -0.00000000000E+00 -0.15451178779E+02  0.15451178989E+02  0.25500000000E-02 0.  1.
         23    2    1    2    0    0  0.00000000000E+00 -0.17763568394E-14  0.10671571251E+03  0.13761807031E+03  0.86893555446E+02 0.  0.
    9000005    2    3    3    0    0 -0.36427914141E+02  0.12494137637E+02  0.84885568134E+02  0.93350117931E+02  0.50585014024E+01 0.  0.
         22    1    3    3    0    0  0.36427914141E+02 -0.12494137637E+02  0.21830144379E+02  0.44267952376E+02  0.00000000000E+00 0.  1.
         22    1    4    4    0    0 -0.22889441491E+02  0.52382111196E+01  0.51129763077E+02  0.56263825499E+02  0.00000000000E+00 0. -1.
         22    1    4    4    0    0 -0.13538472650E+02  0.72559265179E+01  0.33755805057E+02  0.37086292432E+02  0.00000000000E+00 0. -1.
<mgrwt>
<rscale>  0 0.86893555E+02</rscale>
<asrwt>0</asrwt>
<pdfrwt beam="1">  1        2 0.18794906E-01 0.86893555E+02</pdfrwt>
<pdfrwt beam="2">  1       -2 0.23771045E-02 0.86893555E+02</pdfrwt>
<totfact> 0.14888526E+05</totfact>
</mgrwt>
</event>
<event>
 7    1  0.3891761E-009  0.9090691E+02  0.7818608E-02  0.1300670E+00
          2   -1    0    0  501    0  0.00000000000E+00  0.00000000000E+00  0.19069342959E+02  0.19069343130E+02  0.25500000000E-02 0. -1.
         -2   -1    0    0    0  501 -0.00000000000E+00 -0.00000000000E+00 -0.10834230839E+03  0.10834230842E+03  0.25500000000E-02 0.  1.
         23    2    1    2    0    0  0.00000000000E+00  0.00000000000E+00 -0.89272965428E+02  0.12741165155E+03  0.90906911693E+02 0.  0.
    9000005    2    3    3    0    0 -0.28533480215E+02 -0.33670035375E+02 -0.54056620201E+02  0.70949082118E+02  0.12799347274E+02 0.  0.
         22    1    3    3    0    0  0.28533480215E+02  0.33670035375E+02 -0.35216345227E+02  0.56462569428E+02  0.00000000000E+00 0. -1.
         22    1    4    4    0    0 -0.15050930531E+02 -0.13804225817E+02 -0.15964745683E+02  0.25922196376E+02  0.00000000000E+00 0. -1.
         22    1    4    4    0    0 -0.13482549684E+02 -0.19865809558E+02 -0.38091874518E+02  0.45026885742E+02  0.00000000000E+00 0. -1.
<mgrwt>
<rscale>  0 0.90906912E+02</rscale>
<asrwt>0</asrwt>
<pdfrwt beam="1">  1        2 0.29337452E-02 0.90906912E+02</pdfrwt>
<pdfrwt beam="2">  1       -2 0.16668047E-01 0.90906912E+02</pdfrwt>
<totfact> 0.78469332E+04</totfact>
</mgrwt>
</event>
<event>
 7    1  0.3891761E-009  0.9545971E+02  0.7818608E-02  0.1290144E+00
         -2   -1    0    0    0  501 -0.00000000000E+00  0.00000000000E+00  0.33835562535E+01  0.33835572144E+01  0.25500000000E-02 0.  1.
          2   -1    0    0  501    0  0.00000000000E+00 -0.00000000000E+00 -0.67329708245E+03  0.67329708245E+03  0.25500000000E-02 0. -1.
         23    2    1    2    0    0 -0.35527136788E-14 -0.88817841970E-15 -0.66991352619E+03  0.67668063967E+03  0.95459706275E+02 0.  0.
    9000005    2    3    3    0    0  0.17372234908E+02  0.54371026295E+01 -0.64720899718E+03  0.64757991341E+03  0.12202524185E+02 0.  0.
         22    1    3    3    0    0 -0.17372234908E+02 -0.54371026295E+01 -0.22704529017E+02  0.29100726255E+02  0.00000000000E+00 0.  1.
         22    1    4    4    0    0  0.83560471357E+00 -0.18473274447E+01 -0.19431092564E+03  0.19432150338E+03  0.00000000000E+00 0.  1.
         22    1    4    4    0    0  0.16536630194E+02  0.72844300742E+01 -0.45289807154E+03  0.45325841003E+03  0.00000000000E+00 0.  1.
<mgrwt>
<rscale>  0 0.95459706E+02</rscale>
<asrwt>0</asrwt>
<pdfrwt beam="2">  1        2 0.10358406E+00 0.95459706E+02</pdfrwt>
<pdfrwt beam="1">  1       -2 0.52054772E-03 0.95459706E+02</pdfrwt>
<totfact> 0.20807483E+05</totfact>
</mgrwt>
</event>
<event>
 7    1  0.3891761E-009  0.8861411E+02  0.7818608E-02  0.1306243E+00
         -2   -1    0    0    0  501 -0.00000000000E+00  0.00000000000E+00  0.35249365792E+02  0.35249365884E+02  0.25500000000E-02 0.  1.
          2   -1    0    0  501    0  0.00000000000E+00 -0.00000000000E+00 -0.55692214774E+02  0.55692214832E+02  0.25500000000E-02 0. -1.
         23    2    1    2    0    0  0.17763568394E-14  0.00000000000E+00 -0.20442848982E+02  0.90941580716E+02  0.88614113033E+02 0.  0.
    9000005    2    3    3    0    0 -0.12220812634E+02  0.18391677005E+02  0.28354761583E+02  0.37380318209E+02  0.10280741242E+02 0.  0.
         22    1    3    3    0    0  0.12220812634E+02 -0.18391677005E+02 -0.48797610565E+02  0.53561262507E+02  0.00000000000E+00 0. -1.
         22    1    4    4    0    0 -0.11620155371E+02  0.13986989238E+02  0.15897267503E+02  0.24153405408E+02  0.00000000000E+00 0. -1.
         22    1    4    4    0    0 -0.60065726316E+00  0.44046877677E+01  0.12457494080E+02  0.13226912801E+02  0.00000000000E+00 0. -1.
<mgrwt>
<rscale>  0 0.88614113E+02</rscale>
<asrwt>0</asrwt>
<pdfrwt beam="2">  1        2 0.85680331E-02 0.88614113E+02</pdfrwt>
<pdfrwt beam="1">  1       -2 0.54229794E-02 0.88614113E+02</pdfrwt>
<totfact> 0.11269894E+05</totfact>
</mgrwt>
</event>
<event>
 7    1  0.6369067E-009  0.9425430E+02  0.7818608E-02  0.1292864E+00
         -2   -1    0    0    0  501 -0.00000000000E+00  0.00000000000E+00  0.28872501287E+01  0.28872512548E+01  0.25500000000E-02 0.  1.
          2   -1    0    0  501    0  0.00000000000E+00 -0.00000000000E+00 -0.76923290284E+03  0.76923290284E+03  0.25500000000E-02 0. -1.
         23    2    1    2    0    0  0.00000000000E+00  0.35527136788E-14 -0.76634565271E+03  0.77212015410E+03  0.94254299299E+02 0.  0.
    9000005    2    3    3    0    0 -0.16202966036E+01  0.25315306303E+02 -0.70638078146E+03  0.70701043226E+03  0.15698815490E+02 0.  0.
         22    1    3    3    0    0  0.16202966036E+01 -0.25315306303E+02 -0.59964871248E+02  0.65109721840E+02  0.00000000000E+00 0.  1.
         22    1    4    4    0    0 -0.20230509057E+01  0.80163628834E+01 -0.87981136794E+02  0.88368745835E+02  0.00000000000E+00 0. -1.
         22    1    4    4    0    0  0.40275430211E+00  0.17298943420E+02 -0.61839964467E+03  0.61864168642E+03  0.00000000000E+00 0. -1.
<mgrwt>
<rscale>  0 0.94254299E+02</rscale>
<asrwt>0</asrwt>
<pdfrwt beam="2">  1        2 0.11834336E+00 0.94254299E+02</pdfrwt>
<pdfrwt beam="1">  1       -2 0.44419303E-03 0.94254299E+02</pdfrwt>
<totfact> 0.22166952E+05</totfact>
</mgrwt>
</event>
<event>
 7    1  0.3891761E-009  0.9177278E+02  0.7818608E-02  0.1298615E+00
          2   -1    0    0  501    0  0.00000000000E+00  0.00000000000E+00  0.75168855006E+03  0.75168855006E+03  0.25500000000E-02 0. -1.
         -2   -1    0    0    0  501 -0.00000000000E+00 -0.00000000000E+00 -0.28011075637E+01  0.28011087244E+01  0.25500000000E-02 0.  1.
         23    2    1    2    0    0  0.35527136788E-14  0.00000000000E+00  0.74888744250E+03  0.75448965879E+03  0.91772782950E+02 0.  0.
    9000005    2    3    3    0    0  0.31617078033E+02  0.12862269736E+02  0.62419285169E+03  0.62520772431E+03  0.10144201789E+02 0.  0.
         22    1    3    3    0    0 -0.31617078033E+02 -0.12862269736E+02  0.12469459080E+03  0.12928193447E+03  0.00000000000E+00 0.  1.
         22    1    4    4    0    0  0.21425168996E+02  0.60206910430E+01  0.32362484611E+03  0.32438916075E+03  0.00000000000E+00 0.  1.
         22    1    4    4    0    0  0.10191909037E+02  0.68415786928E+01  0.30056800558E+03  0.30081856357E+03  0.00000000000E+00 0.  1.
<mgrwt>
<rscale>  0 0.91772783E+02</rscale>
<asrwt>0</asrwt>
<pdfrwt beam="1">  1        2 0.11564426E+00 0.91772783E+02</pdfrwt>
<pdfrwt beam="2">  1       -2 0.43094020E-03 0.91772783E+02</pdfrwt>
<totfact> 0.23676560E+05</totfact>
</mgrwt>
</event>
<event>
 7    1  0.3891761E-009  0.9135627E+02  0.7818608E-02  0.1299600E+00
         -2   -1    0    0    0  501 -0.00000000000E+00  0.00000000000E+00  0.11657649458E+03  0.11657649460E+03  0.25500000000E-02 0. -1.
          2   -1    0    0  501    0  0.00000000000E+00 -0.00000000000E+00 -0.17898050375E+02  0.17898050556E+02  0.25500000000E-02 0.  1.
         23    2    1    2    0    0  0.00000000000E+00 -0.17763568394E-14  0.98678444201E+02  0.13447454516E+03  0.91356269331E+02 0.  0.
    9000005    2    3    3    0    0 -0.28040625976E+02  0.91132763865E+01 -0.10310014593E+01  0.30497133837E+02  0.77255224182E+01 0.  0.
         22    1    3    3    0    0  0.28040625976E+02 -0.91132763865E+01  0.99709445661E+02  0.10397741132E+03  0.00000000000E+00 0. -1.
         22    1    4    4    0    0 -0.26275870191E+02  0.10313100538E+02 -0.26116601783E+00  0.28228524664E+02  0.00000000000E+00 0.  1.
         22    1    4    4    0    0 -0.17647557846E+01 -0.11998241511E+01 -0.76983544150E+00  0.22686091730E+01  0.00000000000E+00 0.  1.
<mgrwt>
<rscale>  0 0.91356269E+02</rscale>
<asrwt>0</asrwt>
<pdfrwt beam="2">  1        2 0.27535462E-02 0.91356269E+02</pdfrwt>
<pdfrwt beam="1">  1       -2 0.17934846E-01 0.91356269E+02</pdfrwt>
<totfact> 0.75746437E+04</totfact>
</mgrwt>
</event>
<event>
 7    1  0.3891761E-009  0.9303239E+02  0.7818608E-02  0.1295670E+00
          2   -1    0    0  501    0  0.00000000000E+00  0.00000000000E+00  0.11767860584E+03  0.11767860587E+03  0.25500000000E-02 0. -1.
         -2   -1    0    0    0  501 -0.00000000000E+00 -0.00000000000E+00 -0.18386996866E+02  0.18386997043E+02  0.25500000000E-02 0.  1.
         23    2    1    2    0    0  0.17763568394E-14  0.00000000000E+00  0.99291608973E+02  0.13606560291E+03  0.93032385129E+02 0.  0.
    9000005    2    3    3    0    0 -0.15960301307E+02 -0.22619523331E+02 -0.22318424358E+01  0.30835449249E+02  0.13396632272E+02 0.  0.
         22    1    3    3    0    0  0.15960301307E+02  0.22619523331E+02  0.10152345141E+03  0.10523015366E+03  0.00000000000E+00 0. -1.
         22    1    4    4    0    0 -0.15973552836E+02 -0.14882512780E+02  0.21601231265E+01  0.21938771815E+02  0.00000000000E+00 0.  1.
         22    1    4    4    0    0  0.13251528849E-01 -0.77370105508E+01 -0.43919655624E+01  0.88966774341E+01  0.00000000000E+00 0.  1.
<mgrwt>
<rscale>  0 0.93032385E+02</rscale>
<asrwt>0</asrwt>
<pdfrwt beam="1">  1        2 0.18104400E-01 0.93032385E+02</pdfrwt>
<pdfrwt beam="2">  1       -2 0.28287688E-02 0.93032385E+02</pdfrwt>
<totfact> 0.12212036E+05</totfact>
</mgrwt>
</event>
<event>
 7    1  0.3891761E-009  0.9229872E+02  0.7818608E-02  0.1297379E+00
          2   -1    0    0  501    0  0.00000000000E+00  0.00000000000E+00  0.97222267850E+02  0.97222267884E+02  0.25500000000E-02 0.  1.
         -2   -1    0    0    0  501 -0.00000000000E+00 -0.00000000000E+00 -0.21906128579E+02  0.21906128728E+02  0.25500000000E-02 0. -1.
         23    2    1    2    0    0  0.22204460493E-15  0.00000000000E+00  0.75316139271E+02  0.11912839661E+03  0.92298721793E+02 0.  0.
    9000005    2    3    3    0    0 -0.17145909497E+00  0.28978521330E+02  0.83072366894E+02  0.89129343900E+02  0.14256146251E+02 0.  0.
         22    1    3    3    0    0  0.17145909497E+00 -0.28978521330E+02 -0.77562276230E+01  0.29999052712E+02  0.00000000000E+00 0. -1.
         22    1    4    4    0    0  0.70063890743E+01  0.13483617080E+02  0.37409098600E+02  0.40377445134E+02  0.00000000000E+00 0. -1.
         22    1    4    4    0    0 -0.71778481692E+01  0.15494904249E+02  0.45663268294E+02  0.48751898766E+02  0.00000000000E+00 0. -1.
<mgrwt>
<rscale>  0 0.92298722E+02</rscale>
<asrwt>0</asrwt>
<pdfrwt beam="1">  1        2 0.14957272E-01 0.92298722E+02</pdfrwt>
<pdfrwt beam="2">  1       -2 0.33701737E-02 0.92298722E+02</pdfrwt>
<totfact> 0.11759390E+05</totfact>
</mgrwt>
</event>
<event>
 7    1  0.3891761E-009  0.1085240E+03  0.7818608E-02  0.1263328E+00
          2   -1    0    0  501    0  0.00000000000E+00  0.00000000000E+00  0.32143419075E+03  0.32143419076E+03  0.25500000000E-02 0. -1.
         -2   -1    0    0    0  501 -0.00000000000E+00 -0.00000000000E+00 -0.91600932485E+01  0.91600936034E+01  0.25500000000E-02 0.  1.
         23    2    1    2    0    0  0.00000000000E+00  0.00000000000E+00  0.31227409750E+03  0.33059428436E+03  0.10852404749E+03 0.  0.
    9000005    2    3    3    0    0  0.13076174220E+02 -0.46345019798E+02  0.89851073383E+02  0.10301825564E+03  0.14855921859E+02 0.  0.
         22    1    3    3    0    0 -0.13076174220E+02  0.46345019798E+02  0.22242302412E+03  0.22757602872E+03  0.00000000000E+00 0. -1.
         22    1    4    4    0    0 -0.21332438113E+01 -0.13012358257E+02  0.31086717933E+02  0.33767680235E+02  0.00000000000E+00 0.  1.
         22    1    4    4    0    0  0.15209418032E+02 -0.33332661541E+02  0.58764355450E+02  0.69250575404E+02  0.00000000000E+00 0.  1.
<mgrwt>
<rscale>  0 0.10852405E+03</rscale>
<asrwt>0</asrwt>
<pdfrwt beam="1">  1        2 0.49451402E-01 0.10852405E+03</pdfrwt>
<pdfrwt beam="2">  1       -2 0.14092455E-02 0.10852405E+03</pdfrwt>
<totfact> 0.11535284E+05</totfact>
</mgrwt>
</event>
<event>
 7    1  0.3891761E-009  0.7246759E+02  0.7818608E-02  0.1351897E+00
         -2   -1    0    0    0  501 -0.00000000000E+00  0.00000000000E+00  0.61569949510E+01  0.61569954791E+01  0.25500000000E-02 0.  1.
          2   -1    0    0  501    0  0.00000000000E+00 -0.00000000000E+00 -0.21323516733E+03  0.21323516735E+03  0.25500000000E-02 0. -1.
         23    2    1    2    0    0  0.17763568394E-14 -0.35527136788E-14 -0.20707817238E+03  0.21939216283E+03  0.72467590225E+02 0.  0.
    9000005    2    3    3    0    0 -0.13775616889E+02 -0.29648642287E+02 -0.63027520438E+02  0.71678250363E+02  0.98231172428E+01 0.  0.
         22    1    3    3    0    0  0.13775616889E+02  0.29648642287E+02 -0.14405065194E+03  0.14771391246E+03  0.00000000000E+00 0. -1.
         22    1    4    4    0    0 -0.12179138987E+02 -0.30084076984E+02 -0.59325223697E+02  0.67622964155E+02  0.00000000000E+00 0.  1.
         22    1    4    4    0    0 -0.15964779021E+01  0.43543469681E+00 -0.37022967410E+01  0.40552862076E+01  0.00000000000E+00 0.  1.
<mgrwt>
<rscale>  0 0.72467590E+02</rscale>
<asrwt>0</asrwt>
<pdfrwt beam="2">  1        2 0.32805405E-01 0.72467590E+02</pdfrwt>
<pdfrwt beam="1">  1       -2 0.94723020E-03 0.72467590E+02</pdfrwt>
<totfact> 0.29104196E+05</totfact>
</mgrwt>
</event>
<event>
 7    1  0.3891761E-009  0.9110860E+02  0.7818608E-02  0.1300189E+00
          2   -1    0    0  501    0  0.00000000000E+00  0.00000000000E+00  0.28392275476E+02  0.28392275591E+02  0.25500000000E-02 0. -1.
         -2   -1    0    0    0  501 -0.00000000000E+00 -0.00000000000E+00 -0.73090102835E+02  0.73090102880E+02  0.25500000000E-02 0.  1.
         23    2    1    2    0    0  0.00000000000E+00  0.00000000000E+00 -0.44697827359E+02  0.10148237847E+03  0.91108602060E+02 0.  0.
    9000005    2    3    3    0    0 -0.28204164770E+02  0.35737082709E+02 -0.21187381292E+02  0.50244159676E+02  0.17194372927E+01 0.  0.
         22    1    3    3    0    0  0.28204164770E+02 -0.35737082709E+02 -0.23510446067E+02  0.51238218794E+02  0.00000000000E+00 0. -1.
         22    1    4    4    0    0 -0.40321352876E+01  0.41994656830E+01 -0.28259225499E+01  0.64714345596E+01  0.00000000000E+00 0. -1.
         22    1    4    4    0    0 -0.24172029482E+02  0.31537617026E+02 -0.18361458742E+02  0.43772725117E+02  0.00000000000E+00 0. -1.
<mgrwt>
<rscale>  0 0.91108602E+02</rscale>
<asrwt>0</asrwt>
<pdfrwt beam="1">  1        2 0.43680424E-02 0.91108602E+02</pdfrwt>
<pdfrwt beam="2">  1       -2 0.11244631E-01 0.91108602E+02</pdfrwt>
<totfact> 0.87362481E+04</totfact>
</mgrwt>
</event>
<event>
 7    1  0.4085326E-009  0.9328453E+02  0.7818608E-02  0.1295087E+00
         -2   -1    0    0    0  501 -0.00000000000E+00  0.00000000000E+00  0.14216986727E+01  0.14217009596E+01  0.25500000000E-02 0. -1.
          2   -1    0    0  501    0  0.00000000000E+00 -0.00000000000E+00 -0.15302111698E+04  0.15302111698E+04  0.25500000000E-02 0.  1.
         23    2    1    2    0    0 -0.35527136788E-14  0.00000000000E+00 -0.15287894711E+04  0.15316328707E+04  0.93284531236E+02 0.  0.
    9000005    2    3    3    0    0  0.21746588614E+02  0.19161517480E+02 -0.13589094738E+04  0.13592980473E+04  0.14701893656E+02 0.  0.
         22    1    3    3    0    0 -0.21746588614E+02 -0.19161517480E+02 -0.16987999733E+03  0.17233482341E+03  0.00000000000E+00 0. -1.
         22    1    4    4    0    0  0.81851271581E+01  0.28516259092E+01 -0.19169809700E+03  0.19189395110E+03  0.00000000000E+00 0.  1.
         22    1    4    4    0    0  0.13561461456E+02  0.16309891571E+02 -0.11672113768E+04  0.11674040962E+04  0.00000000000E+00 0.  1.
<mgrwt>
<rscale>  0 0.93284531E+02</rscale>
<asrwt>0</asrwt>
<pdfrwt beam="2">  1        2 0.23541579E+00 0.93284531E+02</pdfrwt>
<pdfrwt beam="1">  1       -2 0.21872427E-03 0.93284531E+02</pdfrwt>
<totfact> 0.22042895E+05</totfact>
</mgrwt>
</event>
<event>
 7    1  0.3891761E-009  0.9134964E+02  0.7818608E-02  0.1299616E+00
         -2   -1    0    0    0  501 -0.00000000000E+00  0.00000000000E+00  0.12420817704E+02  0.12420817966E+02  0.25500000000E-02 0.  1.
          2   -1    0    0  501    0  0.00000000000E+00 -0.00000000000E+00 -0.16795909585E+03  0.16795909587E+03  0.25500000000E-02 0. -1.
         23    2    1    2    0    0  0.00000000000E+00  0.00000000000E+00 -0.15553827815E+03  0.18037991384E+03  0.91349643387E+02 0.  0.
    9000005    2    3    3    0    0  0.40401774180E+02  0.19442501284E+02 -0.66660510022E+02  0.80833081240E+02  0.89470225991E+01 0.  0.
         22    1    3    3    0    0 -0.40401774180E+02 -0.19442501284E+02 -0.88877768125E+02  0.99546832596E+02  0.00000000000E+00 0.  1.
         22    1    4    4    0    0  0.29703290783E+02  0.10221357714E+02 -0.49234162852E+02  0.58401750218E+02  0.00000000000E+00 0.  1.
         22    1    4    4    0    0  0.10698483397E+02  0.92211435696E+01 -0.17426347170E+02  0.22431331022E+02  0.00000000000E+00 0.  1.
<mgrwt>
<rscale>  0 0.91349643E+02</rscale>
<asrwt>0</asrwt>
<pdfrwt beam="2">  1        2 0.25839859E-01 0.91349643E+02</pdfrwt>
<pdfrwt beam="1">  1       -2 0.19108952E-02 0.91349643E+02</pdfrwt>
<totfact> 0.14462079E+05</totfact>
</mgrwt>
</event>
<event>
 7    1  0.3891761E-009  0.9220121E+02  0.7818608E-02  0.1297607E+00
         -2   -1    0    0    0  501 -0.00000000000E+00  0.00000000000E+00  0.22013810747E+03  0.22013810748E+03  0.25500000000E-02 0.  1.
          2   -1    0    0  501    0  0.00000000000E+00 -0.00000000000E+00 -0.96542379962E+01  0.96542383330E+01  0.25500000000E-02 0. -1.
         23    2    1    2    0    0  0.00000000000E+00 -0.35527136788E-14  0.21048386947E+03  0.22979234581E+03  0.92201208710E+02 0.  0.
    9000005    2    3    3    0    0  0.17936911049E+02 -0.26001976615E+02  0.26408810186E+02  0.43026548580E+02  0.12490919158E+02 0.  0.
         22    1    3    3    0    0 -0.17936911049E+02  0.26001976615E+02  0.18407505928E+03  0.18676579723E+03  0.00000000000E+00 0.  1.
         22    1    4    4    0    0  0.12736954410E+02 -0.19722554273E+02  0.11752270670E+02  0.26254999916E+02  0.00000000000E+00 0.  1.
         22    1    4    4    0    0  0.51999566390E+01 -0.62794223419E+01  0.14656539516E+02  0.16771548664E+02  0.00000000000E+00 0.  1.
<mgrwt>
<rscale>  0 0.92201209E+02</rscale>
<asrwt>0</asrwt>
<pdfrwt beam="2">  1        2 0.14852675E-02 0.92201209E+02</pdfrwt>
<pdfrwt beam="1">  1       -2 0.33867399E-01 0.92201209E+02</pdfrwt>
<totfact> 0.58022490E+04</totfact>
</mgrwt>
</event>
<event>
 7    1  0.3891761E-009  0.8708141E+02  0.7818608E-02  0.1310077E+00
          2   -1    0    0  501    0  0.00000000000E+00  0.00000000000E+00  0.28743560078E+03  0.28743560079E+03  0.25500000000E-02 0. -1.
         -2   -1    0    0    0  501 -0.00000000000E+00 -0.00000000000E+00 -0.65955395219E+01  0.65955400149E+01  0.25500000000E-02 0.  1.
         23    2    1    2    0    0  0.00000000000E+00 -0.17763568394E-14  0.28084006126E+03  0.29403114081E+03  0.87081408787E+02 0.  0.
    9000005    2    3    3    0    0 -0.36350392513E+02  0.10354776349E+02  0.20915019386E+03  0.21298788374E+03  0.13837001020E+02 0.  0.
         22    1    3    3    0    0  0.36350392513E+02 -0.10354776349E+02  0.71689867397E+02  0.81043257070E+02  0.00000000000E+00 0.  1.
         22    1    4    4    0    0 -0.39456133009E+01 -0.28356574133E+01  0.17101535357E+02  0.17778395002E+02  0.00000000000E+00 0. -1.
         22    1    4    4    0    0 -0.32404779212E+02  0.13190433762E+02  0.19204865850E+03  0.19520948873E+03  0.00000000000E+00 0. -1.
<mgrwt>
<rscale>  0 0.87081409E+02</rscale>
<asrwt>0</asrwt>
<pdfrwt beam="1">  1        2 0.44220849E-01 0.87081409E+02</pdfrwt>
<pdfrwt beam="2">  1       -2 0.10146987E-02 0.87081409E+02</pdfrwt>
<totfact> 0.19982937E+05</totfact>
</mgrwt>
</event>
<event>
 7    1  0.3891761E-009  0.9127670E+02  0.7818608E-02  0.1299789E+00
          2   -1    0    0  501    0  0.00000000000E+00  0.00000000000E+00  0.87742120927E+03  0.87742120927E+03  0.25500000000E-02 0.  1.
         -2   -1    0    0    0  501 -0.00000000000E+00 -0.00000000000E+00 -0.23738407071E+01  0.23738420767E+01  0.25500000000E-02 0. -1.
         23    2    1    2    0    0  0.88817841970E-15  0.00000000000E+00  0.87504736856E+03  0.87979505135E+03  0.91276695557E+02 0.  0.
    9000005    2    3    3    0    0 -0.70635377035E+01  0.74694624007E+01  0.86597539154E+03  0.86608420890E+03  0.90989960827E+01 0.  0.
         22    1    3    3    0    0  0.70635377035E+01 -0.74694624007E+01  0.90719770234E+01  0.13710842445E+02  0.00000000000E+00 0. -1.
         22    1    4    4    0    0 -0.73413373755E+01  0.90400985884E+01  0.81666466328E+03  0.81674769107E+03  0.00000000000E+00 0. -1.
         22    1    4    4    0    0  0.27779967203E+00 -0.15706361877E+01  0.49310728258E+02  0.49336517835E+02  0.00000000000E+00 0. -1.
<mgrwt>
<rscale>  0 0.91276696E+02</rscale>
<asrwt>0</asrwt>
<pdfrwt beam="1">  1        2 0.13498811E+00 0.91276696E+02</pdfrwt>
<pdfrwt beam="2">  1       -2 0.36520574E-03 0.91276696E+02</pdfrwt>
<totfact> 0.24647604E+05</totfact>
</mgrwt>
</event>
<event>
 7    1  0.3891761E-009  0.8822417E+02  0.7818608E-02  0.1307210E+00
          2   -1    0    0  501    0  0.00000000000E+00  0.00000000000E+00  0.51681225577E+02  0.51681225640E+02  0.25500000000E-02 0. -1.
         -2   -1    0    0    0  501 -0.00000000000E+00 -0.00000000000E+00 -0.37651503712E+02  0.37651503799E+02  0.25500000000E-02 0.  1.
         23    2    1    2    0    0  0.00000000000E+00  0.00000000000E+00  0.14029721864E+02  0.89332729438E+02  0.88224165926E+02 0.  0.
    9000005    2    3    3    0    0  0.23364043465E+02  0.34120440270E+02  0.20011697771E+02  0.47549156027E+02  0.12262594340E+02 0.  0.
         22    1    3    3    0    0 -0.23364043465E+02 -0.34120440270E+02 -0.59819759070E+01  0.41783573411E+02  0.00000000000E+00 0.  1.
         22    1    4    4    0    0  0.13358499255E+02  0.27258470534E+02  0.17881771878E+02  0.35231115278E+02  0.00000000000E+00 0.  1.
         22    1    4    4    0    0  0.10005544210E+02  0.68619697360E+01  0.21299258931E+01  0.12318040750E+02  0.00000000000E+00 0.  1.
<mgrwt>
<rscale>  0 0.88224166E+02</rscale>
<asrwt>0</asrwt>
<pdfrwt beam="1">  1        2 0.79509578E-02 0.88224166E+02</pdfrwt>
<pdfrwt beam="2">  1       -2 0.57925390E-02 0.88224166E+02</pdfrwt>
<totfact> 0.11192816E+05</totfact>
</mgrwt>
</event>
<event>
 7    1  0.3891761E-009  0.9130413E+02  0.7818608E-02  0.1299724E+00
         -2   -1    0    0    0  501 -0.00000000000E+00  0.00000000000E+00  0.61369976122E+02  0.61369976175E+02  0.25500000000E-02 0. -1.
          2   -1    0    0  501    0  0.00000000000E+00 -0.00000000000E+00 -0.33959782772E+02  0.33959782868E+02  0.25500000000E-02 0.  1.
         23    2    1    2    0    0  0.00000000000E+00  0.35527136788E-14  0.27410193350E+02  0.95329759043E+02  0.91304130574E+02 0.  0.
    9000005    2    3    3    0    0  0.31207332040E+02 -0.31086586231E+02  0.20105540198E+02  0.50679659668E+02  0.14964014865E+02 0.  0.
         22    1    3    3    0    0 -0.31207332040E+02  0.31086586231E+02  0.73046531521E+01  0.44650099375E+02  0.00000000000E+00 0.  1.
         22    1    4    4    0    0  0.30603134996E+02 -0.22974582484E+02  0.17928525569E+02  0.42258908422E+02  0.00000000000E+00 0.  1.
         22    1    4    4    0    0  0.60419704395E+00 -0.81120037472E+01  0.21770146283E+01  0.84207512464E+01  0.00000000000E+00 0.  1.
<mgrwt>
<rscale>  0 0.91304131E+02</rscale>
<asrwt>0</asrwt>
<pdfrwt beam="2">  1        2 0.52245820E-02 0.91304131E+02</pdfrwt>
<pdfrwt beam="1">  1       -2 0.94415348E-02 0.91304131E+02</pdfrwt>
<totfact> 0.91039197E+04</totfact>
</mgrwt>
</event>
<event>
 7    1  0.3891761E-009  0.8798198E+02  0.7818608E-02  0.1307814E+00
          2   -1    0    0  501    0  0.00000000000E+00  0.00000000000E+00  0.15149789322E+04  0.15149789322E+04  0.25500000000E-02 0. -1.
         -2   -1    0    0    0  501 -0.00000000000E+00 -0.00000000000E+00 -0.12773808430E+01  0.12773833883E+01  0.25500000000E-02 0.  1.
         23    2    1    2    0    0  0.00000000000E+00  0.00000000000E+00  0.15137015514E+04  0.15162563156E+04  0.87981975355E+02 0.  0.
    9000005    2    3    3    0    0  0.35811183750E+01  0.14533047258E+02  0.14689237589E+04  0.14690431334E+04  0.11255424495E+02 0.  0.
         22    1    3    3    0    0 -0.35811183750E+01 -0.14533047258E+02  0.44777792490E+02  0.47213182181E+02  0.00000000000E+00 0.  1.
         22    1    4    4    0    0 -0.20364310218E+01  0.35155516003E+01  0.13277613705E+03  0.13283828034E+03  0.00000000000E+00 0.  1.
         22    1    4    4    0    0  0.56175493967E+01  0.11017495658E+02  0.13361476218E+04  0.13362048531E+04  0.00000000000E+00 0.  1.
<mgrwt>
<rscale>  0 0.87981975E+02</rscale>
<asrwt>0</asrwt>
<pdfrwt beam="1">  1        2 0.23307470E+00 0.87981975E+02</pdfrwt>
<pdfrwt beam="2">  1       -2 0.19651947E-03 0.87981975E+02</pdfrwt>
<totfact> 0.25819331E+05</totfact>
</mgrwt>
</event>
<event>
 7    1  0.3891761E-009  0.9019240E+02  0.7818608E-02  0.1302386E+00
          2   -1    0    0  501    0  0.00000000000E+00  0.00000000000E+00  0.19529356452E+03  0.19529356454E+03  0.25500000000E-02 0. -1.
         -2   -1    0    0    0  501 -0.00000000000E+00 -0.00000000000E+00 -0.10413385800E+02  0.10413386113E+02  0.25500000000E-02 0.  1.
         23    2    1    2    0    0  0.00000000000E+00  0.35527136788E-14  0.18488017872E+03  0.20570695065E+03  0.90192400246E+02 0.  0.
    9000005    2    3    3    0    0 -0.23007854557E+02 -0.24965990565E+02  0.27855349500E+02  0.45053724577E+02  0.10062581493E+02 0.  0.
         22    1    3    3    0    0  0.23007854557E+02  0.24965990565E+02  0.15702482922E+03  0.16065322608E+03  0.00000000000E+00 0. -1.
         22    1    4    4    0    0 -0.24715690728E+01 -0.91729291555E+01  0.71798473894E+01  0.11908043144E+02  0.00000000000E+00 0. -1.
         22    1    4    4    0    0 -0.20536285484E+02 -0.15793061409E+02  0.20675502111E+02  0.33145681433E+02  0.00000000000E+00 0. -1.
<mgrwt>
<rscale>  0 0.90192400E+02</rscale>
<asrwt>0</asrwt>
<pdfrwt beam="1">  1        2 0.30045162E-01 0.90192400E+02</pdfrwt>
<pdfrwt beam="2">  1       -2 0.16020595E-02 0.90192400E+02</pdfrwt>
<totfact> 0.15790130E+05</totfact>
</mgrwt>
</event>
<event>
 7    1  0.3891761E-009  0.9050601E+02  0.7818608E-02  0.1301631E+00
          2   -1    0    0  501    0  0.00000000000E+00  0.00000000000E+00  0.11463610823E+04  0.11463610823E+04  0.25500000000E-02 0. -1.
         -2   -1    0    0    0  501 -0.00000000000E+00 -0.00000000000E+00 -0.17863772242E+01  0.17863790442E+01  0.25500000000E-02 0.  1.
         23    2    1    2    0    0  0.00000000000E+00 -0.44408920985E-15  0.11445747051E+04  0.11481474614E+04  0.90506008081E+02 0.  0.
    9000005    2    3    3    0    0 -0.20274141179E+02 -0.34483286949E+01  0.10826397610E+04  0.10828874501E+04  0.10651089019E+02 0.  0.
         22    1    3    3    0    0  0.20274141179E+02  0.34483286949E+01  0.61934944077E+02  0.65260011256E+02  0.00000000000E+00 0.  1.
         22    1    4    4    0    0 -0.12361207225E+02 -0.43606443714E+01  0.86968337992E+03  0.86978215432E+03  0.00000000000E+00 0. -1.
         22    1    4    4    0    0 -0.79129339541E+01  0.91231567644E+00  0.21295638112E+03  0.21310529581E+03  0.00000000000E+00 0. -1.
<mgrwt>
<rscale>  0 0.90506008E+02</rscale>
<asrwt>0</asrwt>
<pdfrwt beam="1">  1        2 0.17636301E+00 0.90506008E+02</pdfrwt>
<pdfrwt beam="2">  1       -2 0.27482777E-03 0.90506008E+02</pdfrwt>
<totfact> 0.25458874E+05</totfact>
</mgrwt>
</event>
<event>
 7    1  0.3891761E-009  0.9221836E+02  0.7818608E-02  0.1297567E+00
         -2   -1    0    0    0  501 -0.00000000000E+00  0.00000000000E+00  0.86778525241E+02  0.86778525279E+02  0.25500000000E-02 0.  1.
          2   -1    0    0  501    0  0.00000000000E+00 -0.00000000000E+00 -0.24499798343E+02  0.24499798475E+02  0.25500000000E-02 0. -1.
         23    2    1    2    0    0  0.35527136788E-14  0.00000000000E+00  0.62278726898E+02  0.11127832375E+03  0.92218357790E+02 0.  0.
    9000005    2    3    3    0    0 -0.16155463056E+02  0.41340825766E+02  0.42987682721E+02  0.62881968034E+02  0.11667826556E+02 0.  0.
         22    1    3    3    0    0  0.16155463056E+02 -0.41340825766E+02  0.19291044178E+02  0.48396355720E+02  0.00000000000E+00 0. -1.
         22    1    4    4    0    0  0.24307792322E+00  0.30939025692E+00  0.38029012327E+01  0.38232011448E+01  0.00000000000E+00 0.  1.
         22    1    4    4    0    0 -0.16398540979E+02  0.41031435509E+02  0.39184781488E+02  0.59058766889E+02  0.00000000000E+00 0.  1.
<mgrwt>
<rscale>  0 0.92218358E+02</rscale>
<asrwt>0</asrwt>
<pdfrwt beam="2">  1        2 0.37691998E-02 0.92218358E+02</pdfrwt>
<pdfrwt beam="1">  1       -2 0.13350542E-01 0.92218358E+02</pdfrwt>
<totfact> 0.80863058E+04</totfact>
</mgrwt>
</event>
<event>
 7    1  0.3891761E-009  0.9196328E+02  0.7818608E-02  0.1298166E+00
          2   -1    0    0  501    0  0.00000000000E+00  0.00000000000E+00  0.49166623810E+02  0.49166623877E+02  0.25500000000E-02 0. -1.
         -2   -1    0    0    0  501 -0.00000000000E+00 -0.00000000000E+00 -0.43002980765E+02  0.43002980840E+02  0.25500000000E-02 0.  1.
         23    2    1    2    0    0  0.00000000000E+00  0.00000000000E+00  0.61636430456E+01  0.92169604717E+02  0.91963283641E+02 0.  0.
    9000005    2    3    3    0    0 -0.29088363256E+02 -0.54464557025E+01  0.37560557409E+02  0.49023770756E+02  0.10804530051E+02 0.  0.
         22    1    3    3    0    0  0.29088363256E+02  0.54464557025E+01 -0.31396914363E+02  0.43145833961E+02  0.00000000000E+00 0.  1.
         22    1    4    4    0    0 -0.84458114038E+01  0.19379625578E+01  0.57847697587E+01  0.10418780653E+02  0.00000000000E+00 0.  1.
         22    1    4    4    0    0 -0.20642551852E+02 -0.73844182603E+01  0.31775787650E+02  0.38604990103E+02  0.00000000000E+00 0.  1.
<mgrwt>
<rscale>  0 0.91963284E+02</rscale>
<asrwt>0</asrwt>
<pdfrwt beam="1">  1        2 0.75640960E-02 0.91963284E+02</pdfrwt>
<pdfrwt beam="2">  1       -2 0.66158432E-02 0.91963284E+02</pdfrwt>
<totfact> 0.98191983E+04</totfact>
</mgrwt>
</event>
<event>
 7    1  0.3891761E-009  0.9118398E+02  0.7818608E-02  0.1300010E+00
         -2   -1    0    0    0  501 -0.00000000000E+00  0.00000000000E+00  0.47920180755E+01  0.47920187540E+01  0.25500000000E-02 0.  1.
          2   -1    0    0  501    0  0.00000000000E+00 -0.00000000000E+00 -0.43376912810E+03  0.43376912811E+03  0.25500000000E-02 0. -1.
         23    2    1    2    0    0  0.35527136788E-14  0.00000000000E+00 -0.42897711002E+03  0.43856114686E+03  0.91183982209E+02 0.  0.
    9000005    2    3    3    0    0 -0.28836054759E+02 -0.31272885200E+01 -0.38323627532E+03  0.38439914960E+03  0.71669733570E+01 0.  0.
         22    1    3    3    0    0  0.28836054759E+02  0.31272885200E+01 -0.45740834707E+02  0.54161997260E+02  0.00000000000E+00 0.  1.
         22    1    4    4    0    0 -0.76681109333E+01 -0.35888298642E+01 -0.13269230406E+03  0.13296212687E+03  0.00000000000E+00 0.  1.
         22    1    4    4    0    0 -0.21167943826E+02  0.46154134420E+00 -0.25054397126E+03  0.25143702273E+03  0.00000000000E+00 0.  1.
<mgrwt>
<rscale>  0 0.91183982E+02</rscale>
<asrwt>0</asrwt>
<pdfrwt beam="2">  1        2 0.66733681E-01 0.91183982E+02</pdfrwt>
<pdfrwt beam="1">  1       -2 0.73723394E-03 0.91183982E+02</pdfrwt>
<totfact> 0.20537452E+05</totfact>
</mgrwt>
</event>
<event>
 7    1  0.3891761E-009  0.9382018E+02  0.7818608E-02  0.1293856E+00
         -2   -1    0    0    0  501 -0.00000000000E+00  0.00000000000E+00  0.52434708988E+01  0.52434715188E+01  0.25500000000E-02 0.  1.
          2   -1    0    0  501    0  0.00000000000E+00 -0.00000000000E+00 -0.41967552715E+03  0.41967552716E+03  0.25500000000E-02 0. -1.
         23    2    1    2    0    0  0.00000000000E+00  0.00000000000E+00 -0.41443205625E+03  0.42491899867E+03  0.93820180066E+02 0.  0.
    9000005    2    3    3    0    0 -0.25974235547E+02 -0.36781395167E+02 -0.25658029931E+03  0.26077056246E+03  0.11845011999E+02 0.  0.
         22    1    3    3    0    0  0.25974235547E+02  0.36781395167E+02 -0.15785175694E+03  0.16414843621E+03  0.00000000000E+00 0.  1.
         22    1    4    4    0    0 -0.13699452158E+02 -0.97540808521E+01 -0.86588335679E+02  0.88206331736E+02  0.00000000000E+00 0.  1.
         22    1    4    4    0    0 -0.12274783389E+02 -0.27027314315E+02 -0.16999196363E+03  0.17256423073E+03  0.00000000000E+00 0.  1.
<mgrwt>
<rscale>  0 0.93820180E+02</rscale>
<asrwt>0</asrwt>
<pdfrwt beam="2">  1        2 0.64565439E-01 0.93820180E+02</pdfrwt>
<pdfrwt beam="1">  1       -2 0.80668821E-03 0.93820180E+02</pdfrwt>
<totfact> 0.18820100E+05</totfact>
</mgrwt>
</event>
<event>
 7    1  0.3891761E-009  0.9250471E+02  0.7818608E-02  0.1296897E+00
         -2   -1    0    0    0  501 -0.00000000000E+00  0.00000000000E+00  0.20546369707E+02  0.20546369865E+02  0.25500000000E-02 0.  1.
          2   -1    0    0  501    0  0.00000000000E+00 -0.00000000000E+00 -0.10411961813E+03  0.10411961816E+03  0.25500000000E-02 0. -1.
         23    2    1    2    0    0 -0.17763568394E-14  0.00000000000E+00 -0.83573248419E+02  0.12466598802E+03  0.92504706465E+02 0.  0.
    9000005    2    3    3    0    0 -0.13955000035E+02 -0.12924930501E+02 -0.98370616528E+02  0.10056706777E+03  0.86695483721E+01 0.  0.
         22    1    3    3    0    0  0.13955000035E+02  0.12924930501E+02  0.14797368109E+02  0.24098920254E+02  0.00000000000E+00 0.  1.
         22    1    4    4    0    0 -0.32074948041E+01 -0.79676185728E+01 -0.31150080832E+02  0.32312513126E+02  0.00000000000E+00 0.  1.
         22    1    4    4    0    0 -0.10747505231E+02 -0.49573119285E+01 -0.67220535696E+02  0.68254554643E+02  0.00000000000E+00 0.  1.
<mgrwt>
<rscale>  0 0.92504706E+02</rscale>
<asrwt>0</asrwt>
<pdfrwt beam="2">  1        2 0.16018403E-01 0.92504706E+02</pdfrwt>
<pdfrwt beam="1">  1       -2 0.31609800E-02 0.92504706E+02</pdfrwt>
<totfact> 0.11935374E+05</totfact>
</mgrwt>
</event>
<event>
 7    1  0.3891761E-009  0.9104067E+02  0.7818608E-02  0.1300351E+00
          2   -1    0    0  501    0  0.00000000000E+00  0.00000000000E+00  0.21657128897E+02  0.21657129047E+02  0.25500000000E-02 0. -1.
         -2   -1    0    0    0  501 -0.00000000000E+00 -0.00000000000E+00 -0.95677543407E+02  0.95677543441E+02  0.25500000000E-02 0.  1.
         23    2    1    2    0    0 -0.17763568394E-14  0.00000000000E+00 -0.74020414511E+02  0.11733467249E+03  0.91040670052E+02 0.  0.
    9000005    2    3    3    0    0 -0.69886676327E+01  0.43122318529E+02 -0.27815255100E+02  0.53747782434E+02  0.14379147042E+02 0.  0.
         22    1    3    3    0    0  0.69886676327E+01 -0.43122318529E+02 -0.46205159410E+02  0.63586890054E+02  0.00000000000E+00 0.  1.
         22    1    4    4    0    0 -0.10646006393E+02  0.33870418816E+02 -0.24952577089E+02  0.43395550766E+02  0.00000000000E+00 0. -1.
         22    1    4    4    0    0  0.36573387606E+01  0.92518997128E+01 -0.28626780114E+01  0.10352231668E+02  0.00000000000E+00 0. -1.
<mgrwt>
<rscale>  0 0.91040670E+02</rscale>
<asrwt>0</asrwt>
<pdfrwt beam="1">  1        2 0.33318661E-02 0.91040670E+02</pdfrwt>
<pdfrwt beam="2">  1       -2 0.14719622E-01 0.91040670E+02</pdfrwt>
<totfact> 0.81157292E+04</totfact>
</mgrwt>
</event>
<event>
 7    1  0.3891761E-009  0.9096331E+02  0.7818608E-02  0.1300536E+00
         -2   -1    0    0    0  501 -0.00000000000E+00  0.00000000000E+00  0.27892123826E+01  0.27892135483E+01  0.25500000000E-02 0.  1.
          2   -1    0    0  501    0  0.00000000000E+00 -0.00000000000E+00 -0.74163599993E+03  0.74163599993E+03  0.25500000000E-02 0. -1.
         23    2    1    2    0    0  0.00000000000E+00  0.00000000000E+00 -0.73884678755E+03  0.74442521348E+03  0.90963305786E+02 0.  0.
    9000005    2    3    3    0    0 -0.10742795572E+02  0.34071704254E+02 -0.59867191852E+03  0.59976947528E+03  0.62505014512E+01 0.  0.
         22    1    3    3    0    0  0.10742795572E+02 -0.34071704254E+02 -0.14017486902E+03  0.14465573820E+03  0.00000000000E+00 0.  1.
         22    1    4    4    0    0 -0.46038515552E+01  0.13998865607E+02 -0.19766694820E+03  0.19821550418E+03  0.00000000000E+00 0.  1.
         22    1    4    4    0    0 -0.61389440165E+01  0.20072838647E+02 -0.40100497032E+03  0.40155397110E+03  0.00000000000E+00 0.  1.
<mgrwt>
<rscale>  0 0.90963306E+02</rscale>
<asrwt>0</asrwt>
<pdfrwt beam="2">  1        2 0.11409769E+00 0.90963306E+02</pdfrwt>
<pdfrwt beam="1">  1       -2 0.42911028E-03 0.90963306E+02</pdfrwt>
<totfact> 0.24168836E+05</totfact>
</mgrwt>
</event>
<event>
 7    1  0.3891761E-009  0.9076758E+02  0.7818608E-02  0.1301003E+00
         -2   -1    0    0    0  501 -0.00000000000E+00  0.00000000000E+00  0.27613930808E+01  0.27613942582E+01  0.25500000000E-02 0.  1.
          2   -1    0    0  501    0  0.00000000000E+00 -0.00000000000E+00 -0.74588720188E+03  0.74588720188E+03  0.25500000000E-02 0. -1.
         23    2    1    2    0    0 -0.35527136788E-14  0.88817841970E-15 -0.74312580879E+03  0.74864859614E+03  0.90767575723E+02 0.  0.
    9000005    2    3    3    0    0  0.31386163972E+02 -0.76821869009E+01 -0.63396423518E+03  0.63480503488E+03  0.47616746252E+01 0.  0.
         22    1    3    3    0    0 -0.31386163972E+02  0.76821869009E+01 -0.10916157362E+03  0.11384356125E+03  0.00000000000E+00 0.  1.
         22    1    4    4    0    0  0.94279148891E+01 -0.27493955220E+01 -0.15332524949E+03  0.15363943792E+03  0.00000000000E+00 0.  1.
         22    1    4    4    0    0  0.21958249083E+02 -0.49327913789E+01 -0.48063898569E+03  0.48116559696E+03  0.00000000000E+00 0.  1.
<mgrwt>
<rscale>  0 0.90767576E+02</rscale>
<asrwt>0</asrwt>
<pdfrwt beam="2">  1        2 0.11475172E+00 0.90767576E+02</pdfrwt>
<pdfrwt beam="1">  1       -2 0.42483039E-03 0.90767576E+02</pdfrwt>
<totfact> 0.24335408E+05</totfact>
</mgrwt>
</event>
<event>
 7    1  0.3891761E-009  0.1084164E+03  0.7818608E-02  0.1263531E+00
          2   -1    0    0  501    0  0.00000000000E+00  0.00000000000E+00  0.22907926433E+03  0.22907926434E+03  0.25500000000E-02 0. -1.
         -2   -1    0    0    0  501 -0.00000000000E+00 -0.00000000000E+00 -0.12827556440E+02  0.12827556694E+02  0.25500000000E-02 0.  1.
         23    2    1    2    0    0 -0.71054273576E-14  0.17763568394E-14  0.21625170789E+03  0.24190682104E+03  0.10841636823E+03 0.  0.
    9000005    2    3    3    0    0  0.50687128763E+02 -0.12710450163E+02  0.13531460612E+03  0.14556599372E+03  0.12193249457E+02 0.  0.
         22    1    3    3    0    0 -0.50687128763E+02  0.12710450163E+02  0.80937101762E+02  0.96340827313E+02  0.00000000000E+00 0.  1.
         22    1    4    4    0    0  0.46859320593E+02 -0.11180569977E+02  0.13109788910E+03  0.13966910037E+03  0.00000000000E+00 0.  1.
         22    1    4    4    0    0  0.38278081700E+01 -0.15298801864E+01  0.42167170281E+01  0.58968933572E+01  0.00000000000E+00 0.  1.
<mgrwt>
<rscale>  0 0.10841637E+03</rscale>
<asrwt>0</asrwt>
<pdfrwt beam="1">  1        2 0.35242966E-01 0.10841637E+03</pdfrwt>
<pdfrwt beam="2">  1       -2 0.19734701E-02 0.10841637E+03</pdfrwt>
<totfact> 0.10161928E+05</totfact>
</mgrwt>
</event>
<event>
 7    1  0.3891761E-009  0.9126970E+02  0.7818608E-02  0.1299806E+00
         -2   -1    0    0    0  501 -0.00000000000E+00  0.00000000000E+00  0.12872758183E+02  0.12872758435E+02  0.25500000000E-02 0. -1.
          2   -1    0    0  501    0  0.00000000000E+00 -0.00000000000E+00 -0.16177881256E+03  0.16177881258E+03  0.25500000000E-02 0.  1.
         23    2    1    2    0    0 -0.71054273576E-14 -0.18735013541E-15 -0.14890605438E+03  0.17465157101E+03  0.91269700492E+02 0.  0.
    9000005    2    3    3    0    0  0.42173081282E+02  0.53054453454E-01 -0.48259197805E+02  0.65526132471E+02  0.13643762831E+02 0.  0.
         22    1    3    3    0    0 -0.42173081282E+02 -0.53054453454E-01 -0.10064685657E+03  0.10912543854E+03  0.00000000000E+00 0.  1.
         22    1    4    4    0    0  0.21449428781E+02 -0.67822598261E+01 -0.25088784326E+02  0.33697539114E+02  0.00000000000E+00 0. -1.
         22    1    4    4    0    0  0.20723652501E+02  0.68353142796E+01 -0.23170413479E+02  0.31828593357E+02  0.00000000000E+00 0. -1.
<mgrwt>
<rscale>  0 0.91269700E+02</rscale>
<asrwt>0</asrwt>
<pdfrwt beam="2">  1        2 0.24889047E-01 0.91269700E+02</pdfrwt>
<pdfrwt beam="1">  1       -2 0.19804245E-02 0.91269700E+02</pdfrwt>
<totfact> 0.14308811E+05</totfact>
</mgrwt>
</event>
<event>
 7    1  0.3891761E-009  0.8834862E+02  0.7818608E-02  0.1306901E+00
         -2   -1    0    0    0  501 -0.00000000000E+00  0.00000000000E+00  0.19995640271E+03  0.19995640272E+03  0.25500000000E-02 0.  1.
          2   -1    0    0  501    0  0.00000000000E+00 -0.00000000000E+00 -0.97589760988E+01  0.97589764319E+01  0.25500000000E-02 0. -1.
         23    2    1    2    0    0  0.00000000000E+00  0.00000000000E+00  0.19019742661E+03  0.20971537915E+03  0.88348622885E+02 0.  0.
    9000005    2    3    3    0    0  0.17221659802E+02 -0.28992204900E+02  0.16097322622E+03  0.16509265625E+03  0.14355210769E+02 0.  0.
         22    1    3    3    0    0 -0.17221659802E+02  0.28992204900E+02  0.29224200390E+02  0.44622722908E+02  0.00000000000E+00 0. -1.
         22    1    4    4    0    0  0.18828986711E+02 -0.19886011156E+02  0.11812045007E+03  0.12125355626E+03  0.00000000000E+00 0. -1.
         22    1    4    4    0    0 -0.16073269089E+01 -0.91061937441E+01  0.42852776148E+02  0.43839099990E+02  0.00000000000E+00 0. -1.
<mgrwt>
<rscale>  0 0.88348623E+02</rscale>
<asrwt>0</asrwt>
<pdfrwt beam="2">  1        2 0.15013812E-02 0.88348623E+02</pdfrwt>
<pdfrwt beam="1">  1       -2 0.30762519E-01 0.88348623E+02</pdfrwt>
<totfact> 0.67540790E+04</totfact>
</mgrwt>
</event>
<event>
 7    1  0.3891761E-009  0.9067166E+02  0.7818608E-02  0.1301233E+00
          2   -1    0    0  501    0  0.00000000000E+00  0.00000000000E+00  0.16728867900E+03  0.16728867902E+03  0.25500000000E-02 0. -1.
         -2   -1    0    0    0  501 -0.00000000000E+00 -0.00000000000E+00 -0.12286172505E+02  0.12286172770E+02  0.25500000000E-02 0.  1.
         23    2    1    2    0    0  0.00000000000E+00 -0.35527136788E-14  0.15500250650E+03  0.17957485179E+03  0.90671662472E+02 0.  0.
    9000005    2    3    3    0    0 -0.15496013418E+02 -0.26104429826E+02  0.11029818363E+02  0.32436472648E+02  0.29833163319E+01 0.  0.
         22    1    3    3    0    0  0.15496013418E+02  0.26104429826E+02  0.14397268814E+03  0.14713837914E+03  0.00000000000E+00 0. -1.
         22    1    4    4    0    0 -0.30340243285E+01 -0.56859722206E+01  0.36314184814E+01  0.73974849717E+01  0.00000000000E+00 0.  1.
         22    1    4    4    0    0 -0.12461989089E+02 -0.20418457605E+02  0.73983998818E+01  0.25038987676E+02  0.00000000000E+00 0.  1.
<mgrwt>
<rscale>  0 0.90671662E+02</rscale>
<asrwt>0</asrwt>
<pdfrwt beam="1">  1        2 0.25736719E-01 0.90671662E+02</pdfrwt>
<pdfrwt beam="2">  1       -2 0.18901805E-02 0.90671662E+02</pdfrwt>
<totfact> 0.14735824E+05</totfact>
</mgrwt>
</event>
<event>
 7    1  0.3891761E-009  0.8982403E+02  0.7818608E-02  0.1303278E+00
          2   -1    0    0  501    0  0.00000000000E+00  0.00000000000E+00  0.20763320445E+03  0.20763320447E+03  0.25500000000E-02 0. -1.
         -2   -1    0    0    0  501 -0.00000000000E+00 -0.00000000000E+00 -0.97146749118E+01  0.97146752465E+01  0.25500000000E-02 0.  1.
         23    2    1    2    0    0  0.00000000000E+00  0.00000000000E+00  0.19791852954E+03  0.21734787972E+03  0.89824030643E+02 0.  0.
    9000005    2    3    3    0    0  0.25896856096E+02 -0.31641172140E+02  0.58478556510E+02  0.72036775497E+02  0.98865829547E+01 0.  0.
         22    1    3    3    0    0 -0.25896856096E+02  0.31641172140E+02  0.13943997303E+03  0.14531110422E+03  0.00000000000E+00 0. -1.
         22    1    4    4    0    0  0.91525292011E+01 -0.11716046338E+02  0.13557489499E+02  0.20120637517E+02  0.00000000000E+00 0. -1.
         22    1    4    4    0    0  0.16744326895E+02 -0.19925125802E+02  0.44921067011E+02  0.51916137980E+02  0.00000000000E+00 0. -1.
<mgrwt>
<rscale>  0 0.89824031E+02</rscale>
<asrwt>0</asrwt>
<pdfrwt beam="1">  1        2 0.31943569E-01 0.89824031E+02</pdfrwt>
<pdfrwt beam="2">  1       -2 0.14945654E-02 0.89824031E+02</pdfrwt>
<totfact> 0.16321800E+05</totfact>
</mgrwt>
</event>
<event>
 7    1  0.3891761E-009  0.9238846E+02  0.7818608E-02  0.1297169E+00
          2   -1    0    0  501    0  0.00000000000E+00  0.00000000000E+00  0.66607553120E+03  0.66607553120E+03  0.25500000000E-02 0. -1.
         -2   -1    0    0    0  501 -0.00000000000E+00 -0.00000000000E+00 -0.32037003407E+01  0.32037013555E+01  0.25500000000E-02 0.  1.
         23    2    1    2    0    0  0.00000000000E+00  0.00000000000E+00  0.66287183086E+03  0.66927923256E+03  0.92388457017E+02 0.  0.
    9000005    2    3    3    0    0 -0.14074601287E+02  0.58766903321E+01  0.64693024519E+03  0.64721650280E+03  0.11740079689E+02 0.  0.
         22    1    3    3    0    0  0.14074601287E+02 -0.58766903321E+01  0.15941585672E+02  0.22062729758E+02  0.00000000000E+00 0.  1.
         22    1    4    4    0    0 -0.26724548904E+01  0.52322027302E+01  0.37569700987E+03  0.37574294563E+03  0.00000000000E+00 0. -1.
         22    1    4    4    0    0 -0.11402146396E+02  0.64448760193E+00  0.27123323531E+03  0.27147355717E+03  0.00000000000E+00 0. -1.
<mgrwt>
<rscale>  0 0.92388457E+02</rscale>
<asrwt>0</asrwt>
<pdfrwt beam="1">  1        2 0.10247333E+00 0.92388457E+02</pdfrwt>
<pdfrwt beam="2">  1       -2 0.49287625E-03 0.92388457E+02</pdfrwt>
<totfact> 0.22628048E+05</totfact>
</mgrwt>
</event>
<event>
 7    1  0.3891761E-009  0.9180818E+02  0.7818608E-02  0.1298531E+00
          2   -1    0    0  501    0  0.00000000000E+00  0.00000000000E+00  0.17270809492E+04  0.17270809492E+04  0.25500000000E-02 0. -1.
         -2   -1    0    0    0  501 -0.00000000000E+00 -0.00000000000E+00 -0.12200836098E+01  0.12200862746E+01  0.25500000000E-02 0.  1.
         23    2    1    2    0    0 -0.17763568394E-14 -0.35527136788E-14  0.17258608656E+04  0.17283010354E+04  0.91808179663E+02 0.  0.
    9000005    2    3    3    0    0  0.10191005830E+02  0.20364801605E+02  0.16111096426E+04  0.16113120406E+04  0.11559842495E+02 0.  0.
         22    1    3    3    0    0 -0.10191005830E+02 -0.20364801605E+02  0.11475122292E+03  0.11698899481E+03  0.00000000000E+00 0.  1.
         22    1    4    4    0    0  0.95433040496E+00 -0.86097293000E+00  0.26690156250E+03  0.26690465730E+03  0.00000000000E+00 0.  1.
         22    1    4    4    0    0  0.92366754249E+01  0.21225774535E+02  0.13442080801E+04  0.13444073833E+04  0.00000000000E+00 0.  1.
<mgrwt>
<rscale>  0 0.91808180E+02</rscale>
<asrwt>0</asrwt>
<pdfrwt beam="1">  1        2 0.26570645E+00 0.91808180E+02</pdfrwt>
<pdfrwt beam="2">  1       -2 0.18770419E-03 0.91808180E+02</pdfrwt>
<totfact> 0.21622447E+05</totfact>
</mgrwt>
</event>
<event>
 7    1  0.3891761E-009  0.9403045E+02  0.7818608E-02  0.1293375E+00
         -2   -1    0    0    0  501 -0.00000000000E+00  0.00000000000E+00  0.30119080958E+02  0.30119081066E+02  0.25500000000E-02 0.  1.
          2   -1    0    0  501    0  0.00000000000E+00 -0.00000000000E+00 -0.73389734751E+02  0.73389734796E+02  0.25500000000E-02 0. -1.
         23    2    1    2    0    0  0.35527136788E-14  0.00000000000E+00 -0.43270653793E+02  0.10350881586E+03  0.94030449757E+02 0.  0.
    9000005    2    3    3    0    0  0.25087426455E+02 -0.38503002002E+02 -0.14572882166E+02  0.49329278897E+02  0.10447427080E+02 0.  0.
         22    1    3    3    0    0 -0.25087426455E+02  0.38503002002E+02 -0.28697771627E+02  0.54179536965E+02  0.00000000000E+00 0. -1.
         22    1    4    4    0    0  0.86408948034E-01 -0.47982209728E+01  0.29562781364E+00  0.48080959656E+01  0.00000000000E+00 0. -1.
         22    1    4    4    0    0  0.25001017507E+02 -0.33704781030E+02 -0.14868509979E+02  0.44521182932E+02  0.00000000000E+00 0. -1.
<mgrwt>
<rscale>  0 0.94030450E+02</rscale>
<asrwt>0</asrwt>
<pdfrwt beam="2">  1        2 0.11290728E-01 0.94030450E+02</pdfrwt>
<pdfrwt beam="1">  1       -2 0.46337048E-02 0.94030450E+02</pdfrwt>
<totfact> 0.10281763E+05</totfact>
</mgrwt>
</event>
<event>
 7    1  0.3891761E-009  0.8945717E+02  0.7818608E-02  0.1304172E+00
          2   -1    0    0  501    0  0.00000000000E+00  0.00000000000E+00  0.34285132496E+03  0.34285132496E+03  0.25500000000E-02 0. -1.
         -2   -1    0    0    0  501 -0.00000000000E+00 -0.00000000000E+00 -0.58353175688E+01  0.58353181260E+01  0.25500000000E-02 0.  1.
         23    2    1    2    0    0  0.00000000000E+00  0.00000000000E+00  0.33701600739E+03  0.34868664309E+03  0.89457173190E+02 0.  0.
    9000005    2    3    3    0    0 -0.59228209441E+01  0.39502438803E+02  0.98661072467E+02  0.10700793596E+03  0.11007663652E+02 0.  0.
         22    1    3    3    0    0  0.59228209441E+01 -0.39502438803E+02  0.23835493492E+03  0.24167870713E+03  0.00000000000E+00 0. -1.
         22    1    4    4    0    0 -0.76401464633E+01  0.14679147880E+02  0.38898746623E+02  0.42272469875E+02  0.00000000000E+00 0. -1.
         22    1    4    4    0    0  0.17173255192E+01  0.24823290923E+02  0.59762325844E+02  0.64735466086E+02  0.00000000000E+00 0. -1.
<mgrwt>
<rscale>  0 0.89457173E+02</rscale>
<asrwt>0</asrwt>
<pdfrwt beam="1">  1        2 0.52746352E-01 0.89457173E+02</pdfrwt>
<pdfrwt beam="2">  1       -2 0.89774131E-03 0.89457173E+02</pdfrwt>
<totfact> 0.19856051E+05</totfact>
</mgrwt>
</event>
<event>
 7    1  0.3891761E-009  0.9259100E+02  0.7818608E-02  0.1296696E+00
         -2   -1    0    0    0  501 -0.00000000000E+00  0.00000000000E+00  0.45129439549E+01  0.45129446754E+01  0.25500000000E-02 0.  1.
          2   -1    0    0  501    0  0.00000000000E+00 -0.00000000000E+00 -0.47491682999E+03  0.47491682999E+03  0.25500000000E-02 0. -1.
         23    2    1    2    0    0  0.00000000000E+00  0.00000000000E+00 -0.47040388603E+03  0.47942977467E+03  0.92590997647E+02 0.  0.
    9000005    2    3    3    0    0 -0.51428676956E+01  0.14904796935E+02 -0.46002889569E+03  0.46055538767E+03  0.15364836069E+02 0.  0.
         22    1    3    3    0    0  0.51428676956E+01 -0.14904796935E+02 -0.10374990343E+02  0.18874386995E+02  0.00000000000E+00 0.  1.
         22    1    4    4    0    0  0.15202320373E+01  0.32830218868E+01 -0.20128599537E+02  0.20451157852E+02  0.00000000000E+00 0. -1.
         22    1    4    4    0    0 -0.66630997329E+01  0.11621775048E+02 -0.43990029615E+03  0.44010422982E+03  0.00000000000E+00 0. -1.
<mgrwt>
<rscale>  0 0.92590998E+02</rscale>
<asrwt>0</asrwt>
<pdfrwt beam="2">  1        2 0.73064088E-01 0.92590998E+02</pdfrwt>
<pdfrwt beam="1">  1       -2 0.69429950E-03 0.92590998E+02</pdfrwt>
<totfact> 0.20339799E+05</totfact>
</mgrwt>
</event>
<event>
 7    1  0.3891761E-009  0.9466159E+02  0.7818608E-02  0.1291940E+00
          2   -1    0    0  501    0  0.00000000000E+00  0.00000000000E+00  0.28338547077E+03  0.28338547078E+03  0.25500000000E-02 0. -1.
         -2   -1    0    0    0  501 -0.00000000000E+00 -0.00000000000E+00 -0.79051481943E+01  0.79051486055E+01  0.25500000000E-02 0.  1.
         23    2    1    2    0    0  0.00000000000E+00  0.00000000000E+00  0.27548032258E+03  0.29129061939E+03  0.94661591031E+02 0.  0.
    9000005    2    3    3    0    0  0.38505979959E+02  0.21355562325E+02  0.96484647049E+02  0.10695879253E+03  0.13860939675E+02 0.  0.
         22    1    3    3    0    0 -0.38505979959E+02 -0.21355562325E+02  0.17899567553E+03  0.18433182686E+03  0.00000000000E+00 0. -1.
         22    1    4    4    0    0  0.58947553280E+01  0.12934737233E+01  0.51877148316E+01  0.79582410006E+01  0.00000000000E+00 0. -1.
         22    1    4    4    0    0  0.32611224631E+02  0.20062088602E+02  0.91296932218E+02  0.99000551531E+02  0.00000000000E+00 0. -1.
<mgrwt>
<rscale>  0 0.94661591E+02</rscale>
<asrwt>0</asrwt>
<pdfrwt beam="1">  1        2 0.43597764E-01 0.94661591E+02</pdfrwt>
<pdfrwt beam="2">  1       -2 0.12161767E-02 0.94661591E+02</pdfrwt>
<totfact> 0.15907375E+05</totfact>
</mgrwt>
</event>
<event>
 7    1  0.3891761E-009  0.9192254E+02  0.7818608E-02  0.1298262E+00
         -2   -1    0    0    0  501 -0.00000000000E+00  0.00000000000E+00  0.10887519586E+02  0.10887519884E+02  0.25500000000E-02 0.  1.
          2   -1    0    0  501    0  0.00000000000E+00 -0.00000000000E+00 -0.19402385480E+03  0.19402385482E+03  0.25500000000E-02 0. -1.
         23    2    1    2    0    0  0.00000000000E+00  0.00000000000E+00 -0.18313633522E+03  0.20491137470E+03  0.91922544602E+02 0.  0.
    9000005    2    3    3    0    0 -0.20326732500E+02  0.40677634108E+02 -0.10397441943E+03  0.11361813902E+03  0.55277162973E+01 0.  0.
         22    1    3    3    0    0  0.20326732500E+02 -0.40677634108E+02 -0.79161915781E+02  0.91293235680E+02  0.00000000000E+00 0.  1.
         22    1    4    4    0    0 -0.12828102980E+02  0.26507660794E+02 -0.73593252988E+02  0.79266532612E+02  0.00000000000E+00 0.  1.
         22    1    4    4    0    0 -0.74986295199E+01  0.14169973314E+02 -0.30381166446E+02  0.34351606411E+02  0.00000000000E+00 0.  1.
<mgrwt>
<rscale>  0 0.91922545E+02</rscale>
<asrwt>0</asrwt>
<pdfrwt beam="2">  1        2 0.29849821E-01 0.91922545E+02</pdfrwt>
<pdfrwt beam="1">  1       -2 0.16750032E-02 0.91922545E+02</pdfrwt>
<totfact> 0.14967056E+05</totfact>
</mgrwt>
</event>
<event>
 7    1  0.3891761E-009  0.9500040E+02  0.7818608E-02  0.1291175E+00
          2   -1    0    0  501    0  0.00000000000E+00  0.00000000000E+00  0.59224737642E+03  0.59224737642E+03  0.25500000000E-02 0. -1.
         -2   -1    0    0    0  501 -0.00000000000E+00 -0.00000000000E+00 -0.38096729364E+01  0.38096737898E+01  0.25500000000E-02 0.  1.
         23    2    1    2    0    0  0.71054273576E-14 -0.88817841970E-15  0.58843770348E+03  0.59605705021E+03  0.95000401211E+02 0.  0.
    9000005    2    3    3    0    0 -0.37216037539E+02  0.54951626120E+01  0.47486067257E+03  0.47641185719E+03  0.77697527750E+01 0.  0.
         22    1    3    3    0    0  0.37216037539E+02 -0.54951626120E+01  0.11357703091E+03  0.11964519302E+03  0.00000000000E+00 0.  1.
         22    1    4    4    0    0 -0.22200610678E+02  0.71096822214E+01  0.28725669515E+03  0.28820101250E+03  0.00000000000E+00 0. -1.
         22    1    4    4    0    0 -0.15015426860E+02 -0.16145196094E+01  0.18760397741E+03  0.18821084469E+03  0.00000000000E+00 0. -1.
<mgrwt>
<rscale>  0 0.95000401E+02</rscale>
<asrwt>0</asrwt>
<pdfrwt beam="1">  1        2 0.91114921E-01 0.95000401E+02</pdfrwt>
<pdfrwt beam="2">  1       -2 0.58610398E-03 0.95000401E+02</pdfrwt>
<totfact> 0.20360823E+05</totfact>
</mgrwt>
</event>
<event>
 7    1  0.3891761E-009  0.9206058E+02  0.7818608E-02  0.1297937E+00
          2   -1    0    0  501    0  0.00000000000E+00  0.00000000000E+00  0.43773850172E+02  0.43773850246E+02  0.25500000000E-02 0. -1.
         -2   -1    0    0    0  501 -0.00000000000E+00 -0.00000000000E+00 -0.48403043948E+02  0.48403044015E+02  0.25500000000E-02 0.  1.
         23    2    1    2    0    0  0.17763568394E-14  0.00000000000E+00 -0.46291937758E+01  0.92176894261E+02  0.92060580058E+02 0.  0.
    9000005    2    3    3    0    0  0.15881658119E+02  0.12328881141E+02  0.39131755591E+02  0.44018311804E+02  0.14453731707E+01 0.  0.
         22    1    3    3    0    0 -0.15881658119E+02 -0.12328881141E+02 -0.43760949367E+02  0.48158582457E+02  0.00000000000E+00 0.  1.
         22    1    4    4    0    0  0.85903384930E+01  0.70591403200E+01  0.20204194272E+02  0.23061544694E+02  0.00000000000E+00 0. -1.
         22    1    4    4    0    0  0.72913196263E+01  0.52697408212E+01  0.18927561319E+02  0.20956767110E+02  0.00000000000E+00 0. -1.
<mgrwt>
<rscale>  0 0.92060580E+02</rscale>
<asrwt>0</asrwt>
<pdfrwt beam="1">  1        2 0.67344385E-02 0.92060580E+02</pdfrwt>
<pdfrwt beam="2">  1       -2 0.74466221E-02 0.92060580E+02</pdfrwt>
<totfact> 0.94962459E+04</totfact>
</mgrwt>
</event>
<event>
 6    1  0.6417478E-009  0.2033238E+03  0.7818608E-02  0.1146965E+00
         -2   -1    0    0    0  501 -0.00000000000E+00  0.00000000000E+00  0.12957885330E+02  0.12957885581E+02  0.25500000000E-02 0.  1.
          2   -1    0    0  501    0  0.00000000000E+00 -0.00000000000E+00 -0.79759487351E+03  0.79759487351E+03  0.25500000000E-02 0. -1.
    9000005    2    1    2    0    0 -0.21596176480E+01  0.34143763105E+02 -0.77372621122E+03  0.77464307292E+03  0.15785435897E+02 0.  0.
         22    1    1    2    0    0  0.21596176480E+01 -0.34143763105E+02 -0.10910776961E+02  0.35909686175E+02  0.00000000000E+00 0.  1.
         22    1    3    3    0    0  0.22382322514E+01  0.13281406232E+02 -0.16695752323E+03  0.16749991045E+03  0.00000000000E+00 0.  1.
         22    1    3    3    0    0 -0.43978498994E+01  0.20862356873E+02 -0.60676868798E+03  0.60714316247E+03  0.00000000000E+00 0.  1.
<mgrwt>
<rscale>  0 0.20332381E+03</rscale>
<asrwt>0</asrwt>
<pdfrwt beam="2">  1        2 0.12270686E+00 0.20332381E+03</pdfrwt>
<pdfrwt beam="1">  1       -2 0.19935215E-02 0.20332381E+03</pdfrwt>
<totfact> 0.26990317E+04</totfact>
</mgrwt>
</event>
<event>
 7    1  0.3891761E-009  0.9162390E+02  0.7818608E-02  0.1298966E+00
         -2   -1    0    0    0  501 -0.00000000000E+00  0.00000000000E+00  0.85319318822E+01  0.85319322633E+01  0.25500000000E-02 0. -1.
          2   -1    0    0  501    0  0.00000000000E+00 -0.00000000000E+00 -0.24598585644E+03  0.24598585645E+03  0.25500000000E-02 0.  1.
         23    2    1    2    0    0  0.00000000000E+00  0.00000000000E+00 -0.23745392456E+03  0.25451778871E+03  0.91623896911E+02 0.  0.
    9000005    2    3    3    0    0  0.38153527971E+01  0.28293282732E+02 -0.21696210294E+03  0.21937548489E+03  0.15426681286E+02 0.  0.
         22    1    3    3    0    0 -0.38153527971E+01 -0.28293282732E+02 -0.20491821617E+02  0.35142303822E+02  0.00000000000E+00 0. -1.
         22    1    4    4    0    0  0.73195143114E+01  0.27762128996E+02 -0.18451063454E+03  0.18673105086E+03  0.00000000000E+00 0.  1.
         22    1    4    4    0    0 -0.35041615143E+01  0.53115373652E+00 -0.32451468401E+02  0.32644434037E+02  0.00000000000E+00 0.  1.
<mgrwt>
<rscale>  0 0.91623897E+02</rscale>
<asrwt>0</asrwt>
<pdfrwt beam="2">  1        2 0.37843973E-01 0.91623897E+02</pdfrwt>
<pdfrwt beam="1">  1       -2 0.13126051E-02 0.91623897E+02</pdfrwt>
<totfact> 0.16468404E+05</totfact>
</mgrwt>
</event>
<event>
 7    1  0.3891761E-009  0.9683083E+02  0.7818608E-02  0.1287105E+00
          2   -1    0    0  501    0  0.00000000000E+00  0.00000000000E+00  0.27776838819E+03  0.27776838820E+03  0.25500000000E-02 0. -1.
         -2   -1    0    0    0  501 -0.00000000000E+00 -0.00000000000E+00 -0.84388741858E+01  0.84388745710E+01  0.25500000000E-02 0.  1.
         23    2    1    2    0    0  0.00000000000E+00  0.00000000000E+00  0.26932951400E+03  0.28620726277E+03  0.96830832642E+02 0.  0.
    9000005    2    3    3    0    0 -0.13327249340E+02 -0.10052306012E+02  0.26851502717E+03  0.26949415953E+03  0.15751754640E+02 0.  0.
         22    1    3    3    0    0  0.13327249340E+02  0.10052306012E+02  0.81448683375E+00  0.16713103241E+02  0.00000000000E+00 0.  1.
         22    1    4    4    0    0 -0.80421538663E+01 -0.12666262805E+02  0.23388679950E+03  0.23436754348E+03  0.00000000000E+00 0. -1.
         22    1    4    4    0    0 -0.52850954739E+01  0.26139567927E+01  0.34628227666E+02  0.35126616057E+02  0.00000000000E+00 0. -1.
<mgrwt>
<rscale>  0 0.96830833E+02</rscale>
<asrwt>0</asrwt>
<pdfrwt beam="1">  1        2 0.42733600E-01 0.96830833E+02</pdfrwt>
<pdfrwt beam="2">  1       -2 0.12982883E-02 0.96830833E+02</pdfrwt>
<totfact> 0.14855424E+05</totfact>
</mgrwt>
</event>
<event>
 7    1  0.3891761E-009  0.8640329E+02  0.7818608E-02  0.1311803E+00
          2   -1    0    0  501    0  0.00000000000E+00  0.00000000000E+00  0.23763134335E+03  0.23763134336E+03  0.25500000000E-02 0. -1.
         -2   -1    0    0    0  501 -0.00000000000E+00 -0.00000000000E+00 -0.78541081607E+01  0.78541085746E+01  0.25500000000E-02 0.  1.
         23    2    1    2    0    0 -0.22204460493E-15  0.00000000000E+00  0.22977723519E+03  0.24548545194E+03  0.86403294510E+02 0.  0.
    9000005    2    3    3    0    0  0.16904699941E+01 -0.40621805759E+02  0.86595631319E+02  0.96643386383E+02  0.13716850081E+02 0.  0.
         22    1    3    3    0    0 -0.16904699941E+01  0.40621805759E+02  0.14318160387E+03  0.14884206556E+03  0.00000000000E+00 0.  1.
         22    1    4    4    0    0  0.76251723219E+01 -0.20393263929E+02  0.46443718764E+02  0.51293737232E+02  0.00000000000E+00 0. -1.
         22    1    4    4    0    0 -0.59347023278E+01 -0.20228541830E+02  0.40151912555E+02  0.45349649151E+02  0.00000000000E+00 0. -1.
<mgrwt>
<rscale>  0 0.86403295E+02</rscale>
<asrwt>0</asrwt>
<pdfrwt beam="1">  1        2 0.36558668E-01 0.86403295E+02</pdfrwt>
<pdfrwt beam="2">  1       -2 0.12083244E-02 0.86403295E+02</pdfrwt>
<totfact> 0.19019129E+05</totfact>
</mgrwt>
</event>
<event>
 7    1  0.3891761E-009  0.1063679E+03  0.7818608E-02  0.1267448E+00
          2   -1    0    0  501    0  0.00000000000E+00  0.00000000000E+00  0.62999538339E+01  0.62999543500E+01  0.25500000000E-02 0. -1.
         -2   -1    0    0    0  501 -0.00000000000E+00 -0.00000000000E+00 -0.44897631379E+03  0.44897631380E+03  0.25500000000E-02 0.  1.
         23    2    1    2    0    0  0.00000000000E+00 -0.35527136788E-14 -0.44267635996E+03  0.45527626815E+03  0.10636785546E+03 0.  0.
    9000005    2    3    3    0    0  0.45162054253E+02 -0.25673242474E+02 -0.24838980574E+03  0.25416437971E+03  0.14258674275E+02 0.  0.
         22    1    3    3    0    0 -0.45162054253E+02  0.25673242474E+02 -0.19428655422E+03  0.20111188844E+03  0.00000000000E+00 0.  1.
         22    1    4    4    0    0  0.16143314883E+02 -0.29300379381E+01 -0.60128101530E+02  0.62326401559E+02  0.00000000000E+00 0.  1.
         22    1    4    4    0    0  0.29018739370E+02 -0.22743204535E+02 -0.18826170421E+03  0.19183797815E+03  0.00000000000E+00 0.  1.
<mgrwt>
<rscale>  0 0.10636786E+03</rscale>
<asrwt>0</asrwt>
<pdfrwt beam="1">  1        2 0.96922406E-03 0.10636786E+03</pdfrwt>
<pdfrwt beam="2">  1       -2 0.69073254E-01 0.10636786E+03</pdfrwt>
<totfact> 0.26372440E+04</totfact>
</mgrwt>
</event>
<event>
 7    1  0.3891761E-009  0.9218261E+02  0.7818608E-02  0.1297651E+00
         -2   -1    0    0    0  501 -0.00000000000E+00  0.00000000000E+00  0.33230617676E+03  0.33230617677E+03  0.25500000000E-02 0. -1.
          2   -1    0    0  501    0  0.00000000000E+00 -0.00000000000E+00 -0.63929248930E+01  0.63929254016E+01  0.25500000000E-02 0.  1.
         23    2    1    2    0    0 -0.17763568394E-14  0.00000000000E+00  0.32591325186E+03  0.33869910217E+03  0.92182612618E+02 0.  0.
    9000005    2    3    3    0    0 -0.11904927027E+02  0.28288522862E+02  0.28747193039E+03  0.28950862535E+03  0.15269760138E+02 0.  0.
         22    1    3    3    0    0  0.11904927027E+02 -0.28288522862E+02  0.38441321470E+02  0.49190476818E+02  0.00000000000E+00 0.  1.
         22    1    4    4    0    0  0.31765699535E+01  0.21912748616E+01  0.22588556749E+02  0.22915828115E+02  0.00000000000E+00 0.  1.
         22    1    4    4    0    0 -0.15081496981E+02  0.26097248000E+02  0.26488337364E+03  0.26659279723E+03  0.00000000000E+00 0.  1.
<mgrwt>
<rscale>  0 0.92182613E+02</rscale>
<asrwt>0</asrwt>
<pdfrwt beam="2">  1        2 0.98352667E-03 0.92182613E+02</pdfrwt>
<pdfrwt beam="1">  1       -2 0.51124042E-01 0.92182613E+02</pdfrwt>
<totfact> 0.46714491E+04</totfact>
</mgrwt>
</event>
<event>
 7    1  0.3891761E-009  0.9106409E+02  0.7818608E-02  0.1300295E+00
          2   -1    0    0  501    0  0.00000000000E+00  0.00000000000E+00  0.28098604419E+03  0.28098604420E+03  0.25500000000E-02 0. -1.
         -2   -1    0    0    0  501 -0.00000000000E+00 -0.00000000000E+00 -0.73781857526E+01  0.73781861932E+01  0.25500000000E-02 0.  1.
         23    2    1    2    0    0  0.00000000000E+00  0.00000000000E+00  0.27360785844E+03  0.28836423039E+03  0.91064093761E+02 0.  0.
    9000005    2    3    3    0    0 -0.18607042999E+02  0.32800263640E+02  0.64309897130E+02  0.75696141695E+02  0.13117303631E+02 0.  0.
         22    1    3    3    0    0  0.18607042999E+02 -0.32800263640E+02  0.20929796131E+03  0.21266808870E+03  0.00000000000E+00 0. -1.
         22    1    4    4    0    0 -0.14216146100E+02  0.11809049457E+02  0.29824642816E+02  0.35086489965E+02  0.00000000000E+00 0. -1.
         22    1    4    4    0    0 -0.43908968999E+01  0.20991214182E+02  0.34485254315E+02  0.40609651729E+02  0.00000000000E+00 0. -1.
<mgrwt>
<rscale>  0 0.91064094E+02</rscale>
<asrwt>0</asrwt>
<pdfrwt beam="1">  1        2 0.43228622E-01 0.91064094E+02</pdfrwt>
<pdfrwt beam="2">  1       -2 0.11351055E-02 0.91064094E+02</pdfrwt>
<totfact> 0.17590781E+05</totfact>
</mgrwt>
</event>
<event>
 7    1  0.3891761E-009  0.9225821E+02  0.7818608E-02  0.1297473E+00
          2   -1    0    0  501    0  0.00000000000E+00  0.00000000000E+00  0.94461087879E+02  0.94461087914E+02  0.25500000000E-02 0. -1.
         -2   -1    0    0    0  501 -0.00000000000E+00 -0.00000000000E+00 -0.22526677581E+02  0.22526677725E+02  0.25500000000E-02 0.  1.
         23    2    1    2    0    0  0.00000000000E+00  0.00000000000E+00  0.71934410299E+02  0.11698776564E+03  0.92258213316E+02 0.  0.
    9000005    2    3    3    0    0  0.44835465671E+02 -0.40241946466E+01  0.36181409725E+02  0.59501330939E+02  0.14314358156E+02 0.  0.
         22    1    3    3    0    0 -0.44835465671E+02  0.40241946466E+01  0.35753000574E+02  0.57486434700E+02  0.00000000000E+00 0. -1.
         22    1    4    4    0    0  0.13247905261E+02  0.33131651544E+01  0.50832775655E+01  0.14571333774E+02  0.00000000000E+00 0. -1.
         22    1    4    4    0    0  0.31587560410E+02 -0.73373598010E+01  0.31098132159E+02  0.44929997165E+02  0.00000000000E+00 0. -1.
<mgrwt>
<rscale>  0 0.92258213E+02</rscale>
<asrwt>0</asrwt>
<pdfrwt beam="1">  1        2 0.14532475E-01 0.92258213E+02</pdfrwt>
<pdfrwt beam="2">  1       -2 0.34656427E-02 0.92258213E+02</pdfrwt>
<totfact> 0.11671583E+05</totfact>
</mgrwt>
</event>
<event>
 7    1  0.3891761E-009  0.9029378E+02  0.7818608E-02  0.1302142E+00
          2   -1    0    0  501    0  0.00000000000E+00  0.00000000000E+00  0.17487324935E+03  0.17487324937E+03  0.25500000000E-02 0. -1.
         -2   -1    0    0    0  501 -0.00000000000E+00 -0.00000000000E+00 -0.11655537481E+02  0.11655537760E+02  0.25500000000E-02 0.  1.
         23    2    1    2    0    0  0.00000000000E+00  0.00000000000E+00  0.16321771187E+03  0.18652878713E+03  0.90293781402E+02 0.  0.
    9000005    2    3    3    0    0 -0.42830046941E+02  0.91852985808E+01  0.85026791936E+02  0.96903999313E+02  0.15557863124E+02 0.  0.
         22    1    3    3    0    0  0.42830046941E+02 -0.91852985808E+01  0.78190919937E+02  0.89624787819E+02  0.00000000000E+00 0.  1.
         22    1    4    4    0    0 -0.29829999250E+02 -0.54313376287E+00  0.60999190000E+02  0.67904528790E+02  0.00000000000E+00 0.  1.
         22    1    4    4    0    0 -0.13000047691E+02  0.97284323437E+01  0.24027601936E+02  0.28999470523E+02  0.00000000000E+00 0.  1.
<mgrwt>
<rscale>  0 0.90293781E+02</rscale>
<asrwt>0</asrwt>
<pdfrwt beam="1">  1        2 0.26903574E-01 0.90293781E+02</pdfrwt>
<pdfrwt beam="2">  1       -2 0.17931598E-02 0.90293781E+02</pdfrwt>
<totfact> 0.15135603E+05</totfact>
</mgrwt>
</event>
<event>
 7    1  0.3891761E-009  0.9074409E+02  0.7818608E-02  0.1301060E+00
          2   -1    0    0  501    0  0.00000000000E+00  0.00000000000E+00  0.81974750057E+02  0.81974750097E+02  0.25500000000E-02 0. -1.
         -2   -1    0    0    0  501 -0.00000000000E+00 -0.00000000000E+00 -0.25112882972E+02  0.25112883102E+02  0.25500000000E-02 0.  1.
         23    2    1    2    0    0  0.00000000000E+00  0.00000000000E+00  0.56861867085E+02  0.10708763320E+03  0.90744086616E+02 0.  0.
    9000005    2    3    3    0    0  0.16916763420E+02  0.38900985954E+02  0.46154765180E+02  0.63337140356E+02  0.90480609414E+01 0.  0.
         22    1    3    3    0    0 -0.16916763420E+02 -0.38900985954E+02  0.10707101904E+02  0.43750492843E+02  0.00000000000E+00 0. -1.
         22    1    4    4    0    0  0.75697081141E+01  0.23256925939E+02  0.31920152239E+02  0.40212948213E+02  0.00000000000E+00 0. -1.
         22    1    4    4    0    0  0.93470553055E+01  0.15644060015E+02  0.14234612941E+02  0.23124192142E+02  0.00000000000E+00 0. -1.
<mgrwt>
<rscale>  0 0.90744087E+02</rscale>
<asrwt>0</asrwt>
<pdfrwt beam="1">  1        2 0.12611500E-01 0.90744087E+02</pdfrwt>
<pdfrwt beam="2">  1       -2 0.38635205E-02 0.90744087E+02</pdfrwt>
<totfact> 0.11719891E+05</totfact>
</mgrwt>
</event>
<event>
 7    1  0.3891761E-009  0.9028448E+02  0.7818608E-02  0.1302164E+00
         -2   -1    0    0    0  501 -0.00000000000E+00  0.00000000000E+00  0.52423479442E+01  0.52423485644E+01  0.25500000000E-02 0.  1.
          2   -1    0    0  501    0  0.00000000000E+00 -0.00000000000E+00 -0.38872309765E+03  0.38872309766E+03  0.25500000000E-02 0. -1.
         23    2    1    2    0    0  0.00000000000E+00  0.00000000000E+00 -0.38348074971E+03  0.39396544622E+03  0.90284480519E+02 0.  0.
    9000005    2    3    3    0    0 -0.31837239968E+02 -0.22489275165E+02 -0.28498846436E+03  0.28804043681E+03  0.15148962802E+02 0.  0.
         22    1    3    3    0    0  0.31837239968E+02  0.22489275165E+02 -0.98492285348E+02  0.10592500941E+03  0.00000000000E+00 0.  1.
         22    1    4    4    0    0 -0.69300195163E+01 -0.73163742168E+01 -0.37174830002E+02  0.38516522271E+02  0.00000000000E+00 0. -1.
         22    1    4    4    0    0 -0.24907220451E+02 -0.15172900948E+02 -0.24781363435E+03  0.24952391454E+03  0.00000000000E+00 0. -1.
<mgrwt>
<rscale>  0 0.90284481E+02</rscale>
<asrwt>0</asrwt>
<pdfrwt beam="2">  1        2 0.59803531E-01 0.90284481E+02</pdfrwt>
<pdfrwt beam="1">  1       -2 0.80651542E-03 0.90284481E+02</pdfrwt>
<totfact> 0.20281111E+05</totfact>
</mgrwt>
</event>
<event>
 7    1  0.3891761E-009  0.9225254E+02  0.7818608E-02  0.1297487E+00
         -2   -1    0    0    0  501 -0.00000000000E+00  0.00000000000E+00  0.52441114247E+02  0.52441114309E+02  0.25500000000E-02 0.  1.
          2   -1    0    0  501    0  0.00000000000E+00 -0.00000000000E+00 -0.40571848640E+02  0.40571848720E+02  0.25500000000E-02 0. -1.
         23    2    1    2    0    0 -0.35527136788E-14  0.00000000000E+00  0.11869265607E+02  0.93012963030E+02  0.92252543735E+02 0.  0.
    9000005    2    3    3    0    0 -0.23240909245E+02  0.34174208597E+02  0.25582382250E+02  0.49469123467E+02  0.92043195992E+01 0.  0.
         22    1    3    3    0    0  0.23240909245E+02 -0.34174208597E+02 -0.13713116643E+02  0.43543839562E+02  0.00000000000E+00 0. -1.
         22    1    4    4    0    0 -0.23834938705E+02  0.31677462158E+02  0.24897245338E+02  0.46812805270E+02  0.00000000000E+00 0.  1.
         22    1    4    4    0    0  0.59402945939E+00  0.24967464389E+01  0.68513691246E+00  0.26563181977E+01  0.00000000000E+00 0.  1.
<mgrwt>
<rscale>  0 0.92252544E+02</rscale>
<asrwt>0</asrwt>
<pdfrwt beam="2">  1        2 0.62418229E-02 0.92252544E+02</pdfrwt>
<pdfrwt beam="1">  1       -2 0.80678637E-02 0.92252544E+02</pdfrwt>
<totfact> 0.92537776E+04</totfact>
</mgrwt>
</event>
<event>
 7    1  0.3891761E-009  0.7949158E+02  0.7818608E-02  0.1330500E+00
         -2   -1    0    0    0  501 -0.00000000000E+00  0.00000000000E+00  0.31142141253E+02  0.31142141357E+02  0.25500000000E-02 0.  1.
          2   -1    0    0  501    0  0.00000000000E+00 -0.00000000000E+00 -0.50726373568E+02  0.50726373632E+02  0.25500000000E-02 0. -1.
         23    2    1    2    0    0  0.00000000000E+00  0.00000000000E+00 -0.19584232315E+02  0.81868514989E+02  0.79491581889E+02 0.  0.
    9000005    2    3    3    0    0 -0.11252724222E+02  0.30640814500E+02  0.11498884898E+02  0.36794758863E+02  0.12495863723E+02 0.  0.
         22    1    3    3    0    0  0.11252724222E+02 -0.30640814500E+02 -0.31083117213E+02  0.45073756127E+02  0.00000000000E+00 0. -1.
         22    1    4    4    0    0 -0.34492096505E+01  0.10340493348E+02  0.10325491232E+02  0.15014613517E+02  0.00000000000E+00 0. -1.
         22    1    4    4    0    0 -0.78035145719E+01  0.20300321152E+02  0.11733936662E+01  0.21780145345E+02  0.00000000000E+00 0. -1.
<mgrwt>
<rscale>  0 0.79491582E+02</rscale>
<asrwt>0</asrwt>
<pdfrwt beam="2">  1        2 0.78040575E-02 0.79491582E+02</pdfrwt>
<pdfrwt beam="1">  1       -2 0.47910987E-02 0.79491582E+02</pdfrwt>
<totfact> 0.14918573E+05</totfact>
</mgrwt>
</event>
<event>
 7    1  0.3891761E-009  0.9078338E+02  0.7818608E-02  0.1300966E+00
          2   -1    0    0  501    0  0.00000000000E+00  0.00000000000E+00  0.95258864141E+02  0.95258864175E+02  0.25500000000E-02 0.  1.
         -2   -1    0    0    0  501 -0.00000000000E+00 -0.00000000000E+00 -0.21629541946E+02  0.21629542096E+02  0.25500000000E-02 0. -1.
         23    2    1    2    0    0  0.00000000000E+00 -0.88817841970E-15  0.73629322196E+02  0.11688840627E+03  0.90783381925E+02 0.  0.
    9000005    2    3    3    0    0  0.40334287136E+02  0.71230652351E+01  0.58706679371E+02  0.73296227546E+02  0.15756585691E+02 0.  0.
         22    1    3    3    0    0 -0.40334287136E+02 -0.71230652351E+01  0.14922642825E+02  0.43592178725E+02  0.00000000000E+00 0. -1.
         22    1    4    4    0    0  0.10863063389E+02 -0.42971067172E+01  0.10844037202E+02  0.15939398206E+02  0.00000000000E+00 0. -1.
         22    1    4    4    0    0  0.29471223747E+02  0.11420171952E+02  0.47862642169E+02  0.57356829340E+02  0.00000000000E+00 0. -1.
<mgrwt>
<rscale>  0 0.90783382E+02</rscale>
<asrwt>0</asrwt>
<pdfrwt beam="1">  1        2 0.14655210E-01 0.90783382E+02</pdfrwt>
<pdfrwt beam="2">  1       -2 0.33276218E-02 0.90783382E+02</pdfrwt>
<totfact> 0.12233704E+05</totfact>
</mgrwt>
</event>
<event>
 7    1  0.3891761E-009  0.9326052E+02  0.7818608E-02  0.1295143E+00
          2   -1    0    0  501    0  0.00000000000E+00  0.00000000000E+00  0.25302291594E+02  0.25302291722E+02  0.25500000000E-02 0. -1.
         -2   -1    0    0    0  501 -0.00000000000E+00 -0.00000000000E+00 -0.85936127130E+02  0.85936127168E+02  0.25500000000E-02 0.  1.
         23    2    1    2    0    0  0.00000000000E+00 -0.35527136788E-14 -0.60633835536E+02  0.11123841889E+03  0.93260515897E+02 0.  0.
    9000005    2    3    3    0    0 -0.40591066024E+02 -0.16424726198E+02 -0.47083317029E+02  0.65401503380E+02  0.11962927331E+02 0.  0.
         22    1    3    3    0    0  0.40591066024E+02  0.16424726198E+02 -0.13550518507E+02  0.45836915510E+02  0.00000000000E+00 0. -1.
         22    1    4    4    0    0 -0.27486752865E+02 -0.66084116386E+01 -0.23897935125E+02  0.37017617302E+02  0.00000000000E+00 0.  1.
         22    1    4    4    0    0 -0.13104313158E+02 -0.98163145592E+01 -0.23185381904E+02  0.28383886079E+02  0.00000000000E+00 0.  1.
<mgrwt>
<rscale>  0 0.93260516E+02</rscale>
<asrwt>0</asrwt>
<pdfrwt beam="1">  1        2 0.38926603E-02 0.93260516E+02</pdfrwt>
<pdfrwt beam="2">  1       -2 0.13220942E-01 0.93260516E+02</pdfrwt>
<totfact> 0.78869680E+04</totfact>
</mgrwt>
</event>
<event>
 7    1  0.3891761E-009  0.8863123E+02  0.7818608E-02  0.1306201E+00
          2   -1    0    0  501    0  0.00000000000E+00  0.00000000000E+00  0.36287575005E+03  0.36287575006E+03  0.25500000000E-02 0. -1.
         -2   -1    0    0    0  501 -0.00000000000E+00 -0.00000000000E+00 -0.54119731160E+01  0.54119737167E+01  0.25500000000E-02 0.  1.
         23    2    1    2    0    0  0.71054273576E-14  0.44408920985E-15  0.35746377694E+03  0.36828772378E+03  0.88631234133E+02 0.  0.
    9000005    2    3    3    0    0  0.38210942525E+02 -0.55924826885E+00  0.26582924656E+03  0.26900390816E+03  0.15411858708E+02 0.  0.
         22    1    3    3    0    0 -0.38210942525E+02  0.55924826885E+00  0.91634530373E+02  0.99283815619E+02  0.00000000000E+00 0.  1.
         22    1    4    4    0    0  0.10194555605E+02 -0.71107421631E+01  0.78466531046E+02  0.79444874677E+02  0.00000000000E+00 0. -1.
         22    1    4    4    0    0  0.28016386920E+02  0.65514938942E+01  0.18736271552E+03  0.18955903348E+03  0.00000000000E+00 0. -1.
<mgrwt>
<rscale>  0 0.88631234E+02</rscale>
<asrwt>0</asrwt>
<pdfrwt beam="1">  1        2 0.55827038E-01 0.88631234E+02</pdfrwt>
<pdfrwt beam="2">  1       -2 0.83261131E-03 0.88631234E+02</pdfrwt>
<totfact> 0.20775948E+05</totfact>
</mgrwt>
</event>
<event>
 7    1  0.3891761E-009  0.8856214E+02  0.7818608E-02  0.1306371E+00
         -2   -1    0    0    0  501 -0.00000000000E+00  0.00000000000E+00  0.37367752870E+01  0.37367761571E+01  0.25500000000E-02 0.  1.
          2   -1    0    0  501    0  0.00000000000E+00 -0.00000000000E+00 -0.52473401744E+03  0.52473401745E+03  0.25500000000E-02 0. -1.
         23    2    1    2    0    0  0.35527136788E-14 -0.35527136788E-14 -0.52099724215E+03  0.52847079360E+03  0.88562144061E+02 0.  0.
    9000005    2    3    3    0    0 -0.23161303592E+02 -0.18081078536E+02 -0.45577349858E+03  0.45693403305E+03  0.13994897791E+02 0.  0.
         22    1    3    3    0    0  0.23161303592E+02  0.18081078536E+02 -0.65223743568E+02  0.71536760551E+02  0.00000000000E+00 0.  1.
         22    1    4    4    0    0 -0.17794389801E+02 -0.17504242657E+02 -0.42146666143E+03  0.42220514624E+03  0.00000000000E+00 0.  1.
         22    1    4    4    0    0 -0.53669137906E+01 -0.57683587924E+00 -0.34306837156E+02  0.34728886808E+02  0.00000000000E+00 0.  1.
<mgrwt>
<rscale>  0 0.88562144E+02</rscale>
<asrwt>0</asrwt>
<pdfrwt beam="2">  1        2 0.80728252E-01 0.88562144E+02</pdfrwt>
<pdfrwt beam="1">  1       -2 0.57488899E-03 0.88562144E+02</pdfrwt>
<totfact> 0.23632946E+05</totfact>
</mgrwt>
</event>
<event>
 7    1  0.3891761E-009  0.9213506E+02  0.7818608E-02  0.1297762E+00
          2   -1    0    0  501    0  0.00000000000E+00  0.00000000000E+00  0.11169517562E+03  0.11169517565E+03  0.25500000000E-02 0. -1.
         -2   -1    0    0    0  501 -0.00000000000E+00 -0.00000000000E+00 -0.19000081935E+02  0.19000082106E+02  0.25500000000E-02 0.  1.
         23    2    1    2    0    0  0.00000000000E+00  0.00000000000E+00  0.92695093690E+02  0.13069525776E+03  0.92135063938E+02 0.  0.
    9000005    2    3    3    0    0  0.41584187859E+02 -0.80991863506E+01  0.20809507942E+02  0.47254386853E+02  0.22583083481E+01 0.  0.
         22    1    3    3    0    0 -0.41584187859E+02  0.80991863506E+01  0.71885585748E+02  0.83440870908E+02  0.00000000000E+00 0. -1.
         22    1    4    4    0    0  0.17570659751E+02 -0.25674022240E+01  0.95337546887E+01  0.20154704581E+02  0.00000000000E+00 0. -1.
         22    1    4    4    0    0  0.24013528108E+02 -0.55317841266E+01  0.11275753253E+02  0.27099682272E+02  0.00000000000E+00 0. -1.
<mgrwt>
<rscale>  0 0.92135064E+02</rscale>
<asrwt>0</asrwt>
<pdfrwt beam="1">  1        2 0.17183873E-01 0.92135064E+02</pdfrwt>
<pdfrwt beam="2">  1       -2 0.29230895E-02 0.92135064E+02</pdfrwt>
<totfact> 0.12335263E+05</totfact>
</mgrwt>
</event>
<event>
 7    1  0.3891761E-009  0.9404155E+02  0.7818608E-02  0.1293349E+00
         -2   -1    0    0    0  501 -0.00000000000E+00  0.00000000000E+00  0.75591705292E+01  0.75591709593E+01  0.25500000000E-02 0.  1.
          2   -1    0    0  501    0  0.00000000000E+00 -0.00000000000E+00 -0.29248620015E+03  0.29248620016E+03  0.25500000000E-02 0. -1.
         23    2    1    2    0    0  0.00000000000E+00 -0.44408920985E-15 -0.28492702962E+03  0.30004537112E+03  0.94041546787E+02 0.  0.
    9000005    2    3    3    0    0 -0.45505684067E+02 -0.32370330971E+01 -0.15787876610E+03  0.16505460503E+03  0.15364640936E+02 0.  0.
         22    1    3    3    0    0  0.45505684067E+02  0.32370330971E+01 -0.12704826352E+03  0.13499076609E+03  0.00000000000E+00 0. -1.
         22    1    4    4    0    0 -0.16335260142E+02 -0.84065267266E+01 -0.66701391368E+02  0.69185157555E+02  0.00000000000E+00 0. -1.
         22    1    4    4    0    0 -0.29170423925E+02  0.51694936295E+01 -0.91177374730E+02  0.95869447474E+02  0.00000000000E+00 0. -1.
<mgrwt>
<rscale>  0 0.94041547E+02</rscale>
<asrwt>0</asrwt>
<pdfrwt beam="2">  1        2 0.44997868E-01 0.94041547E+02</pdfrwt>
<pdfrwt beam="1">  1       -2 0.11629496E-02 0.94041547E+02</pdfrwt>
<totfact> 0.16383196E+05</totfact>
</mgrwt>
</event>
<event>
 7    1  0.3891761E-009  0.9606222E+02  0.7818608E-02  0.1288801E+00
         -2   -1    0    0    0  501 -0.00000000000E+00  0.00000000000E+00  0.13908477488E+01  0.13908500864E+01  0.25500000000E-02 0.  1.
          2   -1    0    0  501    0  0.00000000000E+00 -0.00000000000E+00 -0.16586904107E+04  0.16586904107E+04  0.25500000000E-02 0. -1.
         23    2    1    2    0    0  0.00000000000E+00  0.00000000000E+00 -0.16572995629E+04  0.16600812608E+04  0.96062224949E+02 0.  0.
    9000005    2    3    3    0    0 -0.13684000580E+02  0.25346066774E+02 -0.14928369670E+04  0.14931153348E+04  0.12320760984E+01 0.  0.
         22    1    3    3    0    0  0.13684000580E+02 -0.25346066774E+02 -0.16446259594E+03  0.16696592597E+03  0.00000000000E+00 0.  1.
         22    1    4    4    0    0 -0.68877699944E+01  0.13377411473E+02 -0.75161739226E+03  0.75176798340E+03  0.00000000000E+00 0.  1.
         22    1    4    4    0    0 -0.67962305854E+01  0.11968655302E+02 -0.74121957475E+03  0.74134735141E+03  0.00000000000E+00 0.  1.
<mgrwt>
<rscale>  0 0.96062225E+02</rscale>
<asrwt>0</asrwt>
<pdfrwt beam="2">  1        2 0.25518156E+00 0.96062225E+02</pdfrwt>
<pdfrwt beam="1">  1       -2 0.21397808E-03 0.96062225E+02</pdfrwt>
<totfact> 0.19634044E+05</totfact>
</mgrwt>
</event>
<event>
 7    1  0.3891761E-009  0.9167824E+02  0.7818608E-02  0.1298838E+00
          2   -1    0    0  501    0  0.00000000000E+00  0.00000000000E+00  0.15249279362E+03  0.15249279365E+03  0.25500000000E-02 0. -1.
         -2   -1    0    0    0  501 -0.00000000000E+00 -0.00000000000E+00 -0.13779175600E+02  0.13779175836E+02  0.25500000000E-02 0.  1.
         23    2    1    2    0    0 -0.35527136788E-14  0.00000000000E+00  0.13871361802E+03  0.16627196948E+03  0.91678241747E+02 0.  0.
    9000005    2    3    3    0    0  0.28079735570E+02 -0.34892880480E+02  0.81774314048E+02  0.93828412175E+02  0.10523679745E+02 0.  0.
         22    1    3    3    0    0 -0.28079735570E+02  0.34892880480E+02  0.56939303977E+02  0.72443557307E+02  0.00000000000E+00 0.  1.
         22    1    4    4    0    0  0.18188236236E+02 -0.20124322541E+02  0.59014138954E+02  0.64949741274E+02  0.00000000000E+00 0.  1.
         22    1    4    4    0    0  0.98914993342E+01 -0.14768557939E+02  0.22760175093E+02  0.28878670900E+02  0.00000000000E+00 0.  1.
<mgrwt>
<rscale>  0 0.91678242E+02</rscale>
<asrwt>0</asrwt>
<pdfrwt beam="1">  1        2 0.23460430E-01 0.91678242E+02</pdfrwt>
<pdfrwt beam="2">  1       -2 0.21198732E-02 0.91678242E+02</pdfrwt>
<totfact> 0.13851847E+05</totfact>
</mgrwt>
</event>
<event>
 7    1  0.3891761E-009  0.9035401E+02  0.7818608E-02  0.1301997E+00
         -2   -1    0    0    0  501 -0.00000000000E+00  0.00000000000E+00  0.47363643653E+01  0.47363650517E+01  0.25500000000E-02 0.  1.
          2   -1    0    0  501    0  0.00000000000E+00 -0.00000000000E+00 -0.43091312035E+03  0.43091312036E+03  0.25500000000E-02 0. -1.
         23    2    1    2    0    0  0.00000000000E+00  0.35527136788E-14 -0.42617675599E+03  0.43564948541E+03  0.90354008189E+02 0.  0.
    9000005    2    3    3    0    0  0.33097140085E+02 -0.27856847341E+02 -0.25894054101E+03  0.26290870787E+03  0.14119499642E+02 0.  0.
         22    1    3    3    0    0 -0.33097140085E+02  0.27856847341E+02 -0.16723621498E+03  0.17274077754E+03  0.00000000000E+00 0. -1.
         22    1    4    4    0    0 -0.98088208457E+00  0.47043825701E+00 -0.95400855271E+01  0.96019098976E+01  0.00000000000E+00 0.  1.
         22    1    4    4    0    0  0.34078022169E+02 -0.28327285598E+02 -0.24940045548E+03  0.25330679798E+03  0.00000000000E+00 0.  1.
<mgrwt>
<rscale>  0 0.90354008E+02</rscale>
<asrwt>0</asrwt>
<pdfrwt beam="2">  1        2 0.66294295E-01 0.90354008E+02</pdfrwt>
<pdfrwt beam="1">  1       -2 0.72867183E-03 0.90354008E+02</pdfrwt>
<totfact> 0.20992779E+05</totfact>
</mgrwt>
</event>
<event>
 7    1  0.3891761E-009  0.9138452E+02  0.7818608E-02  0.1299533E+00
          2   -1    0    0  501    0  0.00000000000E+00  0.00000000000E+00  0.29021112236E+03  0.29021112237E+03  0.25500000000E-02 0.  1.
         -2   -1    0    0    0  501 -0.00000000000E+00 -0.00000000000E+00 -0.71940123883E+01  0.71940128402E+01  0.25500000000E-02 0. -1.
         23    2    1    2    0    0  0.00000000000E+00  0.00000000000E+00  0.28301710997E+03  0.29740513521E+03  0.91384516814E+02 0.  0.
    9000005    2    3    3    0    0  0.20583209445E+02 -0.35561508724E+02  0.84105940910E+02  0.94294469339E+02  0.11373136671E+02 0.  0.
         22    1    3    3    0    0 -0.20583209445E+02  0.35561508724E+02  0.19891116906E+03  0.20311066587E+03  0.00000000000E+00 0.  1.
         22    1    4    4    0    0  0.12929718623E+02 -0.11921683554E+02  0.30442759792E+02  0.35157727261E+02  0.00000000000E+00 0.  1.
         22    1    4    4    0    0  0.76534908225E+01 -0.23639825170E+02  0.53663181118E+02  0.59136742077E+02  0.00000000000E+00 0.  1.
<mgrwt>
<rscale>  0 0.91384517E+02</rscale>
<asrwt>0</asrwt>
<pdfrwt beam="1">  1        2 0.44647856E-01 0.91384517E+02</pdfrwt>
<pdfrwt beam="2">  1       -2 0.11067714E-02 0.91384517E+02</pdfrwt>
<totfact> 0.17637719E+05</totfact>
</mgrwt>
</event>
<event>
 7    1  0.3891761E-009  0.9391833E+02  0.7818608E-02  0.1293631E+00
         -2   -1    0    0    0  501 -0.00000000000E+00  0.00000000000E+00  0.26979763877E+02  0.26979763997E+02  0.25500000000E-02 0.  1.
          2   -1    0    0  501    0  0.00000000000E+00 -0.00000000000E+00 -0.81733976496E+02  0.81733976536E+02  0.25500000000E-02 0. -1.
         23    2    1    2    0    0  0.00000000000E+00  0.00000000000E+00 -0.54754212619E+02  0.10871374053E+03  0.93918334638E+02 0.  0.
    9000005    2    3    3    0    0  0.15803766946E+02 -0.19044131744E+02  0.18276502209E+02  0.31603927203E+02  0.72346166495E+01 0.  0.
         22    1    3    3    0    0 -0.15803766946E+02  0.19044131744E+02 -0.73030714828E+02  0.77109813331E+02  0.00000000000E+00 0. -1.
         22    1    4    4    0    0  0.30493001460E+01 -0.52577313651E+01  0.84452054207E+01  0.10404973094E+02  0.00000000000E+00 0.  1.
         22    1    4    4    0    0  0.12754466800E+02 -0.13786400379E+02  0.98312967882E+01  0.21198954109E+02  0.00000000000E+00 0.  1.
<mgrwt>
<rscale>  0 0.93918335E+02</rscale>
<asrwt>0</asrwt>
<pdfrwt beam="2">  1        2 0.12574458E-01 0.93918335E+02</pdfrwt>
<pdfrwt beam="1">  1       -2 0.41507330E-02 0.93918335E+02</pdfrwt>
<totfact> 0.10641077E+05</totfact>
</mgrwt>
</event>
<event>
 6    1  0.3891761E-009  0.1381322E+03  0.7818608E-02  0.1215865E+00
         -2   -1    0    0    0  501 -0.00000000000E+00  0.00000000000E+00  0.12803737681E+02  0.12803737935E+02  0.25500000000E-02 0.  1.
          2   -1    0    0  501    0  0.00000000000E+00 -0.00000000000E+00 -0.37255730806E+03  0.37255730807E+03  0.25500000000E-02 0. -1.
    9000005    2    1    2    0    0 -0.50338728174E+02 -0.46263854388E+02 -0.18727150093E+03  0.19982292038E+03  0.13573970442E+02 0.  0.
         22    1    1    2    0    0  0.50338728174E+02  0.46263854388E+02 -0.17248206946E+03  0.18553812563E+03  0.00000000000E+00 0.  1.
         22    1    3    3    0    0 -0.12519917992E+02 -0.44256742493E+01 -0.37910586406E+02  0.40168986803E+02  0.00000000000E+00 0.  1.
         22    1    3    3    0    0 -0.37818810183E+02 -0.41838180139E+02 -0.14936091452E+03  0.15965393358E+03  0.00000000000E+00 0.  1.
<mgrwt>
<rscale>  0 0.13813220E+03</rscale>
<asrwt>0</asrwt>
<pdfrwt beam="2">  1        2 0.57316501E-01 0.13813220E+03</pdfrwt>
<pdfrwt beam="1">  1       -2 0.19698061E-02 0.13813220E+03</pdfrwt>
<totfact> 0.62852504E+04</totfact>
</mgrwt>
</event>
<event>
 7    1  0.3891761E-009  0.9183617E+02  0.7818608E-02  0.1298465E+00
          2   -1    0    0  501    0  0.00000000000E+00  0.00000000000E+00  0.46651494978E+02  0.46651495048E+02  0.25500000000E-02 0. -1.
         -2   -1    0    0    0  501 -0.00000000000E+00 -0.00000000000E+00 -0.45196209693E+02  0.45196209765E+02  0.25500000000E-02 0.  1.
         23    2    1    2    0    0  0.00000000000E+00  0.00000000000E+00  0.14552852857E+01  0.91847704813E+02  0.91836174921E+02 0.  0.
    9000005    2    3    3    0    0 -0.32369621602E+02 -0.87263787030E+01 -0.30341358041E+02  0.45641984228E+02  0.62169629712E+01 0.  0.
         22    1    3    3    0    0  0.32369621602E+02  0.87263787030E+01  0.31796643327E+02  0.46205720585E+02  0.00000000000E+00 0. -1.
         22    1    4    4    0    0 -0.26666938171E+02 -0.76474573336E+01 -0.21645379929E+02  0.35187095182E+02  0.00000000000E+00 0.  1.
         22    1    4    4    0    0 -0.57026834303E+01 -0.10789213694E+01 -0.86959781125E+01  0.10454889046E+02  0.00000000000E+00 0.  1.
<mgrwt>
<rscale>  0 0.91836175E+02</rscale>
<asrwt>0</asrwt>
<pdfrwt beam="1">  1        2 0.71771531E-02 0.91836175E+02</pdfrwt>
<pdfrwt beam="2">  1       -2 0.69532630E-02 0.91836175E+02</pdfrwt>
<totfact> 0.97235386E+04</totfact>
</mgrwt>
</event>
<event>
 7    1  0.3891761E-009  0.9175152E+02  0.7818608E-02  0.1298665E+00
         -2   -1    0    0    0  501 -0.00000000000E+00  0.00000000000E+00  0.41482270825E+03  0.41482270825E+03  0.25500000000E-02 0.  1.
          2   -1    0    0  501    0  0.00000000000E+00 -0.00000000000E+00 -0.50734568799E+01  0.50734575207E+01  0.25500000000E-02 0. -1.
         23    2    1    2    0    0  0.71054273576E-14  0.00000000000E+00  0.40974925137E+03  0.41989616577E+03  0.91751517900E+02 0.  0.
    9000005    2    3    3    0    0 -0.35834822811E+02 -0.14395984631E+02  0.31743202249E+03  0.31982694150E+03  0.58995515436E+01 0.  0.
         22    1    3    3    0    0  0.35834822811E+02  0.14395984631E+02  0.92317228878E+02  0.10006922428E+03  0.00000000000E+00 0. -1.
         22    1    4    4    0    0 -0.20199590726E+02 -0.10175903970E+02  0.16669521384E+03  0.16822267030E+03  0.00000000000E+00 0.  1.
         22    1    4    4    0    0 -0.15635232085E+02 -0.42200806604E+01  0.15073680865E+03  0.15160427119E+03  0.00000000000E+00 0.  1.
<mgrwt>
<rscale>  0 0.91751518E+02</rscale>
<asrwt>0</asrwt>
<pdfrwt beam="2">  1        2 0.78053148E-03 0.91751518E+02</pdfrwt>
<pdfrwt beam="1">  1       -2 0.63818911E-01 0.91751518E+02</pdfrwt>
<totfact> 0.40970797E+04</totfact>
</mgrwt>
</event>
<event>
 7    1  0.3891761E-009  0.9128892E+02  0.7818608E-02  0.1299760E+00
         -2   -1    0    0    0  501 -0.00000000000E+00  0.00000000000E+00  0.68264750706E+01  0.68264755469E+01  0.25500000000E-02 0.  1.
          2   -1    0    0  501    0  0.00000000000E+00 -0.00000000000E+00 -0.30519653490E+03  0.30519653491E+03  0.25500000000E-02 0. -1.
         23    2    1    2    0    0  0.00000000000E+00  0.00000000000E+00 -0.29837005983E+03  0.31202301046E+03  0.91288917467E+02 0.  0.
    9000005    2    3    3    0    0 -0.22455036498E+02 -0.84174040976E+01 -0.28139369171E+03  0.28264141026E+03  0.11343531206E+02 0.  0.
         22    1    3    3    0    0  0.22455036498E+02  0.84174040976E+01 -0.16976368114E+02  0.29381600198E+02  0.00000000000E+00 0.  1.
         22    1    4    4    0    0 -0.11027082123E+01 -0.41938559440E+01 -0.30725361417E+02  0.31029860253E+02  0.00000000000E+00 0.  1.
         22    1    4    4    0    0 -0.21352328286E+02 -0.42235481536E+01 -0.25066833030E+03  0.25161155000E+03  0.00000000000E+00 0.  1.
<mgrwt>
<rscale>  0 0.91288917E+02</rscale>
<asrwt>0</asrwt>
<pdfrwt beam="2">  1        2 0.46953303E-01 0.91288917E+02</pdfrwt>
<pdfrwt beam="1">  1       -2 0.10502272E-02 0.91288917E+02</pdfrwt>
<totfact> 0.18022022E+05</totfact>
</mgrwt>
</event>
<event>
 7    1  0.3891761E-009  0.8511900E+02  0.7818608E-02  0.1315122E+00
         -2   -1    0    0    0  501 -0.00000000000E+00  0.00000000000E+00  0.19753279309E+01  0.19753295768E+01  0.25500000000E-02 0.  1.
          2   -1    0    0  501    0  0.00000000000E+00 -0.00000000000E+00 -0.91696695895E+03  0.91696695895E+03  0.25500000000E-02 0. -1.
         23    2    1    2    0    0  0.00000000000E+00  0.00000000000E+00 -0.91499163102E+03  0.91894228853E+03  0.85119003838E+02 0.  0.
    9000005    2    3    3    0    0  0.27074149001E+02 -0.71702297498E+01 -0.79804343980E+03  0.79868713825E+03  0.15601002017E+02 0.  0.
         22    1    3    3    0    0 -0.27074149001E+02  0.71702297498E+01 -0.11694819122E+03  0.12025515028E+03  0.00000000000E+00 0.  1.
         22    1    4    4    0    0  0.17396191800E+01 -0.57068832498E+01 -0.96007371964E+02  0.96192568647E+02  0.00000000000E+00 0.  1.
         22    1    4    4    0    0  0.25334529821E+02 -0.14633465001E+01 -0.70203606784E+03  0.70249456961E+03  0.00000000000E+00 0.  1.
<mgrwt>
<rscale>  0 0.85119004E+02</rscale>
<asrwt>0</asrwt>
<pdfrwt beam="2">  1        2 0.14107150E+00 0.85119004E+02</pdfrwt>
<pdfrwt beam="1">  1       -2 0.30389746E-03 0.85119004E+02</pdfrwt>
<totfact> 0.29756164E+05</totfact>
</mgrwt>
</event>
<event>
 7    1  0.3891761E-009  0.9680165E+02  0.7818608E-02  0.1287169E+00
         -2   -1    0    0    0  501 -0.00000000000E+00  0.00000000000E+00  0.71121321749E+01  0.71121326321E+01  0.25500000000E-02 0.  1.
          2   -1    0    0  501    0  0.00000000000E+00 -0.00000000000E+00 -0.32938643583E+03  0.32938643584E+03  0.25500000000E-02 0. -1.
         23    2    1    2    0    0 -0.88817841970E-15  0.00000000000E+00 -0.32227430366E+03  0.33649856848E+03  0.96801651780E+02 0.  0.
    9000005    2    3    3    0    0 -0.68766159719E+01  0.43149734894E+02 -0.22731909049E+03  0.23197259096E+03  0.15103859927E+02 0.  0.
         22    1    3    3    0    0  0.68766159719E+01 -0.43149734894E+02 -0.94955213167E+02  0.10452597752E+03  0.00000000000E+00 0.  1.
         22    1    4    4    0    0 -0.74967150594E+01  0.42734267447E+02 -0.22708167346E+03  0.23118932668E+03  0.00000000000E+00 0.  1.
         22    1    4    4    0    0  0.62009908753E+00  0.41546744715E+00 -0.23741703409E+00  0.78326427601E+00  0.00000000000E+00 0.  1.
<mgrwt>
<rscale>  0 0.96801652E+02</rscale>
<asrwt>0</asrwt>
<pdfrwt beam="2">  1        2 0.50674825E-01 0.96801652E+02</pdfrwt>
<pdfrwt beam="1">  1       -2 0.10941745E-02 0.96801652E+02</pdfrwt>
<totfact> 0.15848925E+05</totfact>
</mgrwt>
</event>
<event>
 7    1  0.3891761E-009  0.8624206E+02  0.7818608E-02  0.1312216E+00
         -2   -1    0    0    0  501 -0.00000000000E+00  0.00000000000E+00  0.36891506526E+03  0.36891506527E+03  0.25500000000E-02 0.  1.
          2   -1    0    0  501    0  0.00000000000E+00 -0.00000000000E+00 -0.50402471480E+01  0.50402477931E+01  0.25500000000E-02 0. -1.
         23    2    1    2    0    0  0.00000000000E+00  0.00000000000E+00  0.36387481811E+03  0.37395531306E+03  0.86242059989E+02 0.  0.
    9000005    2    3    3    0    0 -0.16851452267E+02 -0.86680045273E+01  0.34947032848E+03  0.35015205556E+03  0.10855679660E+02 0.  0.
         22    1    3    3    0    0  0.16851452267E+02  0.86680045273E+01  0.14404489630E+02  0.23803257497E+02  0.00000000000E+00 0. -1.
         22    1    4    4    0    0 -0.14402506723E+02 -0.18207697369E+01  0.22139189154E+03  0.22186734109E+03  0.00000000000E+00 0. -1.
         22    1    4    4    0    0 -0.24489455437E+01 -0.68472347904E+01  0.12807843694E+03  0.12828471448E+03  0.00000000000E+00 0. -1.
<mgrwt>
<rscale>  0 0.86242060E+02</rscale>
<asrwt>0</asrwt>
<pdfrwt beam="2">  1        2 0.77542229E-03 0.86242060E+02</pdfrwt>
<pdfrwt beam="1">  1       -2 0.56756193E-01 0.86242060E+02</pdfrwt>
<totfact> 0.51974881E+04</totfact>
</mgrwt>
</event>
<event>
 7    1  0.3891761E-009  0.8765602E+02  0.7818608E-02  0.1308629E+00
         -2   -1    0    0    0  501 -0.00000000000E+00  0.00000000000E+00  0.11293517006E+02  0.11293517294E+02  0.25500000000E-02 0.  1.
          2   -1    0    0  501    0  0.00000000000E+00 -0.00000000000E+00 -0.17008823920E+03  0.17008823922E+03  0.25500000000E-02 0. -1.
         23    2    1    2    0    0  0.00000000000E+00  0.00000000000E+00 -0.15879472220E+03  0.18138175652E+03  0.87656019755E+02 0.  0.
    9000005    2    3    3    0    0  0.21931556026E+02  0.27194073045E+02 -0.13201796199E+03  0.13736465023E+03  0.14825454017E+02 0.  0.
         22    1    3    3    0    0 -0.21931556026E+02 -0.27194073045E+02 -0.26776760208E+02  0.44017106285E+02  0.00000000000E+00 0.  1.
         22    1    4    4    0    0 -0.16358524680E+01 -0.28218705073E+00 -0.80655927196E+01  0.82346480646E+01  0.00000000000E+00 0. -1.
         22    1    4    4    0    0  0.23567408494E+02  0.27476260096E+02 -0.12395236927E+03  0.12913000217E+03  0.00000000000E+00 0. -1.
<mgrwt>
<rscale>  0 0.87656020E+02</rscale>
<asrwt>0</asrwt>
<pdfrwt beam="2">  1        2 0.26167420E-01 0.87656020E+02</pdfrwt>
<pdfrwt beam="1">  1       -2 0.17374643E-02 0.87656020E+02</pdfrwt>
<totfact> 0.16235550E+05</totfact>
</mgrwt>
</event>
<event>
 7    1  0.3891761E-009  0.9062842E+02  0.7818608E-02  0.1301337E+00
         -2   -1    0    0    0  501 -0.00000000000E+00  0.00000000000E+00  0.58920949829E+02  0.58920949884E+02  0.25500000000E-02 0.  1.
          2   -1    0    0  501    0  0.00000000000E+00 -0.00000000000E+00 -0.34849705356E+02  0.34849705449E+02  0.25500000000E-02 0. -1.
         23    2    1    2    0    0  0.00000000000E+00  0.00000000000E+00  0.24071244473E+02  0.93770655333E+02  0.90628422645E+02 0.  0.
    9000005    2    3    3    0    0 -0.42656570655E+02  0.22750201990E+01 -0.18777755808E+00  0.44645723915E+02  0.12978700492E+02 0.  0.
         22    1    3    3    0    0  0.42656570655E+02 -0.22750201990E+01  0.24259022031E+02  0.49124931419E+02  0.00000000000E+00 0.  1.
         22    1    4    4    0    0 -0.65691391352E+01  0.52820906525E+01  0.18241952452E+00  0.84313313018E+01  0.00000000000E+00 0. -1.
         22    1    4    4    0    0 -0.36087431520E+02 -0.30070704535E+01 -0.37019708260E+00  0.36214392613E+02  0.00000000000E+00 0. -1.
<mgrwt>
<rscale>  0 0.90628423E+02</rscale>
<asrwt>0</asrwt>
<pdfrwt beam="2">  1        2 0.53614932E-02 0.90628423E+02</pdfrwt>
<pdfrwt beam="1">  1       -2 0.90647615E-02 0.90628423E+02</pdfrwt>
<totfact> 0.93673103E+04</totfact>
</mgrwt>
</event>
<event>
 7    1  0.3891761E-009  0.9239577E+02  0.7818608E-02  0.1297152E+00
          2   -1    0    0  501    0  0.00000000000E+00  0.00000000000E+00  0.19590553600E+04  0.19590553600E+04  0.25500000000E-02 0. -1.
         -2   -1    0    0    0  501 -0.00000000000E+00 -0.00000000000E+00 -0.10894238519E+01  0.10894268363E+01  0.25500000000E-02 0.  1.
         23    2    1    2    0    0  0.00000000000E+00  0.00000000000E+00  0.19579659362E+04  0.19601447869E+04  0.92395769666E+02 0.  0.
    9000005    2    3    3    0    0 -0.57712083169E+01  0.12683637518E+02  0.19122410026E+04  0.19123436252E+04  0.14082163136E+02 0.  0.
         22    1    3    3    0    0  0.57712083169E+01 -0.12683637518E+02  0.45724933627E+02  0.47801161715E+02  0.00000000000E+00 0.  1.
         22    1    4    4    0    0 -0.27709173982E+01  0.11262878730E+02  0.18285807247E+04  0.18286175098E+04  0.00000000000E+00 0. -1.
         22    1    4    4    0    0 -0.30002909187E+01  0.14207587885E+01  0.83660277899E+02  0.83726115396E+02  0.00000000000E+00 0. -1.
<mgrwt>
<rscale>  0 0.92395770E+02</rscale>
<asrwt>0</asrwt>
<pdfrwt beam="1">  1        2 0.30138833E+00 0.92395770E+02</pdfrwt>
<pdfrwt beam="2">  1       -2 0.16760657E-03 0.92395770E+02</pdfrwt>
<totfact> 0.19362278E+05</totfact>
</mgrwt>
</event>
<event>
 7    1  0.3891761E-009  0.9235958E+02  0.7818608E-02  0.1297236E+00
          2   -1    0    0  501    0  0.00000000000E+00  0.00000000000E+00  0.16224626873E+03  0.16224626875E+03  0.25500000000E-02 0. -1.
         -2   -1    0    0    0  501 -0.00000000000E+00 -0.00000000000E+00 -0.13144050175E+02  0.13144050422E+02  0.25500000000E-02 0.  1.
         23    2    1    2    0    0  0.00000000000E+00  0.00000000000E+00  0.14910221856E+03  0.17539031918E+03  0.92359582509E+02 0.  0.
    9000005    2    3    3    0    0 -0.85321729769E+01 -0.31341599052E+02  0.13642918073E+03  0.14052343382E+03  0.88780791688E+01 0.  0.
         22    1    3    3    0    0  0.85321729769E+01  0.31341599052E+02  0.12673037828E+02  0.34866885359E+02  0.00000000000E+00 0.  1.
         22    1    4    4    0    0 -0.25007602187E+01 -0.92762277272E+00  0.10704147913E+02  0.11031458119E+02  0.00000000000E+00 0.  1.
         22    1    4    4    0    0 -0.60314127582E+01 -0.30413976280E+02  0.12572503282E+03  0.12949197570E+03  0.00000000000E+00 0.  1.
<mgrwt>
<rscale>  0 0.92359583E+02</rscale>
<asrwt>0</asrwt>
<pdfrwt beam="1">  1        2 0.24960964E-01 0.92359583E+02</pdfrwt>
<pdfrwt beam="2">  1       -2 0.20221616E-02 0.92359583E+02</pdfrwt>
<totfact> 0.13869309E+05</totfact>
</mgrwt>
</event>
<event>
 7    1  0.3891761E-009  0.8892144E+02  0.7818608E-02  0.1305485E+00
         -2   -1    0    0    0  501 -0.00000000000E+00  0.00000000000E+00  0.97277472078E+02  0.97277472112E+02  0.25500000000E-02 0.  1.
          2   -1    0    0  501    0  0.00000000000E+00 -0.00000000000E+00 -0.20320795622E+02  0.20320795782E+02  0.25500000000E-02 0. -1.
         23    2    1    2    0    0  0.88817841970E-15  0.00000000000E+00  0.76956676457E+02  0.11759826789E+03  0.88921440386E+02 0.  0.
    9000005    2    3    3    0    0  0.74169999659E+01  0.42134441353E+02  0.24536849450E+02  0.49936156634E+02  0.78255812463E+01 0.  0.
         22    1    3    3    0    0 -0.74169999659E+01 -0.42134441353E+02  0.52419827007E+02  0.67662111259E+02  0.00000000000E+00 0. -1.
         22    1    4    4    0    0  0.85117114985E+01  0.40836171686E+02  0.24128722895E+02  0.48189598661E+02  0.00000000000E+00 0. -1.
         22    1    4    4    0    0 -0.10947115326E+01  0.12982696670E+01  0.40812655526E+00  0.17465579730E+01  0.00000000000E+00 0. -1.
<mgrwt>
<rscale>  0 0.88921440E+02</rscale>
<asrwt>0</asrwt>
<pdfrwt beam="2">  1        2 0.31262763E-02 0.88921440E+02</pdfrwt>
<pdfrwt beam="1">  1       -2 0.14965765E-01 0.88921440E+02</pdfrwt>
<totfact> 0.85626249E+04</totfact>
</mgrwt>
</event>
<event>
 7    1  0.3891761E-009  0.9188882E+02  0.7818608E-02  0.1298341E+00
         -2   -1    0    0    0  501 -0.00000000000E+00  0.00000000000E+00  0.45779899724E+02  0.45779899795E+02  0.25500000000E-02 0.  1.
          2   -1    0    0  501    0  0.00000000000E+00 -0.00000000000E+00 -0.46109514106E+02  0.46109514177E+02  0.25500000000E-02 0. -1.
         23    2    1    2    0    0 -0.35527136788E-14  0.00000000000E+00 -0.32961438213E+00  0.91889413972E+02  0.91888822794E+02 0.  0.
    9000005    2    3    3    0    0 -0.17356739610E+02 -0.13163882392E+02  0.40249031835E+02  0.45833244588E+02  0.24814383407E+01 0.  0.
         22    1    3    3    0    0  0.17356739610E+02  0.13163882392E+02 -0.40578646217E+02  0.46056169385E+02  0.00000000000E+00 0. -1.
         22    1    4    4    0    0 -0.11680520207E+01 -0.39062281961E+00  0.15185347130E+01  0.19552185005E+01  0.00000000000E+00 0.  1.
         22    1    4    4    0    0 -0.16188687590E+02 -0.12773259573E+02  0.38730497122E+02  0.43878026087E+02  0.00000000000E+00 0.  1.
<mgrwt>
<rscale>  0 0.91888823E+02</rscale>
<asrwt>0</asrwt>
<pdfrwt beam="2">  1        2 0.70937714E-02 0.91888823E+02</pdfrwt>
<pdfrwt beam="1">  1       -2 0.70430615E-02 0.91888823E+02</pdfrwt>
<totfact> 0.96779426E+04</totfact>
</mgrwt>
</event>
<event>
 7    1  0.3891761E-009  0.9091816E+02  0.7818608E-02  0.1300643E+00
         -2   -1    0    0    0  501 -0.00000000000E+00  0.00000000000E+00  0.28628204278E+02  0.28628204392E+02  0.25500000000E-02 0.  1.
          2   -1    0    0  501    0  0.00000000000E+00 -0.00000000000E+00 -0.72185035864E+02  0.72185035909E+02  0.25500000000E-02 0. -1.
         23    2    1    2    0    0  0.00000000000E+00  0.00000000000E+00 -0.43556831586E+02  0.10081324030E+03  0.90918160134E+02 0.  0.
    9000005    2    3    3    0    0 -0.36859788321E+02 -0.19972545066E+02 -0.29022359601E+01  0.42415100802E+02  0.57507609047E+01 0.  0.
         22    1    3    3    0    0  0.36859788321E+02  0.19972545066E+02 -0.40654595626E+02  0.58398139499E+02  0.00000000000E+00 0.  1.
         22    1    4    4    0    0 -0.36141082846E+02 -0.18843137033E+02 -0.35788084927E+01  0.40915150650E+02  0.00000000000E+00 0.  1.
         22    1    4    4    0    0 -0.71870547487E+00 -0.11294080328E+01  0.67657253257E+00  0.14999501512E+01  0.00000000000E+00 0.  1.
<mgrwt>
<rscale>  0 0.90918160E+02</rscale>
<asrwt>0</asrwt>
<pdfrwt beam="2">  1        2 0.11105390E-01 0.90918160E+02</pdfrwt>
<pdfrwt beam="1">  1       -2 0.44043392E-02 0.90918160E+02</pdfrwt>
<totfact> 0.11245778E+05</totfact>
</mgrwt>
</event>
<event>
 7    1  0.3891761E-009  0.9072063E+02  0.7818608E-02  0.1301116E+00
         -2   -1    0    0    0  501 -0.00000000000E+00  0.00000000000E+00  0.41240170493E+02  0.41240170572E+02  0.25500000000E-02 0.  1.
          2   -1    0    0  501    0  0.00000000000E+00 -0.00000000000E+00 -0.49892087528E+02  0.49892087594E+02  0.25500000000E-02 0. -1.
         23    2    1    2    0    0  0.35527136788E-14  0.00000000000E+00 -0.86519170350E+01  0.91132258166E+02  0.90720630565E+02 0.  0.
    9000005    2    3    3    0    0 -0.27771170421E+02  0.34873982036E+02 -0.24625457660E+01  0.46124027293E+02  0.11572779807E+02 0.  0.
         22    1    3    3    0    0  0.27771170421E+02 -0.34873982036E+02 -0.61893712689E+01  0.45008230873E+02  0.00000000000E+00 0. -1.
         22    1    4    4    0    0 -0.18794272175E+02  0.14387447778E+02 -0.55033866184E+00  0.23675434374E+02  0.00000000000E+00 0.  1.
         22    1    4    4    0    0 -0.89768982459E+01  0.20486534258E+02 -0.19122071042E+01  0.22448592919E+02  0.00000000000E+00 0.  1.
<mgrwt>
<rscale>  0 0.90720631E+02</rscale>
<asrwt>0</asrwt>
<pdfrwt beam="2">  1        2 0.76757058E-02 0.90720631E+02</pdfrwt>
<pdfrwt beam="1">  1       -2 0.63446416E-02 0.90720631E+02</pdfrwt>
<totfact> 0.10247472E+05</totfact>
</mgrwt>
</event>
<event>
 7    1  0.3891761E-009  0.9104055E+02  0.7818608E-02  0.1300351E+00
         -2   -1    0    0    0  501 -0.00000000000E+00  0.00000000000E+00  0.80439597304E+02  0.80439597344E+02  0.25500000000E-02 0.  1.
          2   -1    0    0  501    0  0.00000000000E+00 -0.00000000000E+00 -0.25759647282E+02  0.25759647409E+02  0.25500000000E-02 0. -1.
         23    2    1    2    0    0  0.00000000000E+00  0.00000000000E+00  0.54679950021E+02  0.10619924475E+03  0.91040554984E+02 0.  0.
    9000005    2    3    3    0    0 -0.33117704115E+02 -0.14824026824E+02 -0.21500996089E+01  0.38773814550E+02  0.13500061825E+02 0.  0.
         22    1    3    3    0    0  0.33117704115E+02  0.14824026824E+02  0.56830049630E+02  0.67425430203E+02  0.00000000000E+00 0.  1.
         22    1    4    4    0    0 -0.24813100015E+02 -0.41107162134E+01 -0.10274639588E+01  0.25172278449E+02  0.00000000000E+00 0. -1.
         22    1    4    4    0    0 -0.83046041003E+01 -0.10713310610E+02 -0.11226356501E+01  0.13601536101E+02  0.00000000000E+00 0. -1.
<mgrwt>
<rscale>  0 0.91040555E+02</rscale>
<asrwt>0</asrwt>
<pdfrwt beam="2">  1        2 0.39630227E-02 0.91040555E+02</pdfrwt>
<pdfrwt beam="1">  1       -2 0.12375323E-01 0.91040555E+02</pdfrwt>
<totfact> 0.85263186E+04</totfact>
</mgrwt>
</event>
<event>
 7    1  0.3891761E-009  0.8966161E+02  0.7818608E-02  0.1303673E+00
         -2   -1    0    0    0  501 -0.00000000000E+00  0.00000000000E+00  0.30842288949E+02  0.30842289054E+02  0.25500000000E-02 0.  1.
          2   -1    0    0  501    0  0.00000000000E+00 -0.00000000000E+00 -0.65163803819E+02  0.65163803869E+02  0.25500000000E-02 0. -1.
         23    2    1    2    0    0  0.00000000000E+00  0.00000000000E+00 -0.34321514870E+02  0.96006092923E+02  0.89661605470E+02 0.  0.
    9000005    2    3    3    0    0 -0.29246546779E+02 -0.25907887988E+02  0.54883737356E+01  0.40226110947E+02  0.78382776937E+01 0.  0.
         22    1    3    3    0    0  0.29246546779E+02  0.25907887988E+02 -0.39809888606E+02  0.55779981976E+02  0.00000000000E+00 0. -1.
         22    1    4    4    0    0 -0.24460047719E+02 -0.23898410844E+02  0.26248068831E+01  0.34297486591E+02  0.00000000000E+00 0. -1.
         22    1    4    4    0    0 -0.47864990595E+01 -0.20094771443E+01  0.28635668525E+01  0.59286243563E+01  0.00000000000E+00 0. -1.
<mgrwt>
<rscale>  0 0.89661605E+02</rscale>
<asrwt>0</asrwt>
<pdfrwt beam="2">  1        2 0.10025201E-01 0.89661605E+02</pdfrwt>
<pdfrwt beam="1">  1       -2 0.47449676E-02 0.89661605E+02</pdfrwt>
<totfact> 0.11367841E+05</totfact>
</mgrwt>
</event>
<event>
 7    1  0.3891761E-009  0.9367120E+02  0.7818608E-02  0.1294197E+00
          2   -1    0    0  501    0  0.00000000000E+00  0.00000000000E+00  0.80935815209E+02  0.80935815250E+02  0.25500000000E-02 0. -1.
         -2   -1    0    0    0  501 -0.00000000000E+00 -0.00000000000E+00 -0.27102631474E+02  0.27102631594E+02  0.25500000000E-02 0.  1.
         23    2    1    2    0    0  0.00000000000E+00  0.00000000000E+00  0.53833183735E+02  0.10803844684E+03  0.93671203287E+02 0.  0.
    9000005    2    3    3    0    0  0.35106322211E+02 -0.20673365972E+01  0.61659018719E+02  0.72011076235E+02  0.12125707046E+02 0.  0.
         22    1    3    3    0    0 -0.35106322211E+02  0.20673365972E+01 -0.78258349834E+01  0.36027370609E+02  0.00000000000E+00 0.  1.
         22    1    4    4    0    0  0.74821661069E+01  0.45856025740E+01  0.13871771614E+02  0.16414524310E+02  0.00000000000E+00 0.  1.
         22    1    4    4    0    0  0.27624156104E+02 -0.66529391712E+01  0.47787247105E+02  0.55596551925E+02  0.00000000000E+00 0.  1.
<mgrwt>
<rscale>  0 0.93671203E+02</rscale>
<asrwt>0</asrwt>
<pdfrwt beam="1">  1        2 0.12451664E-01 0.93671203E+02</pdfrwt>
<pdfrwt beam="2">  1       -2 0.41696356E-02 0.93671203E+02</pdfrwt>
<totfact> 0.10689083E+05</totfact>
</mgrwt>
</event>
<event>
 7    1  0.3891761E-009  0.7555412E+02  0.7818608E-02  0.1342164E+00
         -2   -1    0    0    0  501 -0.00000000000E+00  0.00000000000E+00  0.42909967413E+01  0.42909974990E+01  0.25500000000E-02 0. -1.
          2   -1    0    0  501    0  0.00000000000E+00 -0.00000000000E+00 -0.33258154271E+03  0.33258154272E+03  0.25500000000E-02 0.  1.
         23    2    1    2    0    0  0.88817841970E-15 -0.35527136788E-14 -0.32829054597E+03  0.33687254022E+03  0.75554124844E+02 0.  0.
    9000005    2    3    3    0    0 -0.62798145661E+01  0.22123235084E+02 -0.29647666719E+03  0.29761701214E+03  0.12190083139E+02 0.  0.
         22    1    3    3    0    0  0.62798145661E+01 -0.22123235084E+02 -0.31813878776E+02  0.39255528074E+02  0.00000000000E+00 0. -1.
         22    1    4    4    0    0  0.16330610099E+01 -0.54590022627E+00 -0.34297264344E+02  0.34340460638E+02  0.00000000000E+00 0. -1.
         22    1    4    4    0    0 -0.79128755760E+01  0.22669135310E+02 -0.26217940284E+03  0.26327655150E+03  0.00000000000E+00 0. -1.
<mgrwt>
<rscale>  0 0.75554125E+02</rscale>
<asrwt>0</asrwt>
<pdfrwt beam="2">  1        2 0.51166371E-01 0.75554125E+02</pdfrwt>
<pdfrwt beam="1">  1       -2 0.66015366E-03 0.75554125E+02</pdfrwt>
<totfact> 0.30632036E+05</totfact>
</mgrwt>
</event>
<event>
 7    1  0.4291179E-009  0.8779540E+02  0.7818608E-02  0.1308280E+00
         -2   -1    0    0    0  501 -0.00000000000E+00  0.00000000000E+00  0.18769420772E+01  0.18769438094E+01  0.25500000000E-02 0.  1.
          2   -1    0    0  501    0  0.00000000000E+00 -0.00000000000E+00 -0.10266738450E+04  0.10266738450E+04  0.25500000000E-02 0. -1.
         23    2    1    2    0    0  0.17763568394E-14  0.00000000000E+00 -0.10247969029E+04  0.10285507888E+04  0.87795403789E+02 0.  0.
    9000005    2    3    3    0    0  0.14406863342E+02  0.17652719164E+02 -0.95001830361E+03  0.95037780677E+03  0.12807115656E+02 0.  0.
         22    1    3    3    0    0 -0.14406863342E+02 -0.17652719164E+02 -0.74778599285E+02  0.78172982009E+02  0.00000000000E+00 0.  1.
         22    1    4    4    0    0  0.39899522410E+01  0.12642535966E+02 -0.65318660170E+03  0.65332112324E+03  0.00000000000E+00 0. -1.
         22    1    4    4    0    0  0.10416911101E+02  0.50101831980E+01 -0.29683170191E+03  0.29705668353E+03  0.00000000000E+00 0. -1.
<mgrwt>
<rscale>  0 0.87795404E+02</rscale>
<asrwt>0</asrwt>
<pdfrwt beam="2">  1        2 0.15794937E+00 0.87795404E+02</pdfrwt>
<pdfrwt beam="1">  1       -2 0.28876127E-03 0.87795404E+02</pdfrwt>
<totfact> 0.27636495E+05</totfact>
</mgrwt>
</event>
<event>
 7    1  0.3891761E-009  0.8912289E+02  0.7818608E-02  0.1304990E+00
          2   -1    0    0  501    0  0.00000000000E+00  0.00000000000E+00  0.15915702402E+03  0.15915702404E+03  0.25500000000E-02 0. -1.
         -2   -1    0    0    0  501 -0.00000000000E+00 -0.00000000000E+00 -0.12476497299E+02  0.12476497559E+02  0.25500000000E-02 0.  1.
         23    2    1    2    0    0  0.00000000000E+00 -0.35527136788E-14  0.14668052672E+03  0.17163352160E+03  0.89122886048E+02 0.  0.
    9000005    2    3    3    0    0  0.32838213997E+02 -0.19108769976E+02  0.31201406164E+02  0.50064937363E+02  0.94592186816E+01 0.  0.
         22    1    3    3    0    0 -0.32838213997E+02  0.19108769976E+02  0.11547912056E+03  0.12156858424E+03  0.00000000000E+00 0. -1.
         22    1    4    4    0    0  0.86427590549E+01 -0.10116898700E+02  0.96204776934E+01  0.16419577170E+02  0.00000000000E+00 0. -1.
         22    1    4    4    0    0  0.24195454942E+02 -0.89918712765E+01  0.21580928470E+02  0.33645360194E+02  0.00000000000E+00 0. -1.
<mgrwt>
<rscale>  0 0.89122886E+02</rscale>
<asrwt>0</asrwt>
<pdfrwt beam="1">  1        2 0.24485695E-01 0.89122886E+02</pdfrwt>
<pdfrwt beam="2">  1       -2 0.19194612E-02 0.89122886E+02</pdfrwt>
<totfact> 0.15174023E+05</totfact>
</mgrwt>
</event>
<event>
 7    1  0.3891761E-009  0.9120506E+02  0.7818608E-02  0.1299959E+00
          2   -1    0    0  501    0  0.00000000000E+00  0.00000000000E+00  0.72383791721E+02  0.72383791766E+02  0.25500000000E-02 0. -1.
         -2   -1    0    0    0  501 -0.00000000000E+00 -0.00000000000E+00 -0.28730060478E+02  0.28730060591E+02  0.25500000000E-02 0.  1.
         23    2    1    2    0    0  0.00000000000E+00  0.00000000000E+00  0.43653731243E+02  0.10111385236E+03  0.91205059548E+02 0.  0.
    9000005    2    3    3    0    0  0.25547309029E+02 -0.23673805708E+02 -0.80800263159E+01  0.38748030415E+02  0.14933484538E+02 0.  0.
         22    1    3    3    0    0 -0.25547309029E+02  0.23673805708E+02  0.51733757559E+02  0.62365821942E+02  0.00000000000E+00 0. -1.
         22    1    4    4    0    0  0.40464850712E+01 -0.64549449156E+01 -0.82122516750E+01  0.11201849529E+02  0.00000000000E+00 0. -1.
         22    1    4    4    0    0  0.21500823958E+02 -0.17218860793E+02  0.13222535913E+00  0.27546180886E+02  0.00000000000E+00 0. -1.
<mgrwt>
<rscale>  0 0.91205060E+02</rscale>
<asrwt>0</asrwt>
<pdfrwt beam="1">  1        2 0.11135968E-01 0.91205060E+02</pdfrwt>
<pdfrwt beam="2">  1       -2 0.44200094E-02 0.91205060E+02</pdfrwt>
<totfact> 0.11155800E+05</totfact>
</mgrwt>
</event>
<event>
 6    1  0.3891761E-009  0.1684017E+03  0.7818608E-02  0.1179525E+00
         -2   -1    0    0    0  501 -0.00000000000E+00  0.00000000000E+00  0.17661850005E+02  0.17661850189E+02  0.25500000000E-02 0.  1.
          2   -1    0    0  501    0  0.00000000000E+00 -0.00000000000E+00 -0.40141807060E+03  0.40141807061E+03  0.25500000000E-02 0. -1.
    9000005    2    1    2    0    0 -0.22468617510E+01 -0.83125954352E+02 -0.16011332373E+03  0.18047749417E+03  0.45691127553E+01 0.  0.
         22    1    1    2    0    0  0.22468617510E+01  0.83125954352E+02 -0.22364289687E+03  0.23860242663E+03  0.00000000000E+00 0. -1.
         22    1    3    3    0    0 -0.58896234245E+00 -0.39809135755E+02 -0.71830910046E+02  0.82126693615E+02  0.00000000000E+00 0.  1.
         22    1    3    3    0    0 -0.16578994086E+01 -0.43316818597E+02 -0.88282413687E+02  0.98350800557E+02  0.00000000000E+00 0.  1.
<mgrwt>
<rscale>  0 0.16840173E+03</rscale>
<asrwt>0</asrwt>
<pdfrwt beam="2">  1        2 0.61756619E-01 0.16840173E+03</pdfrwt>
<pdfrwt beam="1">  1       -2 0.27172080E-02 0.16840173E+03</pdfrwt>
<totfact> 0.37041670E+04</totfact>
</mgrwt>
</event>
<event>
 7    1  0.3891761E-009  0.1020151E+03  0.7818608E-02  0.1276115E+00
          2   -1    0    0  501    0  0.00000000000E+00  0.00000000000E+00  0.21371474071E+03  0.21371474072E+03  0.25500000000E-02 0. -1.
         -2   -1    0    0    0  501 -0.00000000000E+00 -0.00000000000E+00 -0.12174025425E+02  0.12174025692E+02  0.25500000000E-02 0.  1.
         23    2    1    2    0    0  0.00000000000E+00  0.00000000000E+00  0.20154071528E+03  0.22588876642E+03  0.10201507181E+03 0.  0.
    9000005    2    3    3    0    0 -0.16797141620E+01 -0.22896954943E+02  0.20114773699E+03  0.20292691942E+03  0.13850290518E+02 0.  0.
         22    1    3    3    0    0  0.16797141620E+01  0.22896954943E+02  0.39297829795E+00  0.22961846992E+02  0.00000000000E+00 0.  1.
         22    1    4    4    0    0 -0.15177954112E+01 -0.10593599152E+02  0.43397860353E+02  0.44697900724E+02  0.00000000000E+00 0. -1.
         22    1    4    4    0    0 -0.16191875079E+00 -0.12303355790E+02  0.15774987663E+03  0.15822901870E+03  0.00000000000E+00 0. -1.
<mgrwt>
<rscale>  0 0.10201507E+03</rscale>
<asrwt>0</asrwt>
<pdfrwt beam="1">  1        2 0.32879188E-01 0.10201507E+03</pdfrwt>
<pdfrwt beam="2">  1       -2 0.18729272E-02 0.10201507E+03</pdfrwt>
<totfact> 0.11690547E+05</totfact>
</mgrwt>
</event>
<event>
 7    1  0.3891761E-009  0.8945925E+02  0.7818608E-02  0.1304167E+00
         -2   -1    0    0    0  501 -0.00000000000E+00  0.00000000000E+00  0.42222720134E+02  0.42222720211E+02  0.25500000000E-02 0. -1.
          2   -1    0    0  501    0  0.00000000000E+00 -0.00000000000E+00 -0.47385375580E+02  0.47385375649E+02  0.25500000000E-02 0.  1.
         23    2    1    2    0    0  0.00000000000E+00  0.00000000000E+00 -0.51626554461E+01  0.89608095860E+02  0.89459252358E+02 0.  0.
    9000005    2    3    3    0    0 -0.43012418712E+02  0.65650608007E+01  0.38240899350E+01  0.45179166328E+02  0.11548386011E+02 0.  0.
         22    1    3    3    0    0  0.43012418712E+02 -0.65650608007E+01 -0.89867453811E+01  0.44428929532E+02  0.00000000000E+00 0. -1.
         22    1    4    4    0    0 -0.20779219451E+02  0.65213526002E+01 -0.28538018919E+01  0.21964703185E+02  0.00000000000E+00 0. -1.
         22    1    4    4    0    0 -0.22233199261E+02  0.43708200491E-01  0.66778918269E+01  0.23214463143E+02  0.00000000000E+00 0. -1.
<mgrwt>
<rscale>  0 0.89459252E+02</rscale>
<asrwt>0</asrwt>
<pdfrwt beam="2">  1        2 0.72900578E-02 0.89459252E+02</pdfrwt>
<pdfrwt beam="1">  1       -2 0.64958031E-02 0.89459252E+02</pdfrwt>
<totfact> 0.10523145E+05</totfact>
</mgrwt>
</event>
<event>
 7    1  0.3891761E-009  0.9064917E+02  0.7818608E-02  0.1301287E+00
         -2   -1    0    0    0  501 -0.00000000000E+00  0.00000000000E+00  0.45747493836E+02  0.45747493907E+02  0.25500000000E-02 0.  1.
          2   -1    0    0  501    0  0.00000000000E+00 -0.00000000000E+00 -0.44905588903E+02  0.44905588975E+02  0.25500000000E-02 0. -1.
         23    2    1    2    0    0  0.00000000000E+00  0.55511151231E-16  0.84190493318E+00  0.90653082882E+02  0.90649173367E+02 0.  0.
    9000005    2    3    3    0    0 -0.18961360529E+02  0.13474976466E+00 -0.39555911082E+02  0.46026466504E+02  0.13936074293E+02 0.  0.
         22    1    3    3    0    0  0.18961360529E+02 -0.13474976466E+00  0.40397816015E+02  0.44626616378E+02  0.00000000000E+00 0.  1.
         22    1    4    4    0    0 -0.13425112710E+02  0.68890393994E+00 -0.12340659471E+02  0.18248290772E+02  0.00000000000E+00 0. -1.
         22    1    4    4    0    0 -0.55362478191E+01 -0.55415417528E+00 -0.27215251610E+02  0.27778175732E+02  0.00000000000E+00 0. -1.
<mgrwt>
<rscale>  0 0.90649173E+02</rscale>
<asrwt>0</asrwt>
<pdfrwt beam="2">  1        2 0.69085522E-02 0.90649173E+02</pdfrwt>
<pdfrwt beam="1">  1       -2 0.70380760E-02 0.90649173E+02</pdfrwt>
<totfact> 0.99939812E+04</totfact>
</mgrwt>
</event>
<event>
 7    1  0.3891761E-009  0.9060480E+02  0.7818608E-02  0.1301394E+00
          2   -1    0    0  501    0  0.00000000000E+00  0.00000000000E+00  0.11931003269E+02  0.11931003542E+02  0.25500000000E-02 0. -1.
         -2   -1    0    0    0  501 -0.00000000000E+00 -0.00000000000E+00 -0.17201465841E+03  0.17201465843E+03  0.25500000000E-02 0.  1.
         23    2    1    2    0    0  0.00000000000E+00  0.35527136788E-14 -0.16008365514E+03  0.18394566197E+03  0.90604800725E+02 0.  0.
    9000005    2    3    3    0    0 -0.16400993554E+02 -0.21063867654E+02 -0.74194380930E+01  0.28964881624E+02  0.84402130148E+01 0.  0.
         22    1    3    3    0    0  0.16400993554E+02  0.21063867654E+02 -0.15266421704E+03  0.15498078034E+03  0.00000000000E+00 0.  1.
         22    1    4    4    0    0 -0.16654758411E+02 -0.19927020019E+02 -0.85498983974E+01  0.27341687351E+02  0.00000000000E+00 0. -1.
         22    1    4    4    0    0  0.25376485699E+00 -0.11368476354E+01  0.11304603043E+01  0.16231942732E+01  0.00000000000E+00 0. -1.
<mgrwt>
<rscale>  0 0.90604801E+02</rscale>
<asrwt>0</asrwt>
<pdfrwt beam="1">  1        2 0.18355391E-02 0.90604801E+02</pdfrwt>
<pdfrwt beam="2">  1       -2 0.26463792E-01 0.90604801E+02</pdfrwt>
<totfact> 0.67395449E+04</totfact>
</mgrwt>
</event>
<event>
 7    1  0.3891761E-009  0.9103586E+02  0.7818608E-02  0.1300362E+00
         -2   -1    0    0    0  501 -0.00000000000E+00  0.00000000000E+00  0.26915413214E+02  0.26915413335E+02  0.25500000000E-02 0. -1.
          2   -1    0    0  501    0  0.00000000000E+00 -0.00000000000E+00 -0.76977534584E+02  0.76977534626E+02  0.25500000000E-02 0.  1.
         23    2    1    2    0    0  0.00000000000E+00  0.00000000000E+00 -0.50062121369E+02  0.10389294796E+03  0.91035864581E+02 0.  0.
    9000005    2    3    3    0    0  0.33479489549E+02  0.29495172599E+02 -0.19059916821E+02  0.49560838542E+02  0.10107168774E+02 0.  0.
         22    1    3    3    0    0 -0.33479489549E+02 -0.29495172599E+02 -0.31002204548E+02  0.54332109419E+02  0.00000000000E+00 0. -1.
         22    1    4    4    0    0  0.23139289714E+02  0.14286353441E+02 -0.13414749799E+02  0.30322963828E+02  0.00000000000E+00 0.  1.
         22    1    4    4    0    0  0.10340199835E+02  0.15208819158E+02 -0.56451670222E+01  0.19237874714E+02  0.00000000000E+00 0.  1.
<mgrwt>
<rscale>  0 0.91035865E+02</rscale>
<asrwt>0</asrwt>
<pdfrwt beam="2">  1        2 0.11842698E-01 0.91035865E+02</pdfrwt>
<pdfrwt beam="1">  1       -2 0.41408328E-02 0.91035865E+02</pdfrwt>
<totfact> 0.11409448E+05</totfact>
</mgrwt>
</event>
<event>
 7    1  0.3891761E-009  0.8467699E+02  0.7818608E-02  0.1316279E+00
         -2   -1    0    0    0  501 -0.00000000000E+00  0.00000000000E+00  0.24712201666E+02  0.24712201798E+02  0.25500000000E-02 0.  1.
          2   -1    0    0  501    0  0.00000000000E+00 -0.00000000000E+00 -0.72536974378E+02  0.72536974423E+02  0.25500000000E-02 0. -1.
         23    2    1    2    0    0  0.00000000000E+00  0.00000000000E+00 -0.47824772712E+02  0.97249176220E+02  0.84676994459E+02 0.  0.
    9000005    2    3    3    0    0 -0.40301364998E+01 -0.39431092782E+02 -0.79329078855E+01  0.41013831840E+02  0.69390414658E+01 0.  0.
         22    1    3    3    0    0  0.40301364998E+01  0.39431092782E+02 -0.39891864826E+02  0.56235344380E+02  0.00000000000E+00 0. -1.
         22    1    4    4    0    0 -0.28944931909E+01 -0.32032096608E+02 -0.91293185760E+01  0.33433183540E+02  0.00000000000E+00 0. -1.
         22    1    4    4    0    0 -0.11356433089E+01 -0.73989961741E+01  0.11964106905E+01  0.75806483001E+01  0.00000000000E+00 0. -1.
<mgrwt>
<rscale>  0 0.84676994E+02</rscale>
<asrwt>0</asrwt>
<pdfrwt beam="2">  1        2 0.11159534E-01 0.84676994E+02</pdfrwt>
<pdfrwt beam="1">  1       -2 0.38018772E-02 0.84676994E+02</pdfrwt>
<totfact> 0.13715524E+05</totfact>
</mgrwt>
</event>
<event>
 7    1  0.3891761E-009  0.8926316E+02  0.7818608E-02  0.1304646E+00
          2   -1    0    0  501    0  0.00000000000E+00  0.00000000000E+00  0.25760206839E+03  0.25760206840E+03  0.25500000000E-02 0. -1.
         -2   -1    0    0    0  501 -0.00000000000E+00 -0.00000000000E+00 -0.77327708336E+01  0.77327712541E+01  0.25500000000E-02 0.  1.
         23    2    1    2    0    0  0.00000000000E+00  0.00000000000E+00  0.24986929756E+03  0.26533483966E+03  0.89263157430E+02 0.  0.
    9000005    2    3    3    0    0  0.17289887008E+01  0.40021729749E+02  0.79188163493E+02  0.90015765454E+02  0.15077948763E+02 0.  0.
         22    1    3    3    0    0 -0.17289887008E+01 -0.40021729749E+02  0.17068113406E+03  0.17531907420E+03  0.00000000000E+00 0.  1.
         22    1    4    4    0    0  0.43441179058E+01  0.36091747807E+02  0.59138796299E+02  0.69418173758E+02  0.00000000000E+00 0. -1.
         22    1    4    4    0    0 -0.26151292050E+01  0.39299819418E+01  0.20049367194E+02  0.20597591696E+02  0.00000000000E+00 0. -1.
<mgrwt>
<rscale>  0 0.89263157E+02</rscale>
<asrwt>0</asrwt>
<pdfrwt beam="1">  1        2 0.39631092E-01 0.89263157E+02</pdfrwt>
<pdfrwt beam="2">  1       -2 0.11896570E-02 0.89263157E+02</pdfrwt>
<totfact> 0.17963121E+05</totfact>
</mgrwt>
</event>
<event>
 7    1  0.3891761E-009  0.1043592E+03  0.7818608E-02  0.1271387E+00
         -2   -1    0    0    0  501 -0.00000000000E+00  0.00000000000E+00  0.41916461258E+01  0.41916469015E+01  0.25500000000E-02 0.  1.
          2   -1    0    0  501    0  0.00000000000E+00 -0.00000000000E+00 -0.64955636713E+03  0.64955636714E+03  0.25500000000E-02 0. -1.
         23    2    1    2    0    0  0.00000000000E+00  0.00000000000E+00 -0.64536472101E+03  0.65374801404E+03  0.10435920055E+03 0.  0.
    9000005    2    3    3    0    0 -0.47402878113E+02  0.16065034318E+02 -0.40336758762E+03  0.40662915449E+03  0.11693603026E+02 0.  0.
         22    1    3    3    0    0  0.47402878113E+02 -0.16065034318E+02 -0.24199713338E+03  0.24711885955E+03  0.00000000000E+00 0.  1.
         22    1    4    4    0    0 -0.24859290203E+02  0.22573442704E+01 -0.19441066016E+03  0.19600659350E+03  0.00000000000E+00 0. -1.
         22    1    4    4    0    0 -0.22543587910E+02  0.13807690048E+02 -0.20895692746E+03  0.21062256098E+03  0.00000000000E+00 0. -1.
<mgrwt>
<rscale>  0 0.10435920E+03</rscale>
<asrwt>0</asrwt>
<pdfrwt beam="2">  1        2 0.99931669E-01 0.10435920E+03</pdfrwt>
<pdfrwt beam="1">  1       -2 0.64486921E-03 0.10435920E+03</pdfrwt>
<totfact> 0.16260798E+05</totfact>
</mgrwt>
</event>
<event>
 7    1  0.3891761E-009  0.8962505E+02  0.7818608E-02  0.1303762E+00
          2   -1    0    0  501    0  0.00000000000E+00  0.00000000000E+00  0.17874807787E+02  0.17874807969E+02  0.25500000000E-02 0.  1.
         -2   -1    0    0    0  501 -0.00000000000E+00 -0.00000000000E+00 -0.11234596382E+03  0.11234596385E+03  0.25500000000E-02 0. -1.
         23    2    1    2    0    0  0.17763568394E-14  0.71054273576E-14 -0.94471156032E+02  0.13022077182E+03  0.89625052806E+02 0.  0.
    9000005    2    3    3    0    0 -0.14851982566E+02 -0.41655435219E+02 -0.50228877020E+02  0.67665708700E+02  0.99975685894E+01 0.  0.
         22    1    3    3    0    0  0.14851982566E+02  0.41655435219E+02 -0.44242279011E+02  0.62555063117E+02  0.00000000000E+00 0.  1.
         22    1    4    4    0    0 -0.69930837500E+01 -0.16962278312E+02 -0.28257499513E+02  0.33691369586E+02  0.00000000000E+00 0. -1.
         22    1    4    4    0    0 -0.78588988156E+01 -0.24693156907E+02 -0.21971377507E+02  0.33974339114E+02  0.00000000000E+00 0. -1.
<mgrwt>
<rscale>  0 0.89625053E+02</rscale>
<asrwt>0</asrwt>
<pdfrwt beam="1">  1        2 0.27499705E-02 0.89625053E+02</pdfrwt>
<pdfrwt beam="2">  1       -2 0.17283994E-01 0.89625053E+02</pdfrwt>
<totfact> 0.80393439E+04</totfact>
</mgrwt>
</event>
<event>
 7    1  0.3891761E-009  0.9231225E+02  0.7818608E-02  0.1297347E+00
          2   -1    0    0  501    0  0.00000000000E+00  0.00000000000E+00  0.26550908916E+03  0.26550908917E+03  0.25500000000E-02 0. -1.
         -2   -1    0    0    0  501 -0.00000000000E+00 -0.00000000000E+00 -0.80237854232E+01  0.80237858284E+01  0.25500000000E-02 0.  1.
         23    2    1    2    0    0  0.00000000000E+00  0.00000000000E+00  0.25748530374E+03  0.27353287500E+03  0.92312253064E+02 0.  0.
    9000005    2    3    3    0    0 -0.16998817247E+02 -0.40260126287E+02  0.99083701639E+02  0.10921335363E+03  0.14147053551E+02 0.  0.
         22    1    3    3    0    0  0.16998817247E+02  0.40260126287E+02  0.15840160210E+03  0.16431952137E+03  0.00000000000E+00 0. -1.
         22    1    4    4    0    0 -0.44720534458E+01 -0.27980877800E+02  0.58523773885E+02  0.65022772121E+02  0.00000000000E+00 0.  1.
         22    1    4    4    0    0 -0.12526763801E+02 -0.12279248486E+02  0.40559927754E+02  0.44190581509E+02  0.00000000000E+00 0.  1.
<mgrwt>
<rscale>  0 0.92312253E+02</rscale>
<asrwt>0</asrwt>
<pdfrwt beam="1">  1        2 0.40847559E-01 0.92312253E+02</pdfrwt>
<pdfrwt beam="2">  1       -2 0.12344284E-02 0.92312253E+02</pdfrwt>
<totfact> 0.16606219E+05</totfact>
</mgrwt>
</event>
<event>
 7    1  0.3891761E-009  0.9047291E+02  0.7818608E-02  0.1301711E+00
         -2   -1    0    0    0  501 -0.00000000000E+00  0.00000000000E+00  0.48454659342E+01  0.48454666052E+01  0.25500000000E-02 0. -1.
          2   -1    0    0  501    0  0.00000000000E+00 -0.00000000000E+00 -0.42231989598E+03  0.42231989598E+03  0.25500000000E-02 0.  1.
         23    2    1    2    0    0  0.00000000000E+00  0.00000000000E+00 -0.41747443004E+03  0.42716536259E+03  0.90472908967E+02 0.  0.
    9000005    2    3    3    0    0  0.34885774305E+02  0.62794887104E+01 -0.33931937627E+03  0.34134775567E+03  0.11144593330E+02 0.  0.
         22    1    3    3    0    0 -0.34885774305E+02 -0.62794887104E+01 -0.78155053767E+02  0.85817606915E+02  0.00000000000E+00 0. -1.
         22    1    4    4    0    0  0.32213558806E+02  0.52036178980E+01 -0.26939499581E+03  0.27136406316E+03  0.00000000000E+00 0. -1.
         22    1    4    4    0    0  0.26722154990E+01  0.10758708124E+01 -0.69924380465E+02  0.69983692509E+02  0.00000000000E+00 0. -1.
<mgrwt>
<rscale>  0 0.90472909E+02</rscale>
<asrwt>0</asrwt>
<pdfrwt beam="2">  1        2 0.64972263E-01 0.90472909E+02</pdfrwt>
<pdfrwt beam="1">  1       -2 0.74545668E-03 0.90472909E+02</pdfrwt>
<totfact> 0.20772910E+05</totfact>
</mgrwt>
</event>
<event>
 7    1  0.3891761E-009  0.9821572E+02  0.7818608E-02  0.1284093E+00
          2   -1    0    0  501    0  0.00000000000E+00  0.00000000000E+00  0.11403408494E+04  0.11403408494E+04  0.25500000000E-02 0.  1.
         -2   -1    0    0    0  501 -0.00000000000E+00 -0.00000000000E+00 -0.21147898315E+01  0.21147913688E+01  0.25500000000E-02 0. -1.
         23    2    1    2    0    0  0.00000000000E+00 -0.35527136788E-14  0.11382260596E+04  0.11424556408E+04  0.98215724047E+02 0.  0.
    9000005    2    3    3    0    0  0.21506072865E+02  0.18593408826E+02  0.10326654068E+04  0.10331337426E+04  0.12619886365E+02 0.  0.
         22    1    3    3    0    0 -0.21506072865E+02 -0.18593408826E+02  0.10556065273E+03  0.10932189821E+03  0.00000000000E+00 0. -1.
         22    1    4    4    0    0  0.69300287249E+01  0.20307616407E+01  0.43737981001E+03  0.43743942152E+03  0.00000000000E+00 0.  1.
         22    1    4    4    0    0  0.14576044140E+02  0.16562647185E+02  0.59528559681E+03  0.59569432103E+03  0.00000000000E+00 0.  1.
<mgrwt>
<rscale>  0 0.98215724E+02</rscale>
<asrwt>0</asrwt>
<pdfrwt beam="1">  1        2 0.17543790E+00 0.98215724E+02</pdfrwt>
<pdfrwt beam="2">  1       -2 0.32535083E-03 0.98215724E+02</pdfrwt>
<totfact> 0.20521656E+05</totfact>
</mgrwt>
</event>
<event>
 7    1  0.3891761E-009  0.1017236E+03  0.7818608E-02  0.1276713E+00
         -2   -1    0    0    0  501 -0.00000000000E+00  0.00000000000E+00  0.17170540923E+02  0.17170541112E+02  0.25500000000E-02 0.  1.
          2   -1    0    0  501    0  0.00000000000E+00 -0.00000000000E+00 -0.15066044740E+03  0.15066044742E+03  0.25500000000E-02 0. -1.
         23    2    1    2    0    0  0.00000000000E+00 -0.71054273576E-14 -0.13348990648E+03  0.16783098854E+03  0.10172357436E+03 0.  0.
    9000005    2    3    3    0    0  0.20754578485E+02  0.45230331544E+02 -0.74228048921E+02  0.90445568844E+02  0.13930623001E+02 0.  0.
         22    1    3    3    0    0 -0.20754578485E+02 -0.45230331544E+02 -0.59261857557E+02  0.77385419691E+02  0.00000000000E+00 0. -1.
         22    1    4    4    0    0  0.14745824509E+02  0.18018158853E+02 -0.40272945151E+02  0.46518851018E+02  0.00000000000E+00 0.  1.
         22    1    4    4    0    0  0.60087539757E+01  0.27212172691E+02 -0.33955103770E+02  0.43926717826E+02  0.00000000000E+00 0.  1.
<mgrwt>
<rscale>  0 0.10172357E+03</rscale>
<asrwt>0</asrwt>
<pdfrwt beam="2">  1        2 0.23178529E-01 0.10172357E+03</pdfrwt>
<pdfrwt beam="1">  1       -2 0.26416218E-02 0.10172357E+03</pdfrwt>
<totfact> 0.10379562E+05</totfact>
</mgrwt>
</event>
<event>
 7    1  0.3891761E-009  0.8676522E+02  0.7818608E-02  0.1310880E+00
         -2   -1    0    0    0  501 -0.00000000000E+00  0.00000000000E+00  0.26691283999E+02  0.26691284121E+02  0.25500000000E-02 0.  1.
          2   -1    0    0  501    0  0.00000000000E+00 -0.00000000000E+00 -0.70511812594E+02  0.70511812640E+02  0.25500000000E-02 0. -1.
         23    2    1    2    0    0  0.00000000000E+00  0.00000000000E+00 -0.43820528595E+02  0.97203096761E+02  0.86765219377E+02 0.  0.
    9000005    2    3    3    0    0 -0.29673188841E+02  0.22147089880E+02 -0.45983988526E+02  0.60113040344E+02  0.11316302067E+02 0.  0.
         22    1    3    3    0    0  0.29673188841E+02 -0.22147089880E+02  0.21634599315E+01  0.37090056417E+02  0.00000000000E+00 0.  1.
         22    1    4    4    0    0 -0.17920284678E+02  0.15160755363E+02 -0.20374339822E+02  0.31082130385E+02  0.00000000000E+00 0. -1.
         22    1    4    4    0    0 -0.11752904163E+02  0.69863345165E+01 -0.25609648705E+02  0.29030909959E+02  0.00000000000E+00 0. -1.
<mgrwt>
<rscale>  0 0.86765219E+02</rscale>
<asrwt>0</asrwt>
<pdfrwt beam="2">  1        2 0.10847971E-01 0.86765219E+02</pdfrwt>
<pdfrwt beam="1">  1       -2 0.41063514E-02 0.86765219E+02</pdfrwt>
<totfact> 0.12724639E+05</totfact>
</mgrwt>
</event>
<event>
 7    1  0.3891761E-009  0.9537173E+02  0.7818608E-02  0.1290341E+00
          2   -1    0    0  501    0  0.00000000000E+00  0.00000000000E+00  0.19983264062E+02  0.19983264225E+02  0.25500000000E-02 0. -1.
         -2   -1    0    0    0  501 -0.00000000000E+00 -0.00000000000E+00 -0.11379229593E+03  0.11379229596E+03  0.25500000000E-02 0.  1.
         23    2    1    2    0    0  0.00000000000E+00  0.00000000000E+00 -0.93809031869E+02  0.13377556018E+03  0.95371725592E+02 0.  0.
    9000005    2    3    3    0    0  0.80344799685E+01  0.21586041739E+02 -0.10500077603E+03  0.10816764727E+03  0.12023596876E+02 0.  0.
         22    1    3    3    0    0 -0.80344799685E+01 -0.21586041739E+02  0.11191744166E+02  0.25607912914E+02  0.00000000000E+00 0. -1.
         22    1    4    4    0    0 -0.50461637557E+00  0.13766816517E+02 -0.45058117566E+02  0.47117022755E+02  0.00000000000E+00 0. -1.
         22    1    4    4    0    0  0.85390963441E+01  0.78192252218E+01 -0.59942658469E+02  0.61050624516E+02  0.00000000000E+00 0. -1.
<mgrwt>
<rscale>  0 0.95371726E+02</rscale>
<asrwt>0</asrwt>
<pdfrwt beam="1">  1        2 0.30743484E-02 0.95371726E+02</pdfrwt>
<pdfrwt beam="2">  1       -2 0.17506507E-01 0.95371726E+02</pdfrwt>
<totfact> 0.68531936E+04</totfact>
</mgrwt>
</event>
<event>
 7    1  0.3891761E-009  0.9164699E+02  0.7818608E-02  0.1298912E+00
         -2   -1    0    0    0  501 -0.00000000000E+00  0.00000000000E+00  0.64064783434E+01  0.64064788509E+01  0.25500000000E-02 0.  1.
          2   -1    0    0  501    0  0.00000000000E+00 -0.00000000000E+00 -0.32776080246E+03  0.32776080247E+03  0.25500000000E-02 0. -1.
         23    2    1    2    0    0  0.00000000000E+00  0.00000000000E+00 -0.32135432412E+03  0.33416728132E+03  0.91646987277E+02 0.  0.
    9000005    2    3    3    0    0  0.29399366216E+02  0.10882844835E+02 -0.28162773518E+03  0.28356134378E+03  0.10492636433E+02 0.  0.
         22    1    3    3    0    0 -0.29399366216E+02 -0.10882844835E+02 -0.39726588938E+02  0.50605937540E+02  0.00000000000E+00 0.  1.
         22    1    4    4    0    0  0.34429155799E+01  0.52979282773E+01 -0.67116337796E+02  0.67413088572E+02  0.00000000000E+00 0. -1.
         22    1    4    4    0    0  0.25956450637E+02  0.55849165580E+01 -0.21451139738E+03  0.21614825521E+03  0.00000000000E+00 0. -1.
<mgrwt>
<rscale>  0 0.91646987E+02</rscale>
<asrwt>0</asrwt>
<pdfrwt beam="2">  1        2 0.50424726E-01 0.91646987E+02</pdfrwt>
<pdfrwt beam="1">  1       -2 0.98561235E-03 0.91646987E+02</pdfrwt>
<totfact> 0.18313043E+05</totfact>
</mgrwt>
</event>
<event>
 7    1  0.3891761E-009  0.8898448E+02  0.7818608E-02  0.1305330E+00
         -2   -1    0    0    0  501 -0.00000000000E+00  0.00000000000E+00  0.17895871425E+01  0.17895889592E+01  0.25500000000E-02 0.  1.
          2   -1    0    0  501    0  0.00000000000E+00 -0.00000000000E+00 -0.11061537153E+04  0.11061537153E+04  0.25500000000E-02 0. -1.
         23    2    1    2    0    0 -0.88817841970E-15  0.17763568394E-14 -0.11043641281E+04  0.11079433042E+04  0.88984481220E+02 0.  0.
    9000005    2    3    3    0    0  0.53980075535E+01 -0.14760748822E+02 -0.10699838090E+04  0.10701408634E+04  0.94391608387E+01 0.  0.
         22    1    3    3    0    0 -0.53980075535E+01  0.14760748822E+02 -0.34380319140E+02  0.37802440867E+02  0.00000000000E+00 0.  1.
         22    1    4    4    0    0 -0.10044976187E+01  0.74352913142E+00 -0.37539325702E+02  0.37560122806E+02  0.00000000000E+00 0.  1.
         22    1    4    4    0    0  0.64025051722E+01 -0.15504277953E+02 -0.10324444833E+04  0.10325807405E+04  0.00000000000E+00 0.  1.
<mgrwt>
<rscale>  0 0.88984481E+02</rscale>
<asrwt>0</asrwt>
<pdfrwt beam="2">  1        2 0.17017695E+00 0.88984481E+02</pdfrwt>
<pdfrwt beam="1">  1       -2 0.27532212E-03 0.88984481E+02</pdfrwt>
<totfact> 0.26667686E+05</totfact>
</mgrwt>
</event>
<event>
 7    1  0.5436911E-009  0.1191414E+03  0.7818608E-02  0.1244520E+00
          2   -1    0    0  501    0  0.00000000000E+00  0.00000000000E+00  0.27611002084E+03  0.27611002085E+03  0.25500000000E-02 0. -1.
         -2   -1    0    0    0  501 -0.00000000000E+00 -0.00000000000E+00 -0.12852365707E+02  0.12852365960E+02  0.25500000000E-02 0.  1.
         23    2    1    2    0    0  0.00000000000E+00  0.00000000000E+00  0.26325765513E+03  0.28896238681E+03  0.11914137823E+03 0.  0.
    9000005    2    3    3    0    0 -0.33061492663E+02  0.24684884578E+02  0.23462121339E+03  0.23873837244E+03  0.15700028000E+02 0.  0.
         22    1    3    3    0    0  0.33061492663E+02 -0.24684884578E+02  0.28636441739E+02  0.50224014368E+02  0.00000000000E+00 0.  1.
         22    1    4    4    0    0 -0.34053584209E+02  0.25054948324E+02  0.21668259351E+03  0.22076852893E+03  0.00000000000E+00 0.  1.
         22    1    4    4    0    0  0.99209154625E+00 -0.37006374549E+00  0.17938619879E+02  0.17969843516E+02  0.00000000000E+00 0.  1.
<mgrwt>
<rscale>  0 0.11914138E+03</rscale>
<asrwt>0</asrwt>
<pdfrwt beam="1">  1        2 0.42478458E-01 0.11914138E+03</pdfrwt>
<pdfrwt beam="2">  1       -2 0.19772874E-02 0.11914138E+03</pdfrwt>
<totfact> 0.84250602E+04</totfact>
</mgrwt>
</event>
<event>
 7    1  0.4767456E-009  0.9973043E+02  0.7818608E-02  0.1280864E+00
         -2   -1    0    0    0  501 -0.00000000000E+00  0.00000000000E+00  0.11323897651E+01  0.11323926362E+01  0.25500000000E-02 0.  1.
          2   -1    0    0  501    0  0.00000000000E+00 -0.00000000000E+00 -0.21958309934E+04  0.21958309934E+04  0.25500000000E-02 0. -1.
         23    2    1    2    0    0 -0.35527136788E-14 -0.17763568394E-14 -0.21946986037E+04  0.21969633861E+04  0.99730430628E+02 0.  0.
    9000005    2    3    3    0    0 -0.17680187906E+02 -0.14472111220E+02 -0.20707293125E+04  0.20709061919E+04  0.14509961609E+02 0.  0.
         22    1    3    3    0    0  0.17680187906E+02  0.14472111220E+02 -0.12396929115E+03  0.12605719414E+03  0.00000000000E+00 0.  1.
         22    1    4    4    0    0  0.15670693552E+01  0.11458683026E+01 -0.25985617935E+03  0.25986343080E+03  0.00000000000E+00 0. -1.
         22    1    4    4    0    0 -0.19247257261E+02 -0.15617979523E+02 -0.18108731332E+04  0.18110427611E+04  0.00000000000E+00 0. -1.
<mgrwt>
<rscale>  0 0.99730431E+02</rscale>
<asrwt>0</asrwt>
<pdfrwt beam="2">  1        2 0.33781675E+00 0.99730431E+02</pdfrwt>
<pdfrwt beam="1">  1       -2 0.17421579E-03 0.99730431E+02</pdfrwt>
<totfact> 0.14048840E+05</totfact>
</mgrwt>
</event>
<event>
 7    1  0.3891761E-009  0.8702620E+02  0.7818608E-02  0.1310217E+00
         -2   -1    0    0    0  501 -0.00000000000E+00  0.00000000000E+00  0.76705365704E+02  0.76705365747E+02  0.25500000000E-02 0.  1.
          2   -1    0    0  501    0  0.00000000000E+00 -0.00000000000E+00 -0.24683928885E+02  0.24683929017E+02  0.25500000000E-02 0. -1.
         23    2    1    2    0    0  0.00000000000E+00  0.00000000000E+00  0.52021436819E+02  0.10138929476E+03  0.87026198376E+02 0.  0.
    9000005    2    3    3    0    0  0.55336877042E+01 -0.11656937850E+02 -0.21864467954E+02  0.26385076057E+02  0.71841060671E+01 0.  0.
         22    1    3    3    0    0 -0.55336877042E+01  0.11656937850E+02  0.73885904773E+02  0.75004218706E+02  0.00000000000E+00 0.  1.
         22    1    4    4    0    0 -0.48915983118E+00 -0.25481999752E+01 -0.96874765674E+01  0.10028948235E+02  0.00000000000E+00 0.  1.
         22    1    4    4    0    0  0.60228475354E+01 -0.91087378751E+01 -0.12176991386E+02  0.16356127822E+02  0.00000000000E+00 0.  1.
<mgrwt>
<rscale>  0 0.87026198E+02</rscale>
<asrwt>0</asrwt>
<pdfrwt beam="2">  1        2 0.37975275E-02 0.87026198E+02</pdfrwt>
<pdfrwt beam="1">  1       -2 0.11800826E-01 0.87026198E+02</pdfrwt>
<totfact> 0.96476731E+04</totfact>
</mgrwt>
</event>
<event>
 7    1  0.3891761E-009  0.9203767E+02  0.7818608E-02  0.1297991E+00
          2   -1    0    0  501    0  0.00000000000E+00  0.00000000000E+00  0.13350974799E+04  0.13350974799E+04  0.25500000000E-02 0. -1.
         -2   -1    0    0    0  501 -0.00000000000E+00 -0.00000000000E+00 -0.15862000099E+01  0.15862020596E+01  0.25500000000E-02 0.  1.
         23    2    1    2    0    0  0.00000000000E+00  0.00000000000E+00  0.13335112799E+04  0.13366836820E+04  0.92037666362E+02 0.  0.
    9000005    2    3    3    0    0  0.14517345696E+02  0.24274056620E+02  0.11938201235E+04  0.11941578866E+04  0.25666841162E+01 0.  0.
         22    1    3    3    0    0 -0.14517345696E+02 -0.24274056620E+02  0.13969115644E+03  0.14252579535E+03  0.00000000000E+00 0.  1.
         22    1    4    4    0    0  0.91813319033E+01  0.13473885512E+02  0.65156438024E+03  0.65176835152E+03  0.00000000000E+00 0. -1.
         22    1    4    4    0    0  0.53360137929E+01  0.10800171107E+02  0.54225574322E+03  0.54238953511E+03  0.00000000000E+00 0. -1.
<mgrwt>
<rscale>  0 0.92037666E+02</rscale>
<asrwt>0</asrwt>
<pdfrwt beam="1">  1        2 0.20539909E+00 0.92037666E+02</pdfrwt>
<pdfrwt beam="2">  1       -2 0.24403155E-03 0.92037666E+02</pdfrwt>
<totfact> 0.23835291E+05</totfact>
</mgrwt>
</event>
<event>
 7    1  0.3891761E-009  0.9141049E+02  0.7818608E-02  0.1299471E+00
         -2   -1    0    0    0  501 -0.00000000000E+00  0.00000000000E+00  0.57339790110E+02  0.57339790167E+02  0.25500000000E-02 0.  1.
          2   -1    0    0  501    0  0.00000000000E+00 -0.00000000000E+00 -0.36431410317E+02  0.36431410407E+02  0.25500000000E-02 0. -1.
         23    2    1    2    0    0 -0.35527136788E-14  0.00000000000E+00  0.20908379793E+02  0.93771200573E+02  0.91410490160E+02 0.  0.
    9000005    2    3    3    0    0 -0.20979695896E+02  0.21378235520E+02 -0.22770978215E+02  0.40808355957E+02  0.15799616236E+02 0.  0.
         22    1    3    3    0    0  0.20979695896E+02 -0.21378235520E+02  0.43679358008E+02  0.52962844616E+02  0.00000000000E+00 0.  1.
         22    1    4    4    0    0 -0.42675479006E+01  0.30091814420E+01 -0.13197758502E+02  0.14193236682E+02  0.00000000000E+00 0.  1.
         22    1    4    4    0    0 -0.16712147996E+02  0.18369054078E+02 -0.95732197132E+01  0.26615119275E+02  0.00000000000E+00 0.  1.
<mgrwt>
<rscale>  0 0.91410490E+02</rscale>
<asrwt>0</asrwt>
<pdfrwt beam="2">  1        2 0.56048324E-02 0.91410490E+02</pdfrwt>
<pdfrwt beam="1">  1       -2 0.88215062E-02 0.91410490E+02</pdfrwt>
<totfact> 0.92411658E+04</totfact>
</mgrwt>
</event>
<event>
 7    1  0.3891761E-009  0.8894166E+02  0.7818608E-02  0.1305435E+00
          2   -1    0    0  501    0  0.00000000000E+00  0.00000000000E+00  0.70500040441E+01  0.70500045053E+01  0.25500000000E-02 0.  1.
         -2   -1    0    0    0  501 -0.00000000000E+00 -0.00000000000E+00 -0.28051822811E+03  0.28051822812E+03  0.25500000000E-02 0. -1.
         23    2    1    2    0    0  0.00000000000E+00  0.00000000000E+00 -0.27346822406E+03  0.28756823262E+03  0.88941659768E+02 0.  0.
    9000005    2    3    3    0    0 -0.30142352001E+02 -0.19787266090E+02 -0.55680725823E+02  0.66816128052E+02  0.79971530071E+01 0.  0.
         22    1    3    3    0    0  0.30142352001E+02  0.19787266090E+02 -0.21778749824E+03  0.22075210457E+03  0.00000000000E+00 0.  1.
         22    1    4    4    0    0 -0.37070943775E+01 -0.60414657216E+01 -0.12109417715E+02  0.14031388177E+02  0.00000000000E+00 0. -1.
         22    1    4    4    0    0 -0.26435257623E+02 -0.13745800368E+02 -0.43571308108E+02  0.52784739875E+02  0.00000000000E+00 0. -1.
<mgrwt>
<rscale>  0 0.88941660E+02</rscale>
<asrwt>0</asrwt>
<pdfrwt beam="1">  1        2 0.10846163E-02 0.88941660E+02</pdfrwt>
<pdfrwt beam="2">  1       -2 0.43156642E-01 0.88941660E+02</pdfrwt>
<totfact> 0.56404991E+04</totfact>
</mgrwt>
</event>
<event>
 7    1  0.3891761E-009  0.9529909E+02  0.7818608E-02  0.1290504E+00
         -2   -1    0    0    0  501 -0.00000000000E+00  0.00000000000E+00  0.95675602928E+02  0.95675602962E+02  0.25500000000E-02 0.  1.
          2   -1    0    0  501    0  0.00000000000E+00 -0.00000000000E+00 -0.23731012264E+02  0.23731012401E+02  0.25500000000E-02 0. -1.
         23    2    1    2    0    0  0.35527136788E-14 -0.17763568394E-14  0.71944590664E+02  0.11940661536E+03  0.95299085339E+02 0.  0.
    9000005    2    3    3    0    0  0.30018126108E+02 -0.14995887412E+02  0.78232661115E+02  0.85267131414E+02  0.49162892669E+01 0.  0.
         22    1    3    3    0    0 -0.30018126108E+02  0.14995887412E+02 -0.62880704507E+01  0.34139483949E+02  0.00000000000E+00 0. -1.
         22    1    4    4    0    0  0.88586784089E+00 -0.12064521466E+01  0.19770436269E+01  0.24797157330E+01  0.00000000000E+00 0.  1.
         22    1    4    4    0    0  0.29132258267E+02 -0.13789435265E+02  0.76255617488E+02  0.82787415681E+02  0.00000000000E+00 0.  1.
<mgrwt>
<rscale>  0 0.95299085E+02</rscale>
<asrwt>0</asrwt>
<pdfrwt beam="2">  1        2 0.36509249E-02 0.95299085E+02</pdfrwt>
<pdfrwt beam="1">  1       -2 0.14719324E-01 0.95299085E+02</pdfrwt>
<totfact> 0.72448346E+04</totfact>
</mgrwt>
</event>
<event>
 7    1  0.3891761E-009  0.9197319E+02  0.7818608E-02  0.1298142E+00
         -2   -1    0    0    0  501 -0.00000000000E+00  0.00000000000E+00  0.69509328553E+02  0.69509328599E+02  0.25500000000E-02 0.  1.
          2   -1    0    0  501    0  0.00000000000E+00 -0.00000000000E+00 -0.30424218516E+02  0.30424218623E+02  0.25500000000E-02 0. -1.
         23    2    1    2    0    0  0.71054273576E-14 -0.44408920985E-15  0.39085110037E+02  0.99933547222E+02  0.91973191930E+02 0.  0.
    9000005    2    3    3    0    0  0.38540241976E+02 -0.29510721699E+01 -0.68928979755E+01  0.39866615394E+02  0.69120114240E+01 0.  0.
         22    1    3    3    0    0 -0.38540241976E+02  0.29510721699E+01  0.45978008012E+02  0.60066931828E+02  0.00000000000E+00 0.  1.
         22    1    4    4    0    0  0.25879229991E+01 -0.86712274794E+00 -0.22865347760E+01  0.35605461086E+01  0.00000000000E+00 0.  1.
         22    1    4    4    0    0  0.35952318977E+02 -0.20839494220E+01 -0.46063631995E+01  0.36306069285E+02  0.00000000000E+00 0.  1.
<mgrwt>
<rscale>  0 0.91973192E+02</rscale>
<asrwt>0</asrwt>
<pdfrwt beam="2">  1        2 0.46806490E-02 0.91973192E+02</pdfrwt>
<pdfrwt beam="1">  1       -2 0.10693743E-01 0.91973192E+02</pdfrwt>
<totfact> 0.86533879E+04</totfact>
</mgrwt>
</event>
<event>
 7    1  0.3891761E-009  0.9103328E+02  0.7818608E-02  0.1300369E+00
         -2   -1    0    0    0  501 -0.00000000000E+00  0.00000000000E+00  0.39456111620E+02  0.39456111703E+02  0.25500000000E-02 0.  1.
          2   -1    0    0  501    0  0.00000000000E+00 -0.00000000000E+00 -0.52508076146E+02  0.52508076207E+02  0.25500000000E-02 0. -1.
         23    2    1    2    0    0  0.00000000000E+00 -0.35527136788E-14 -0.13051964525E+02  0.91964187910E+02  0.91033280068E+02 0.  0.
    9000005    2    3    3    0    0 -0.19049862741E+02 -0.19668940223E+02 -0.43018999902E+02  0.51371236684E+02  0.62133023395E+01 0.  0.
         22    1    3    3    0    0  0.19049862741E+02  0.19668940223E+02  0.29967035377E+02  0.40592951226E+02  0.00000000000E+00 0.  1.
         22    1    4    4    0    0 -0.18128387643E+02 -0.16181846534E+02 -0.35351463544E+02  0.42897745518E+02  0.00000000000E+00 0.  1.
         22    1    4    4    0    0 -0.92147509790E+00 -0.34870936890E+01 -0.76675363581E+01  0.84734911668E+01  0.00000000000E+00 0.  1.
<mgrwt>
<rscale>  0 0.91033280E+02</rscale>
<asrwt>0</asrwt>
<pdfrwt beam="2">  1        2 0.80781656E-02 0.91033280E+02</pdfrwt>
<pdfrwt beam="1">  1       -2 0.60701710E-02 0.91033280E+02</pdfrwt>
<totfact> 0.10284239E+05</totfact>
</mgrwt>
</event>
<event>
 7    1  0.3891761E-009  0.8671711E+02  0.7818608E-02  0.1311002E+00
          2   -1    0    0  501    0  0.00000000000E+00  0.00000000000E+00  0.75906716129E+02  0.75906716172E+02  0.25500000000E-02 0. -1.
         -2   -1    0    0    0  501 -0.00000000000E+00 -0.00000000000E+00 -0.24766769207E+02  0.24766769338E+02  0.25500000000E-02 0.  1.
         23    2    1    2    0    0 -0.17763568394E-14  0.00000000000E+00  0.51139946922E+02  0.10067348551E+03  0.86717106234E+02 0.  0.
    9000005    2    3    3    0    0 -0.14917131783E+02  0.20075919637E+02  0.66666285929E+02  0.71234895652E+02  0.21102864766E+01 0.  0.
         22    1    3    3    0    0  0.14917131783E+02 -0.20075919637E+02 -0.15526339007E+02  0.29438589859E+02  0.00000000000E+00 0.  1.
         22    1    4    4    0    0 -0.57333065842E+01  0.60506530912E+01  0.22187670547E+02  0.23701770641E+02  0.00000000000E+00 0.  1.
         22    1    4    4    0    0 -0.91838251993E+01  0.14025266546E+02  0.44478615382E+02  0.47533125010E+02  0.00000000000E+00 0.  1.
<mgrwt>
<rscale>  0 0.86717106E+02</rscale>
<asrwt>0</asrwt>
<pdfrwt beam="1">  1        2 0.11677956E-01 0.86717106E+02</pdfrwt>
<pdfrwt beam="2">  1       -2 0.38102723E-02 0.86717106E+02</pdfrwt>
<totfact> 0.13003443E+05</totfact>
</mgrwt>
</event>
<event>
 7    1  0.3891761E-009  0.9049679E+02  0.7818608E-02  0.1301653E+00
          2   -1    0    0  501    0  0.00000000000E+00  0.00000000000E+00  0.98904043920E+01  0.98904047207E+01  0.25500000000E-02 0. -1.
         -2   -1    0    0    0  501 -0.00000000000E+00 -0.00000000000E+00 -0.20701045382E+03  0.20701045384E+03  0.25500000000E-02 0.  1.
         23    2    1    2    0    0  0.00000000000E+00  0.00000000000E+00 -0.19712004943E+03  0.21690085856E+03  0.90496787545E+02 0.  0.
    9000005    2    3    3    0    0  0.35810466306E+02 -0.26487273028E+02 -0.11426014753E+03  0.12282786311E+03  0.68802262564E+01 0.  0.
         22    1    3    3    0    0 -0.35810466306E+02  0.26487273028E+02 -0.82859901896E+02  0.94072995443E+02  0.00000000000E+00 0.  1.
         22    1    4    4    0    0  0.12211756456E+02 -0.12596725949E+02 -0.49456369493E+02  0.52476061055E+02  0.00000000000E+00 0. -1.
         22    1    4    4    0    0  0.23598709850E+02 -0.13890547079E+02 -0.64803778040E+02  0.70351802060E+02  0.00000000000E+00 0. -1.
<mgrwt>
<rscale>  0 0.90496788E+02</rscale>
<asrwt>0</asrwt>
<pdfrwt beam="1">  1        2 0.15216009E-02 0.90496788E+02</pdfrwt>
<pdfrwt beam="2">  1       -2 0.31847759E-01 0.90496788E+02</pdfrwt>
<totfact> 0.62571759E+04</totfact>
</mgrwt>
</event>
<event>
 7    1  0.3891761E-009  0.8561300E+02  0.7818608E-02  0.1313837E+00
         -2   -1    0    0    0  501 -0.00000000000E+00  0.00000000000E+00  0.10059427855E+02  0.10059428179E+02  0.25500000000E-02 0.  1.
          2   -1    0    0  501    0  0.00000000000E+00 -0.00000000000E+00 -0.18215713668E+03  0.18215713670E+03  0.25500000000E-02 0. -1.
         23    2    1    2    0    0  0.00000000000E+00 -0.35527136788E-14 -0.17209770882E+03  0.19221656487E+03  0.85613003861E+02 0.  0.
    9000005    2    3    3    0    0 -0.37178966929E+02  0.18634711785E+02 -0.74634561998E+02  0.86251509058E+02  0.11810034078E+02 0.  0.
         22    1    3    3    0    0  0.37178966929E+02 -0.18634711785E+02 -0.97463146825E+02  0.10596505582E+03  0.00000000000E+00 0. -1.
         22    1    4    4    0    0 -0.18057072407E+02  0.31986958271E+01 -0.37148784739E+02  0.41428513448E+02  0.00000000000E+00 0.  1.
         22    1    4    4    0    0 -0.19121894522E+02  0.15436015958E+02 -0.37485777259E+02  0.44822995610E+02  0.00000000000E+00 0.  1.
<mgrwt>
<rscale>  0 0.85613004E+02</rscale>
<asrwt>0</asrwt>
<pdfrwt beam="2">  1        2 0.28024172E-01 0.85613004E+02</pdfrwt>
<pdfrwt beam="1">  1       -2 0.15476045E-02 0.85613004E+02</pdfrwt>
<totfact> 0.17714964E+05</totfact>
</mgrwt>
</event>
<event>
 7    1  0.3891761E-009  0.8872711E+02  0.7818608E-02  0.1305964E+00
         -2   -1    0    0    0  501 -0.00000000000E+00  0.00000000000E+00  0.92806725826E+01  0.92806729329E+01  0.25500000000E-02 0.  1.
          2   -1    0    0  501    0  0.00000000000E+00 -0.00000000000E+00 -0.21206705862E+03  0.21206705863E+03  0.25500000000E-02 0. -1.
         23    2    1    2    0    0  0.00000000000E+00 -0.35527136788E-14 -0.20278638603E+03  0.22134773157E+03  0.88727109207E+02 0.  0.
    9000005    2    3    3    0    0  0.26702527155E+02 -0.28975517615E+02 -0.15026972481E+03  0.15569253159E+03  0.10323207874E+02 0.  0.
         22    1    3    3    0    0 -0.26702527155E+02  0.28975517615E+02 -0.52516661220E+02  0.65655199971E+02  0.00000000000E+00 0.  1.
         22    1    4    4    0    0  0.21157346991E+02 -0.15720655777E+02 -0.95930577498E+02  0.99485918847E+02  0.00000000000E+00 0. -1.
         22    1    4    4    0    0  0.55451801643E+01 -0.13254861838E+02 -0.54339147317E+02  0.56206612747E+02  0.00000000000E+00 0. -1.
<mgrwt>
<rscale>  0 0.88727109E+02</rscale>
<asrwt>0</asrwt>
<pdfrwt beam="2">  1        2 0.32625698E-01 0.88727109E+02</pdfrwt>
<pdfrwt beam="1">  1       -2 0.14277960E-02 0.88727109E+02</pdfrwt>
<totfact> 0.16998112E+05</totfact>
</mgrwt>
</event>
<event>
 7    1  0.3891761E-009  0.9031596E+02  0.7818608E-02  0.1302088E+00
          2   -1    0    0  501    0  0.00000000000E+00  0.00000000000E+00  0.23035292785E+03  0.23035292787E+03  0.25500000000E-02 0. -1.
         -2   -1    0    0    0  501 -0.00000000000E+00 -0.00000000000E+00 -0.88526908683E+01  0.88526912356E+01  0.25500000000E-02 0.  1.
         23    2    1    2    0    0  0.00000000000E+00  0.00000000000E+00  0.22150023698E+03  0.23920561910E+03  0.90315963296E+02 0.  0.
    9000005    2    3    3    0    0  0.89912596313E+01  0.40189940181E+02  0.15560517806E+03  0.16149955220E+03  0.13155222649E+02 0.  0.
         22    1    3    3    0    0 -0.89912596313E+01 -0.40189940181E+02  0.65895058928E+02  0.77706066898E+02  0.00000000000E+00 0. -1.
         22    1    4    4    0    0  0.70822411130E+01  0.10702913141E+02  0.63015742676E+02  0.64309364123E+02  0.00000000000E+00 0.  1.
         22    1    4    4    0    0  0.19090185184E+01  0.29487027040E+02  0.92589435380E+02  0.97190188082E+02  0.00000000000E+00 0.  1.
<mgrwt>
<rscale>  0 0.90315963E+02</rscale>
<asrwt>0</asrwt>
<pdfrwt beam="1">  1        2 0.35438910E-01 0.90315963E+02</pdfrwt>
<pdfrwt beam="2">  1       -2 0.13619525E-02 0.90315963E+02</pdfrwt>
<totfact> 0.16706045E+05</totfact>
</mgrwt>
</event>
<event>
 7    1  0.3891761E-009  0.9150177E+02  0.7818608E-02  0.1299255E+00
         -2   -1    0    0    0  501 -0.00000000000E+00  0.00000000000E+00  0.60834454767E+01  0.60834460111E+01  0.25500000000E-02 0.  1.
          2   -1    0    0  501    0  0.00000000000E+00 -0.00000000000E+00 -0.34407201566E+03  0.34407201567E+03  0.25500000000E-02 0. -1.
         23    2    1    2    0    0  0.71054273576E-14  0.00000000000E+00 -0.33798857018E+03  0.35015546168E+03  0.91501769219E+02 0.  0.
    9000005    2    3    3    0    0 -0.42319424327E+02 -0.14912590653E+02 -0.18295313181E+03  0.18875748714E+03  0.12009224605E+02 0.  0.
         22    1    3    3    0    0  0.42319424327E+02  0.14912590653E+02 -0.15503543837E+03  0.16139797454E+03  0.00000000000E+00 0. -1.
         22    1    4    4    0    0 -0.25671072689E+01  0.15861716905E+01 -0.19527533214E+02  0.19759315115E+02  0.00000000000E+00 0.  1.
         22    1    4    4    0    0 -0.39752317058E+02 -0.16498762344E+02 -0.16342559860E+03  0.16899817202E+03  0.00000000000E+00 0.  1.
<mgrwt>
<rscale>  0 0.91501769E+02</rscale>
<asrwt>0</asrwt>
<pdfrwt beam="2">  1        2 0.52934141E-01 0.91501769E+02</pdfrwt>
<pdfrwt beam="1">  1       -2 0.93591500E-03 0.91501769E+02</pdfrwt>
<totfact> 0.18722742E+05</totfact>
</mgrwt>
</event>
<event>
 6    1  0.3891761E-009  0.1326563E+03  0.7818608E-02  0.1223567E+00
          2   -1    0    0  501    0  0.00000000000E+00  0.00000000000E+00  0.37271032637E+03  0.37271032638E+03  0.25500000000E-02 0. -1.
         -2   -1    0    0    0  501 -0.00000000000E+00 -0.00000000000E+00 -0.11803862088E+02  0.11803862363E+02  0.25500000000E-02 0.  1.
    9000005    2    1    2    0    0 -0.49390006383E+02  0.40689455659E+02  0.13498608260E+03  0.14970570638E+03  0.97750444029E+01 0.  0.
         22    1    1    2    0    0  0.49390006383E+02 -0.40689455659E+02  0.22592038168E+03  0.23480848236E+03  0.00000000000E+00 0. -1.
         22    1    3    3    0    0 -0.44039804385E+02  0.31806487215E+02  0.11522871119E+03  0.12739235802E+03  0.00000000000E+00 0. -1.
         22    1    3    3    0    0 -0.53502019986E+01  0.88829684440E+01  0.19757371417E+02  0.22313348362E+02  0.00000000000E+00 0. -1.
<mgrwt>
<rscale>  0 0.13265627E+03</rscale>
<asrwt>0</asrwt>
<pdfrwt beam="1">  1        2 0.57340045E-01 0.13265627E+03</pdfrwt>
<pdfrwt beam="2">  1       -2 0.18159790E-02 0.13265627E+03</pdfrwt>
<totfact> 0.70343249E+04</totfact>
</mgrwt>
</event>
<event>
 7    1  0.3891761E-009  0.9162141E+02  0.7818608E-02  0.1298972E+00
         -2   -1    0    0    0  501 -0.00000000000E+00  0.00000000000E+00  0.12165124549E+03  0.12165124551E+03  0.25500000000E-02 0. -1.
          2   -1    0    0  501    0  0.00000000000E+00 -0.00000000000E+00 -0.17251123962E+02  0.17251124151E+02  0.25500000000E-02 0.  1.
         23    2    1    2    0    0  0.00000000000E+00  0.00000000000E+00  0.10440012153E+03  0.13890236966E+03  0.91621410839E+02 0.  0.
    9000005    2    3    3    0    0  0.22800374365E+02 -0.20481030588E+02  0.20229914692E+01  0.32036067944E+02  0.91042555805E+01 0.  0.
         22    1    3    3    0    0 -0.22800374365E+02  0.20481030588E+02  0.10237713006E+03  0.10686630172E+03  0.00000000000E+00 0. -1.
         22    1    4    4    0    0  0.13830077143E+02 -0.15206437481E+02  0.51120548208E+01  0.21181120818E+02  0.00000000000E+00 0.  1.
         22    1    4    4    0    0  0.89702972223E+01 -0.52745931070E+01 -0.30890633516E+01  0.10854947125E+02  0.00000000000E+00 0.  1.
<mgrwt>
<rscale>  0 0.91621411E+02</rscale>
<asrwt>0</asrwt>
<pdfrwt beam="2">  1        2 0.26540192E-02 0.91621411E+02</pdfrwt>
<pdfrwt beam="1">  1       -2 0.18715575E-01 0.91621411E+02</pdfrwt>
<totfact> 0.74170718E+04</totfact>
</mgrwt>
</event>
<event>
 7    1  0.3891761E-009  0.9051569E+02  0.7818608E-02  0.1301608E+00
         -2   -1    0    0    0  501 -0.00000000000E+00  0.00000000000E+00  0.21763060805E+02  0.21763060954E+02  0.25500000000E-02 0.  1.
          2   -1    0    0  501    0  0.00000000000E+00 -0.00000000000E+00 -0.94116929538E+02  0.94116929572E+02  0.25500000000E-02 0. -1.
         23    2    1    2    0    0  0.00000000000E+00  0.00000000000E+00 -0.72353868733E+02  0.11587999053E+03  0.90515688605E+02 0.  0.
    9000005    2    3    3    0    0 -0.55812114236E+01  0.44424503534E+02 -0.38214428395E+02  0.59575569547E+02  0.91771190481E+01 0.  0.
         22    1    3    3    0    0  0.55812114236E+01 -0.44424503534E+02 -0.34139440338E+02  0.56304420980E+02  0.00000000000E+00 0. -1.
         22    1    4    4    0    0  0.73505869697E+00  0.15080915631E+02 -0.84418399753E+01  0.17298525652E+02  0.00000000000E+00 0.  1.
         22    1    4    4    0    0 -0.63162701205E+01  0.29343587903E+02 -0.29772588420E+02  0.42277043895E+02  0.00000000000E+00 0.  1.
<mgrwt>
<rscale>  0 0.90515689E+02</rscale>
<asrwt>0</asrwt>
<pdfrwt beam="2">  1        2 0.14479527E-01 0.90515689E+02</pdfrwt>
<pdfrwt beam="1">  1       -2 0.33481632E-02 0.90515689E+02</pdfrwt>
<totfact> 0.12289171E+05</totfact>
</mgrwt>
</event>
<event>
 7    1  0.3891761E-009  0.9502694E+02  0.7818608E-02  0.1291115E+00
          2   -1    0    0  501    0  0.00000000000E+00  0.00000000000E+00  0.52919846337E+02  0.52919846398E+02  0.25500000000E-02 0. -1.
         -2   -1    0    0    0  501 -0.00000000000E+00 -0.00000000000E+00 -0.42659418917E+02  0.42659418993E+02  0.25500000000E-02 0.  1.
         23    2    1    2    0    0  0.71054273576E-14  0.00000000000E+00  0.10260427419E+02  0.95579265391E+02  0.95026941453E+02 0.  0.
    9000005    2    3    3    0    0  0.43667861844E+02  0.42067416966E+01 -0.11367091118E+02  0.46667831229E+02  0.11139877801E+02 0.  0.
         22    1    3    3    0    0 -0.43667861844E+02 -0.42067416966E+01  0.21627518537E+02  0.48911434162E+02  0.00000000000E+00 0.  1.
         22    1    4    4    0    0  0.65332785675E+01  0.11109214859E+00  0.22395987460E+01  0.69073781458E+01  0.00000000000E+00 0. -1.
         22    1    4    4    0    0  0.37134583277E+02  0.40956495480E+01 -0.13606689864E+02  0.39760453083E+02  0.00000000000E+00 0. -1.
<mgrwt>
<rscale>  0 0.95026941E+02</rscale>
<asrwt>0</asrwt>
<pdfrwt beam="1">  1        2 0.81415148E-02 0.95026941E+02</pdfrwt>
<pdfrwt beam="2">  1       -2 0.65629875E-02 0.95026941E+02</pdfrwt>
<totfact> 0.91163186E+04</totfact>
</mgrwt>
</event>
<event>
 7    1  0.3891761E-009  0.9048637E+02  0.7818608E-02  0.1301678E+00
         -2   -1    0    0    0  501 -0.00000000000E+00  0.00000000000E+00  0.31936522152E+01  0.31936532332E+01  0.25500000000E-02 0.  1.
          2   -1    0    0  501    0  0.00000000000E+00 -0.00000000000E+00 -0.64094191854E+03  0.64094191854E+03  0.25500000000E-02 0. -1.
         23    2    1    2    0    0  0.00000000000E+00  0.00000000000E+00 -0.63774826632E+03  0.64413557177E+03  0.90486372619E+02 0.  0.
    9000005    2    3    3    0    0  0.95816192398E+01 -0.36435265090E+02 -0.49098207462E+03  0.49261114802E+03  0.13528103353E+02 0.  0.
         22    1    3    3    0    0 -0.95816192398E+01  0.36435265090E+02 -0.14676619170E+03  0.15152442376E+03  0.00000000000E+00 0.  1.
         22    1    4    4    0    0  0.12545728101E+02 -0.22700431003E+02 -0.30757120063E+03  0.30866283922E+03  0.00000000000E+00 0. -1.
         22    1    4    4    0    0 -0.29641088614E+01 -0.13734834087E+02 -0.18341087399E+03  0.18394830879E+03  0.00000000000E+00 0. -1.
<mgrwt>
<rscale>  0 0.90486373E+02</rscale>
<asrwt>0</asrwt>
<pdfrwt beam="2">  1        2 0.98606347E-01 0.90486373E+02</pdfrwt>
<pdfrwt beam="1">  1       -2 0.49133170E-03 0.90486373E+02</pdfrwt>
<totfact> 0.23670250E+05</totfact>
</mgrwt>
</event>
<event>
 7    1  0.3891761E-009  0.8917275E+02  0.7818608E-02  0.1304867E+00
          2   -1    0    0  501    0  0.00000000000E+00  0.00000000000E+00  0.18979798253E+03  0.18979798255E+03  0.25500000000E-02 0. -1.
         -2   -1    0    0    0  501 -0.00000000000E+00 -0.00000000000E+00 -0.10474003253E+02  0.10474003563E+02  0.25500000000E-02 0.  1.
         23    2    1    2    0    0  0.00000000000E+00  0.00000000000E+00  0.17932397928E+03  0.20027198611E+03  0.89172747388E+02 0.  0.
    9000005    2    3    3    0    0  0.35459576589E+02  0.11601471745E+02  0.14445293826E+03  0.14920374530E+03  0.17693272144E+01 0.  0.
         22    1    3    3    0    0 -0.35459576589E+02 -0.11601471745E+02  0.34871041016E+02  0.51068240816E+02  0.00000000000E+00 0.  1.
         22    1    4    4    0    0  0.95585779540E+01  0.23906356490E+01  0.39498614630E+02  0.40708992975E+02  0.00000000000E+00 0.  1.
         22    1    4    4    0    0  0.25900998635E+02  0.92108360959E+01  0.10495432363E+03  0.10849475232E+03  0.00000000000E+00 0.  1.
<mgrwt>
<rscale>  0 0.89172747E+02</rscale>
<asrwt>0</asrwt>
<pdfrwt beam="1">  1        2 0.29199689E-01 0.89172747E+02</pdfrwt>
<pdfrwt beam="2">  1       -2 0.16113852E-02 0.89172747E+02</pdfrwt>
<totfact> 0.16114425E+05</totfact>
</mgrwt>
</event>
<event>
 7    1  0.3891761E-009  0.9014180E+02  0.7818608E-02  0.1302509E+00
          2   -1    0    0  501    0  0.00000000000E+00  0.00000000000E+00  0.11252729713E+03  0.11252729716E+03  0.25500000000E-02 0.  1.
         -2   -1    0    0    0  501 -0.00000000000E+00 -0.00000000000E+00 -0.18052385582E+02  0.18052385762E+02  0.25500000000E-02 0. -1.
         23    2    1    2    0    0  0.22204460493E-15  0.00000000000E+00  0.94474911548E+02  0.13057968292E+03  0.90141803175E+02 0.  0.
    9000005    2    3    3    0    0 -0.65321907994E-01  0.37730703899E+02  0.12796825345E+02  0.40607909294E+02  0.78506862572E+01 0.  0.
         22    1    3    3    0    0  0.65321907994E-01 -0.37730703899E+02  0.81678086204E+02  0.89971773627E+02  0.00000000000E+00 0.  1.
         22    1    4    4    0    0 -0.23788562514E+01  0.29979299203E+02  0.12336626280E+02  0.32505533156E+02  0.00000000000E+00 0. -1.
         22    1    4    4    0    0  0.23135343434E+01  0.77514046956E+01  0.46019906531E+00  0.81023761387E+01  0.00000000000E+00 0. -1.
<mgrwt>
<rscale>  0 0.90141803E+02</rscale>
<asrwt>0</asrwt>
<pdfrwt beam="1">  1        2 0.17311892E-01 0.90141803E+02</pdfrwt>
<pdfrwt beam="2">  1       -2 0.27772901E-02 0.90141803E+02</pdfrwt>
<totfact> 0.13127864E+05</totfact>
</mgrwt>
</event>
<event>
 7    1  0.3891761E-009  0.9212590E+02  0.7818608E-02  0.1297784E+00
         -2   -1    0    0    0  501 -0.00000000000E+00  0.00000000000E+00  0.43721500945E+02  0.43721501019E+02  0.25500000000E-02 0.  1.
          2   -1    0    0  501    0  0.00000000000E+00 -0.00000000000E+00 -0.48529794608E+02  0.48529794675E+02  0.25500000000E-02 0. -1.
         23    2    1    2    0    0  0.00000000000E+00 -0.44408920985E-15 -0.48082936636E+01  0.92251295694E+02  0.92125902272E+02 0.  0.
    9000005    2    3    3    0    0 -0.37779917789E+02 -0.25346067018E+01 -0.27645633543E+02  0.48032628686E+02  0.10445379135E+02 0.  0.
         22    1    3    3    0    0  0.37779917789E+02  0.25346067018E+01  0.22837339879E+02  0.44218667008E+02  0.00000000000E+00 0.  1.
         22    1    4    4    0    0 -0.11819104473E+02 -0.31209127921E+00 -0.30694884829E+01  0.12215170530E+02  0.00000000000E+00 0.  1.
         22    1    4    4    0    0 -0.25960813315E+02 -0.22225154226E+01 -0.24576145060E+02  0.35817458156E+02  0.00000000000E+00 0.  1.
<mgrwt>
<rscale>  0 0.92125902E+02</rscale>
<asrwt>0</asrwt>
<pdfrwt beam="2">  1        2 0.74661222E-02 0.92125902E+02</pdfrwt>
<pdfrwt beam="1">  1       -2 0.67263848E-02 0.92125902E+02</pdfrwt>
<totfact> 0.97362293E+04</totfact>
</mgrwt>
</event>
<event>
 7    1  0.3891761E-009  0.9143831E+02  0.7818608E-02  0.1299406E+00
          2   -1    0    0  501    0  0.00000000000E+00  0.00000000000E+00  0.56660805255E+03  0.56660805256E+03  0.25500000000E-02 0. -1.
         -2   -1    0    0    0  501 -0.00000000000E+00 -0.00000000000E+00 -0.36890417687E+01  0.36890426500E+01  0.25500000000E-02 0.  1.
         23    2    1    2    0    0  0.00000000000E+00  0.00000000000E+00  0.56291901078E+03  0.57029709521E+03  0.91438307624E+02 0.  0.
    9000005    2    3    3    0    0 -0.34771299559E+02  0.13956731678E+02  0.44481023694E+03  0.44638778930E+03  0.14414977552E+01 0.  0.
         22    1    3    3    0    0  0.34771299559E+02 -0.13956731678E+02  0.11810877384E+03  0.12390930590E+03  0.00000000000E+00 0.  1.
         22    1    4    4    0    0 -0.62044008617E+01  0.19874490396E+01  0.73984946332E+02  0.74271238225E+02  0.00000000000E+00 0. -1.
         22    1    4    4    0    0 -0.28566898697E+02  0.11969282638E+02  0.37082529061E+03  0.37211655108E+03  0.00000000000E+00 0. -1.
<mgrwt>
<rscale>  0 0.91438308E+02</rscale>
<asrwt>0</asrwt>
<pdfrwt beam="1">  1        2 0.87170526E-01 0.91438308E+02</pdfrwt>
<pdfrwt beam="2">  1       -2 0.56754459E-03 0.91438308E+02</pdfrwt>
<totfact> 0.22239174E+05</totfact>
</mgrwt>
</event>
<event>
 7    1  0.3891761E-009  0.8908975E+02  0.7818608E-02  0.1305071E+00
         -2   -1    0    0    0  501 -0.00000000000E+00  0.00000000000E+00  0.36606974757E+03  0.36606974758E+03  0.25500000000E-02 0. -1.
          2   -1    0    0  501    0  0.00000000000E+00 -0.00000000000E+00 -0.54204041223E+01  0.54204047222E+01  0.25500000000E-02 0.  1.
         23    2    1    2    0    0 -0.17763568394E-14  0.00000000000E+00  0.36064934345E+03  0.37149015230E+03  0.89089754335E+02 0.  0.
    9000005    2    3    3    0    0  0.94682868410E+01 -0.43116610790E+02  0.18956686458E+03  0.19480425824E+03  0.80257275816E+01 0.  0.
         22    1    3    3    0    0 -0.94682868410E+01  0.43116610790E+02  0.17108247887E+03  0.17668589405E+03  0.00000000000E+00 0. -1.
         22    1    4    4    0    0 -0.83214615004E+00 -0.12542153430E+02  0.49759451479E+02  0.51322520313E+02  0.00000000000E+00 0.  1.
         22    1    4    4    0    0  0.10300432991E+02 -0.30574457360E+02  0.13980741310E+03  0.14348173793E+03  0.00000000000E+00 0.  1.
<mgrwt>
<rscale>  0 0.89089754E+02</rscale>
<asrwt>0</asrwt>
<pdfrwt beam="2">  1        2 0.83390832E-03 0.89089754E+02</pdfrwt>
<pdfrwt beam="1">  1       -2 0.56318426E-01 0.89089754E+02</pdfrwt>
<totfact> 0.48041019E+04</totfact>
</mgrwt>
</event>
<event>
 7    1  0.3891761E-009  0.8906748E+02  0.7818608E-02  0.1305126E+00
         -2   -1    0    0    0  501 -0.00000000000E+00  0.00000000000E+00  0.85042278008E+01  0.85042281832E+01  0.25500000000E-02 0.  1.
          2   -1    0    0  501    0  0.00000000000E+00 -0.00000000000E+00 -0.23320802521E+03  0.23320802522E+03  0.25500000000E-02 0. -1.
         23    2    1    2    0    0  0.00000000000E+00  0.00000000000E+00 -0.22470379741E+03  0.24171225341E+03  0.89067484960E+02 0.  0.
    9000005    2    3    3    0    0 -0.21407697922E+02  0.24728029762E+02 -0.19225273689E+03  0.19563800556E+03  0.15599659920E+02 0.  0.
         22    1    3    3    0    0  0.21407697922E+02 -0.24728029762E+02 -0.32451060515E+02  0.46074247848E+02  0.00000000000E+00 0.  1.
         22    1    4    4    0    0 -0.17631184966E+02  0.23525789011E+02 -0.18544268285E+03  0.18775864841E+03  0.00000000000E+00 0. -1.
         22    1    4    4    0    0 -0.37765129560E+01  0.12022407501E+01 -0.68100540465E+01  0.78793571467E+01  0.00000000000E+00 0. -1.
<mgrwt>
<rscale>  0 0.89067485E+02</rscale>
<asrwt>0</asrwt>
<pdfrwt beam="2">  1        2 0.35878153E-01 0.89067485E+02</pdfrwt>
<pdfrwt beam="1">  1       -2 0.13083429E-02 0.89067485E+02</pdfrwt>
<totfact> 0.17418537E+05</totfact>
</mgrwt>
</event>
<event>
 7    1  0.3891761E-009  0.8755799E+02  0.7818608E-02  0.1308875E+00
          2   -1    0    0  501    0  0.00000000000E+00  0.00000000000E+00  0.99082421585E+02  0.99082421618E+02  0.25500000000E-02 0. -1.
         -2   -1    0    0    0  501 -0.00000000000E+00 -0.00000000000E+00 -0.19343497562E+02  0.19343497730E+02  0.25500000000E-02 0.  1.
         23    2    1    2    0    0  0.00000000000E+00  0.00000000000E+00  0.79738924022E+02  0.11842591935E+03  0.87557994319E+02 0.  0.
    9000005    2    3    3    0    0 -0.13461593491E+02  0.21747846938E+02 -0.53044587484E+01  0.29619611583E+02  0.13964267326E+02 0.  0.
         22    1    3    3    0    0  0.13461593491E+02 -0.21747846938E+02  0.85043382771E+02  0.88806307765E+02  0.00000000000E+00 0. -1.
         22    1    4    4    0    0 -0.27468829024E+01  0.10499915340E+01 -0.55841510246E+01  0.63111481180E+01  0.00000000000E+00 0.  1.
         22    1    4    4    0    0 -0.10714710588E+02  0.20697855405E+02  0.27969227626E+00  0.23308463465E+02  0.00000000000E+00 0.  1.
<mgrwt>
<rscale>  0 0.87557994E+02</rscale>
<asrwt>0</asrwt>
<pdfrwt beam="1">  1        2 0.15243450E-01 0.87557994E+02</pdfrwt>
<pdfrwt beam="2">  1       -2 0.29759227E-02 0.87557994E+02</pdfrwt>
<totfact> 0.13671001E+05</totfact>
</mgrwt>
</event>
<event>
 7    1  0.3891761E-009  0.9151115E+02  0.7818608E-02  0.1299233E+00
          2   -1    0    0  501    0  0.00000000000E+00  0.00000000000E+00  0.97210606536E+02  0.97210606570E+02  0.25500000000E-02 0. -1.
         -2   -1    0    0    0  501 -0.00000000000E+00 -0.00000000000E+00 -0.21536463269E+02  0.21536463420E+02  0.25500000000E-02 0.  1.
         23    2    1    2    0    0  0.00000000000E+00  0.00000000000E+00  0.75674143267E+02  0.11874706999E+03  0.91511150534E+02 0.  0.
    9000005    2    3    3    0    0 -0.25622369225E+02  0.32978561083E+02  0.16174124259E+02  0.46053579512E+02  0.10734924057E+02 0.  0.
         22    1    3    3    0    0  0.25622369225E+02 -0.32978561083E+02  0.59500019008E+02  0.72693490478E+02  0.00000000000E+00 0. -1.
         22    1    4    4    0    0 -0.97445599041E+01  0.18517943348E+02  0.12171796251E+02  0.24207918076E+02  0.00000000000E+00 0.  1.
         22    1    4    4    0    0 -0.15877809321E+02  0.14460617735E+02  0.40023280073E+01  0.21845661437E+02  0.00000000000E+00 0.  1.
<mgrwt>
<rscale>  0 0.91511151E+02</rscale>
<asrwt>0</asrwt>
<pdfrwt beam="1">  1        2 0.14955478E-01 0.91511151E+02</pdfrwt>
<pdfrwt beam="2">  1       -2 0.33133020E-02 0.91511151E+02</pdfrwt>
<totfact> 0.12040588E+05</totfact>
</mgrwt>
</event>
<event>
 7    1  0.3891761E-009  0.8622291E+02  0.7818608E-02  0.1312265E+00
         -2   -1    0    0    0  501 -0.00000000000E+00  0.00000000000E+00  0.28672834461E+02  0.28672834575E+02  0.25500000000E-02 0.  1.
          2   -1    0    0  501    0  0.00000000000E+00 -0.00000000000E+00 -0.64820858407E+02  0.64820858457E+02  0.25500000000E-02 0. -1.
         23    2    1    2    0    0  0.00000000000E+00  0.35527136788E-14 -0.36148023946E+02  0.93493693031E+02  0.86222914596E+02 0.  0.
    9000005    2    3    3    0    0  0.19486625383E+02 -0.24355067501E+02 -0.49023096034E+02  0.59749577055E+02  0.13923007279E+02 0.  0.
         22    1    3    3    0    0 -0.19486625383E+02  0.24355067501E+02  0.12875072088E+02  0.33744115977E+02  0.00000000000E+00 0.  1.
         22    1    4    4    0    0  0.19028416306E+02 -0.18217062797E+02 -0.30873363713E+02  0.40584560994E+02  0.00000000000E+00 0. -1.
         22    1    4    4    0    0  0.45820907622E+00 -0.61380047035E+01 -0.18149732321E+02  0.19165016061E+02  0.00000000000E+00 0. -1.
<mgrwt>
<rscale>  0 0.86222915E+02</rscale>
<asrwt>0</asrwt>
<pdfrwt beam="2">  1        2 0.99724398E-02 0.86222915E+02</pdfrwt>
<pdfrwt beam="1">  1       -2 0.44112053E-02 0.86222915E+02</pdfrwt>
<totfact> 0.12659839E+05</totfact>
</mgrwt>
</event>
<event>
 7    1  0.3891761E-009  0.8755165E+02  0.7818608E-02  0.1308891E+00
         -2   -1    0    0    0  501 -0.00000000000E+00  0.00000000000E+00  0.36514917603E+01  0.36514926507E+01  0.25500000000E-02 0.  1.
          2   -1    0    0  501    0  0.00000000000E+00 -0.00000000000E+00 -0.52480536177E+03  0.52480536177E+03  0.25500000000E-02 0. -1.
         23    2    1    2    0    0  0.00000000000E+00  0.88817841970E-15 -0.52115387001E+03  0.52845685442E+03  0.87551646270E+02 0.  0.
    9000005    2    3    3    0    0  0.37680147087E+02 -0.60284989904E+01 -0.38108159007E+03  0.38327979049E+03  0.14969409686E+02 0.  0.
         22    1    3    3    0    0 -0.37680147087E+02  0.60284989904E+01 -0.14007227994E+03  0.14517706393E+03  0.00000000000E+00 0.  1.
         22    1    4    4    0    0  0.22359475419E+02 -0.34094872487E+01 -0.29007568388E+03  0.29095613608E+03  0.00000000000E+00 0.  1.
         22    1    4    4    0    0  0.15320671669E+02 -0.26190117417E+01 -0.91005906192E+02  0.92323654416E+02  0.00000000000E+00 0.  1.
<mgrwt>
<rscale>  0 0.87551646E+02</rscale>
<asrwt>0</asrwt>
<pdfrwt beam="2">  1        2 0.80739227E-01 0.87551646E+02</pdfrwt>
<pdfrwt beam="1">  1       -2 0.56176845E-03 0.87551646E+02</pdfrwt>
<totfact> 0.24359447E+05</totfact>
</mgrwt>
</event>
<event>
 7    1  0.3891761E-009  0.7089825E+02  0.7818608E-02  0.1357065E+00
         -2   -1    0    0    0  501 -0.00000000000E+00  0.00000000000E+00  0.16056707818E+02  0.16056708020E+02  0.25500000000E-02 0. -1.
          2   -1    0    0  501    0  0.00000000000E+00 -0.00000000000E+00 -0.78262653818E+02  0.78262653859E+02  0.25500000000E-02 0.  1.
         23    2    1    2    0    0  0.00000000000E+00 -0.72858385991E-16 -0.62205946000E+02  0.94319361879E+02  0.70898253205E+02 0.  0.
    9000005    2    3    3    0    0  0.19183805764E+02 -0.18853088423E-01  0.68759118695E+01  0.22623324013E+02  0.98243506832E+01 0.  0.
         22    1    3    3    0    0 -0.19183805764E+02  0.18853088423E-01 -0.69081857870E+02  0.71696037866E+02  0.00000000000E+00 0.  1.
         22    1    4    4    0    0  0.62580491043E+01 -0.14547332738E+01  0.71533698197E+01  0.96150989214E+01  0.00000000000E+00 0. -1.
         22    1    4    4    0    0  0.12925756659E+02  0.14358801853E+01 -0.27745795024E+00  0.13008225092E+02  0.00000000000E+00 0. -1.
<mgrwt>
<rscale>  0 0.70898253E+02</rscale>
<asrwt>0</asrwt>
<pdfrwt beam="2">  1        2 0.12040408E-01 0.70898253E+02</pdfrwt>
<pdfrwt beam="1">  1       -2 0.24702628E-02 0.70898253E+02</pdfrwt>
<totfact> 0.22663454E+05</totfact>
</mgrwt>
</event>
<event>
 7    1  0.3891761E-009  0.9346484E+02  0.7818608E-02  0.1294672E+00
          2   -1    0    0  501    0  0.00000000000E+00  0.00000000000E+00  0.80085305382E+03  0.80085305382E+03  0.25500000000E-02 0. -1.
         -2   -1    0    0    0  501 -0.00000000000E+00 -0.00000000000E+00 -0.27269901527E+01  0.27269913449E+01  0.25500000000E-02 0.  1.
         23    2    1    2    0    0  0.00000000000E+00  0.00000000000E+00  0.79812606366E+03  0.80358004517E+03  0.93464835573E+02 0.  0.
    9000005    2    3    3    0    0 -0.10895763388E+01 -0.11604055723E+02  0.78814351779E+03  0.78823428002E+03  0.26896609288E+01 0.  0.
         22    1    3    3    0    0  0.10895763388E+01  0.11604055723E+02  0.99825458726E+01  0.15345765146E+02  0.00000000000E+00 0.  1.
         22    1    4    4    0    0 -0.13232002311E+01 -0.64569412308E+01  0.51494425172E+03  0.51498643218E+03  0.00000000000E+00 0.  1.
         22    1    4    4    0    0  0.23362389232E+00 -0.51471144919E+01  0.27319926607E+03  0.27324784784E+03  0.00000000000E+00 0.  1.
<mgrwt>
<rscale>  0 0.93464836E+02</rscale>
<asrwt>0</asrwt>
<pdfrwt beam="1">  1        2 0.12320809E+00 0.93464836E+02</pdfrwt>
<pdfrwt beam="2">  1       -2 0.41953727E-03 0.93464836E+02</pdfrwt>
<totfact> 0.22835045E+05</totfact>
</mgrwt>
</event>
<event>
 7    1  0.3891761E-009  0.9051349E+02  0.7818608E-02  0.1301613E+00
         -2   -1    0    0    0  501 -0.00000000000E+00  0.00000000000E+00  0.16195221559E+03  0.16195221561E+03  0.25500000000E-02 0.  1.
          2   -1    0    0  501    0  0.00000000000E+00 -0.00000000000E+00 -0.12646772419E+02  0.12646772676E+02  0.25500000000E-02 0. -1.
         23    2    1    2    0    0  0.00000000000E+00  0.00000000000E+00  0.14930544317E+03  0.17459898828E+03  0.90513487115E+02 0.  0.
    9000005    2    3    3    0    0 -0.42406345271E+02  0.13330344894E+02  0.90870203425E+02  0.10117778250E+03  0.18850961974E+01 0.  0.
         22    1    3    3    0    0  0.42406345271E+02 -0.13330344894E+02  0.58435239741E+02  0.73421205777E+02  0.00000000000E+00 0. -1.
         22    1    4    4    0    0 -0.14962806830E+01  0.84223386207E+00  0.33532776413E+01  0.37673179717E+01  0.00000000000E+00 0. -1.
         22    1    4    4    0    0 -0.40910064588E+02  0.12488111031E+02  0.87516925784E+02  0.97410464532E+02  0.00000000000E+00 0. -1.
<mgrwt>
<rscale>  0 0.90513487E+02</rscale>
<asrwt>0</asrwt>
<pdfrwt beam="2">  1        2 0.19456574E-02 0.90513487E+02</pdfrwt>
<pdfrwt beam="1">  1       -2 0.24915724E-01 0.90513487E+02</pdfrwt>
<totfact> 0.69161194E+04</totfact>
</mgrwt>
</event>
<event>
 7    1  0.3891761E-009  0.9234218E+02  0.7818608E-02  0.1297277E+00
          2   -1    0    0  501    0  0.00000000000E+00  0.00000000000E+00  0.43123684424E+02  0.43123684499E+02  0.25500000000E-02 0.  1.
         -2   -1    0    0    0  501 -0.00000000000E+00 -0.00000000000E+00 -0.49433843803E+02  0.49433843868E+02  0.25500000000E-02 0. -1.
         23    2    1    2    0    0  0.00000000000E+00  0.00000000000E+00 -0.63101593787E+01  0.92557528368E+02  0.92342178587E+02 0.  0.
    9000005    2    3    3    0    0  0.42571268673E+02  0.14276403155E+02 -0.90315226508E+01  0.47573815521E+02  0.12867436355E+02 0.  0.
         22    1    3    3    0    0 -0.42571268673E+02 -0.14276403155E+02  0.27213632720E+01  0.44983712847E+02  0.00000000000E+00 0. -1.
         22    1    4    4    0    0  0.28277895405E+02  0.12687988643E+02 -0.80202039497E+00  0.31004316813E+02  0.00000000000E+00 0. -1.
         22    1    4    4    0    0  0.14293373268E+02  0.15884145121E+01 -0.82295022558E+01  0.16569498707E+02  0.00000000000E+00 0. -1.
<mgrwt>
<rscale>  0 0.92342179E+02</rscale>
<asrwt>0</asrwt>
<pdfrwt beam="1">  1        2 0.66344130E-02 0.92342179E+02</pdfrwt>
<pdfrwt beam="2">  1       -2 0.76052067E-02 0.92342179E+02</pdfrwt>
<totfact> 0.93760977E+04</totfact>
</mgrwt>
</event>
<event>
 7    1  0.3891761E-009  0.9010587E+02  0.7818608E-02  0.1302596E+00
          2   -1    0    0  501    0  0.00000000000E+00  0.00000000000E+00  0.10152258447E+03  0.10152258451E+03  0.25500000000E-02 0. -1.
         -2   -1    0    0    0  501 -0.00000000000E+00 -0.00000000000E+00 -0.19993254483E+02  0.19993254645E+02  0.25500000000E-02 0.  1.
         23    2    1    2    0    0  0.00000000000E+00 -0.88817841970E-15  0.81529329991E+02  0.12151583915E+03  0.90105868376E+02 0.  0.
    9000005    2    3    3    0    0 -0.43737461013E+02  0.44751822897E+01  0.35697978509E+02  0.58005953850E+02  0.12544012914E+02 0.  0.
         22    1    3    3    0    0  0.43737461013E+02 -0.44751822897E+01  0.45831351482E+02  0.63509885302E+02  0.00000000000E+00 0. -1.
         22    1    4    4    0    0 -0.28920594035E+02 -0.28493268294E+01  0.20615323083E+02  0.35630197425E+02  0.00000000000E+00 0. -1.
         22    1    4    4    0    0 -0.14816866978E+02  0.73245091191E+01  0.15082655426E+02  0.22375756425E+02  0.00000000000E+00 0. -1.
<mgrwt>
<rscale>  0 0.90105868E+02</rscale>
<asrwt>0</asrwt>
<pdfrwt beam="1">  1        2 0.15618859E-01 0.90105868E+02</pdfrwt>
<pdfrwt beam="2">  1       -2 0.30758853E-02 0.90105868E+02</pdfrwt>
<totfact> 0.12730910E+05</totfact>
</mgrwt>
</event>
<event>
 7    1  0.3891761E-009  0.9086818E+02  0.7818608E-02  0.1300763E+00
          2   -1    0    0  501    0  0.00000000000E+00  0.00000000000E+00  0.49017483051E+03  0.49017483051E+03  0.25500000000E-02 0. -1.
         -2   -1    0    0    0  501 -0.00000000000E+00 -0.00000000000E+00 -0.42112658695E+01  0.42112666415E+01  0.25500000000E-02 0.  1.
         23    2    1    2    0    0 -0.35527136788E-14  0.00000000000E+00  0.48596356464E+03  0.49438609716E+03  0.90868184229E+02 0.  0.
    9000005    2    3    3    0    0 -0.31954600741E+02  0.19154516702E+02  0.38184568539E+03  0.38380343668E+03  0.10533685891E+02 0.  0.
         22    1    3    3    0    0  0.31954600741E+02 -0.19154516702E+02  0.10411787925E+03  0.11058266048E+03  0.00000000000E+00 0.  1.
         22    1    4    4    0    0 -0.21833433239E+02  0.14135748307E+02  0.30828944420E+03  0.30938471131E+03  0.00000000000E+00 0. -1.
         22    1    4    4    0    0 -0.10121167503E+02  0.50187683951E+01  0.73556241182E+02  0.74418725363E+02  0.00000000000E+00 0. -1.
<mgrwt>
<rscale>  0 0.90868184E+02</rscale>
<asrwt>0</asrwt>
<pdfrwt beam="1">  1        2 0.75411538E-01 0.90868184E+02</pdfrwt>
<pdfrwt beam="2">  1       -2 0.64788690E-03 0.90868184E+02</pdfrwt>
<totfact> 0.21603398E+05</totfact>
</mgrwt>
</event>
<event>
 7    1  0.3891761E-009  0.9650331E+02  0.7818608E-02  0.1287826E+00
         -2   -1    0    0    0  501 -0.00000000000E+00  0.00000000000E+00  0.13759015110E+02  0.13759015347E+02  0.25500000000E-02 0.  1.
          2   -1    0    0  501    0  0.00000000000E+00 -0.00000000000E+00 -0.16921430832E+03  0.16921430834E+03  0.25500000000E-02 0. -1.
         23    2    1    2    0    0  0.00000000000E+00 -0.71054273576E-14 -0.15545529321E+03  0.18297332369E+03  0.96503310792E+02 0.  0.
    9000005    2    3    3    0    0 -0.63051877986E+01  0.46515259668E+02 -0.67323801869E+02  0.83120509299E+02  0.13156747047E+02 0.  0.
         22    1    3    3    0    0  0.63051877986E+01 -0.46515259668E+02 -0.88131491342E+02  0.99852814388E+02  0.00000000000E+00 0. -1.
         22    1    4    4    0    0 -0.38071835119E+01  0.19993768183E+02 -0.40445071384E+02  0.45277469140E+02  0.00000000000E+00 0. -1.
         22    1    4    4    0    0 -0.24980042867E+01  0.26521491484E+02 -0.26878730485E+02  0.37843040159E+02  0.00000000000E+00 0. -1.
<mgrwt>
<rscale>  0 0.96503311E+02</rscale>
<asrwt>0</asrwt>
<pdfrwt beam="2">  1        2 0.26032969E-01 0.96503311E+02</pdfrwt>
<pdfrwt beam="1">  1       -2 0.21167717E-02 0.96503311E+02</pdfrwt>
<totfact> 0.12491522E+05</totfact>
</mgrwt>
</event>
<event>
 6    1  0.3891761E-009  0.1481680E+03  0.7818608E-02  0.1202742E+00
         -2   -1    0    0    0  501 -0.00000000000E+00  0.00000000000E+00  0.24030439810E+03  0.24030439811E+03  0.25500000000E-02 0.  1.
          2   -1    0    0  501    0  0.00000000000E+00 -0.00000000000E+00 -0.22839533390E+02  0.22839533533E+02  0.25500000000E-02 0. -1.
    9000005    2    1    2    0    0  0.17879891366E+02 -0.70568125718E+02  0.12812359436E+03  0.14789891669E+03  0.12604889776E+02 0.  0.
         22    1    1    2    0    0 -0.17879891366E+02  0.70568125718E+02  0.89341270353E+02  0.11524501495E+03  0.00000000000E+00 0. -1.
         22    1    3    3    0    0 -0.73047388118E+00 -0.62611541309E+01  0.64166348672E+01  0.89949344723E+01  0.00000000000E+00 0. -1.
         22    1    3    3    0    0  0.18610365248E+02 -0.64306971587E+02  0.12170695949E+03  0.13890398222E+03  0.00000000000E+00 0. -1.
<mgrwt>
<rscale>  0 0.14816802E+03</rscale>
<asrwt>0</asrwt>
<pdfrwt beam="2">  1        2 0.35137745E-02 0.14816802E+03</pdfrwt>
<pdfrwt beam="1">  1       -2 0.36969907E-01 0.14816802E+03</pdfrwt>
<totfact> 0.16398851E+04</totfact>
</mgrwt>
</event>
<event>
 7    1  0.3891761E-009  0.9128841E+02  0.7818608E-02  0.1299761E+00
          2   -1    0    0  501    0  0.00000000000E+00  0.00000000000E+00  0.16806513601E+03  0.16806513603E+03  0.25500000000E-02 0. -1.
         -2   -1    0    0    0  501 -0.00000000000E+00 -0.00000000000E+00 -0.12396346255E+02  0.12396346517E+02  0.25500000000E-02 0.  1.
         23    2    1    2    0    0  0.00000000000E+00  0.00000000000E+00  0.15566878976E+03  0.18046148255E+03  0.91288414265E+02 0.  0.
    9000005    2    3    3    0    0 -0.29383467562E+02  0.21093517425E+01  0.89887177419E+01  0.30852388382E+02  0.17986916031E+01 0.  0.
         22    1    3    3    0    0  0.29383467562E+02 -0.21093517425E+01  0.14668007201E+03  0.14960909416E+03  0.00000000000E+00 0. -1.
         22    1    4    4    0    0 -0.16062566094E+02  0.20445826603E+01  0.50383948828E+01  0.16957941230E+02  0.00000000000E+00 0. -1.
         22    1    4    4    0    0 -0.13320901469E+02  0.64769082177E-01  0.39503228590E+01  0.13894447152E+02  0.00000000000E+00 0. -1.
<mgrwt>
<rscale>  0 0.91288414E+02</rscale>
<asrwt>0</asrwt>
<pdfrwt beam="1">  1        2 0.25856175E-01 0.91288414E+02</pdfrwt>
<pdfrwt beam="2">  1       -2 0.19071302E-02 0.91288414E+02</pdfrwt>
<totfact> 0.14491550E+05</totfact>
</mgrwt>
</event>
<event>
 7    1  0.3891761E-009  0.1029272E+03  0.7818608E-02  0.1274258E+00
          2   -1    0    0  501    0  0.00000000000E+00  0.00000000000E+00  0.71646839469E+01  0.71646844006E+01  0.25500000000E-02 0. -1.
         -2   -1    0    0    0  501 -0.00000000000E+00 -0.00000000000E+00 -0.36966090198E+03  0.36966090199E+03  0.25500000000E-02 0.  1.
         23    2    1    2    0    0  0.71054273576E-14  0.00000000000E+00 -0.36249621804E+03  0.37682558639E+03  0.10292722900E+03 0.  0.
    9000005    2    3    3    0    0  0.42684571439E+02 -0.11204821064E+02 -0.27661093726E+03  0.28026574946E+03  0.93679803494E+01 0.  0.
         22    1    3    3    0    0 -0.42684571439E+02  0.11204821064E+02 -0.85885280781E+02  0.96559836935E+02  0.00000000000E+00 0. -1.
         22    1    4    4    0    0  0.11316216135E+02 -0.73876537619E+01 -0.82592488312E+02  0.83690819696E+02  0.00000000000E+00 0. -1.
         22    1    4    4    0    0  0.31368355305E+02 -0.38171673024E+01 -0.19401844894E+03  0.19657492976E+03  0.00000000000E+00 0. -1.
<mgrwt>
<rscale>  0 0.10292723E+03</rscale>
<asrwt>0</asrwt>
<pdfrwt beam="1">  1        2 0.11022594E-02 0.10292723E+03</pdfrwt>
<pdfrwt beam="2">  1       -2 0.56870893E-01 0.10292723E+03</pdfrwt>
<totfact> 0.32848516E+04</totfact>
</mgrwt>
</event>
<event>
 7    1  0.3891761E-009  0.9041807E+02  0.7818608E-02  0.1301842E+00
         -2   -1    0    0    0  501 -0.00000000000E+00  0.00000000000E+00  0.54388878546E+02  0.54388878606E+02  0.25500000000E-02 0. -1.
          2   -1    0    0  501    0  0.00000000000E+00 -0.00000000000E+00 -0.37578581311E+02  0.37578581397E+02  0.25500000000E-02 0.  1.
         23    2    1    2    0    0  0.88817841970E-15  0.00000000000E+00  0.16810297235E+02  0.91967460003E+02  0.90418071238E+02 0.  0.
    9000005    2    3    3    0    0 -0.55651854711E+01 -0.27623155579E+02  0.42769900392E+02  0.53654133216E+02  0.15984105171E+02 0.  0.
         22    1    3    3    0    0  0.55651854711E+01  0.27623155579E+02 -0.25959603157E+02  0.38313326787E+02  0.00000000000E+00 0.  1.
         22    1    4    4    0    0 -0.10316283021E+02 -0.22574190483E+02  0.28522212916E+02  0.37809210531E+02  0.00000000000E+00 0.  1.
         22    1    4    4    0    0  0.47510975501E+01 -0.50489650952E+01  0.14247687477E+02  0.15844922685E+02  0.00000000000E+00 0.  1.
<mgrwt>
<rscale>  0 0.90418071E+02</rscale>
<asrwt>0</asrwt>
<pdfrwt beam="2">  1        2 0.57813202E-02 0.90418071E+02</pdfrwt>
<pdfrwt beam="1">  1       -2 0.83675197E-02 0.90418071E+02</pdfrwt>
<totfact> 0.96164927E+04</totfact>
</mgrwt>
</event>
<event>
 7    1  0.3891761E-009  0.9122276E+02  0.7818608E-02  0.1299917E+00
         -2   -1    0    0    0  501 -0.00000000000E+00  0.00000000000E+00  0.19545638127E+01  0.19545654761E+01  0.25500000000E-02 0. -1.
          2   -1    0    0  501    0  0.00000000000E+00 -0.00000000000E+00 -0.10643791485E+04  0.10643791485E+04  0.25500000000E-02 0.  1.
         23    2    1    2    0    0  0.35527136788E-14  0.00000000000E+00 -0.10624245847E+04  0.10663337140E+04  0.91222757142E+02 0.  0.
    9000005    2    3    3    0    0  0.19450837550E+02  0.10221544389E+02 -0.99698253543E+03  0.99730128057E+03  0.12363382520E+02 0.  0.
         22    1    3    3    0    0 -0.19450837550E+02 -0.10221544389E+02 -0.65442049256E+02  0.69032433406E+02  0.00000000000E+00 0. -1.
         22    1    4    4    0    0  0.11831730663E+01  0.21391658927E+01 -0.26334792360E+02  0.26448009715E+02  0.00000000000E+00 0.  1.
         22    1    4    4    0    0  0.18267664483E+02  0.80823784966E+01 -0.97064774307E+03  0.97085327086E+03  0.00000000000E+00 0.  1.
<mgrwt>
<rscale>  0 0.91222757E+02</rscale>
<asrwt>0</asrwt>
<pdfrwt beam="2">  1        2 0.16375018E+00 0.91222757E+02</pdfrwt>
<pdfrwt beam="1">  1       -2 0.30070310E-03 0.91222757E+02</pdfrwt>
<totfact> 0.24999934E+05</totfact>
</mgrwt>
</event>
<event>
 7    1  0.3891761E-009  0.9019464E+02  0.7818608E-02  0.1302381E+00
          2   -1    0    0  501    0  0.00000000000E+00  0.00000000000E+00  0.29123589293E+02  0.29123589404E+02  0.25500000000E-02 0.  1.
         -2   -1    0    0    0  501 -0.00000000000E+00 -0.00000000000E+00 -0.69832341601E+02  0.69832341647E+02  0.25500000000E-02 0. -1.
         23    2    1    2    0    0  0.00000000000E+00  0.00000000000E+00 -0.40708752308E+02  0.98955931052E+02  0.90194643831E+02 0.  0.
    9000005    2    3    3    0    0 -0.15542060859E+02 -0.41793554128E+02 -0.24713768118E+02  0.51584037047E+02  0.78667478037E+01 0.  0.
         22    1    3    3    0    0  0.15542060859E+02  0.41793554128E+02 -0.15994984190E+02  0.47371894005E+02  0.00000000000E+00 0.  1.
         22    1    4    4    0    0  0.40039779002E+00 -0.51649175040E+01 -0.42456466504E+01  0.66979255515E+01  0.00000000000E+00 0.  1.
         22    1    4    4    0    0 -0.15942458649E+02 -0.36628636624E+02 -0.20468121468E+02  0.44886111495E+02  0.00000000000E+00 0.  1.
<mgrwt>
<rscale>  0 0.90194644E+02</rscale>
<asrwt>0</asrwt>
<pdfrwt beam="1">  1        2 0.44805522E-02 0.90194644E+02</pdfrwt>
<pdfrwt beam="2">  1       -2 0.10743437E-01 0.90194644E+02</pdfrwt>
<totfact> 0.90635429E+04</totfact>
</mgrwt>
</event>
<event>
 7    1  0.3891761E-009  0.9025912E+02  0.7818608E-02  0.1302225E+00
         -2   -1    0    0    0  501 -0.00000000000E+00  0.00000000000E+00  0.78297842868E+02  0.78297842910E+02  0.25500000000E-02 0.  1.
          2   -1    0    0  501    0  0.00000000000E+00 -0.00000000000E+00 -0.26011920589E+02  0.26011920714E+02  0.25500000000E-02 0. -1.
         23    2    1    2    0    0  0.00000000000E+00  0.00000000000E+00  0.52285922279E+02  0.10430976362E+03  0.90259122080E+02 0.  0.
    9000005    2    3    3    0    0  0.16016731722E+02 -0.11723543675E+02  0.72214250206E+02  0.76182989452E+02  0.13963265299E+02 0.  0.
         22    1    3    3    0    0 -0.16016731722E+02  0.11723543675E+02 -0.19928327926E+02  0.28126774171E+02  0.00000000000E+00 0. -1.
         22    1    4    4    0    0  0.47166053136E+01 -0.77301631059E+01  0.13485367186E+02  0.16243673091E+02  0.00000000000E+00 0. -1.
         22    1    4    4    0    0  0.11300126408E+02 -0.39933805687E+01  0.58728883020E+02  0.59939316362E+02  0.00000000000E+00 0. -1.
<mgrwt>
<rscale>  0 0.90259122E+02</rscale>
<asrwt>0</asrwt>
<pdfrwt beam="2">  1        2 0.40018339E-02 0.90259122E+02</pdfrwt>
<pdfrwt beam="1">  1       -2 0.12045822E-01 0.90259122E+02</pdfrwt>
<totfact> 0.87733698E+04</totfact>
</mgrwt>
</event>
<event>
 7    1  0.3891761E-009  0.9441011E+02  0.7818608E-02  0.1292510E+00
         -2   -1    0    0    0  501 -0.00000000000E+00  0.00000000000E+00  0.31280576386E+02  0.31280576490E+02  0.25500000000E-02 0.  1.
          2   -1    0    0  501    0  0.00000000000E+00 -0.00000000000E+00 -0.71236443538E+02  0.71236443583E+02  0.25500000000E-02 0. -1.
         23    2    1    2    0    0  0.00000000000E+00  0.00000000000E+00 -0.39955867152E+02  0.10251702007E+03  0.94410105840E+02 0.  0.
    9000005    2    3    3    0    0 -0.21189574122E+02 -0.41120244688E+02 -0.19084163902E+02  0.51767630212E+02  0.13259323179E+02 0.  0.
         22    1    3    3    0    0  0.21189574122E+02  0.41120244688E+02 -0.20871703250E+02  0.50749389861E+02  0.00000000000E+00 0. -1.
         22    1    4    4    0    0 -0.17259121660E+02 -0.37739784614E+02 -0.20648933885E+02  0.46352422739E+02  0.00000000000E+00 0.  1.
         22    1    4    4    0    0 -0.39304524624E+01 -0.33804600744E+01  0.15647699827E+01  0.54152074728E+01  0.00000000000E+00 0.  1.
<mgrwt>
<rscale>  0 0.94410106E+02</rscale>
<asrwt>0</asrwt>
<pdfrwt beam="2">  1        2 0.10959453E-01 0.94410106E+02</pdfrwt>
<pdfrwt beam="1">  1       -2 0.48123964E-02 0.94410106E+02</pdfrwt>
<totfact> 0.10080415E+05</totfact>
</mgrwt>
</event>
<event>
 6    1  0.3891761E-009  0.1322347E+03  0.7818608E-02  0.1224177E+00
          2   -1    0    0  501    0  0.00000000000E+00  0.00000000000E+00  0.58791375322E+03  0.58791375322E+03  0.25500000000E-02 0.  1.
         -2   -1    0    0    0  501 -0.00000000000E+00 -0.00000000000E+00 -0.74356174701E+01  0.74356179073E+01  0.25500000000E-02 0. -1.
    9000005    2    1    2    0    0  0.48579634794E+00  0.61605573291E+02  0.39416616740E+03  0.39911575473E+03  0.11442704526E+02 0.  0.
         22    1    1    2    0    0 -0.48579634794E+00 -0.61605573291E+02  0.18631196834E+03  0.19623361640E+03  0.00000000000E+00 0. -1.
         22    1    3    3    0    0 -0.54673919698E+01  0.31673321893E+02  0.20324121873E+03  0.20576706414E+03  0.00000000000E+00 0. -1.
         22    1    3    3    0    0  0.59531883178E+01  0.29932251398E+02  0.19092494868E+03  0.19334869059E+03  0.00000000000E+00 0. -1.
<mgrwt>
<rscale>  0 0.13223467E+03</rscale>
<asrwt>0</asrwt>
<pdfrwt beam="1">  1        2 0.90448301E-01 0.13223467E+03</pdfrwt>
<pdfrwt beam="2">  1       -2 0.11439408E-02 0.13223467E+03</pdfrwt>
<totfact> 0.83239510E+04</totfact>
</mgrwt>
</event>
<event>
 7    1  0.3891761E-009  0.8833857E+02  0.7818608E-02  0.1306926E+00
         -2   -1    0    0    0  501 -0.00000000000E+00  0.00000000000E+00  0.24888875917E+01  0.24888888980E+01  0.25500000000E-02 0.  1.
          2   -1    0    0  501    0  0.00000000000E+00 -0.00000000000E+00 -0.78385432281E+03  0.78385432282E+03  0.25500000000E-02 0. -1.
         23    2    1    2    0    0 -0.35527136788E-14 -0.35527136788E-14 -0.78136543522E+03  0.78634321172E+03  0.88338571711E+02 0.  0.
    9000005    2    3    3    0    0  0.28758431205E+02  0.19929301272E+02 -0.62570608879E+03  0.62679993688E+03  0.12075881175E+02 0.  0.
         22    1    3    3    0    0 -0.28758431205E+02 -0.19929301272E+02 -0.15565934643E+03  0.15954327484E+03  0.00000000000E+00 0.  1.
         22    1    4    4    0    0  0.27935835394E+02  0.18845273509E+02 -0.52282794379E+03  0.52391279240E+03  0.00000000000E+00 0.  1.
         22    1    4    4    0    0  0.82259581026E+00  0.10840277631E+01 -0.10287814500E+03  0.10288714448E+03  0.00000000000E+00 0.  1.
<mgrwt>
<rscale>  0 0.88338572E+02</rscale>
<asrwt>0</asrwt>
<pdfrwt beam="2">  1        2 0.12059278E+00 0.88338572E+02</pdfrwt>
<pdfrwt beam="1">  1       -2 0.38290651E-03 0.88338572E+02</pdfrwt>
<totfact> 0.26391414E+05</totfact>
</mgrwt>
</event>
<event>
 7    1  0.3891761E-009  0.9152413E+02  0.7818608E-02  0.1299202E+00
          2   -1    0    0  501    0  0.00000000000E+00  0.00000000000E+00  0.27333994333E+02  0.27333994452E+02  0.25500000000E-02 0. -1.
         -2   -1    0    0    0  501 -0.00000000000E+00 -0.00000000000E+00 -0.76614003405E+02  0.76614003447E+02  0.25500000000E-02 0.  1.
         23    2    1    2    0    0  0.17763568394E-14  0.71054273576E-14 -0.49280009072E+02  0.10394799790E+03  0.91524133283E+02 0.  0.
    9000005    2    3    3    0    0  0.12722973397E+02  0.32176985098E+02 -0.58118339247E+02  0.68235976081E+02  0.90096977056E+01 0.  0.
         22    1    3    3    0    0 -0.12722973397E+02 -0.32176985098E+02  0.88383301752E+01  0.35712021819E+02  0.00000000000E+00 0. -1.
         22    1    4    4    0    0  0.11915170072E+02  0.30382547861E+02 -0.57596788737E+02  0.66200155326E+02  0.00000000000E+00 0. -1.
         22    1    4    4    0    0  0.80780332597E+00  0.17944372372E+01 -0.52155051058E+00  0.20358207551E+01  0.00000000000E+00 0. -1.
<mgrwt>
<rscale>  0 0.91524133E+02</rscale>
<asrwt>0</asrwt>
<pdfrwt beam="1">  1        2 0.42052299E-02 0.91524133E+02</pdfrwt>
<pdfrwt beam="2">  1       -2 0.11786770E-01 0.91524133E+02</pdfrwt>
<totfact> 0.85296091E+04</totfact>
</mgrwt>
</event>
<event>
 7    1  0.3891761E-009  0.8142156E+02  0.7818608E-02  0.1325065E+00
          2   -1    0    0  501    0  0.00000000000E+00  0.00000000000E+00  0.75679001270E+01  0.75679005567E+01  0.25500000000E-02 0.  1.
         -2   -1    0    0    0  501 -0.00000000000E+00 -0.00000000000E+00 -0.21899963435E+03  0.21899963436E+03  0.25500000000E-02 0. -1.
         23    2    1    2    0    0  0.35527136788E-14  0.00000000000E+00 -0.21143173422E+03  0.22656753492E+03  0.81421555155E+02 0.  0.
    9000005    2    3    3    0    0  0.28360977921E+02  0.28913734423E+02 -0.10906642514E+03  0.11648117968E+03  0.56595953629E+01 0.  0.
         22    1    3    3    0    0 -0.28360977921E+02 -0.28913734423E+02 -0.10236530908E+03  0.11008635524E+03  0.00000000000E+00 0.  1.
         22    1    4    4    0    0  0.20267038443E+02  0.17697696007E+02 -0.67075997196E+02  0.72271368405E+02  0.00000000000E+00 0. -1.
         22    1    4    4    0    0  0.80939394782E+01  0.11216038416E+02 -0.41990427940E+02  0.44209811271E+02  0.00000000000E+00 0. -1.
<mgrwt>
<rscale>  0 0.81421555E+02</rscale>
<asrwt>0</asrwt>
<pdfrwt beam="1">  1        2 0.11642925E-02 0.81421555E+02</pdfrwt>
<pdfrwt beam="2">  1       -2 0.33692247E-01 0.81421555E+02</pdfrwt>
<totfact> 0.79892517E+04</totfact>
</mgrwt>
</event>
<event>
 7    1  0.3891761E-009  0.9183058E+02  0.7818608E-02  0.1298478E+00
          2   -1    0    0  501    0  0.00000000000E+00  0.00000000000E+00  0.28973191059E+02  0.28973191171E+02  0.25500000000E-02 0.  1.
         -2   -1    0    0    0  501 -0.00000000000E+00 -0.00000000000E+00 -0.72764299407E+02  0.72764299451E+02  0.25500000000E-02 0. -1.
         23    2    1    2    0    0  0.35527136788E-14  0.71054273576E-14 -0.43791108348E+02  0.10173749062E+03  0.91830582204E+02 0.  0.
    9000005    2    3    3    0    0 -0.20147842816E+02 -0.40730838481E+02 -0.24922924146E+02  0.52534389617E+02  0.85891309783E+01 0.  0.
         22    1    3    3    0    0  0.20147842816E+02  0.40730838481E+02 -0.18868184202E+02  0.49203101006E+02  0.00000000000E+00 0.  1.
         22    1    4    4    0    0 -0.60316028696E+01 -0.17307557187E+02 -0.60297879718E+01  0.19294820858E+02  0.00000000000E+00 0. -1.
         22    1    4    4    0    0 -0.14116239947E+02 -0.23423281294E+02 -0.18893136174E+02  0.33239568759E+02  0.00000000000E+00 0. -1.
<mgrwt>
<rscale>  0 0.91830582E+02</rscale>
<asrwt>0</asrwt>
<pdfrwt beam="1">  1        2 0.44574140E-02 0.91830582E+02</pdfrwt>
<pdfrwt beam="2">  1       -2 0.11194508E-01 0.91830582E+02</pdfrwt>
<totfact> 0.85796415E+04</totfact>
</mgrwt>
</event>
<event>
 7    1  0.3891761E-009  0.8876398E+02  0.7818608E-02  0.1305873E+00
          2   -1    0    0  501    0  0.00000000000E+00  0.00000000000E+00  0.18301760316E+03  0.18301760318E+03  0.25500000000E-02 0. -1.
         -2   -1    0    0    0  501 -0.00000000000E+00 -0.00000000000E+00 -0.10762685937E+02  0.10762686239E+02  0.25500000000E-02 0.  1.
         23    2    1    2    0    0  0.88817841970E-15 -0.35527136788E-14  0.17225491722E+03  0.19378028941E+03  0.88763979510E+02 0.  0.
    9000005    2    3    3    0    0  0.63196181538E+01 -0.21895028109E+02  0.16900885401E+03  0.17076145461E+03  0.87265008157E+01 0.  0.
         22    1    3    3    0    0 -0.63196181538E+01  0.21895028109E+02  0.32460632125E+01  0.23018834808E+02  0.00000000000E+00 0.  1.
         22    1    4    4    0    0  0.33907457764E+01 -0.15009587876E+02  0.13833289739E+03  0.13918611779E+03  0.00000000000E+00 0. -1.
         22    1    4    4    0    0  0.29288723774E+01 -0.68854402336E+01  0.30675956621E+02  0.31575336819E+02  0.00000000000E+00 0. -1.
<mgrwt>
<rscale>  0 0.88763980E+02</rscale>
<asrwt>0</asrwt>
<pdfrwt beam="1">  1        2 0.28156554E-01 0.88763980E+02</pdfrwt>
<pdfrwt beam="2">  1       -2 0.16557979E-02 0.88763980E+02</pdfrwt>
<totfact> 0.16104873E+05</totfact>
</mgrwt>
</event>
<event>
 7    1  0.3891761E-009  0.9587756E+02  0.7818608E-02  0.1289212E+00
          2   -1    0    0  501    0  0.00000000000E+00  0.00000000000E+00  0.75042338568E+03  0.75042338568E+03  0.25500000000E-02 0.  1.
         -2   -1    0    0    0  501 -0.00000000000E+00 -0.00000000000E+00 -0.30624396611E+01  0.30624407228E+01  0.25500000000E-02 0. -1.
         23    2    1    2    0    0  0.00000000000E+00  0.00000000000E+00  0.74736094602E+03  0.75348582640E+03  0.95877562350E+02 0.  0.
    9000005    2    3    3    0    0 -0.32141498579E+02  0.97787298159E+01  0.64191198764E+03  0.64281432009E+03  0.55272729642E+01 0.  0.
         22    1    3    3    0    0  0.32141498579E+02 -0.97787298159E+01  0.10544895837E+03  0.11067150631E+03  0.00000000000E+00 0. -1.
         22    1    4    4    0    0 -0.25632720855E+02  0.59778714400E+01  0.46875586511E+03  0.46949423042E+03  0.00000000000E+00 0.  1.
         22    1    4    4    0    0 -0.65087777242E+01  0.38008583759E+01  0.17315612253E+03  0.17332008967E+03  0.00000000000E+00 0.  1.
<mgrwt>
<rscale>  0 0.95877562E+02</rscale>
<asrwt>0</asrwt>
<pdfrwt beam="1">  1        2 0.11544999E+00 0.95877562E+02</pdfrwt>
<pdfrwt beam="2">  1       -2 0.47114369E-03 0.95877562E+02</pdfrwt>
<totfact> 0.21082306E+05</totfact>
</mgrwt>
</event>
<event>
 7    1  0.3891761E-009  0.9590370E+02  0.7818608E-02  0.1289154E+00
          2   -1    0    0  501    0  0.00000000000E+00  0.00000000000E+00  0.53772724354E+03  0.53772724354E+03  0.25500000000E-02 0. -1.
         -2   -1    0    0    0  501 -0.00000000000E+00 -0.00000000000E+00 -0.42761080195E+01  0.42761087799E+01  0.25500000000E-02 0.  1.
         23    2    1    2    0    0  0.35527136788E-14  0.00000000000E+00  0.53345113552E+03  0.54200335232E+03  0.95903701412E+02 0.  0.
    9000005    2    3    3    0    0 -0.25959605970E+02 -0.35371982853E+02  0.37540105051E+03  0.37797619700E+03  0.38702015412E+01 0.  0.
         22    1    3    3    0    0  0.25959605970E+02  0.35371982853E+02  0.15805008500E+03  0.16402715532E+03  0.00000000000E+00 0.  1.
         22    1    4    4    0    0 -0.47139782547E+01 -0.70699671982E+01  0.60785503841E+02  0.61376571298E+02  0.00000000000E+00 0. -1.
         22    1    4    4    0    0 -0.21245627716E+02 -0.28302015655E+02  0.31461554667E+03  0.31659962570E+03  0.00000000000E+00 0. -1.
<mgrwt>
<rscale>  0 0.95903701E+02</rscale>
<asrwt>0</asrwt>
<pdfrwt beam="1">  1        2 0.82727236E-01 0.95903701E+02</pdfrwt>
<pdfrwt beam="2">  1       -2 0.65786309E-03 0.95903701E+02</pdfrwt>
<totfact> 0.19286916E+05</totfact>
</mgrwt>
</event>
<event>
 7    1  0.3891761E-009  0.9178687E+02  0.7818608E-02  0.1298581E+00
          2   -1    0    0  501    0  0.00000000000E+00  0.00000000000E+00  0.24163574140E+03  0.24163574141E+03  0.25500000000E-02 0. -1.
         -2   -1    0    0    0  501 -0.00000000000E+00 -0.00000000000E+00 -0.87164567686E+01  0.87164571416E+01  0.25500000000E-02 0.  1.
         23    2    1    2    0    0  0.00000000000E+00  0.00000000000E+00  0.23291928463E+03  0.25035219855E+03  0.91786873615E+02 0.  0.
    9000005    2    3    3    0    0 -0.13925087817E+02 -0.43591230559E+02  0.11511850629E+03  0.12397527491E+03  0.48471482196E+01 0.  0.
         22    1    3    3    0    0  0.13925087817E+02  0.43591230559E+02  0.11780077834E+03  0.12637692364E+03  0.00000000000E+00 0. -1.
         22    1    4    4    0    0 -0.14228617974E+02 -0.43222059493E+02  0.11433808141E+03  0.12306013512E+03  0.00000000000E+00 0. -1.
         22    1    4    4    0    0  0.30353015668E+00 -0.36917106637E+00  0.78042488201E+00  0.91513978643E+00  0.00000000000E+00 0. -1.
<mgrwt>
<rscale>  0 0.91786874E+02</rscale>
<asrwt>0</asrwt>
<pdfrwt beam="1">  1        2 0.37174728E-01 0.91786874E+02</pdfrwt>
<pdfrwt beam="2">  1       -2 0.13409934E-02 0.91786874E+02</pdfrwt>
<totfact> 0.16282267E+05</totfact>
</mgrwt>
</event>
<event>
 7    1  0.3891761E-009  0.9122092E+02  0.7818608E-02  0.1299922E+00
          2   -1    0    0  501    0  0.00000000000E+00  0.00000000000E+00  0.29959428237E+03  0.29959428238E+03  0.25500000000E-02 0. -1.
         -2   -1    0    0    0  501 -0.00000000000E+00 -0.00000000000E+00 -0.69437711107E+01  0.69437715789E+01  0.25500000000E-02 0.  1.
         23    2    1    2    0    0  0.00000000000E+00  0.00000000000E+00  0.29265051126E+03  0.30653805396E+03  0.91220922957E+02 0.  0.
    9000005    2    3    3    0    0 -0.24979163178E+02  0.37369591288E+02  0.16530096902E+03  0.17148861540E+03  0.79680554438E+01 0.  0.
         22    1    3    3    0    0  0.24979163178E+02 -0.37369591288E+02  0.12734954224E+03  0.13504943856E+03  0.00000000000E+00 0. -1.
         22    1    4    4    0    0 -0.18908430684E+02  0.33077006163E+02  0.13352484260E+03  0.13885424257E+03  0.00000000000E+00 0. -1.
         22    1    4    4    0    0 -0.60707324938E+01  0.42925851255E+01  0.31776126417E+02  0.32634372832E+02  0.00000000000E+00 0. -1.
<mgrwt>
<rscale>  0 0.91220923E+02</rscale>
<asrwt>0</asrwt>
<pdfrwt beam="1">  1        2 0.46091437E-01 0.91220923E+02</pdfrwt>
<pdfrwt beam="2">  1       -2 0.10682723E-02 0.91220923E+02</pdfrwt>
<totfact> 0.17933805E+05</totfact>
</mgrwt>
</event>
<event>
 7    1  0.3891761E-009  0.9001185E+02  0.7818608E-02  0.1302823E+00
          2   -1    0    0  501    0  0.00000000000E+00  0.00000000000E+00  0.59039623387E+01  0.59039628894E+01  0.25500000000E-02 0. -1.
         -2   -1    0    0    0  501 -0.00000000000E+00 -0.00000000000E+00 -0.34308030931E+03  0.34308030932E+03  0.25500000000E-02 0.  1.
         23    2    1    2    0    0  0.00000000000E+00 -0.88817841970E-15 -0.33717634697E+03  0.34898427221E+03  0.90011850843E+02 0.  0.
    9000005    2    3    3    0    0  0.34247127255E+02 -0.54179262108E+01 -0.27781351654E+03  0.28023716110E+03  0.12259561025E+02 0.  0.
         22    1    3    3    0    0 -0.34247127255E+02  0.54179262108E+01 -0.59362830428E+02  0.68747111111E+02  0.00000000000E+00 0. -1.
         22    1    4    4    0    0  0.18670263034E+02 -0.60234665748E+01 -0.11321532238E+03  0.11490243728E+03  0.00000000000E+00 0. -1.
         22    1    4    4    0    0  0.15576864221E+02  0.60554036402E+00 -0.16459819416E+03  0.16533472382E+03  0.00000000000E+00 0. -1.
<mgrwt>
<rscale>  0 0.90011851E+02</rscale>
<asrwt>0</asrwt>
<pdfrwt beam="1">  1        2 0.90830220E-03 0.90011851E+02</pdfrwt>
<pdfrwt beam="2">  1       -2 0.52781571E-01 0.90011851E+02</pdfrwt>
<totfact> 0.48722604E+04</totfact>
</mgrwt>
</event>
<event>
 7    1  0.3891761E-009  0.9153755E+02  0.7818608E-02  0.1299170E+00
         -2   -1    0    0    0  501 -0.00000000000E+00  0.00000000000E+00  0.27321342997E+01  0.27321354898E+01  0.25500000000E-02 0.  1.
          2   -1    0    0  501    0  0.00000000000E+00 -0.00000000000E+00 -0.76671945333E+03  0.76671945333E+03  0.25500000000E-02 0. -1.
         23    2    1    2    0    0  0.00000000000E+00  0.00000000000E+00 -0.76398731903E+03  0.76945158882E+03  0.91537554614E+02 0.  0.
    9000005    2    3    3    0    0 -0.11199397795E+02 -0.63702195963E+01 -0.75072157814E+03  0.75095872290E+03  0.13788016818E+02 0.  0.
         22    1    3    3    0    0  0.11199397795E+02  0.63702195963E+01 -0.13265740891E+02  0.18492865924E+02  0.00000000000E+00 0.  1.
         22    1    4    4    0    0 -0.29428240186E+01 -0.24498213536E+01 -0.41028715161E+02  0.41207005541E+02  0.00000000000E+00 0. -1.
         22    1    4    4    0    0 -0.82565737767E+01 -0.39203982427E+01 -0.70969286297E+03  0.70975171736E+03  0.00000000000E+00 0. -1.
<mgrwt>
<rscale>  0 0.91537555E+02</rscale>
<asrwt>0</asrwt>
<pdfrwt beam="2">  1        2 0.11795667E+00 0.91537555E+02</pdfrwt>
<pdfrwt beam="1">  1       -2 0.42032906E-03 0.91537555E+02</pdfrwt>
<totfact> 0.23931965E+05</totfact>
</mgrwt>
</event>
<event>
 7    1  0.3891761E-009  0.9069374E+02  0.7818608E-02  0.1301180E+00
          2   -1    0    0  501    0  0.00000000000E+00  0.00000000000E+00  0.27040168873E+02  0.27040168993E+02  0.25500000000E-02 0. -1.
         -2   -1    0    0    0  501 -0.00000000000E+00 -0.00000000000E+00 -0.76047553650E+02  0.76047553693E+02  0.25500000000E-02 0.  1.
         23    2    1    2    0    0 -0.35527136788E-14  0.17763568394E-14 -0.49007384778E+02  0.10308772269E+03  0.90693741823E+02 0.  0.
    9000005    2    3    3    0    0  0.26371020628E+02 -0.83564654284E+01 -0.64702549208E+02  0.71282071774E+02  0.11377725559E+02 0.  0.
         22    1    3    3    0    0 -0.26371020628E+02  0.83564654284E+01  0.15695164431E+02  0.31805650912E+02  0.00000000000E+00 0. -1.
         22    1    4    4    0    0  0.19567013463E+02 -0.21645667537E+01 -0.51970393242E+02  0.55574050948E+02  0.00000000000E+00 0.  1.
         22    1    4    4    0    0  0.68040071656E+01 -0.61918986747E+01 -0.12732155966E+02  0.15708020826E+02  0.00000000000E+00 0.  1.
<mgrwt>
<rscale>  0 0.90693742E+02</rscale>
<asrwt>0</asrwt>
<pdfrwt beam="1">  1        2 0.41600260E-02 0.90693742E+02</pdfrwt>
<pdfrwt beam="2">  1       -2 0.11699624E-01 0.90693742E+02</pdfrwt>
<totfact> 0.87398942E+04</totfact>
</mgrwt>
</event>
<event>
 7    1  0.3891761E-009  0.9184579E+02  0.7818608E-02  0.1298442E+00
          2   -1    0    0  501    0  0.00000000000E+00  0.00000000000E+00  0.21109666889E+03  0.21109666890E+03  0.25500000000E-02 0. -1.
         -2   -1    0    0    0  501 -0.00000000000E+00 -0.00000000000E+00 -0.99902677051E+01  0.99902680306E+01  0.25500000000E-02 0.  1.
         23    2    1    2    0    0 -0.17763568394E-14  0.00000000000E+00  0.20110640118E+03  0.22108693693E+03  0.91845789703E+02 0.  0.
    9000005    2    3    3    0    0  0.13344042235E+02 -0.35961127020E+02  0.45570396053E+02  0.60891072407E+02  0.12641027756E+02 0.  0.
         22    1    3    3    0    0 -0.13344042235E+02  0.35961127020E+02  0.15553600513E+03  0.16019586453E+03  0.00000000000E+00 0. -1.
         22    1    4    4    0    0  0.67558974954E+01 -0.10437293261E+02  0.23184791965E+02  0.26308056182E+02  0.00000000000E+00 0.  1.
         22    1    4    4    0    0  0.65881447392E+01 -0.25523833759E+02  0.22385604088E+02  0.34583016225E+02  0.00000000000E+00 0.  1.
<mgrwt>
<rscale>  0 0.91845790E+02</rscale>
<asrwt>0</asrwt>
<pdfrwt beam="1">  1        2 0.32476410E-01 0.91845790E+02</pdfrwt>
<pdfrwt beam="2">  1       -2 0.15369643E-02 0.91845790E+02</pdfrwt>
<totfact> 0.15466790E+05</totfact>
</mgrwt>
</event>
<event>
 7    1  0.3891761E-009  0.9784813E+02  0.7818608E-02  0.1284887E+00
          2   -1    0    0  501    0  0.00000000000E+00  0.00000000000E+00  0.61136565580E+03  0.61136565581E+03  0.25500000000E-02 0. -1.
         -2   -1    0    0    0  501 -0.00000000000E+00 -0.00000000000E+00 -0.39151104951E+01  0.39151113255E+01  0.25500000000E-02 0.  1.
         23    2    1    2    0    0  0.00000000000E+00  0.00000000000E+00  0.60745054530E+03  0.61528076713E+03  0.97848134422E+02 0.  0.
    9000005    2    3    3    0    0 -0.35937618141E+02 -0.31534251137E+02  0.35134934566E+03  0.35475486467E+03  0.10896325996E+02 0.  0.
         22    1    3    3    0    0  0.35937618141E+02  0.31534251137E+02  0.25610119964E+03  0.26052590246E+03  0.00000000000E+00 0. -1.
         22    1    4    4    0    0 -0.36714338150E+01 -0.74815720281E+01  0.80801448396E+02  0.81230089309E+02  0.00000000000E+00 0. -1.
         22    1    4    4    0    0 -0.32266184326E+02 -0.24052679109E+02  0.27054789727E+03  0.27352477536E+03  0.00000000000E+00 0. -1.
<mgrwt>
<rscale>  0 0.97848134E+02</rscale>
<asrwt>0</asrwt>
<pdfrwt beam="1">  1        2 0.94056228E-01 0.97848134E+02</pdfrwt>
<pdfrwt beam="2">  1       -2 0.60232493E-03 0.97848134E+02</pdfrwt>
<totfact> 0.18994883E+05</totfact>
</mgrwt>
</event>
<event>
 7    1  0.3891761E-009  0.9116449E+02  0.7818608E-02  0.1300056E+00
          2   -1    0    0  501    0  0.00000000000E+00  0.00000000000E+00  0.82237713158E+02  0.82237713197E+02  0.25500000000E-02 0. -1.
         -2   -1    0    0    0  501 -0.00000000000E+00 -0.00000000000E+00 -0.25265061483E+02  0.25265061612E+02  0.25500000000E-02 0.  1.
         23    2    1    2    0    0  0.00000000000E+00  0.00000000000E+00  0.56972651674E+02  0.10750277481E+03  0.91164486248E+02 0.  0.
    9000005    2    3    3    0    0 -0.42263425160E+01 -0.17977853259E+02 -0.18343264390E+02  0.29955676918E+02  0.14825722655E+02 0.  0.
         22    1    3    3    0    0  0.42263425160E+01  0.17977853259E+02  0.75315916064E+02  0.77547097892E+02  0.00000000000E+00 0. -1.
         22    1    4    4    0    0  0.53924813630E+01 -0.74174963073E+01 -0.51868017125E+01  0.10535702099E+02  0.00000000000E+00 0.  1.
         22    1    4    4    0    0 -0.96188238790E+01 -0.10560356952E+02 -0.13156462677E+02  0.19419974818E+02  0.00000000000E+00 0.  1.
<mgrwt>
<rscale>  0 0.91164486E+02</rscale>
<asrwt>0</asrwt>
<pdfrwt beam="1">  1        2 0.12651956E-01 0.91164486E+02</pdfrwt>
<pdfrwt beam="2">  1       -2 0.38869326E-02 0.91164486E+02</pdfrwt>
<totfact> 0.11581253E+05</totfact>
</mgrwt>
</event>
<event>
 7    1  0.3891761E-009  0.8733127E+02  0.7818608E-02  0.1309446E+00
          2   -1    0    0  501    0  0.00000000000E+00  0.00000000000E+00  0.98654044960E+02  0.98654044993E+02  0.25500000000E-02 0. -1.
         -2   -1    0    0    0  501 -0.00000000000E+00 -0.00000000000E+00 -0.19327008093E+02  0.19327008261E+02  0.25500000000E-02 0.  1.
         23    2    1    2    0    0  0.00000000000E+00  0.00000000000E+00  0.79327036867E+02  0.11798105325E+03  0.87331266730E+02 0.  0.
    9000005    2    3    3    0    0  0.31970032569E+02 -0.21221584444E+02  0.64861857188E+02  0.76972760775E+02  0.15662271699E+02 0.  0.
         22    1    3    3    0    0 -0.31970032569E+02  0.21221584444E+02  0.14465179680E+02  0.41008292478E+02  0.00000000000E+00 0. -1.
         22    1    4    4    0    0  0.24550333494E+02 -0.14161826652E+02  0.32974108965E+02  0.43480663183E+02  0.00000000000E+00 0.  1.
         22    1    4    4    0    0  0.74196990755E+01 -0.70597577922E+01  0.31887748223E+02  0.33492097593E+02  0.00000000000E+00 0.  1.
<mgrwt>
<rscale>  0 0.87331267E+02</rscale>
<asrwt>0</asrwt>
<pdfrwt beam="1">  1        2 0.15177546E-01 0.87331267E+02</pdfrwt>
<pdfrwt beam="2">  1       -2 0.29733858E-02 0.87331267E+02</pdfrwt>
<totfact> 0.13750475E+05</totfact>
</mgrwt>
</event>
<event>
 7    1  0.3891761E-009  0.9353026E+02  0.7818608E-02  0.1294521E+00
          2   -1    0    0  501    0  0.00000000000E+00  0.00000000000E+00  0.55585836361E+02  0.55585836419E+02  0.25500000000E-02 0.  1.
         -2   -1    0    0    0  501 -0.00000000000E+00 -0.00000000000E+00 -0.39344150096E+02  0.39344150179E+02  0.25500000000E-02 0. -1.
         23    2    1    2    0    0  0.00000000000E+00  0.35527136788E-14  0.16241686265E+02  0.94929986598E+02  0.93530262390E+02 0.  0.
    9000005    2    3    3    0    0  0.39047646498E+02  0.23553117980E+02  0.17283954359E+02  0.49316892136E+02  0.73452507119E+01 0.  0.
         22    1    3    3    0    0 -0.39047646498E+02 -0.23553117980E+02 -0.10422680942E+01  0.45613094462E+02  0.00000000000E+00 0. -1.
         22    1    4    4    0    0  0.21687429718E+02  0.16155480469E+02  0.75179842672E+01  0.28068919544E+02  0.00000000000E+00 0. -1.
         22    1    4    4    0    0  0.17360216781E+02  0.73976375108E+01  0.97659700920E+01  0.21247972592E+02  0.00000000000E+00 0. -1.
<mgrwt>
<rscale>  0 0.93530262E+02</rscale>
<asrwt>0</asrwt>
<pdfrwt beam="1">  1        2 0.85516671E-02 0.93530262E+02</pdfrwt>
<pdfrwt beam="2">  1       -2 0.60529462E-02 0.93530262E+02</pdfrwt>
<totfact> 0.96669126E+04</totfact>
</mgrwt>
</event>
<event>
 7    1  0.3891761E-009  0.9270567E+02  0.7818608E-02  0.1296429E+00
         -2   -1    0    0    0  501 -0.00000000000E+00  0.00000000000E+00  0.39100573491E+02  0.39100573574E+02  0.25500000000E-02 0.  1.
          2   -1    0    0  501    0  0.00000000000E+00 -0.00000000000E+00 -0.54950226906E+02  0.54950226965E+02  0.25500000000E-02 0. -1.
         23    2    1    2    0    0  0.00000000000E+00 -0.35527136788E-14 -0.15849653415E+02  0.94050800539E+02  0.92705671718E+02 0.  0.
    9000005    2    3    3    0    0 -0.63563194293E+01 -0.30245215692E+02 -0.42690807313E+02  0.53116421205E+02  0.66085780322E+01 0.  0.
         22    1    3    3    0    0  0.63563194293E+01  0.30245215692E+02  0.26841153898E+02  0.40934379335E+02  0.00000000000E+00 0.  1.
         22    1    4    4    0    0 -0.71876929168E+00 -0.18520292027E+02 -0.23452081345E+02  0.29891770866E+02  0.00000000000E+00 0. -1.
         22    1    4    4    0    0 -0.56375501376E+01 -0.11724923665E+02 -0.19238725967E+02  0.23224650339E+02  0.00000000000E+00 0. -1.
<mgrwt>
<rscale>  0 0.92705672E+02</rscale>
<asrwt>0</asrwt>
<pdfrwt beam="2">  1        2 0.84538811E-02 0.92705672E+02</pdfrwt>
<pdfrwt beam="1">  1       -2 0.60154728E-02 0.92705672E+02</pdfrwt>
<totfact> 0.98832708E+04</totfact>
</mgrwt>
</event>
<event>
 7    1  0.3891761E-009  0.9643358E+02  0.7818608E-02  0.1287980E+00
          2   -1    0    0  501    0  0.00000000000E+00  0.00000000000E+00  0.17962010524E+03  0.17962010526E+03  0.25500000000E-02 0. -1.
         -2   -1    0    0    0  501 -0.00000000000E+00 -0.00000000000E+00 -0.12943199992E+02  0.12943200243E+02  0.25500000000E-02 0.  1.
         23    2    1    2    0    0  0.00000000000E+00  0.00000000000E+00  0.16667690525E+03  0.19256330550E+03  0.96433582752E+02 0.  0.
    9000005    2    3    3    0    0  0.36325421889E+01  0.46732762331E+02  0.10057355747E+03  0.11152751695E+03  0.11233883489E+02 0.  0.
         22    1    3    3    0    0 -0.36325421889E+01 -0.46732762331E+02  0.66103347783E+02  0.81035788550E+02  0.00000000000E+00 0. -1.
         22    1    4    4    0    0  0.70087586851E+01  0.24671574572E+02  0.48253861578E+02  0.54646541037E+02  0.00000000000E+00 0. -1.
         22    1    4    4    0    0 -0.33762164962E+01  0.22061187759E+02  0.52319695888E+02  0.56880975914E+02  0.00000000000E+00 0. -1.
<mgrwt>
<rscale>  0 0.96433583E+02</rscale>
<asrwt>0</asrwt>
<pdfrwt beam="1">  1        2 0.27633863E-01 0.96433583E+02</pdfrwt>
<pdfrwt beam="2">  1       -2 0.19912615E-02 0.96433583E+02</pdfrwt>
<totfact> 0.12785172E+05</totfact>
</mgrwt>
</event>
<event>
 7    1  0.3891761E-009  0.9164050E+02  0.7818608E-02  0.1298927E+00
          2   -1    0    0  501    0  0.00000000000E+00  0.00000000000E+00  0.58088242395E+03  0.58088242396E+03  0.25500000000E-02 0. -1.
         -2   -1    0    0    0  501 -0.00000000000E+00 -0.00000000000E+00 -0.36143200582E+01  0.36143209578E+01  0.25500000000E-02 0.  1.
         23    2    1    2    0    0  0.22204460493E-15 -0.71054273576E-14  0.57726810390E+03  0.58449674492E+03  0.91640498927E+02 0.  0.
    9000005    2    3    3    0    0 -0.18276310694E+01  0.40315904816E+02  0.42118718460E+03  0.42328270773E+03  0.11869868565E+02 0.  0.
         22    1    3    3    0    0  0.18276310694E+01 -0.40315904816E+02  0.15608091930E+03  0.16121403718E+03  0.00000000000E+00 0.  1.
         22    1    4    4    0    0  0.60500432565E+00  0.35855870721E+01  0.15147679554E+02  0.15578018512E+02  0.00000000000E+00 0.  1.
         22    1    4    4    0    0 -0.24326353951E+01  0.36730317744E+02  0.40603950505E+03  0.40770468922E+03  0.00000000000E+00 0.  1.
<mgrwt>
<rscale>  0 0.91640499E+02</rscale>
<asrwt>0</asrwt>
<pdfrwt beam="1">  1        2 0.89366439E-01 0.91640499E+02</pdfrwt>
<pdfrwt beam="2">  1       -2 0.55604985E-03 0.91640499E+02</pdfrwt>
<totfact> 0.22272860E+05</totfact>
</mgrwt>
</event>
<event>
 7    1  0.3891761E-009  0.9160853E+02  0.7818608E-02  0.1299002E+00
          2   -1    0    0  501    0  0.00000000000E+00  0.00000000000E+00  0.29905563344E+03  0.29905563346E+03  0.25500000000E-02 0. -1.
         -2   -1    0    0    0  501 -0.00000000000E+00 -0.00000000000E+00 -0.70155200224E+01  0.70155204859E+01  0.25500000000E-02 0.  1.
         23    2    1    2    0    0  0.00000000000E+00  0.00000000000E+00  0.29204011342E+03  0.30607115394E+03  0.91608533595E+02 0.  0.
    9000005    2    3    3    0    0 -0.27557248708E+02 -0.35204147938E+02  0.13500417251E+03  0.14279525025E+03  0.12869456484E+02 0.  0.
         22    1    3    3    0    0  0.27557248708E+02  0.35204147938E+02  0.15703594091E+03  0.16327590369E+03  0.00000000000E+00 0. -1.
         22    1    4    4    0    0 -0.11265080279E+02 -0.97122776524E+01  0.62235966169E+02  0.63988638490E+02  0.00000000000E+00 0. -1.
         22    1    4    4    0    0 -0.16292168429E+02 -0.25491870286E+02  0.72768206345E+02  0.78806611762E+02  0.00000000000E+00 0. -1.
<mgrwt>
<rscale>  0 0.91608534E+02</rscale>
<asrwt>0</asrwt>
<pdfrwt beam="1">  1        2 0.46008549E-01 0.91608534E+02</pdfrwt>
<pdfrwt beam="2">  1       -2 0.10793110E-02 0.91608534E+02</pdfrwt>
<totfact> 0.17719969E+05</totfact>
</mgrwt>
</event>
<event>
 7    1  0.3891761E-009  0.9005367E+02  0.7818608E-02  0.1302722E+00
          2   -1    0    0  501    0  0.00000000000E+00  0.00000000000E+00  0.18768734874E+03  0.18768734876E+03  0.25500000000E-02 0. -1.
         -2   -1    0    0    0  501 -0.00000000000E+00 -0.00000000000E+00 -0.10802091352E+02  0.10802091653E+02  0.25500000000E-02 0.  1.
         23    2    1    2    0    0  0.35527136788E-14  0.88817841970E-15  0.17688525739E+03  0.19848944041E+03  0.90053671069E+02 0.  0.
    9000005    2    3    3    0    0  0.26037502401E+02  0.52908865702E+01  0.16778143629E+03  0.17040341950E+03  0.13445073489E+02 0.  0.
         22    1    3    3    0    0 -0.26037502401E+02 -0.52908865702E+01  0.91038210955E+01  0.28086020909E+02  0.00000000000E+00 0.  1.
         22    1    4    4    0    0 -0.23814500532E+00 -0.82836430445E+00  0.29620737184E+02  0.29633274739E+02  0.00000000000E+00 0.  1.
         22    1    4    4    0    0  0.26275647406E+02  0.61192508746E+01  0.13816069911E+03  0.14077014476E+03  0.00000000000E+00 0.  1.
<mgrwt>
<rscale>  0 0.90053671E+02</rscale>
<asrwt>0</asrwt>
<pdfrwt beam="1">  1        2 0.28874975E-01 0.90053671E+02</pdfrwt>
<pdfrwt beam="2">  1       -2 0.16618603E-02 0.90053671E+02</pdfrwt>
<totfact> 0.15631557E+05</totfact>
</mgrwt>
</event>
<event>
 7    1  0.3891761E-009  0.1051856E+03  0.7818608E-02  0.1269754E+00
         -2   -1    0    0    0  501 -0.00000000000E+00  0.00000000000E+00  0.37758895507E+03  0.37758895508E+03  0.25500000000E-02 0.  1.
          2   -1    0    0  501    0  0.00000000000E+00 -0.00000000000E+00 -0.73254374678E+01  0.73254379116E+01  0.25500000000E-02 0. -1.
         23    2    1    2    0    0 -0.17763568394E-14 -0.71054273576E-14  0.37026351760E+03  0.38491439299E+03  0.10518563335E+03 0.  0.
    9000005    2    3    3    0    0  0.15438156645E+02  0.45437157676E+02  0.26139919752E+03  0.26594249646E+03  0.96435977945E+01 0.  0.
         22    1    3    3    0    0 -0.15438156645E+02 -0.45437157676E+02  0.10886432008E+03  0.11897189654E+03  0.00000000000E+00 0. -1.
         22    1    4    4    0    0  0.23768844703E+01  0.99955452716E+01  0.79645438429E+02  0.80305394387E+02  0.00000000000E+00 0. -1.
         22    1    4    4    0    0  0.13061272175E+02  0.35441612404E+02  0.18175375909E+03  0.18563710207E+03  0.00000000000E+00 0. -1.
<mgrwt>
<rscale>  0 0.10518563E+03</rscale>
<asrwt>0</asrwt>
<pdfrwt beam="2">  1        2 0.11269902E-02 0.10518563E+03</pdfrwt>
<pdfrwt beam="1">  1       -2 0.58090622E-01 0.10518563E+03</pdfrwt>
<totfact> 0.30619418E+04</totfact>
</mgrwt>
</event>
<event>
 7    1  0.3891761E-009  0.9357510E+02  0.7818608E-02  0.1294418E+00
         -2   -1    0    0    0  501 -0.00000000000E+00  0.00000000000E+00  0.25606924753E+01  0.25606937450E+01  0.25500000000E-02 0.  1.
          2   -1    0    0  501    0  0.00000000000E+00 -0.00000000000E+00 -0.85487595367E+03  0.85487595367E+03  0.25500000000E-02 0. -1.
         23    2    1    2    0    0  0.00000000000E+00  0.00000000000E+00 -0.85231526119E+03  0.85743664741E+03  0.93575102839E+02 0.  0.
    9000005    2    3    3    0    0  0.16110938313E+01  0.37705197450E+02 -0.67868369720E+03  0.67975097677E+03  0.50549024457E+01 0.  0.
         22    1    3    3    0    0 -0.16110938313E+01 -0.37705197450E+02 -0.17363156399E+03  0.17768567064E+03  0.00000000000E+00 0.  1.
         22    1    4    4    0    0 -0.55111344003E+00  0.22995796163E+02 -0.44600169764E+03  0.44659447451E+03  0.00000000000E+00 0. -1.
         22    1    4    4    0    0  0.21622072713E+01  0.14709401287E+02 -0.23268199956E+03  0.23315650226E+03  0.00000000000E+00 0. -1.
<mgrwt>
<rscale>  0 0.93575103E+02</rscale>
<asrwt>0</asrwt>
<pdfrwt beam="2">  1        2 0.13151915E+00 0.93575103E+02</pdfrwt>
<pdfrwt beam="1">  1       -2 0.39395347E-03 0.93575103E+02</pdfrwt>
<totfact> 0.23001679E+05</totfact>
</mgrwt>
</event>
<event>
 7    1  0.3891761E-009  0.9035977E+02  0.7818608E-02  0.1301983E+00
          2   -1    0    0  501    0  0.00000000000E+00  0.00000000000E+00  0.26898924947E+03  0.26898924949E+03  0.25500000000E-02 0. -1.
         -2   -1    0    0    0  501 -0.00000000000E+00 -0.00000000000E+00 -0.75884888022E+01  0.75884892306E+01  0.25500000000E-02 0.  1.
         23    2    1    2    0    0  0.00000000000E+00  0.00000000000E+00  0.26140076067E+03  0.27657773872E+03  0.90359769111E+02 0.  0.
    9000005    2    3    3    0    0 -0.41312841424E+02 -0.16864541691E+02  0.15157231776E+03  0.15803048862E+03  0.28816990672E+01 0.  0.
         22    1    3    3    0    0  0.41312841424E+02  0.16864541691E+02  0.10982844291E+03  0.11854725010E+03  0.00000000000E+00 0. -1.
         22    1    4    4    0    0 -0.98274350778E+01 -0.27236776294E+01  0.33889586296E+02  0.35390690292E+02  0.00000000000E+00 0. -1.
         22    1    4    4    0    0 -0.31485406346E+02 -0.14140864062E+02  0.11768273146E+03  0.12263979833E+03  0.00000000000E+00 0. -1.
<mgrwt>
<rscale>  0 0.90359769E+02</rscale>
<asrwt>0</asrwt>
<pdfrwt beam="1">  1        2 0.41382958E-01 0.90359769E+02</pdfrwt>
<pdfrwt beam="2">  1       -2 0.11674599E-02 0.90359769E+02</pdfrwt>
<totfact> 0.17669318E+05</totfact>
</mgrwt>
</event>
<event>
 7    1  0.3891761E-009  0.9345461E+02  0.7818608E-02  0.1294695E+00
         -2   -1    0    0    0  501 -0.00000000000E+00  0.00000000000E+00  0.83394087700E+02  0.83394087739E+02  0.25500000000E-02 0.  1.
          2   -1    0    0  501    0  0.00000000000E+00 -0.00000000000E+00 -0.26182201364E+02  0.26182201488E+02  0.25500000000E-02 0. -1.
         23    2    1    2    0    0  0.00000000000E+00  0.00000000000E+00  0.57211886336E+02  0.10957628923E+03  0.93454605145E+02 0.  0.
    9000005    2    3    3    0    0 -0.47475750413E+01  0.26509955909E+02  0.73334347389E+02  0.78187581362E+02  0.31708265909E+01 0.  0.
         22    1    3    3    0    0  0.47475750413E+01 -0.26509955909E+02 -0.16122461053E+02  0.31388707865E+02  0.00000000000E+00 0. -1.
         22    1    4    4    0    0 -0.31350004969E+01  0.12160766809E+02  0.37797442439E+02  0.39829124174E+02  0.00000000000E+00 0.  1.
         22    1    4    4    0    0 -0.16125745444E+01  0.14349189100E+02  0.35536904949E+02  0.38358457188E+02  0.00000000000E+00 0.  1.
<mgrwt>
<rscale>  0 0.93454605E+02</rscale>
<asrwt>0</asrwt>
<pdfrwt beam="2">  1        2 0.40280310E-02 0.93454605E+02</pdfrwt>
<pdfrwt beam="1">  1       -2 0.12829860E-01 0.93454605E+02</pdfrwt>
<totfact> 0.79140428E+04</totfact>
</mgrwt>
</event>
<event>
 7    1  0.3891761E-009  0.9045434E+02  0.7818608E-02  0.1301755E+00
         -2   -1    0    0    0  501 -0.00000000000E+00  0.00000000000E+00  0.31911160185E+02  0.31911160287E+02  0.25500000000E-02 0.  1.
          2   -1    0    0  501    0  0.00000000000E+00 -0.00000000000E+00 -0.64099728719E+02  0.64099728770E+02  0.25500000000E-02 0. -1.
         23    2    1    2    0    0  0.00000000000E+00  0.00000000000E+00 -0.32188568534E+02  0.96010889056E+02  0.90454335845E+02 0.  0.
    9000005    2    3    3    0    0  0.17042165012E+02  0.15052399802E+02 -0.56683468047E+02  0.62589186074E+02  0.13688701017E+02 0.  0.
         22    1    3    3    0    0 -0.17042165012E+02 -0.15052399802E+02  0.24494899513E+02  0.33421702982E+02  0.00000000000E+00 0.  1.
         22    1    4    4    0    0  0.11223032958E+02  0.15461902236E+02 -0.50930231482E+02  0.54395913158E+02  0.00000000000E+00 0. -1.
         22    1    4    4    0    0  0.58191320534E+01 -0.40950243443E+00 -0.57532365653E+01  0.81932729159E+01  0.00000000000E+00 0. -1.
<mgrwt>
<rscale>  0 0.90454336E+02</rscale>
<asrwt>0</asrwt>
<pdfrwt beam="2">  1        2 0.98614967E-02 0.90454336E+02</pdfrwt>
<pdfrwt beam="1">  1       -2 0.49094093E-02 0.90454336E+02</pdfrwt>
<totfact> 0.11041760E+05</totfact>
</mgrwt>
</event>
<event>
 7    1  0.3891761E-009  0.9114483E+02  0.7818608E-02  0.1300103E+00
         -2   -1    0    0    0  501 -0.00000000000E+00  0.00000000000E+00  0.41554629920E+01  0.41554637744E+01  0.25500000000E-02 0.  1.
          2   -1    0    0  501    0  0.00000000000E+00 -0.00000000000E+00 -0.49978657624E+03  0.49978657625E+03  0.25500000000E-02 0. -1.
         23    2    1    2    0    0  0.35527136788E-14 -0.35527136788E-14 -0.49563111325E+03  0.50394204002E+03  0.91144825859E+02 0.  0.
    9000005    2    3    3    0    0  0.16972270918E+02 -0.17634543383E+02 -0.45975553427E+03  0.46051287623E+03  0.98955941218E+01 0.  0.
         22    1    3    3    0    0 -0.16972270918E+02  0.17634543383E+02 -0.35875578980E+02  0.43429163791E+02  0.00000000000E+00 0.  1.
         22    1    4    4    0    0  0.87919540968E+01 -0.24213501682E+01 -0.15364245117E+03  0.15391284610E+03  0.00000000000E+00 0.  1.
         22    1    4    4    0    0  0.81803168213E+01 -0.15213193214E+02 -0.30611308310E+03  0.30660003013E+03  0.00000000000E+00 0.  1.
<mgrwt>
<rscale>  0 0.91144826E+02</rscale>
<asrwt>0</asrwt>
<pdfrwt beam="2">  1        2 0.76890195E-01 0.91144826E+02</pdfrwt>
<pdfrwt beam="1">  1       -2 0.63930245E-03 0.91144826E+02</pdfrwt>
<totfact> 0.21566737E+05</totfact>
</mgrwt>
</event>
<event>
 7    1  0.3891761E-009  0.9124302E+02  0.7818608E-02  0.1299869E+00
          2   -1    0    0  501    0  0.00000000000E+00  0.00000000000E+00  0.41967748273E+03  0.41967748273E+03  0.25500000000E-02 0. -1.
         -2   -1    0    0    0  501 -0.00000000000E+00 -0.00000000000E+00 -0.49593370624E+01  0.49593377180E+01  0.25500000000E-02 0.  1.
         23    2    1    2    0    0 -0.71054273576E-14  0.00000000000E+00  0.41471814566E+03  0.42463682045E+03  0.91243021326E+02 0.  0.
    9000005    2    3    3    0    0  0.41315422755E+02  0.17406863785E+02  0.23225384173E+03  0.23674540161E+03  0.98272641688E+01 0.  0.
         22    1    3    3    0    0 -0.41315422755E+02 -0.17406863785E+02  0.18246430394E+03  0.18789141885E+03  0.00000000000E+00 0. -1.
         22    1    4    4    0    0  0.82122233982E+01  0.47824628792E+00  0.57038367035E+02  0.57628505505E+02  0.00000000000E+00 0.  1.
         22    1    4    4    0    0  0.33103199357E+02  0.16928617497E+02  0.17521547469E+03  0.17911689610E+03  0.00000000000E+00 0.  1.
<mgrwt>
<rscale>  0 0.91243021E+02</rscale>
<asrwt>0</asrwt>
<pdfrwt beam="1">  1        2 0.64565798E-01 0.91243021E+02</pdfrwt>
<pdfrwt beam="2">  1       -2 0.76297461E-03 0.91243021E+02</pdfrwt>
<totfact> 0.20266542E+05</totfact>
</mgrwt>
</event>
<event>
 7    1  0.3891761E-009  0.8929891E+02  0.7818608E-02  0.1304558E+00
         -2   -1    0    0    0  501 -0.00000000000E+00  0.00000000000E+00  0.36753833083E+01  0.36753841929E+01  0.25500000000E-02 0.  1.
          2   -1    0    0  501    0  0.00000000000E+00 -0.00000000000E+00 -0.54241248533E+03  0.54241248534E+03  0.25500000000E-02 0. -1.
         23    2    1    2    0    0  0.00000000000E+00  0.35527136788E-14 -0.53873710202E+03  0.54608786953E+03  0.89298914617E+02 0.  0.
    9000005    2    3    3    0    0  0.33824417333E+02  0.21871872460E+02 -0.38184574802E+03  0.38410834312E+03  0.10515415642E+02 0.  0.
         22    1    3    3    0    0 -0.33824417333E+02 -0.21871872460E+02 -0.15689135401E+03  0.16197952641E+03  0.00000000000E+00 0.  1.
         22    1    4    4    0    0  0.65357596299E+01  0.97194131117E+01 -0.99691503555E+02  0.10037718379E+03  0.00000000000E+00 0.  1.
         22    1    4    4    0    0  0.27288657704E+02  0.12152459348E+02 -0.28215424446E+03  0.28373115933E+03  0.00000000000E+00 0.  1.
<mgrwt>
<rscale>  0 0.89298915E+02</rscale>
<asrwt>0</asrwt>
<pdfrwt beam="2">  1        2 0.83448011E-01 0.89298915E+02</pdfrwt>
<pdfrwt beam="1">  1       -2 0.56544409E-03 0.89298915E+02</pdfrwt>
<totfact> 0.23361957E+05</totfact>
</mgrwt>
</event>
<event>
 7    1  0.3891761E-009  0.9116599E+02  0.7818608E-02  0.1300052E+00
         -2   -1    0    0    0  501 -0.00000000000E+00  0.00000000000E+00  0.20165601155E+01  0.20165617278E+01  0.25500000000E-02 0.  1.
          2   -1    0    0  501    0  0.00000000000E+00 -0.00000000000E+00 -0.10303728397E+04  0.10303728397E+04  0.25500000000E-02 0. -1.
         23    2    1    2    0    0  0.17763568394E-14  0.00000000000E+00 -0.10283562796E+04  0.10323894014E+04  0.91165993801E+02 0.  0.
    9000005    2    3    3    0    0 -0.12011740274E+02  0.14152928379E+02 -0.98442835295E+03  0.98470030389E+03  0.13817347560E+02 0.  0.
         22    1    3    3    0    0  0.12011740274E+02 -0.14152928379E+02 -0.43927926607E+02  0.47689097518E+02  0.00000000000E+00 0.  1.
         22    1    4    4    0    0  0.28406001043E+01  0.25407555574E+01 -0.10329377262E+03  0.10336405522E+03  0.00000000000E+00 0. -1.
         22    1    4    4    0    0 -0.14852340378E+02  0.11612172822E+02 -0.88113458033E+03  0.88133624867E+03  0.00000000000E+00 0. -1.
<mgrwt>
<rscale>  0 0.91165994E+02</rscale>
<asrwt>0</asrwt>
<pdfrwt beam="2">  1        2 0.15851848E+00 0.91165994E+02</pdfrwt>
<pdfrwt beam="1">  1       -2 0.31024097E-03 0.91165994E+02</pdfrwt>
<totfact> 0.25033626E+05</totfact>
</mgrwt>
</event>
<event>
 7    1  0.3891761E-009  0.9195234E+02  0.7818608E-02  0.1298192E+00
          2   -1    0    0  501    0  0.00000000000E+00  0.00000000000E+00  0.62641349031E+01  0.62641354221E+01  0.25500000000E-02 0.  1.
         -2   -1    0    0    0  501 -0.00000000000E+00 -0.00000000000E+00 -0.33744611512E+03  0.33744611513E+03  0.25500000000E-02 0. -1.
         23    2    1    2    0    0  0.35527136788E-14  0.00000000000E+00 -0.33118198022E+03  0.34371025055E+03  0.91952337186E+02 0.  0.
    9000005    2    3    3    0    0  0.26361772440E+02  0.30682237746E+02 -0.24655844197E+03  0.24991533606E+03  0.55015571948E+01 0.  0.
         22    1    3    3    0    0 -0.26361772440E+02 -0.30682237746E+02 -0.84623538247E+02  0.93794914493E+02  0.00000000000E+00 0.  1.
         22    1    4    4    0    0  0.22021267191E+02  0.24241540280E+02 -0.21025309100E+03  0.21278851181E+03  0.00000000000E+00 0. -1.
         22    1    4    4    0    0  0.43405052493E+01  0.64406974656E+01 -0.36305350968E+02  0.37126824246E+02  0.00000000000E+00 0. -1.
<mgrwt>
<rscale>  0 0.91952337E+02</rscale>
<asrwt>0</asrwt>
<pdfrwt beam="1">  1        2 0.96371337E-03 0.91952337E+02</pdfrwt>
<pdfrwt beam="2">  1       -2 0.51914773E-01 0.91952337E+02</pdfrwt>
<totfact> 0.46583002E+04</totfact>
</mgrwt>
</event>
<event>
 7    1  0.3891761E-009  0.9165665E+02  0.7818608E-02  0.1298889E+00
          2   -1    0    0  501    0  0.00000000000E+00  0.00000000000E+00  0.11274070115E+02  0.11274070404E+02  0.25500000000E-02 0. -1.
         -2   -1    0    0    0  501 -0.00000000000E+00 -0.00000000000E+00 -0.18628900031E+03  0.18628900033E+03  0.25500000000E-02 0.  1.
         23    2    1    2    0    0  0.00000000000E+00  0.35527136788E-14 -0.17501493020E+03  0.19756307073E+03  0.91656648017E+02 0.  0.
    9000005    2    3    3    0    0  0.39149310398E+02  0.20837416080E+02 -0.10926721010E+03  0.11825588876E+03  0.88467853821E+01 0.  0.
         22    1    3    3    0    0 -0.39149310398E+02 -0.20837416080E+02 -0.65747720100E+02  0.79307181969E+02  0.00000000000E+00 0. -1.
         22    1    4    4    0    0  0.16131999668E+02  0.13440352134E+02 -0.53546677486E+02  0.57516355488E+02  0.00000000000E+00 0.  1.
         22    1    4    4    0    0  0.23017310730E+02  0.73970639457E+01 -0.55720532611E+02  0.60739533277E+02  0.00000000000E+00 0.  1.
<mgrwt>
<rscale>  0 0.91656648E+02</rscale>
<asrwt>0</asrwt>
<pdfrwt beam="1">  1        2 0.17344725E-02 0.91656648E+02</pdfrwt>
<pdfrwt beam="2">  1       -2 0.28659844E-01 0.91656648E+02</pdfrwt>
<totfact> 0.63368370E+04</totfact>
</mgrwt>
</event>
<event>
 7    1  0.3891761E-009  0.9111814E+02  0.7818608E-02  0.1300166E+00
          2   -1    0    0  501    0  0.00000000000E+00  0.00000000000E+00  0.98907408264E+02  0.98907408297E+02  0.25500000000E-02 0. -1.
         -2   -1    0    0    0  501 -0.00000000000E+00 -0.00000000000E+00 -0.20985577200E+02  0.20985577355E+02  0.25500000000E-02 0.  1.
         23    2    1    2    0    0  0.00000000000E+00 -0.71054273576E-14  0.77921831065E+02  0.11989298565E+03  0.91118144473E+02 0.  0.
    9000005    2    3    3    0    0 -0.14707952057E+02 -0.37838367864E+02  0.65811904437E+02  0.77528894026E+02  0.56086279092E+01 0.  0.
         22    1    3    3    0    0  0.14707952057E+02  0.37838367864E+02  0.12109926628E+02  0.42364091626E+02  0.00000000000E+00 0.  1.
         22    1    4    4    0    0  0.33630916800E+00 -0.30673904874E+01  0.45140655977E+01  0.54679773664E+01  0.00000000000E+00 0. -1.
         22    1    4    4    0    0 -0.15044261225E+02 -0.34770977377E+02  0.61297838839E+02  0.72060916660E+02  0.00000000000E+00 0. -1.
<mgrwt>
<rscale>  0 0.91118144E+02</rscale>
<asrwt>0</asrwt>
<pdfrwt beam="1">  1        2 0.15216524E-01 0.91118144E+02</pdfrwt>
<pdfrwt beam="2">  1       -2 0.32285503E-02 0.91118144E+02</pdfrwt>
<totfact> 0.12248435E+05</totfact>
</mgrwt>
</event>
<event>
 7    1  0.3891761E-009  0.8936909E+02  0.7818608E-02  0.1304387E+00
         -2   -1    0    0    0  501 -0.00000000000E+00  0.00000000000E+00  0.10973389961E+03  0.10973389964E+03  0.25500000000E-02 0. -1.
          2   -1    0    0  501    0  0.00000000000E+00 -0.00000000000E+00 -0.18195911783E+02  0.18195911961E+02  0.25500000000E-02 0.  1.
         23    2    1    2    0    0  0.11102230246E-15  0.00000000000E+00  0.91537987829E+02  0.12792981160E+03  0.89369085712E+02 0.  0.
    9000005    2    3    3    0    0  0.78314125108E+00 -0.32480618756E+02  0.25230211645E+01  0.33170811000E+02  0.61913780049E+01 0.  0.
         22    1    3    3    0    0 -0.78314125108E+00  0.32480618756E+02  0.89014966664E+02  0.94759000603E+02  0.00000000000E+00 0. -1.
         22    1    4    4    0    0 -0.18359961494E+01 -0.25980060717E+02  0.24761043722E+01  0.26162292131E+02  0.00000000000E+00 0.  1.
         22    1    4    4    0    0  0.26191374005E+01 -0.65005580392E+01  0.46916792354E-01  0.70085188685E+01  0.00000000000E+00 0.  1.
<mgrwt>
<rscale>  0 0.89369086E+02</rscale>
<asrwt>0</asrwt>
<pdfrwt beam="2">  1        2 0.27993710E-02 0.89369086E+02</pdfrwt>
<pdfrwt beam="1">  1       -2 0.16882139E-01 0.89369086E+02</pdfrwt>
<totfact> 0.81562329E+04</totfact>
</mgrwt>
</event>
<event>
 7    1  0.3891761E-009  0.9891192E+02  0.7818608E-02  0.1282601E+00
         -2   -1    0    0    0  501 -0.00000000000E+00  0.00000000000E+00  0.99476243621E+00  0.99476570457E+00  0.25500000000E-02 0.  1.
          2   -1    0    0  501    0  0.00000000000E+00 -0.00000000000E+00 -0.24587657241E+04  0.24587657241E+04  0.25500000000E-02 0. -1.
         23    2    1    2    0    0 -0.22204460493E-15  0.00000000000E+00 -0.24577709617E+04  0.24597604898E+04  0.98911916433E+02 0.  0.
    9000005    2    3    3    0    0  0.79186650179E+00 -0.10792411584E+02 -0.24284439592E+04  0.24285006710E+04  0.12583429438E+02 0.  0.
         22    1    3    3    0    0 -0.79186650179E+00  0.10792411584E+02 -0.29327002421E+02  0.31259818799E+02  0.00000000000E+00 0.  1.
         22    1    4    4    0    0 -0.53043383803E+01 -0.85598241426E+01 -0.13992354561E+04  0.13992716921E+04  0.00000000000E+00 0.  1.
         22    1    4    4    0    0  0.60962048821E+01 -0.22325874417E+01 -0.10292085031E+04  0.10292289789E+04  0.00000000000E+00 0.  1.
<mgrwt>
<rscale>  0 0.98911916E+02</rscale>
<asrwt>0</asrwt>
<pdfrwt beam="2">  1        2 0.37826679E+00 0.98911916E+02</pdfrwt>
<pdfrwt beam="1">  1       -2 0.15304259E-03 0.98911916E+02</pdfrwt>
<totfact> 0.12284818E+05</totfact>
</mgrwt>
</event>
<event>
 7    1  0.3891761E-009  0.9178000E+02  0.7818608E-02  0.1298598E+00
         -2   -1    0    0    0  501 -0.00000000000E+00  0.00000000000E+00  0.50652148479E+02  0.50652148543E+02  0.25500000000E-02 0. -1.
          2   -1    0    0  501    0  0.00000000000E+00 -0.00000000000E+00 -0.41575570431E+02  0.41575570509E+02  0.25500000000E-02 0.  1.
         23    2    1    2    0    0  0.00000000000E+00  0.00000000000E+00  0.90765780483E+01  0.92227719052E+02  0.91779997235E+02 0.  0.
    9000005    2    3    3    0    0 -0.25928387034E+02  0.35347818786E+02 -0.58966077195E+01  0.45903364344E+02  0.12271891803E+02 0.  0.
         22    1    3    3    0    0  0.25928387034E+02 -0.35347818786E+02  0.14973185768E+02  0.46324354708E+02  0.00000000000E+00 0. -1.
         22    1    4    4    0    0 -0.16412823354E+02  0.12260894415E+02 -0.14362953572E+01  0.20537118752E+02  0.00000000000E+00 0. -1.
         22    1    4    4    0    0 -0.95155636802E+01  0.23086924371E+02 -0.44603123623E+01  0.25366245592E+02  0.00000000000E+00 0. -1.
<mgrwt>
<rscale>  0 0.91779997E+02</rscale>
<asrwt>0</asrwt>
<pdfrwt beam="2">  1        2 0.63962416E-02 0.91779997E+02</pdfrwt>
<pdfrwt beam="1">  1       -2 0.77926383E-02 0.91779997E+02</pdfrwt>
<totfact> 0.94526383E+04</totfact>
</mgrwt>
</event>
<event>
 7    1  0.3891761E-009  0.8962294E+02  0.7818608E-02  0.1303767E+00
          2   -1    0    0  501    0  0.00000000000E+00  0.00000000000E+00  0.19519018499E+03  0.19519018501E+03  0.25500000000E-02 0.  1.
         -2   -1    0    0    0  501 -0.00000000000E+00 -0.00000000000E+00 -0.10287749219E+02  0.10287749535E+02  0.25500000000E-02 0. -1.
         23    2    1    2    0    0  0.00000000000E+00 -0.35527136788E-14  0.18490243577E+03  0.20547793454E+03  0.89622936960E+02 0.  0.
    9000005    2    3    3    0    0 -0.24921946841E+02 -0.21376054317E+02  0.30245720905E+02  0.47374365367E+02  0.15858364619E+02 0.  0.
         22    1    3    3    0    0  0.24921946841E+02  0.21376054317E+02  0.15465671487E+03  0.15810356918E+03  0.00000000000E+00 0.  1.
         22    1    4    4    0    0 -0.19682696654E+02 -0.12198984999E+02  0.28405053026E+02  0.36647930637E+02  0.00000000000E+00 0. -1.
         22    1    4    4    0    0 -0.52392501865E+01 -0.91770693177E+01  0.18406678794E+01  0.10726434730E+02  0.00000000000E+00 0. -1.
<mgrwt>
<rscale>  0 0.89622937E+02</rscale>
<asrwt>0</asrwt>
<pdfrwt beam="1">  1        2 0.30029259E-01 0.89622937E+02</pdfrwt>
<pdfrwt beam="2">  1       -2 0.15827307E-02 0.89622937E+02</pdfrwt>
<totfact> 0.16058151E+05</totfact>
</mgrwt>
</event>
<event>
 7    1  0.3891761E-009  0.8919149E+02  0.7818608E-02  0.1304822E+00
         -2   -1    0    0    0  501 -0.00000000000E+00  0.00000000000E+00  0.10872479651E+03  0.10872479654E+03  0.25500000000E-02 0.  1.
          2   -1    0    0  501    0  0.00000000000E+00 -0.00000000000E+00 -0.18291876753E+02  0.18291876930E+02  0.25500000000E-02 0. -1.
         23    2    1    2    0    0  0.00000000000E+00  0.00000000000E+00  0.90432919754E+02  0.12701667347E+03  0.89191492663E+02 0.  0.
    9000005    2    3    3    0    0  0.28056923600E+02 -0.32755834648E+02  0.43874088957E+02  0.63551246732E+02  0.15927636799E+02 0.  0.
         22    1    3    3    0    0 -0.28056923600E+02  0.32755834648E+02  0.46558830798E+02  0.63465426735E+02  0.00000000000E+00 0.  1.
         22    1    4    4    0    0  0.19667478385E+02 -0.12625416813E+02  0.16783765552E+02  0.28773349507E+02  0.00000000000E+00 0.  1.
         22    1    4    4    0    0  0.83894452153E+01 -0.20130417835E+02  0.27090323405E+02  0.34777897225E+02  0.00000000000E+00 0.  1.
<mgrwt>
<rscale>  0 0.89191493E+02</rscale>
<asrwt>0</asrwt>
<pdfrwt beam="2">  1        2 0.28141349E-02 0.89191493E+02</pdfrwt>
<pdfrwt beam="1">  1       -2 0.16726892E-01 0.89191493E+02</pdfrwt>
<totfact> 0.82201464E+04</totfact>
</mgrwt>
</event>
<event>
 7    1  0.3891761E-009  0.9771866E+02  0.7818608E-02  0.1285168E+00
         -2   -1    0    0    0  501 -0.00000000000E+00  0.00000000000E+00  0.11610117218E+03  0.11610117221E+03  0.25500000000E-02 0.  1.
          2   -1    0    0  501    0  0.00000000000E+00 -0.00000000000E+00 -0.20561670517E+02  0.20561670675E+02  0.25500000000E-02 0. -1.
         23    2    1    2    0    0  0.00000000000E+00  0.00000000000E+00  0.95539501661E+02  0.13666284288E+03  0.97718658642E+02 0.  0.
    9000005    2    3    3    0    0  0.42060680220E+02  0.13410650147E+02  0.23719433080E+02  0.52359411107E+02  0.15164104585E+02 0.  0.
         22    1    3    3    0    0 -0.42060680220E+02 -0.13410650147E+02  0.71820068581E+02  0.84303431774E+02  0.00000000000E+00 0. -1.
         22    1    4    4    0    0  0.14670602467E+02  0.12499496249E+02  0.97691949783E+01  0.21607895635E+02  0.00000000000E+00 0. -1.
         22    1    4    4    0    0  0.27390077753E+02  0.91115389787E+00  0.13950238102E+02  0.30751515472E+02  0.00000000000E+00 0. -1.
<mgrwt>
<rscale>  0 0.97718659E+02</rscale>
<asrwt>0</asrwt>
<pdfrwt beam="2">  1        2 0.31633340E-02 0.97718659E+02</pdfrwt>
<pdfrwt beam="1">  1       -2 0.17861718E-01 0.97718659E+02</pdfrwt>
<totfact> 0.64066212E+04</totfact>
</mgrwt>
</event>
<event>
 7    1  0.3891761E-009  0.9267882E+02  0.7818608E-02  0.1296491E+00
          2   -1    0    0  501    0  0.00000000000E+00  0.00000000000E+00  0.33449640535E+03  0.33449640536E+03  0.25500000000E-02 0. -1.
         -2   -1    0    0    0  501 -0.00000000000E+00 -0.00000000000E+00 -0.64196223631E+01  0.64196228695E+01  0.25500000000E-02 0.  1.
         23    2    1    2    0    0  0.00000000000E+00  0.00000000000E+00  0.32807678299E+03  0.34091602823E+03  0.92678815101E+02 0.  0.
    9000005    2    3    3    0    0 -0.21956904915E+02  0.31535557799E+02  0.25723729947E+03  0.26032552318E+03  0.11034160640E+02 0.  0.
         22    1    3    3    0    0  0.21956904915E+02 -0.31535557799E+02  0.70839483517E+02  0.80590505049E+02  0.00000000000E+00 0.  1.
         22    1    4    4    0    0 -0.13868690331E+02  0.17507377149E+02  0.18200396255E+03  0.18336927553E+03  0.00000000000E+00 0.  1.
         22    1    4    4    0    0 -0.80882145839E+01  0.14028180651E+02  0.75233336919E+02  0.76956247645E+02  0.00000000000E+00 0.  1.
<mgrwt>
<rscale>  0 0.92678815E+02</rscale>
<asrwt>0</asrwt>
<pdfrwt beam="1">  1        2 0.51461011E-01 0.92678815E+02</pdfrwt>
<pdfrwt beam="2">  1       -2 0.98763375E-03 0.92678815E+02</pdfrwt>
<totfact> 0.17908248E+05</totfact>
</mgrwt>
</event>
<event>
 7    1  0.3891761E-009  0.8355171E+02  0.7818608E-02  0.1319264E+00
          2   -1    0    0  501    0  0.00000000000E+00  0.00000000000E+00  0.33271349152E+03  0.33271349152E+03  0.25500000000E-02 0. -1.
         -2   -1    0    0    0  501 -0.00000000000E+00 -0.00000000000E+00 -0.52454199883E+01  0.52454206081E+01  0.25500000000E-02 0.  1.
         23    2    1    2    0    0  0.00000000000E+00  0.00000000000E+00  0.32746807153E+03  0.33795891213E+03  0.83551711057E+02 0.  0.
    9000005    2    3    3    0    0  0.26518742819E+02 -0.23113966445E+02  0.24968676155E+03  0.25259245885E+03  0.14898731677E+02 0.  0.
         22    1    3    3    0    0 -0.26518742819E+02  0.23113966445E+02  0.77781309972E+02  0.85366453285E+02  0.00000000000E+00 0.  1.
         22    1    4    4    0    0  0.22184891779E+02 -0.18357754831E+02  0.15262421352E+03  0.15531686044E+03  0.00000000000E+00 0. -1.
         22    1    4    4    0    0  0.43338510398E+01 -0.47562116140E+01  0.97062548038E+02  0.97275598406E+02  0.00000000000E+00 0. -1.
<mgrwt>
<rscale>  0 0.83551711E+02</rscale>
<asrwt>0</asrwt>
<pdfrwt beam="1">  1        2 0.51186706E-01 0.83551711E+02</pdfrwt>
<pdfrwt beam="2">  1       -2 0.80698751E-03 0.83551711E+02</pdfrwt>
<totfact> 0.23528932E+05</totfact>
</mgrwt>
</event>
<event>
 7    1  0.3891761E-009  0.8785354E+02  0.7818608E-02  0.1308134E+00
         -2   -1    0    0    0  501 -0.00000000000E+00  0.00000000000E+00  0.48106557479E+01  0.48106564238E+01  0.25500000000E-02 0.  1.
          2   -1    0    0  501    0  0.00000000000E+00 -0.00000000000E+00 -0.40110146079E+03  0.40110146080E+03  0.25500000000E-02 0. -1.
         23    2    1    2    0    0  0.35527136788E-14  0.71054273576E-14 -0.39629080504E+03  0.40591211722E+03  0.87853541457E+02 0.  0.
    9000005    2    3    3    0    0 -0.23506826991E+02 -0.36092059346E+02 -0.22702527282E+03  0.23125236782E+03  0.90540300377E+01 0.  0.
         22    1    3    3    0    0  0.23506826991E+02  0.36092059346E+02 -0.16926553222E+03  0.17465974940E+03  0.00000000000E+00 0.  1.
         22    1    4    4    0    0 -0.21666810767E+02 -0.28200025932E+02 -0.19510007238E+03  0.19831472561E+03  0.00000000000E+00 0.  1.
         22    1    4    4    0    0 -0.18400162243E+01 -0.78920334135E+01 -0.31925200436E+02  0.32937642204E+02  0.00000000000E+00 0.  1.
<mgrwt>
<rscale>  0 0.87853541E+02</rscale>
<asrwt>0</asrwt>
<pdfrwt beam="2">  1        2 0.61707891E-01 0.87853541E+02</pdfrwt>
<pdfrwt beam="1">  1       -2 0.74010125E-03 0.87853541E+02</pdfrwt>
<totfact> 0.22046858E+05</totfact>
</mgrwt>
</event>
<event>
 6    1  0.3891761E-009  0.1364708E+03  0.7818608E-02  0.1218158E+00
         -2   -1    0    0    0  501 -0.00000000000E+00  0.00000000000E+00  0.29472762053E+03  0.29472762054E+03  0.25500000000E-02 0.  1.
          2   -1    0    0  501    0  0.00000000000E+00 -0.00000000000E+00 -0.15797876628E+02  0.15797876833E+02  0.25500000000E-02 0. -1.
    9000005    2    1    2    0    0  0.43377205307E+02  0.28495645075E+02  0.24001885203E+03  0.24565916378E+03  0.67669555751E+01 0.  0.
         22    1    1    2    0    0 -0.43377205307E+02 -0.28495645075E+02  0.38910891872E+02  0.64866333600E+02  0.00000000000E+00 0. -1.
         22    1    3    3    0    0  0.37760941810E+01  0.25163135006E+01  0.13511209933E+02  0.14252842339E+02  0.00000000000E+00 0.  1.
         22    1    3    3    0    0  0.39601111126E+02  0.25979331574E+02  0.22650764210E+03  0.23140632144E+03  0.00000000000E+00 0.  1.
<mgrwt>
<rscale>  0 0.13647081E+03</rscale>
<asrwt>0</asrwt>
<pdfrwt beam="2">  1        2 0.24304427E-02 0.13647081E+03</pdfrwt>
<pdfrwt beam="1">  1       -2 0.45342708E-01 0.13647081E+03</pdfrwt>
<totfact> 0.18110892E+04</totfact>
</mgrwt>
</event>
<event>
 7    1  0.3891761E-009  0.9441796E+02  0.7818608E-02  0.1292492E+00
         -2   -1    0    0    0  501 -0.00000000000E+00  0.00000000000E+00  0.50907414568E+01  0.50907420954E+01  0.25500000000E-02 0.  1.
          2   -1    0    0  501    0  0.00000000000E+00 -0.00000000000E+00 -0.43779237729E+03  0.43779237729E+03  0.25500000000E-02 0. -1.
         23    2    1    2    0    0  0.00000000000E+00  0.17763568394E-14 -0.43270163583E+03  0.44288311939E+03  0.94417963282E+02 0.  0.
    9000005    2    3    3    0    0  0.14491917040E+02  0.15785823461E+02 -0.41360446486E+03  0.41417929002E+03  0.40771363325E+01 0.  0.
         22    1    3    3    0    0 -0.14491917040E+02 -0.15785823461E+02 -0.19097170966E+02  0.28703829374E+02  0.00000000000E+00 0.  1.
         22    1    4    4    0    0  0.13361164350E+02  0.13177752465E+02 -0.33700932791E+03  0.33753142220E+03  0.00000000000E+00 0.  1.
         22    1    4    4    0    0  0.11307526897E+01  0.26080709955E+01 -0.76595136955E+02  0.76647867819E+02  0.00000000000E+00 0.  1.
<mgrwt>
<rscale>  0 0.94417963E+02</rscale>
<asrwt>0</asrwt>
<pdfrwt beam="2">  1        2 0.67352643E-01 0.94417963E+02</pdfrwt>
<pdfrwt beam="1">  1       -2 0.78319139E-03 0.94417963E+02</pdfrwt>
<totfact> 0.18780876E+05</totfact>
</mgrwt>
</event>
<event>
 7    1  0.3891761E-009  0.8710372E+02  0.7818608E-02  0.1310021E+00
         -2   -1    0    0    0  501 -0.00000000000E+00  0.00000000000E+00  0.91535872376E+01  0.91535875928E+01  0.25500000000E-02 0. -1.
          2   -1    0    0  501    0  0.00000000000E+00 -0.00000000000E+00 -0.20721542657E+03  0.20721542659E+03  0.25500000000E-02 0.  1.
         23    2    1    2    0    0  0.00000000000E+00  0.44408920985E-15 -0.19806183934E+03  0.21636901418E+03  0.87103720340E+02 0.  0.
    9000005    2    3    3    0    0  0.32378463686E+02 -0.28016263392E+00 -0.17010213341E+03  0.17358831109E+03  0.12236116802E+02 0.  0.
         22    1    3    3    0    0 -0.32378463686E+02  0.28016263392E+00 -0.27959705929E+02  0.42780703096E+02  0.00000000000E+00 0. -1.
         22    1    4    4    0    0  0.22312405571E+02 -0.58953181366E+01 -0.11540764017E+03  0.11769248756E+03  0.00000000000E+00 0. -1.
         22    1    4    4    0    0  0.10066058115E+02  0.56151555027E+01 -0.54694493234E+02  0.55895823524E+02  0.00000000000E+00 0. -1.
<mgrwt>
<rscale>  0 0.87103720E+02</rscale>
<asrwt>0</asrwt>
<pdfrwt beam="2">  1        2 0.31879293E-01 0.87103720E+02</pdfrwt>
<pdfrwt beam="1">  1       -2 0.14082444E-02 0.87103720E+02</pdfrwt>
<totfact> 0.17710290E+05</totfact>
</mgrwt>
</event>
<event>
 7    1  0.3891761E-009  0.1137997E+03  0.7818608E-02  0.1253691E+00
         -2   -1    0    0    0  501 -0.00000000000E+00  0.00000000000E+00  0.25687260485E+02  0.25687260611E+02  0.25500000000E-02 0.  1.
          2   -1    0    0  501    0  0.00000000000E+00 -0.00000000000E+00 -0.12603894288E+03  0.12603894290E+03  0.25500000000E-02 0. -1.
         23    2    1    2    0    0  0.00000000000E+00  0.00000000000E+00 -0.10035168239E+03  0.15172620351E+03  0.11379973934E+03 0.  0.
    9000005    2    3    3    0    0 -0.32269260970E+02  0.45841811169E+02 -0.46962786962E+02  0.74310759254E+02  0.13183653775E+02 0.  0.
         22    1    3    3    0    0  0.32269260970E+02 -0.45841811169E+02 -0.53388895431E+02  0.77415444261E+02  0.00000000000E+00 0.  1.
         22    1    4    4    0    0 -0.90623092063E+00  0.82693463044E+00 -0.52487763781E+01  0.53902438564E+01  0.00000000000E+00 0. -1.
         22    1    4    4    0    0 -0.31363030050E+02  0.45014876538E+02 -0.41714010584E+02  0.68920515397E+02  0.00000000000E+00 0. -1.
<mgrwt>
<rscale>  0 0.11379974E+03</rscale>
<asrwt>0</asrwt>
<pdfrwt beam="2">  1        2 0.19390606E-01 0.11379974E+03</pdfrwt>
<pdfrwt beam="1">  1       -2 0.39518863E-02 0.11379974E+03</pdfrwt>
<totfact> 0.71340995E+04</totfact>
</mgrwt>
</event>
<event>
 7    1  0.3891761E-009  0.9006268E+02  0.7818608E-02  0.1302700E+00
          2   -1    0    0  501    0  0.00000000000E+00  0.00000000000E+00  0.14906104796E+03  0.14906104798E+03  0.25500000000E-02 0.  1.
         -2   -1    0    0    0  501 -0.00000000000E+00 -0.00000000000E+00 -0.13603965924E+02  0.13603966163E+02  0.25500000000E-02 0. -1.
         23    2    1    2    0    0  0.00000000000E+00  0.00000000000E+00  0.13545708204E+03  0.16266501415E+03  0.90062676803E+02 0.  0.
    9000005    2    3    3    0    0 -0.32580476875E+02 -0.13523743249E+02  0.11655154297E+03  0.12264253906E+03  0.14579132795E+02 0.  0.
         22    1    3    3    0    0  0.32580476875E+02  0.13523743249E+02  0.18905539072E+02  0.40022475092E+02  0.00000000000E+00 0. -1.
         22    1    4    4    0    0 -0.10671936288E+01 -0.35171358603E+01  0.25700256376E+02  0.25961747335E+02  0.00000000000E+00 0. -1.
         22    1    4    4    0    0 -0.31513283246E+02 -0.10006607389E+02  0.90851286591E+02  0.96680791720E+02  0.00000000000E+00 0. -1.
<mgrwt>
<rscale>  0 0.90062677E+02</rscale>
<asrwt>0</asrwt>
<pdfrwt beam="1">  1        2 0.22932468E-01 0.90062677E+02</pdfrwt>
<pdfrwt beam="2">  1       -2 0.20929180E-02 0.90062677E+02</pdfrwt>
<totfact> 0.14423978E+05</totfact>
</mgrwt>
</event>
<event>
 7    1  0.3891761E-009  0.9642956E+02  0.7818608E-02  0.1287988E+00
         -2   -1    0    0    0  501 -0.00000000000E+00  0.00000000000E+00  0.24751607098E+01  0.24751620234E+01  0.25500000000E-02 0.  1.
          2   -1    0    0  501    0  0.00000000000E+00 -0.00000000000E+00 -0.93919728492E+03  0.93919728493E+03  0.25500000000E-02 0. -1.
         23    2    1    2    0    0  0.00000000000E+00  0.35527136788E-14 -0.93672212421E+03  0.94167244695E+03  0.96429556434E+02 0.  0.
    9000005    2    3    3    0    0  0.33515751275E+02  0.21451270862E+02 -0.73301936031E+03  0.73411937271E+03  0.55143623314E+01 0.  0.
         22    1    3    3    0    0 -0.33515751275E+02 -0.21451270862E+02 -0.20370276390E+03  0.20755307424E+03  0.00000000000E+00 0.  1.
         22    1    4    4    0    0  0.28883809774E+02  0.19629571692E+02 -0.60937507079E+03  0.61037494333E+03  0.00000000000E+00 0.  1.
         22    1    4    4    0    0  0.46319415004E+01  0.18216991702E+01 -0.12364428952E+03  0.12374442938E+03  0.00000000000E+00 0.  1.
<mgrwt>
<rscale>  0 0.96429556E+02</rscale>
<asrwt>0</asrwt>
<pdfrwt beam="2">  1        2 0.14449161E+00 0.96429556E+02</pdfrwt>
<pdfrwt beam="1">  1       -2 0.38079481E-03 0.96429556E+02</pdfrwt>
<totfact> 0.21475677E+05</totfact>
</mgrwt>
</event>
<event>
 7    1  0.3891761E-009  0.8917903E+02  0.7818608E-02  0.1304852E+00
          2   -1    0    0  501    0  0.00000000000E+00  0.00000000000E+00  0.22460572415E+03  0.22460572416E+03  0.25500000000E-02 0. -1.
         -2   -1    0    0    0  501 -0.00000000000E+00 -0.00000000000E+00 -0.88520656635E+01  0.88520660308E+01  0.25500000000E-02 0.  1.
         23    2    1    2    0    0  0.00000000000E+00  0.00000000000E+00  0.21575365849E+03  0.23345779020E+03  0.89179025855E+02 0.  0.
    9000005    2    3    3    0    0  0.39239414802E+02  0.16554068966E+02  0.77316368606E+02  0.88617698705E+02  0.78426268626E+01 0.  0.
         22    1    3    3    0    0 -0.39239414802E+02 -0.16554068966E+02  0.13843728988E+03  0.14484009149E+03  0.00000000000E+00 0. -1.
         22    1    4    4    0    0  0.14333074415E+02  0.36875785961E+01  0.20766233228E+02  0.25500425498E+02  0.00000000000E+00 0.  1.
         22    1    4    4    0    0  0.24906340387E+02  0.12866490370E+02  0.56550135378E+02  0.63117273207E+02  0.00000000000E+00 0.  1.
<mgrwt>
<rscale>  0 0.89179026E+02</rscale>
<asrwt>0</asrwt>
<pdfrwt beam="1">  1        2 0.34554722E-01 0.89179026E+02</pdfrwt>
<pdfrwt beam="2">  1       -2 0.13618565E-02 0.89179026E+02</pdfrwt>
<totfact> 0.17123054E+05</totfact>
</mgrwt>
</event>
<event>
 7    1  0.3891761E-009  0.9136934E+02  0.7818608E-02  0.1299569E+00
          2   -1    0    0  501    0  0.00000000000E+00  0.00000000000E+00  0.65009066294E+02  0.65009066344E+02  0.25500000000E-02 0. -1.
         -2   -1    0    0    0  501 -0.00000000000E+00 -0.00000000000E+00 -0.32104585385E+02  0.32104585486E+02  0.25500000000E-02 0.  1.
         23    2    1    2    0    0  0.00000000000E+00  0.00000000000E+00  0.32904480909E+02  0.97113651830E+02  0.91369341181E+02 0.  0.
    9000005    2    3    3    0    0 -0.28957085586E+02 -0.30749355466E+02  0.21976673328E+01  0.44893501819E+02  0.15051946606E+02 0.  0.
         22    1    3    3    0    0  0.28957085586E+02  0.30749355466E+02  0.30706813576E+02  0.52220150011E+02  0.00000000000E+00 0. -1.
         22    1    4    4    0    0 -0.10592670035E+02 -0.14717703723E+02  0.80241201142E+01  0.19829320839E+02  0.00000000000E+00 0. -1.
         22    1    4    4    0    0 -0.18364415551E+02 -0.16031651743E+02 -0.58264527814E+01  0.25064180979E+02  0.00000000000E+00 0. -1.
<mgrwt>
<rscale>  0 0.91369341E+02</rscale>
<asrwt>0</asrwt>
<pdfrwt beam="1">  1        2 0.10001395E-01 0.91369341E+02</pdfrwt>
<pdfrwt beam="2">  1       -2 0.49391670E-02 0.91369341E+02</pdfrwt>
<totfact> 0.10775313E+05</totfact>
</mgrwt>
</event>
<event>
 7    1  0.3891761E-009  0.9230592E+02  0.7818608E-02  0.1297362E+00
          2   -1    0    0  501    0  0.00000000000E+00  0.00000000000E+00  0.70314738192E+03  0.70314738192E+03  0.25500000000E-02 0. -1.
         -2   -1    0    0    0  501 -0.00000000000E+00 -0.00000000000E+00 -0.30293726227E+01  0.30293736959E+01  0.25500000000E-02 0.  1.
         23    2    1    2    0    0  0.71054273576E-14 -0.17763568394E-14  0.70011800929E+03  0.70617675562E+03  0.92305922000E+02 0.  0.
    9000005    2    3    3    0    0 -0.32576414281E+02  0.12036594386E+02  0.57832086328E+03  0.57952507916E+03  0.13718385499E+02 0.  0.
         22    1    3    3    0    0  0.32576414281E+02 -0.12036594386E+02  0.12179714602E+03  0.12665167646E+03  0.00000000000E+00 0.  1.
         22    1    4    4    0    0 -0.10285040793E+02  0.54331605133E+01  0.30341570416E+03  0.30363858587E+03  0.00000000000E+00 0.  1.
         22    1    4    4    0    0 -0.22291373488E+02  0.66034338727E+01  0.27490515912E+03  0.27588649329E+03  0.00000000000E+00 0.  1.
<mgrwt>
<rscale>  0 0.92305922E+02</rscale>
<asrwt>0</asrwt>
<pdfrwt beam="1">  1        2 0.10817656E+00 0.92305922E+02</pdfrwt>
<pdfrwt beam="2">  1       -2 0.46605723E-03 0.92305922E+02</pdfrwt>
<totfact> 0.22980118E+05</totfact>
</mgrwt>
</event>
<event>
 7    1  0.3891761E-009  0.9561731E+02  0.7818608E-02  0.1289792E+00
          2   -1    0    0  501    0  0.00000000000E+00  0.00000000000E+00  0.14497759631E+03  0.14497759633E+03  0.25500000000E-02 0. -1.
         -2   -1    0    0    0  501 -0.00000000000E+00 -0.00000000000E+00 -0.15765658528E+02  0.15765658734E+02  0.25500000000E-02 0.  1.
         23    2    1    2    0    0  0.44408920985E-15  0.00000000000E+00  0.12921193778E+03  0.16074325506E+03  0.95617305880E+02 0.  0.
    9000005    2    3    3    0    0 -0.35549691853E+01  0.10780770527E+02  0.14233136233E+03  0.14339441880E+03  0.13224213544E+02 0.  0.
         22    1    3    3    0    0  0.35549691853E+01 -0.10780770527E+02 -0.13119424547E+02  0.17348836258E+02  0.00000000000E+00 0.  1.
         22    1    4    4    0    0  0.15375140519E+01  0.14118523884E+01  0.29952655122E+01  0.36508755272E+01  0.00000000000E+00 0. -1.
         22    1    4    4    0    0 -0.50924832372E+01  0.93689181387E+01  0.13933609681E+03  0.13974354328E+03  0.00000000000E+00 0. -1.
<mgrwt>
<rscale>  0 0.95617306E+02</rscale>
<asrwt>0</asrwt>
<pdfrwt beam="1">  1        2 0.22304246E-01 0.95617306E+02</pdfrwt>
<pdfrwt beam="2">  1       -2 0.24254859E-02 0.95617306E+02</pdfrwt>
<totfact> 0.12139411E+05</totfact>
</mgrwt>
</event>
<event>
 7    1  0.3891761E-009  0.9071146E+02  0.7818608E-02  0.1301138E+00
         -2   -1    0    0    0  501 -0.00000000000E+00  0.00000000000E+00  0.29848089598E+01  0.29848100491E+01  0.25500000000E-02 0.  1.
          2   -1    0    0  501    0  0.00000000000E+00 -0.00000000000E+00 -0.68920385531E+03  0.68920385531E+03  0.25500000000E-02 0. -1.
         23    2    1    2    0    0  0.00000000000E+00  0.00000000000E+00 -0.68621904635E+03  0.69218866536E+03  0.90711459498E+02 0.  0.
    9000005    2    3    3    0    0  0.35413641414E+02 -0.27777235465E+01 -0.55690498289E+03  0.55808434494E+03  0.72893318692E+01 0.  0.
         22    1    3    3    0    0 -0.35413641414E+02  0.27777235465E+01 -0.12931406346E+03  0.13410432041E+03  0.00000000000E+00 0.  1.
         22    1    4    4    0    0  0.28492859394E+02 -0.13252130018E+01 -0.39718306443E+03  0.39820595914E+03  0.00000000000E+00 0. -1.
         22    1    4    4    0    0  0.69207820197E+01 -0.14525105447E+01 -0.15972191846E+03  0.15987838580E+03  0.00000000000E+00 0. -1.
<mgrwt>
<rscale>  0 0.90711459E+02</rscale>
<asrwt>0</asrwt>
<pdfrwt beam="2">  1        2 0.10603124E+00 0.90711459E+02</pdfrwt>
<pdfrwt beam="1">  1       -2 0.45920201E-03 0.90711459E+02</pdfrwt>
<totfact> 0.23948563E+05</totfact>
</mgrwt>
</event>
<event>
 7    1  0.3891761E-009  0.7126395E+02  0.7818608E-02  0.1355847E+00
         -2   -1    0    0    0  501 -0.00000000000E+00  0.00000000000E+00  0.84546733089E+02  0.84546733128E+02  0.25500000000E-02 0. -1.
          2   -1    0    0  501    0  0.00000000000E+00 -0.00000000000E+00 -0.15016994203E+02  0.15016994420E+02  0.25500000000E-02 0.  1.
         23    2    1    2    0    0  0.00000000000E+00 -0.22204460493E-15  0.69529738886E+02  0.99563727548E+02  0.71263954799E+02 0.  0.
    9000005    2    3    3    0    0  0.14039857475E+02 -0.16394655407E+01 -0.67237378850E+01  0.22011176559E+02  0.15475070184E+02 0.  0.
         22    1    3    3    0    0 -0.14039857475E+02  0.16394655407E+01  0.76253476771E+02  0.77552550988E+02  0.00000000000E+00 0. -1.
         22    1    4    4    0    0 -0.34198082155E+01 -0.56481910362E+00 -0.11512047661E+01  0.36523117699E+01  0.00000000000E+00 0. -1.
         22    1    4    4    0    0  0.17459665690E+02 -0.10746464371E+01 -0.55725331189E+01  0.18358864789E+02  0.00000000000E+00 0. -1.
<mgrwt>
<rscale>  0 0.71263955E+02</rscale>
<asrwt>0</asrwt>
<pdfrwt beam="2">  1        2 0.23103068E-02 0.71263955E+02</pdfrwt>
<pdfrwt beam="1">  1       -2 0.13007190E-01 0.71263955E+02</pdfrwt>
<totfact> 0.15396278E+05</totfact>
</mgrwt>
</event>
<event>
 7    1  0.3891761E-009  0.9184813E+02  0.7818608E-02  0.1298437E+00
         -2   -1    0    0    0  501 -0.00000000000E+00  0.00000000000E+00  0.12006515104E+01  0.12006542183E+01  0.25500000000E-02 0.  1.
          2   -1    0    0  501    0  0.00000000000E+00 -0.00000000000E+00 -0.17565608764E+04  0.17565608764E+04  0.25500000000E-02 0. -1.
         23    2    1    2    0    0  0.00000000000E+00 -0.17763568394E-14 -0.17553602249E+04  0.17577615306E+04  0.91848132281E+02 0.  0.
    9000005    2    3    3    0    0  0.19160544736E+02 -0.15226473722E+02 -0.16177694087E+04  0.16180110219E+04  0.13521664846E+02 0.  0.
         22    1    3    3    0    0 -0.19160544736E+02  0.15226473722E+02 -0.13759081624E+03  0.13975050873E+03  0.00000000000E+00 0.  1.
         22    1    4    4    0    0  0.18117157220E+02 -0.14855189236E+02 -0.11418938790E+04  0.11421342035E+04  0.00000000000E+00 0. -1.
         22    1    4    4    0    0  0.10433875155E+01 -0.37128448577E+00 -0.47587552968E+03  0.47587681837E+03  0.00000000000E+00 0. -1.
<mgrwt>
<rscale>  0 0.91848132E+02</rscale>
<asrwt>0</asrwt>
<pdfrwt beam="2">  1        2 0.27023808E+00 0.91848132E+02</pdfrwt>
<pdfrwt beam="1">  1       -2 0.18471723E-03 0.91848132E+02</pdfrwt>
<totfact> 0.21369034E+05</totfact>
</mgrwt>
</event>
<event>
 7    1  0.3891761E-009  0.9137499E+02  0.7818608E-02  0.1299556E+00
         -2   -1    0    0    0  501 -0.00000000000E+00  0.00000000000E+00  0.32873645244E+01  0.32873655134E+01  0.25500000000E-02 0. -1.
          2   -1    0    0  501    0  0.00000000000E+00 -0.00000000000E+00 -0.63496051250E+03  0.63496051250E+03  0.25500000000E-02 0.  1.
         23    2    1    2    0    0  0.00000000000E+00  0.00000000000E+00 -0.63167314797E+03  0.63824787802E+03  0.91374985208E+02 0.  0.
    9000005    2    3    3    0    0 -0.11135041990E+02  0.36913366273E+02 -0.48449984663E+03  0.48610792140E+03  0.86153408198E+01 0.  0.
         22    1    3    3    0    0  0.11135041990E+02 -0.36913366273E+02 -0.14717330135E+03  0.15213995661E+03  0.00000000000E+00 0.  1.
         22    1    4    4    0    0 -0.11700179509E+02  0.28222662956E+02 -0.39792666321E+03  0.39909778526E+03  0.00000000000E+00 0. -1.
         22    1    4    4    0    0  0.56513751869E+00  0.86907033170E+01 -0.86573183417E+02  0.87010136143E+02  0.00000000000E+00 0. -1.
<mgrwt>
<rscale>  0 0.91374985E+02</rscale>
<asrwt>0</asrwt>
<pdfrwt beam="2">  1        2 0.97686135E-01 0.91374985E+02</pdfrwt>
<pdfrwt beam="1">  1       -2 0.50574897E-03 0.91374985E+02</pdfrwt>
<totfact> 0.23010415E+05</totfact>
</mgrwt>
</event>
<event>
 7    1  0.3891761E-009  0.9202718E+02  0.7818608E-02  0.1298016E+00
          2   -1    0    0  501    0  0.00000000000E+00  0.00000000000E+00  0.17267603896E+03  0.17267603898E+03  0.25500000000E-02 0.  1.
         -2   -1    0    0    0  501 -0.00000000000E+00 -0.00000000000E+00 -0.12261402857E+02  0.12261403122E+02  0.25500000000E-02 0. -1.
         23    2    1    2    0    0  0.00000000000E+00  0.00000000000E+00  0.16041463610E+03  0.18493744210E+03  0.92027180848E+02 0.  0.
    9000005    2    3    3    0    0  0.22978599759E+02  0.17518592704E+02  0.96672404248E+01  0.31445766623E+02  0.77758320382E+01 0.  0.
         22    1    3    3    0    0 -0.22978599759E+02 -0.17518592704E+02  0.15074739568E+03  0.15349167548E+03  0.00000000000E+00 0.  1.
         22    1    4    4    0    0  0.82288380501E+00  0.30065618637E+01  0.25325067356E+01  0.40162348490E+01  0.00000000000E+00 0. -1.
         22    1    4    4    0    0  0.22155715954E+02  0.14512030841E+02  0.71347336892E+01  0.27429531774E+02  0.00000000000E+00 0. -1.
<mgrwt>
<rscale>  0 0.92027181E+02</rscale>
<asrwt>0</asrwt>
<pdfrwt beam="1">  1        2 0.26565543E-01 0.92027181E+02</pdfrwt>
<pdfrwt beam="2">  1       -2 0.18863698E-02 0.92027181E+02</pdfrwt>
<totfact> 0.14313728E+05</totfact>
</mgrwt>
</event>
<event>
 7    1  0.3891761E-009  0.9088781E+02  0.7818608E-02  0.1300716E+00
          2   -1    0    0  501    0  0.00000000000E+00  0.00000000000E+00  0.63269410733E+02  0.63269410784E+02  0.25500000000E-02 0. -1.
         -2   -1    0    0    0  501 -0.00000000000E+00 -0.00000000000E+00 -0.32640554529E+02  0.32640554629E+02  0.25500000000E-02 0.  1.
         23    2    1    2    0    0  0.00000000000E+00 -0.35527136788E-14  0.30628856204E+02  0.95909965413E+02  0.90887813447E+02 0.  0.
    9000005    2    3    3    0    0 -0.35316054366E+02 -0.27358603847E+02  0.15599183698E+02  0.48776029061E+02  0.11834254456E+02 0.  0.
         22    1    3    3    0    0  0.35316054366E+02  0.27358603847E+02  0.15029672506E+02  0.47133936352E+02  0.00000000000E+00 0.  1.
         22    1    4    4    0    0 -0.26335783229E+02 -0.18892041721E+02  0.55992779972E+01  0.32891254655E+02  0.00000000000E+00 0. -1.
         22    1    4    4    0    0 -0.89802711366E+01 -0.84665621261E+01  0.99999057006E+01  0.15884774406E+02  0.00000000000E+00 0. -1.
<mgrwt>
<rscale>  0 0.90887813E+02</rscale>
<asrwt>0</asrwt>
<pdfrwt beam="1">  1        2 0.97337553E-02 0.90887813E+02</pdfrwt>
<pdfrwt beam="2">  1       -2 0.50216239E-02 0.90887813E+02</pdfrwt>
<totfact> 0.10856262E+05</totfact>
</mgrwt>
</event>
<event>
 7    1  0.3891761E-009  0.1031863E+03  0.7818608E-02  0.1273735E+00
          2   -1    0    0  501    0  0.00000000000E+00  0.00000000000E+00  0.13706658450E+02  0.13706658687E+02  0.25500000000E-02 0. -1.
         -2   -1    0    0    0  501 -0.00000000000E+00 -0.00000000000E+00 -0.19420138519E+03  0.19420138521E+03  0.25500000000E-02 0.  1.
         23    2    1    2    0    0  0.71054273576E-14 -0.17763568394E-14 -0.18049472674E+03  0.20790804389E+03  0.10318627978E+03 0.  0.
    9000005    2    3    3    0    0 -0.48419199823E+02  0.93350782201E+01 -0.11813300129E+03  0.12840617349E+03  0.10058667862E+02 0.  0.
         22    1    3    3    0    0  0.48419199823E+02 -0.93350782201E+01 -0.62361725445E+02  0.79501870402E+02  0.00000000000E+00 0.  1.
         22    1    4    4    0    0 -0.45323329470E+02  0.63522610958E+01 -0.11118323087E+03  0.12023421410E+03  0.00000000000E+00 0. -1.
         22    1    4    4    0    0 -0.30958703531E+01  0.29828171243E+01 -0.69497704275E+01  0.81719593878E+01  0.00000000000E+00 0. -1.
<mgrwt>
<rscale>  0 0.10318628E+03</rscale>
<asrwt>0</asrwt>
<pdfrwt beam="1">  1        2 0.21087169E-02 0.10318628E+03</pdfrwt>
<pdfrwt beam="2">  1       -2 0.29877134E-01 0.10318628E+03</pdfrwt>
<totfact> 0.45998676E+04</totfact>
</mgrwt>
</event>
<event>
 7    1  0.3891761E-009  0.9043120E+02  0.7818608E-02  0.1301811E+00
          2   -1    0    0  501    0  0.00000000000E+00  0.00000000000E+00  0.14177600208E+03  0.14177600210E+03  0.25500000000E-02 0. -1.
         -2   -1    0    0    0  501 -0.00000000000E+00 -0.00000000000E+00 -0.14420284853E+02  0.14420285079E+02  0.25500000000E-02 0.  1.
         23    2    1    2    0    0  0.00000000000E+00  0.71054273576E-14  0.12735571722E+03  0.15619628718E+03  0.90431197155E+02 0.  0.
    9000005    2    3    3    0    0 -0.19195456891E+02  0.39124964807E+02  0.43882567574E+02  0.62031563695E+02  0.47965321960E+01 0.  0.
         22    1    3    3    0    0  0.19195456891E+02 -0.39124964807E+02  0.83473149648E+02  0.94164723483E+02  0.00000000000E+00 0. -1.
         22    1    4    4    0    0 -0.26518521035E+01  0.41380806927E+01  0.71311203918E+01  0.86607684094E+01  0.00000000000E+00 0. -1.
         22    1    4    4    0    0 -0.16543604787E+02  0.34986884114E+02  0.36751447182E+02  0.53370795285E+02  0.00000000000E+00 0. -1.
<mgrwt>
<rscale>  0 0.90431197E+02</rscale>
<asrwt>0</asrwt>
<pdfrwt beam="1">  1        2 0.21811692E-01 0.90431197E+02</pdfrwt>
<pdfrwt beam="2">  1       -2 0.22185054E-02 0.90431197E+02</pdfrwt>
<totfact> 0.14026509E+05</totfact>
</mgrwt>
</event>
<event>
 7    1  0.3891761E-009  0.9046735E+02  0.7818608E-02  0.1301724E+00
         -2   -1    0    0    0  501 -0.00000000000E+00  0.00000000000E+00  0.10083830472E+02  0.10083830794E+02  0.25500000000E-02 0.  1.
          2   -1    0    0  501    0  0.00000000000E+00 -0.00000000000E+00 -0.20290753623E+03  0.20290753624E+03  0.25500000000E-02 0. -1.
         23    2    1    2    0    0  0.00000000000E+00  0.00000000000E+00 -0.19282370575E+03  0.21299136704E+03  0.90467347319E+02 0.  0.
    9000005    2    3    3    0    0  0.16091589008E+02  0.32651437665E+02 -0.34015531950E+02  0.50064721930E+02  0.49360257013E+01 0.  0.
         22    1    3    3    0    0 -0.16091589008E+02 -0.32651437665E+02 -0.15880817380E+03  0.16292664511E+03  0.00000000000E+00 0. -1.
         22    1    4    4    0    0  0.14122853333E+02  0.25806974218E+02 -0.25235354750E+02  0.38759231596E+02  0.00000000000E+00 0.  1.
         22    1    4    4    0    0  0.19687356753E+01  0.68444634464E+01 -0.87801772004E+01  0.11305490334E+02  0.00000000000E+00 0.  1.
<mgrwt>
<rscale>  0 0.90467347E+02</rscale>
<asrwt>0</asrwt>
<pdfrwt beam="2">  1        2 0.31216541E-01 0.90467347E+02</pdfrwt>
<pdfrwt beam="1">  1       -2 0.15513587E-02 0.90467347E+02</pdfrwt>
<totfact> 0.15879056E+05</totfact>
</mgrwt>
</event>
<event>
 7    1  0.3891761E-009  0.9139237E+02  0.7818608E-02  0.1299514E+00
         -2   -1    0    0    0  501 -0.00000000000E+00  0.00000000000E+00  0.26507148384E+03  0.26507148386E+03  0.25500000000E-02 0.  1.
          2   -1    0    0  501    0  0.00000000000E+00 -0.00000000000E+00 -0.78776540600E+01  0.78776544727E+01  0.25500000000E-02 0. -1.
         23    2    1    2    0    0  0.00000000000E+00  0.35527136788E-14  0.25719382978E+03  0.27294913833E+03  0.91392374056E+02 0.  0.
    9000005    2    3    3    0    0 -0.29117092903E+02  0.29491545230E+02  0.18365173588E+03  0.18853352416E+03  0.99686158806E+01 0.  0.
         22    1    3    3    0    0  0.29117092903E+02 -0.29491545230E+02  0.73542093907E+02  0.84415614168E+02  0.00000000000E+00 0. -1.
         22    1    4    4    0    0 -0.19036959801E+02  0.13378838364E+02  0.11295138749E+03  0.11532309001E+03  0.00000000000E+00 0.  1.
         22    1    4    4    0    0 -0.10080133102E+02  0.16112706866E+02  0.70700348390E+02  0.73210434150E+02  0.00000000000E+00 0.  1.
<mgrwt>
<rscale>  0 0.91392374E+02</rscale>
<asrwt>0</asrwt>
<pdfrwt beam="2">  1        2 0.12119470E-02 0.91392374E+02</pdfrwt>
<pdfrwt beam="1">  1       -2 0.40780223E-01 0.91392374E+02</pdfrwt>
<totfact> 0.54198261E+04</totfact>
</mgrwt>
</event>
<event>
 7    1  0.3891761E-009  0.8908116E+02  0.7818608E-02  0.1305092E+00
         -2   -1    0    0    0  501 -0.00000000000E+00  0.00000000000E+00  0.16398072017E+02  0.16398072215E+02  0.25500000000E-02 0.  1.
          2   -1    0    0  501    0  0.00000000000E+00 -0.00000000000E+00 -0.12098148281E+03  0.12098148284E+03  0.25500000000E-02 0. -1.
         23    2    1    2    0    0 -0.17763568394E-14  0.35527136788E-14 -0.10458341080E+03  0.13737955505E+03  0.89081155882E+02 0.  0.
    9000005    2    3    3    0    0 -0.12935834677E+02 -0.24478294359E+02  0.50560766912E+00  0.28704698186E+02  0.75618347827E+01 0.  0.
         22    1    3    3    0    0  0.12935834677E+02  0.24478294359E+02 -0.10508901846E+03  0.10867485687E+03  0.00000000000E+00 0. -1.
         22    1    4    4    0    0 -0.49026807915E+01 -0.99253753506E+01 -0.34920282030E+01  0.11607911775E+02  0.00000000000E+00 0.  1.
         22    1    4    4    0    0 -0.80331538856E+01 -0.14552919009E+02  0.39976358721E+01  0.17096786411E+02  0.00000000000E+00 0.  1.
<mgrwt>
<rscale>  0 0.89081156E+02</rscale>
<asrwt>0</asrwt>
<pdfrwt beam="2">  1        2 0.18612535E-01 0.89081156E+02</pdfrwt>
<pdfrwt beam="1">  1       -2 0.25227804E-02 0.89081156E+02</pdfrwt>
<totfact> 0.13872667E+05</totfact>
</mgrwt>
</event>
<event>
 7    1  0.3891761E-009  0.7371786E+02  0.7818608E-02  0.1347888E+00
         -2   -1    0    0    0  501 -0.00000000000E+00  0.00000000000E+00  0.27138326427E+02  0.27138326546E+02  0.25500000000E-02 0.  1.
          2   -1    0    0  501    0  0.00000000000E+00 -0.00000000000E+00 -0.50061323692E+02  0.50061323757E+02  0.25500000000E-02 0. -1.
         23    2    1    2    0    0  0.00000000000E+00  0.00000000000E+00 -0.22922997265E+02  0.77199650303E+02  0.73717855390E+02 0.  0.
    9000005    2    3    3    0    0 -0.22344235450E+02 -0.28712425819E+02 -0.12633323806E+02  0.39390317670E+02  0.82660753359E+01 0.  0.
         22    1    3    3    0    0  0.22344235450E+02  0.28712425819E+02 -0.10289673460E+02  0.37809332633E+02  0.00000000000E+00 0.  1.
         22    1    4    4    0    0 -0.19932967673E+02 -0.27261733387E+02 -0.13610957553E+02  0.36411309685E+02  0.00000000000E+00 0.  1.
         22    1    4    4    0    0 -0.24112677772E+01 -0.14506924328E+01  0.97763374713E+00  0.29790079844E+01  0.00000000000E+00 0.  1.
<mgrwt>
<rscale>  0 0.73717855E+02</rscale>
<asrwt>0</asrwt>
<pdfrwt beam="2">  1        2 0.77017421E-02 0.73717855E+02</pdfrwt>
<pdfrwt beam="1">  1       -2 0.41751272E-02 0.73717855E+02</pdfrwt>
<totfact> 0.18311932E+05</totfact>
</mgrwt>
</event>
<event>
 7    1  0.3891761E-009  0.9301901E+02  0.7818608E-02  0.1295701E+00
         -2   -1    0    0    0  501 -0.00000000000E+00  0.00000000000E+00  0.38850577535E+01  0.38850585903E+01  0.25500000000E-02 0.  1.
          2   -1    0    0  501    0  0.00000000000E+00 -0.00000000000E+00 -0.55678297235E+03  0.55678297235E+03  0.25500000000E-02 0. -1.
         23    2    1    2    0    0  0.00000000000E+00 -0.35527136788E-14 -0.55289791460E+03  0.56066803095E+03  0.93019013969E+02 0.  0.
    9000005    2    3    3    0    0 -0.32916854519E+02  0.26037648028E+02 -0.38799113210E+03  0.39050421182E+03  0.13962178718E+02 0.  0.
         22    1    3    3    0    0  0.32916854519E+02 -0.26037648028E+02 -0.16490678249E+03  0.17016381912E+03  0.00000000000E+00 0.  1.
         22    1    4    4    0    0 -0.30460382654E+02  0.27036962240E+02 -0.33839288524E+03  0.34083511705E+03  0.00000000000E+00 0. -1.
         22    1    4    4    0    0 -0.24564718656E+01 -0.99931421201E+00 -0.49598246866E+02  0.49669094769E+02  0.00000000000E+00 0. -1.
<mgrwt>
<rscale>  0 0.93019014E+02</rscale>
<asrwt>0</asrwt>
<pdfrwt beam="2">  1        2 0.85658856E-01 0.93019014E+02</pdfrwt>
<pdfrwt beam="1">  1       -2 0.59770170E-03 0.93019014E+02</pdfrwt>
<totfact> 0.21141041E+05</totfact>
</mgrwt>
</event>
<event>
 7    1  0.3891761E-009  0.9116757E+02  0.7818608E-02  0.1300049E+00
          2   -1    0    0  501    0  0.00000000000E+00  0.00000000000E+00  0.12435981866E+04  0.12435981866E+04  0.25500000000E-02 0. -1.
         -2   -1    0    0    0  501 -0.00000000000E+00 -0.00000000000E+00 -0.16708616088E+01  0.16708635547E+01  0.25500000000E-02 0.  1.
         23    2    1    2    0    0  0.44408920985E-15  0.00000000000E+00  0.12419273250E+04  0.12452690502E+04  0.91167574938E+02 0.  0.
    9000005    2    3    3    0    0  0.27278070677E+01 -0.17024918421E+02  0.11965785685E+04  0.11967530889E+04  0.10972533650E+02 0.  0.
         22    1    3    3    0    0 -0.27278070677E+01  0.17024918421E+02  0.45348756536E+02  0.48515961271E+02  0.00000000000E+00 0.  1.
         22    1    4    4    0    0 -0.27603951943E+01 -0.13683835621E+02  0.77837468602E+03  0.77849985162E+03  0.00000000000E+00 0. -1.
         22    1    4    4    0    0  0.54882022621E+01 -0.33410828003E+01  0.41820388248E+03  0.41825323730E+03  0.00000000000E+00 0. -1.
<mgrwt>
<rscale>  0 0.91167575E+02</rscale>
<asrwt>0</asrwt>
<pdfrwt beam="1">  1        2 0.19132243E+00 0.91167575E+02</pdfrwt>
<pdfrwt beam="2">  1       -2 0.25705628E-03 0.91167575E+02</pdfrwt>
<totfact> 0.24761810E+05</totfact>
</mgrwt>
</event>
<event>
 7    1  0.3891761E-009  0.9190013E+02  0.7818608E-02  0.1298314E+00
          2   -1    0    0  501    0  0.00000000000E+00  0.00000000000E+00  0.42886559965E+03  0.42886559966E+03  0.25500000000E-02 0. -1.
         -2   -1    0    0    0  501 -0.00000000000E+00 -0.00000000000E+00 -0.49232401172E+01  0.49232407776E+01  0.25500000000E-02 0.  1.
         23    2    1    2    0    0  0.00000000000E+00  0.00000000000E+00  0.42394235953E+03  0.43378884044E+03  0.91900129923E+02 0.  0.
    9000005    2    3    3    0    0 -0.38247094186E+02 -0.22617847892E+02  0.17294082098E+03  0.17888458466E+03  0.10805545358E+02 0.  0.
         22    1    3    3    0    0  0.38247094186E+02  0.22617847892E+02  0.25100153855E+03  0.25490425577E+03  0.00000000000E+00 0. -1.
         22    1    4    4    0    0 -0.57605370677E+01 -0.80648894353E+00  0.13266108031E+02  0.14485297167E+02  0.00000000000E+00 0.  1.
         22    1    4    4    0    0 -0.32486557119E+02 -0.21811358948E+02  0.15967471295E+03  0.16439928750E+03  0.00000000000E+00 0.  1.
<mgrwt>
<rscale>  0 0.91900130E+02</rscale>
<asrwt>0</asrwt>
<pdfrwt beam="1">  1        2 0.65979342E-01 0.91900130E+02</pdfrwt>
<pdfrwt beam="2">  1       -2 0.75742139E-03 0.91900130E+02</pdfrwt>
<totfact> 0.20035762E+05</totfact>
</mgrwt>
</event>
<event>
 7    1  0.3891761E-009  0.9236389E+02  0.7818608E-02  0.1297226E+00
         -2   -1    0    0    0  501 -0.00000000000E+00  0.00000000000E+00  0.42031038110E+01  0.42031045846E+01  0.25500000000E-02 0.  1.
          2   -1    0    0  501    0  0.00000000000E+00 -0.00000000000E+00 -0.50742780647E+03  0.50742780648E+03  0.25500000000E-02 0. -1.
         23    2    1    2    0    0  0.35527136788E-14  0.00000000000E+00 -0.50322470266E+03  0.51163091107E+03  0.92363887894E+02 0.  0.
    9000005    2    3    3    0    0 -0.26649122549E+02 -0.37438783306E+02 -0.26133395740E+03  0.26541358659E+03  0.60906836935E+01 0.  0.
         22    1    3    3    0    0  0.26649122549E+02  0.37438783306E+02 -0.24189074526E+03  0.24621732447E+03  0.00000000000E+00 0. -1.
         22    1    4    4    0    0 -0.21770732314E+02 -0.33569836457E+02 -0.21914583659E+03  0.22276848162E+03  0.00000000000E+00 0.  1.
         22    1    4    4    0    0 -0.48783902352E+01 -0.38689468484E+01 -0.42188120811E+02  0.42645104978E+02  0.00000000000E+00 0.  1.
<mgrwt>
<rscale>  0 0.92363888E+02</rscale>
<asrwt>0</asrwt>
<pdfrwt beam="2">  1        2 0.78065768E-01 0.92363888E+02</pdfrwt>
<pdfrwt beam="1">  1       -2 0.64663182E-03 0.92363888E+02</pdfrwt>
<totfact> 0.20923375E+05</totfact>
</mgrwt>
</event>
<event>
 7    1  0.3891761E-009  0.8375505E+02  0.7818608E-02  0.1318721E+00
         -2   -1    0    0    0  501 -0.00000000000E+00  0.00000000000E+00  0.45161908220E+02  0.45161908292E+02  0.25500000000E-02 0.  1.
          2   -1    0    0  501    0  0.00000000000E+00 -0.00000000000E+00 -0.38831994241E+02  0.38831994325E+02  0.25500000000E-02 0. -1.
         23    2    1    2    0    0  0.00000000000E+00  0.00000000000E+00  0.63299139787E+01  0.83993902617E+02  0.83755046808E+02 0.  0.
    9000005    2    3    3    0    0 -0.16220337283E+02 -0.14838473963E+02 -0.32461653308E+02  0.39406176237E+02  0.39759450456E+01 0.  0.
         22    1    3    3    0    0  0.16220337283E+02  0.14838473963E+02  0.38791567287E+02  0.44587726380E+02  0.00000000000E+00 0.  1.
         22    1    4    4    0    0 -0.48048950771E+01 -0.60091631152E+01 -0.87842023201E+01  0.11677297138E+02  0.00000000000E+00 0. -1.
         22    1    4    4    0    0 -0.11415442206E+02 -0.88293108475E+01 -0.23677450988E+02  0.27728879099E+02  0.00000000000E+00 0. -1.
<mgrwt>
<rscale>  0 0.83755047E+02</rscale>
<asrwt>0</asrwt>
<pdfrwt beam="2">  1        2 0.59741530E-02 0.83755047E+02</pdfrwt>
<pdfrwt beam="1">  1       -2 0.69479859E-02 0.83755047E+02</pdfrwt>
<totfact> 0.12082701E+05</totfact>
</mgrwt>
</event>
<event>
 7    1  0.3891761E-009  0.8996001E+02  0.7818608E-02  0.1302949E+00
          2   -1    0    0  501    0  0.00000000000E+00  0.00000000000E+00  0.31637608947E+02  0.31637609049E+02  0.25500000000E-02 0. -1.
         -2   -1    0    0    0  501 -0.00000000000E+00 -0.00000000000E+00 -0.63949229198E+02  0.63949229248E+02  0.25500000000E-02 0.  1.
         23    2    1    2    0    0  0.00000000000E+00  0.00000000000E+00 -0.32311620251E+02  0.95586838298E+02  0.89960006962E+02 0.  0.
    9000005    2    3    3    0    0  0.46995217900E+01 -0.22023841485E+02  0.25153702368E+02  0.33866514235E+02  0.26640091633E+01 0.  0.
         22    1    3    3    0    0 -0.46995217900E+01  0.22023841485E+02 -0.57465322619E+02  0.61720324063E+02  0.00000000000E+00 0.  1.
         22    1    4    4    0    0  0.13464931828E+01 -0.52287017572E+01  0.77847156878E+01  0.94738674414E+01  0.00000000000E+00 0. -1.
         22    1    4    4    0    0  0.33530286071E+01 -0.16795139727E+02  0.17368986680E+02  0.24392646793E+02  0.00000000000E+00 0. -1.
<mgrwt>
<rscale>  0 0.89960007E+02</rscale>
<asrwt>0</asrwt>
<pdfrwt beam="1">  1        2 0.48673245E-02 0.89960007E+02</pdfrwt>
<pdfrwt beam="2">  1       -2 0.98383430E-02 0.89960007E+02</pdfrwt>
<totfact> 0.93347917E+04</totfact>
</mgrwt>
</event>
<event>
 7    1  0.3891761E-009  0.9323655E+02  0.7818608E-02  0.1295198E+00
         -2   -1    0    0    0  501 -0.00000000000E+00  0.00000000000E+00  0.32679774188E+03  0.32679774189E+03  0.25500000000E-02 0.  1.
          2   -1    0    0  501    0  0.00000000000E+00 -0.00000000000E+00 -0.66501796672E+01  0.66501801561E+01  0.25500000000E-02 0. -1.
         23    2    1    2    0    0  0.00000000000E+00  0.00000000000E+00  0.32014756221E+03  0.33344792204E+03  0.93236554666E+02 0.  0.
    9000005    2    3    3    0    0  0.74830171686E+01 -0.43133406526E+02  0.11042246429E+03  0.11920249502E+03  0.99813773509E+01 0.  0.
         22    1    3    3    0    0 -0.74830171686E+01  0.43133406526E+02  0.20972509792E+03  0.21424542703E+03  0.00000000000E+00 0.  1.
         22    1    4    4    0    0  0.88742549731E+00 -0.30345545563E+02  0.79391265814E+02  0.84997722011E+02  0.00000000000E+00 0. -1.
         22    1    4    4    0    0  0.65955916713E+01 -0.12787860963E+02  0.31031198479E+02  0.34204773008E+02  0.00000000000E+00 0. -1.
<mgrwt>
<rscale>  0 0.93236555E+02</rscale>
<asrwt>0</asrwt>
<pdfrwt beam="2">  1        2 0.10231048E-02 0.93236555E+02</pdfrwt>
<pdfrwt beam="1">  1       -2 0.50276568E-01 0.93236555E+02</pdfrwt>
<totfact> 0.45818954E+04</totfact>
</mgrwt>
</event>
<event>
 7    1  0.3891761E-009  0.9026033E+02  0.7818608E-02  0.1302222E+00
          2   -1    0    0  501    0  0.00000000000E+00  0.00000000000E+00  0.18533681357E+03  0.18533681359E+03  0.25500000000E-02 0.  1.
         -2   -1    0    0    0  501 -0.00000000000E+00 -0.00000000000E+00 -0.10989354476E+02  0.10989354771E+02  0.25500000000E-02 0. -1.
         23    2    1    2    0    0  0.00000000000E+00 -0.71054273576E-14  0.17434745909E+03  0.19632616836E+03  0.90260333978E+02 0.  0.
    9000005    2    3    3    0    0  0.18368496490E+02  0.37635478393E+02  0.12204330982E+03  0.12932202723E+03  0.87055360291E+01 0.  0.
         22    1    3    3    0    0 -0.18368496490E+02 -0.37635478393E+02  0.52304149273E+02  0.67004141128E+02  0.00000000000E+00 0. -1.
         22    1    4    4    0    0  0.11241332375E+02  0.31136278499E+02  0.92615091787E+02  0.98353396581E+02  0.00000000000E+00 0. -1.
         22    1    4    4    0    0  0.71271641155E+01  0.64991998938E+01  0.29428218033E+02  0.30968630648E+02  0.00000000000E+00 0. -1.
<mgrwt>
<rscale>  0 0.90260334E+02</rscale>
<asrwt>0</asrwt>
<pdfrwt beam="1">  1        2 0.28513351E-01 0.90260334E+02</pdfrwt>
<pdfrwt beam="2">  1       -2 0.16906702E-02 0.90260334E+02</pdfrwt>
<totfact> 0.15465743E+05</totfact>
</mgrwt>
</event>
<event>
 7    1  0.3891761E-009  0.9391074E+02  0.7818608E-02  0.1293648E+00
         -2   -1    0    0    0  501 -0.00000000000E+00  0.00000000000E+00  0.31132326932E+02  0.31132327036E+02  0.25500000000E-02 0. -1.
          2   -1    0    0  501    0  0.00000000000E+00 -0.00000000000E+00 -0.70820501014E+02  0.70820501060E+02  0.25500000000E-02 0.  1.
         23    2    1    2    0    0  0.00000000000E+00 -0.35527136788E-14 -0.39688174082E+02  0.10195282810E+03  0.93910744832E+02 0.  0.
    9000005    2    3    3    0    0 -0.97919858326E+01  0.22280026863E+02 -0.63165821913E+02  0.68137409553E+02  0.77783635302E+01 0.  0.
         22    1    3    3    0    0  0.97919858326E+01 -0.22280026863E+02  0.23477647830E+02  0.33815418543E+02  0.00000000000E+00 0. -1.
         22    1    4    4    0    0  0.84822183977E+00  0.13383694677E+01 -0.16417899188E+01  0.22817070932E+01  0.00000000000E+00 0.  1.
         22    1    4    4    0    0 -0.10640207672E+02  0.20941657395E+02 -0.61524031994E+02  0.65855702460E+02  0.00000000000E+00 0.  1.
<mgrwt>
<rscale>  0 0.93910745E+02</rscale>
<asrwt>0</asrwt>
<pdfrwt beam="2">  1        2 0.10895462E-01 0.93910745E+02</pdfrwt>
<pdfrwt beam="1">  1       -2 0.47895888E-02 0.93910745E+02</pdfrwt>
<totfact> 0.10215011E+05</totfact>
</mgrwt>
</event>
<event>
 7    1  0.3891761E-009  0.9555106E+02  0.7818608E-02  0.1289940E+00
         -2   -1    0    0    0  501 -0.00000000000E+00  0.00000000000E+00  0.40061680932E+03  0.40061680933E+03  0.25500000000E-02 0.  1.
          2   -1    0    0  501    0  0.00000000000E+00 -0.00000000000E+00 -0.56974673576E+01  0.56974679282E+01  0.25500000000E-02 0. -1.
         23    2    1    2    0    0  0.44408920985E-15  0.00000000000E+00  0.39491934197E+03  0.40631427726E+03  0.95551060938E+02 0.  0.
    9000005    2    3    3    0    0 -0.39410749869E+01  0.24037180657E+02  0.37117586701E+03  0.37229853489E+03  0.15535659099E+02 0.  0.
         22    1    3    3    0    0  0.39410749869E+01 -0.24037180657E+02  0.23743474952E+02  0.34015742367E+02  0.00000000000E+00 0. -1.
         22    1    4    4    0    0 -0.67216877450E+01  0.38349121750E+01  0.14455112767E+03  0.14475812981E+03  0.00000000000E+00 0.  1.
         22    1    4    4    0    0  0.27806127580E+01  0.20202268482E+02  0.22662473935E+03  0.22754040508E+03  0.00000000000E+00 0.  1.
<mgrwt>
<rscale>  0 0.95551061E+02</rscale>
<asrwt>0</asrwt>
<pdfrwt beam="2">  1        2 0.87653336E-03 0.95551061E+02</pdfrwt>
<pdfrwt beam="1">  1       -2 0.61633364E-01 0.95551061E+02</pdfrwt>
<totfact> 0.37774054E+04</totfact>
</mgrwt>
</event>
<event>
 7    1  0.3891761E-009  0.9158196E+02  0.7818608E-02  0.1299065E+00
         -2   -1    0    0    0  501 -0.00000000000E+00  0.00000000000E+00  0.21354243157E+02  0.21354243310E+02  0.25500000000E-02 0.  1.
          2   -1    0    0  501    0  0.00000000000E+00 -0.00000000000E+00 -0.98191914548E+02  0.98191914581E+02  0.25500000000E-02 0. -1.
         23    2    1    2    0    0  0.00000000000E+00  0.00000000000E+00 -0.76837671391E+02  0.11954615789E+03  0.91581963954E+02 0.  0.
    9000005    2    3    3    0    0  0.14402282753E+02 -0.19882754120E+02 -0.88409747739E+02  0.92404628624E+02  0.10935366296E+02 0.  0.
         22    1    3    3    0    0 -0.14402282753E+02  0.19882754120E+02  0.11572076348E+02  0.27141529266E+02  0.00000000000E+00 0.  1.
         22    1    4    4    0    0  0.10268576685E+02 -0.19996233067E+02 -0.78786755139E+02  0.81930737757E+02  0.00000000000E+00 0.  1.
         22    1    4    4    0    0  0.41337060684E+01  0.11347894702E+00 -0.96229925999E+01  0.10473890868E+02  0.00000000000E+00 0.  1.
<mgrwt>
<rscale>  0 0.91581964E+02</rscale>
<asrwt>0</asrwt>
<pdfrwt beam="2">  1        2 0.15106448E-01 0.91581964E+02</pdfrwt>
<pdfrwt beam="1">  1       -2 0.32852682E-02 0.91581964E+02</pdfrwt>
<totfact> 0.12051530E+05</totfact>
</mgrwt>
</event>
<event>
 7    1  0.3891761E-009  0.9065336E+02  0.7818608E-02  0.1301277E+00
          2   -1    0    0  501    0  0.00000000000E+00  0.00000000000E+00  0.43353217850E+03  0.43353217851E+03  0.25500000000E-02 0. -1.
         -2   -1    0    0    0  501 -0.00000000000E+00 -0.00000000000E+00 -0.47389968402E+01  0.47389975263E+01  0.25500000000E-02 0.  1.
         23    2    1    2    0    0  0.00000000000E+00  0.00000000000E+00  0.42879318166E+03  0.43827117604E+03  0.90653356828E+02 0.  0.
    9000005    2    3    3    0    0  0.43769121745E+02  0.34529472145E+01  0.22777695926E+03  0.23251602900E+03  0.15928016500E+02 0.  0.
         22    1    3    3    0    0 -0.43769121745E+02 -0.34529472145E+01  0.20101622240E+03  0.20575514703E+03  0.00000000000E+00 0.  1.
         22    1    4    4    0    0  0.44554164852E+02  0.48517679981E+01  0.21377189637E+03  0.21841940604E+03  0.00000000000E+00 0.  1.
         22    1    4    4    0    0 -0.78504310689E+00 -0.13988207836E+01  0.14005062893E+02  0.14096622961E+02  0.00000000000E+00 0.  1.
<mgrwt>
<rscale>  0 0.90653357E+02</rscale>
<asrwt>0</asrwt>
<pdfrwt beam="1">  1        2 0.66697274E-01 0.90653357E+02</pdfrwt>
<pdfrwt beam="2">  1       -2 0.72907632E-03 0.90653357E+02</pdfrwt>
<totfact> 0.20853637E+05</totfact>
</mgrwt>
</event>
<event>
 7    1  0.3891761E-009  0.9081294E+02  0.7818608E-02  0.1300895E+00
          2   -1    0    0  501    0  0.00000000000E+00  0.00000000000E+00  0.92217667120E+03  0.92217667120E+03  0.25500000000E-02 0. -1.
         -2   -1    0    0    0  501 -0.00000000000E+00 -0.00000000000E+00 -0.22357394009E+01  0.22357408551E+01  0.25500000000E-02 0.  1.
         23    2    1    2    0    0  0.00000000000E+00  0.00000000000E+00  0.91994093180E+03  0.92441241206E+03  0.90812937233E+02 0.  0.
    9000005    2    3    3    0    0 -0.17350911338E+02 -0.32121042189E+02  0.73191728689E+03  0.73287728076E+03  0.85661154925E+01 0.  0.
         22    1    3    3    0    0  0.17350911338E+02  0.32121042189E+02  0.18802364491E+03  0.19153513130E+03  0.00000000000E+00 0.  1.
         22    1    4    4    0    0 -0.10505713620E+02 -0.18474928833E+02  0.34071763010E+03  0.34137984193E+03  0.00000000000E+00 0. -1.
         22    1    4    4    0    0 -0.68451977181E+01 -0.13646113356E+02  0.39119965679E+03  0.39149743883E+03  0.00000000000E+00 0. -1.
<mgrwt>
<rscale>  0 0.90812937E+02</rscale>
<asrwt>0</asrwt>
<pdfrwt beam="1">  1        2 0.14187375E+00 0.90812937E+02</pdfrwt>
<pdfrwt beam="2">  1       -2 0.34395900E-03 0.90812937E+02</pdfrwt>
<totfact> 0.25120782E+05</totfact>
</mgrwt>
</event>
<event>
 7    1  0.3891761E-009  0.1279776E+03  0.7818608E-02  0.1230488E+00
          2   -1    0    0  501    0  0.00000000000E+00  0.00000000000E+00  0.70259531093E+03  0.70259531094E+03  0.25500000000E-02 0. -1.
         -2   -1    0    0    0  501 -0.00000000000E+00 -0.00000000000E+00 -0.58277705286E+01  0.58277710865E+01  0.25500000000E-02 0.  1.
         23    2    1    2    0    0  0.11102230246E-15  0.00000000000E+00  0.69676754040E+03  0.70842308202E+03  0.12797756750E+03 0.  0.
    9000005    2    3    3    0    0 -0.79000925655E+00  0.10967426044E+02  0.69723090597E+03  0.69741748089E+03  0.11802451573E+02 0.  0.
         22    1    3    3    0    0  0.79000925655E+00 -0.10967426044E+02 -0.46336556604E+00  0.11005601133E+02  0.00000000000E+00 0.  1.
         22    1    4    4    0    0  0.74820874514E+00  0.10673519821E+02  0.31203798478E+03  0.31222137625E+03  0.00000000000E+00 0. -1.
         22    1    4    4    0    0 -0.15382180017E+01  0.29390622269E+00  0.38519292119E+03  0.38519610464E+03  0.00000000000E+00 0. -1.
<mgrwt>
<rscale>  0 0.12797757E+03</rscale>
<asrwt>0</asrwt>
<pdfrwt beam="1">  1        2 0.10809154E+00 0.12797757E+03</pdfrwt>
<pdfrwt beam="2">  1       -2 0.89658054E-03 0.12797757E+03</pdfrwt>
<totfact> 0.95565351E+04</totfact>
</mgrwt>
</event>
<event>
 7    1  0.3891761E-009  0.9168438E+02  0.7818608E-02  0.1298823E+00
          2   -1    0    0  501    0  0.00000000000E+00  0.00000000000E+00  0.38132981544E+03  0.38132981545E+03  0.25500000000E-02 0.  1.
         -2   -1    0    0    0  501 -0.00000000000E+00 -0.00000000000E+00 -0.55109937664E+01  0.55109943563E+01  0.25500000000E-02 0. -1.
         23    2    1    2    0    0  0.00000000000E+00 -0.88817841970E-15  0.37581882168E+03  0.38684080981E+03  0.91684379293E+02 0.  0.
    9000005    2    3    3    0    0 -0.19329350884E+02  0.56146830540E+01  0.36149226834E+03  0.36213456359E+03  0.77222801084E+01 0.  0.
         22    1    3    3    0    0  0.19329350884E+02 -0.56146830540E+01  0.14326553338E+02  0.24706246213E+02  0.00000000000E+00 0. -1.
         22    1    4    4    0    0 -0.10966828802E+02 -0.59304649050E+00  0.16338179180E+03  0.16375052040E+03  0.00000000000E+00 0.  1.
         22    1    4    4    0    0 -0.83625220821E+01  0.62077295445E+01  0.19811047654E+03  0.19838404320E+03  0.00000000000E+00 0.  1.
<mgrwt>
<rscale>  0 0.91684379E+02</rscale>
<asrwt>0</asrwt>
<pdfrwt beam="1">  1        2 0.58666130E-01 0.91684379E+02</pdfrwt>
<pdfrwt beam="2">  1       -2 0.84784518E-03 0.91684379E+02</pdfrwt>
<totfact> 0.19334575E+05</totfact>
</mgrwt>
</event>
<event>
 7    1  0.3891761E-009  0.9098119E+02  0.7818608E-02  0.1300493E+00
          2   -1    0    0  501    0  0.00000000000E+00  0.00000000000E+00  0.84461098061E+02  0.84461098099E+02  0.25500000000E-02 0. -1.
         -2   -1    0    0    0  501 -0.00000000000E+00 -0.00000000000E+00 -0.24501153322E+02  0.24501153455E+02  0.25500000000E-02 0.  1.
         23    2    1    2    0    0  0.00000000000E+00 -0.35527136788E-14  0.59959944739E+02  0.10896225155E+03  0.90981191961E+02 0.  0.
    9000005    2    3    3    0    0 -0.16899116460E+02  0.19515967120E+02 -0.12971733978E+02  0.31596349050E+02  0.12791023459E+02 0.  0.
         22    1    3    3    0    0  0.16899116460E+02 -0.19515967120E+02  0.72931678717E+02  0.77365902504E+02  0.00000000000E+00 0. -1.
         22    1    4    4    0    0 -0.37942867918E+01  0.14094004781E+02 -0.73328110788E+01  0.16334249335E+02  0.00000000000E+00 0. -1.
         22    1    4    4    0    0 -0.13104829668E+02  0.54219623390E+01 -0.56389228996E+01  0.15262099715E+02  0.00000000000E+00 0. -1.
<mgrwt>
<rscale>  0 0.90981192E+02</rscale>
<asrwt>0</asrwt>
<pdfrwt beam="1">  1        2 0.12994015E-01 0.90981192E+02</pdfrwt>
<pdfrwt beam="2">  1       -2 0.37694082E-02 0.90981192E+02</pdfrwt>
<totfact> 0.11736282E+05</totfact>
</mgrwt>
</event>
<event>
 7    1  0.3891761E-009  0.9164562E+02  0.7818608E-02  0.1298915E+00
         -2   -1    0    0    0  501 -0.00000000000E+00  0.00000000000E+00  0.78308502198E+02  0.78308502240E+02  0.25500000000E-02 0.  1.
          2   -1    0    0  501    0  0.00000000000E+00 -0.00000000000E+00 -0.26813559939E+02  0.26813560060E+02  0.25500000000E-02 0. -1.
         23    2    1    2    0    0  0.00000000000E+00  0.00000000000E+00  0.51494942259E+02  0.10512206230E+03  0.91645615846E+02 0.  0.
    9000005    2    3    3    0    0  0.22589220252E+02  0.28985169401E+02 -0.30586660565E+01  0.39345857658E+02  0.13723270746E+02 0.  0.
         22    1    3    3    0    0 -0.22589220252E+02 -0.28985169401E+02  0.54553608316E+02  0.65776204642E+02  0.00000000000E+00 0.  1.
         22    1    4    4    0    0 -0.12346594561E+01  0.35103347103E+01 -0.24617905146E+01  0.44617537234E+01  0.00000000000E+00 0. -1.
         22    1    4    4    0    0  0.23823879708E+02  0.25474834691E+02 -0.59687554188E+00  0.34884103934E+02  0.00000000000E+00 0. -1.
<mgrwt>
<rscale>  0 0.91645616E+02</rscale>
<asrwt>0</asrwt>
<pdfrwt beam="2">  1        2 0.41251632E-02 0.91645616E+02</pdfrwt>
<pdfrwt beam="1">  1       -2 0.12047461E-01 0.91645616E+02</pdfrwt>
<totfact> 0.84509786E+04</totfact>
</mgrwt>
</event>
<event>
 7    1  0.3891761E-009  0.8459544E+02  0.7818608E-02  0.1316494E+00
         -2   -1    0    0    0  501 -0.00000000000E+00  0.00000000000E+00  0.21114603766E+01  0.21114619164E+01  0.25500000000E-02 0. -1.
          2   -1    0    0  501    0  0.00000000000E+00 -0.00000000000E+00 -0.84732654523E+03  0.84732654523E+03  0.25500000000E-02 0.  1.
         23    2    1    2    0    0  0.00000000000E+00  0.17763568394E-14 -0.84521508485E+03  0.84943800715E+03  0.84595439165E+02 0.  0.
    9000005    2    3    3    0    0  0.12127353684E+02 -0.11489970350E+02 -0.81218619784E+03  0.81242450281E+03  0.10395224001E+02 0.  0.
         22    1    3    3    0    0 -0.12127353684E+02  0.11489970350E+02 -0.33028887013E+02  0.37013504337E+02  0.00000000000E+00 0. -1.
         22    1    4    4    0    0  0.43802133067E+01 -0.10735573487E+02 -0.55261198334E+03  0.55273360938E+03  0.00000000000E+00 0.  1.
         22    1    4    4    0    0  0.77471403769E+01 -0.75439686287E+00 -0.25957421450E+03  0.25969089343E+03  0.00000000000E+00 0.  1.
<mgrwt>
<rscale>  0 0.84595439E+02</rscale>
<asrwt>0</asrwt>
<pdfrwt beam="2">  1        2 0.13035766E+00 0.84595439E+02</pdfrwt>
<pdfrwt beam="1">  1       -2 0.32484085E-03 0.84595439E+02</pdfrwt>
<totfact> 0.29946343E+05</totfact>
</mgrwt>
</event>
<event>
 7    1  0.3891761E-009  0.9002229E+02  0.7818608E-02  0.1302798E+00
         -2   -1    0    0    0  501 -0.00000000000E+00  0.00000000000E+00  0.19286436104E+03  0.19286436106E+03  0.25500000000E-02 0.  1.
          2   -1    0    0  501    0  0.00000000000E+00 -0.00000000000E+00 -0.10504807192E+02  0.10504807501E+02  0.25500000000E-02 0. -1.
         23    2    1    2    0    0  0.00000000000E+00  0.00000000000E+00  0.18235955385E+03  0.20336916856E+03  0.90022285244E+02 0.  0.
    9000005    2    3    3    0    0 -0.28484485317E+02  0.33253141060E+02  0.11364650427E+03  0.12189143862E+03  0.49857377991E+01 0.  0.
         22    1    3    3    0    0  0.28484485317E+02 -0.33253141060E+02  0.68713049582E+02  0.81477729944E+02  0.00000000000E+00 0. -1.
         22    1    4    4    0    0 -0.31137533998E+01  0.46030492867E+01  0.19148877336E+02  0.19938982577E+02  0.00000000000E+00 0.  1.
         22    1    4    4    0    0 -0.25370731917E+02  0.28650091773E+02  0.94497626934E+02  0.10195245604E+03  0.00000000000E+00 0.  1.
<mgrwt>
<rscale>  0 0.90022285E+02</rscale>
<asrwt>0</asrwt>
<pdfrwt beam="2">  1        2 0.16161242E-02 0.90022285E+02</pdfrwt>
<pdfrwt beam="1">  1       -2 0.29671441E-01 0.90022285E+02</pdfrwt>
<totfact> 0.65385970E+04</totfact>
</mgrwt>
</event>
<event>
 7    1  0.3891761E-009  0.9390154E+02  0.7818608E-02  0.1293669E+00
         -2   -1    0    0    0  501 -0.00000000000E+00  0.00000000000E+00  0.66047891136E+02  0.66047891186E+02  0.25500000000E-02 0.  1.
          2   -1    0    0  501    0  0.00000000000E+00 -0.00000000000E+00 -0.33375402824E+02  0.33375402922E+02  0.25500000000E-02 0. -1.
         23    2    1    2    0    0  0.00000000000E+00  0.17763568394E-14  0.32672488312E+02  0.99423294107E+02  0.93901543750E+02 0.  0.
    9000005    2    3    3    0    0  0.10806945974E+01  0.13127858627E+02 -0.30228794838E+02  0.35157595675E+02  0.12197045681E+02 0.  0.
         22    1    3    3    0    0 -0.10806945974E+01 -0.13127858627E+02  0.62901283151E+02  0.64265698432E+02  0.00000000000E+00 0.  1.
         22    1    4    4    0    0  0.57104368094E+01  0.11722779985E+02 -0.20571167553E+02  0.24355812317E+02  0.00000000000E+00 0.  1.
         22    1    4    4    0    0 -0.46297422120E+01  0.14050786424E+01 -0.96576272859E+01  0.10801783359E+02  0.00000000000E+00 0.  1.
<mgrwt>
<rscale>  0 0.93901544E+02</rscale>
<asrwt>0</asrwt>
<pdfrwt beam="2">  1        2 0.51346774E-02 0.93901544E+02</pdfrwt>
<pdfrwt beam="1">  1       -2 0.10161214E-01 0.93901544E+02</pdfrwt>
<totfact> 0.83419955E+04</totfact>
</mgrwt>
</event>
<event>
 7    1  0.3891761E-009  0.9070111E+02  0.7818608E-02  0.1301163E+00
          2   -1    0    0  501    0  0.00000000000E+00  0.00000000000E+00  0.77941869498E+02  0.77941869539E+02  0.25500000000E-02 0. -1.
         -2   -1    0    0    0  501 -0.00000000000E+00 -0.00000000000E+00 -0.26387267094E+02  0.26387267217E+02  0.25500000000E-02 0.  1.
         23    2    1    2    0    0  0.22204460493E-15  0.00000000000E+00  0.51554602404E+02  0.10432913676E+03  0.90701112161E+02 0.  0.
    9000005    2    3    3    0    0 -0.19594392474E+01 -0.12997975880E+02 -0.23388887536E+02  0.28241598594E+02  0.88182227143E+01 0.  0.
         22    1    3    3    0    0  0.19594392474E+01  0.12997975880E+02  0.74943489940E+02  0.76087538162E+02  0.00000000000E+00 0. -1.
         22    1    4    4    0    0 -0.30148347527E+01 -0.25135899428E+00 -0.49393004040E+01  0.57921583552E+01  0.00000000000E+00 0.  1.
         22    1    4    4    0    0  0.10553955053E+01 -0.12746616886E+02 -0.18449587132E+02  0.22449440239E+02  0.00000000000E+00 0.  1.
<mgrwt>
<rscale>  0 0.90701112E+02</rscale>
<asrwt>0</asrwt>
<pdfrwt beam="1">  1        2 0.11991057E-01 0.90701112E+02</pdfrwt>
<pdfrwt beam="2">  1       -2 0.40595796E-02 0.90701112E+02</pdfrwt>
<totfact> 0.11567579E+05</totfact>
</mgrwt>
</event>
<event>
 7    1  0.3891761E-009  0.9087229E+02  0.7818608E-02  0.1300753E+00
         -2   -1    0    0    0  501 -0.00000000000E+00  0.00000000000E+00  0.32106931109E+02  0.32106931210E+02  0.25500000000E-02 0. -1.
          2   -1    0    0  501    0  0.00000000000E+00 -0.00000000000E+00 -0.64298989467E+02  0.64298989518E+02  0.25500000000E-02 0.  1.
         23    2    1    2    0    0  0.00000000000E+00  0.00000000000E+00 -0.32192058358E+02  0.96405920728E+02  0.90872289121E+02 0.  0.
    9000005    2    3    3    0    0  0.77890060259E+01 -0.65867206590E+01 -0.63060728627E+02  0.63895486893E+02  0.13871720769E+01 0.  0.
         22    1    3    3    0    0 -0.77890060259E+01  0.65867206590E+01  0.30868670270E+02  0.32510433835E+02  0.00000000000E+00 0. -1.
         22    1    4    4    0    0  0.73420494053E+01 -0.58954536589E+01 -0.55885913181E+02  0.56673603692E+02  0.00000000000E+00 0. -1.
         22    1    4    4    0    0  0.44695662060E+00 -0.69126700015E+00 -0.71748154464E+01  0.72218832015E+01  0.00000000000E+00 0. -1.
<mgrwt>
<rscale>  0 0.90872289E+02</rscale>
<asrwt>0</asrwt>
<pdfrwt beam="2">  1        2 0.98921522E-02 0.90872289E+02</pdfrwt>
<pdfrwt beam="1">  1       -2 0.49395279E-02 0.90872289E+02</pdfrwt>
<totfact> 0.10909087E+05</totfact>
</mgrwt>
</event>
<event>
 7    1  0.3891761E-009  0.9297825E+02  0.7818608E-02  0.1295796E+00
          2   -1    0    0  501    0  0.00000000000E+00  0.00000000000E+00  0.11291860763E+02  0.11291861051E+02  0.25500000000E-02 0.  1.
         -2   -1    0    0    0  501 -0.00000000000E+00 -0.00000000000E+00 -0.19139790413E+03  0.19139790415E+03  0.25500000000E-02 0. -1.
         23    2    1    2    0    0  0.00000000000E+00  0.00000000000E+00 -0.18010604337E+03  0.20268976520E+03  0.92978245082E+02 0.  0.
    9000005    2    3    3    0    0 -0.39067780516E+02  0.16410866670E+02 -0.13130845514E+03  0.13806150020E+03  0.48434933918E+01 0.  0.
         22    1    3    3    0    0  0.39067780516E+02 -0.16410866670E+02 -0.48797588230E+02  0.64628264996E+02  0.00000000000E+00 0. -1.
         22    1    4    4    0    0 -0.12538975572E+02  0.74672214245E+01 -0.41558788491E+02  0.44046772924E+02  0.00000000000E+00 0.  1.
         22    1    4    4    0    0 -0.26528804944E+02  0.89436452451E+01 -0.89749666644E+02  0.94014727276E+02  0.00000000000E+00 0.  1.
<mgrwt>
<rscale>  0 0.92978245E+02</rscale>
<asrwt>0</asrwt>
<pdfrwt beam="1">  1        2 0.17372095E-02 0.92978245E+02</pdfrwt>
<pdfrwt beam="2">  1       -2 0.29445829E-01 0.92978245E+02</pdfrwt>
<totfact> 0.60406223E+04</totfact>
</mgrwt>
</event>
<event>
 7    1  0.3891761E-009  0.9170890E+02  0.7818608E-02  0.1298765E+00
          2   -1    0    0  501    0  0.00000000000E+00  0.00000000000E+00  0.22500325906E+03  0.22500325908E+03  0.25500000000E-02 0. -1.
         -2   -1    0    0    0  501 -0.00000000000E+00 -0.00000000000E+00 -0.93448901270E+01  0.93448904749E+01  0.25500000000E-02 0.  1.
         23    2    1    2    0    0  0.00000000000E+00  0.22204460493E-15  0.21565836894E+03  0.23434814955E+03  0.91708904183E+02 0.  0.
    9000005    2    3    3    0    0  0.39266829937E+02  0.16618226630E+01  0.51452530337E+02  0.65504425897E+02  0.99408926222E+01 0.  0.
         22    1    3    3    0    0 -0.39266829937E+02 -0.16618226630E+01  0.16420583860E+03  0.16884372366E+03  0.00000000000E+00 0.  1.
         22    1    4    4    0    0  0.26439978431E+02  0.39895160338E+01  0.40214564863E+02  0.48292855835E+02  0.00000000000E+00 0.  1.
         22    1    4    4    0    0  0.12826851506E+02 -0.23276933708E+01  0.11237965474E+02  0.17211570062E+02  0.00000000000E+00 0.  1.
<mgrwt>
<rscale>  0 0.91708904E+02</rscale>
<asrwt>0</asrwt>
<pdfrwt beam="1">  1        2 0.34615885E-01 0.91708904E+02</pdfrwt>
<pdfrwt beam="2">  1       -2 0.14376755E-02 0.91708904E+02</pdfrwt>
<totfact> 0.15896061E+05</totfact>
</mgrwt>
</event>
<event>
 7    1  0.3891761E-009  0.8660448E+02  0.7818608E-02  0.1311289E+00
          2   -1    0    0  501    0  0.00000000000E+00  0.00000000000E+00  0.89718212429E+01  0.89718216053E+01  0.25500000000E-02 0. -1.
         -2   -1    0    0    0  501 -0.00000000000E+00 -0.00000000000E+00 -0.20899704315E+03  0.20899704316E+03  0.25500000000E-02 0.  1.
         23    2    1    2    0    0  0.35527136788E-14  0.00000000000E+00 -0.20002522190E+03  0.21796886477E+03  0.86604483778E+02 0.  0.
    9000005    2    3    3    0    0 -0.23148125005E+02 -0.25555845337E+01 -0.19094220575E+03  0.19297150719E+03  0.15385380889E+02 0.  0.
         22    1    3    3    0    0  0.23148125005E+02  0.25555845337E+01 -0.90830161513E+01  0.24997357580E+02  0.00000000000E+00 0. -1.
         22    1    4    4    0    0 -0.22322471124E+02 -0.26371269242E+01 -0.19081236188E+03  0.19213173762E+03  0.00000000000E+00 0.  1.
         22    1    4    4    0    0 -0.82565388127E+00  0.81542390438E-01 -0.12984387331E+00  0.83976956633E+00  0.00000000000E+00 0.  1.
<mgrwt>
<rscale>  0 0.86604484E+02</rscale>
<asrwt>0</asrwt>
<pdfrwt beam="1">  1        2 0.13802804E-02 0.86604484E+02</pdfrwt>
<pdfrwt beam="2">  1       -2 0.32153387E-01 0.86604484E+02</pdfrwt>
<totfact> 0.69705602E+04</totfact>
</mgrwt>
</event>
<event>
 6    1  0.3891761E-009  0.1991556E+03  0.7818608E-02  0.1150453E+00
          2   -1    0    0  501    0  0.00000000000E+00  0.00000000000E+00  0.48535656769E+03  0.48535656770E+03  0.25500000000E-02 0. -1.
         -2   -1    0    0    0  501 -0.00000000000E+00 -0.00000000000E+00 -0.20429810070E+02  0.20429810229E+02  0.25500000000E-02 0.  1.
    9000005    2    1    2    0    0 -0.88402447941E+02 -0.80561045288E+01  0.11791455604E+03  0.14760016704E+03  0.14398480367E+01 0.  0.
         22    1    1    2    0    0  0.88402447941E+02  0.80561045288E+01  0.34701220158E+03  0.35818621088E+03  0.00000000000E+00 0. -1.
         22    1    3    3    0    0 -0.82594474700E+01 -0.37990241586E+00  0.11305216790E+02  0.14006095995E+02  0.00000000000E+00 0. -1.
         22    1    3    3    0    0 -0.80143000471E+02 -0.76762021130E+01  0.10660933925E+03  0.13359407105E+03  0.00000000000E+00 0. -1.
<mgrwt>
<rscale>  0 0.19915564E+03</rscale>
<asrwt>0</asrwt>
<pdfrwt beam="1">  1        2 0.74670230E-01 0.19915564E+03</pdfrwt>
<pdfrwt beam="2">  1       -2 0.31430482E-02 0.19915564E+03</pdfrwt>
<totfact> 0.24642617E+04</totfact>
</mgrwt>
</event>
<event>
 7    1  0.3891761E-009  0.9185233E+02  0.7818608E-02  0.1298427E+00
          2   -1    0    0  501    0  0.00000000000E+00  0.00000000000E+00  0.88678039890E+03  0.88678039890E+03  0.25500000000E-02 0. -1.
         -2   -1    0    0    0  501 -0.00000000000E+00 -0.00000000000E+00 -0.23785052339E+01  0.23785066008E+01  0.25500000000E-02 0.  1.
         23    2    1    2    0    0  0.00000000000E+00  0.00000000000E+00  0.88440189366E+03  0.88915890550E+03  0.91852325598E+02 0.  0.
    9000005    2    3    3    0    0  0.31496507920E+02  0.14784847267E+02  0.72941817618E+03  0.73031755571E+03  0.10111118194E+02 0.  0.
         22    1    3    3    0    0 -0.31496507920E+02 -0.14784847267E+02  0.15498371748E+03  0.15884134980E+03  0.00000000000E+00 0.  1.
         22    1    4    4    0    0  0.17001231876E+02  0.13292509309E+02  0.41121436866E+03  0.41178026869E+03  0.00000000000E+00 0.  1.
         22    1    4    4    0    0  0.14495276045E+02  0.14923379581E+01  0.31820380752E+03  0.31853728702E+03  0.00000000000E+00 0.  1.
<mgrwt>
<rscale>  0 0.91852326E+02</rscale>
<asrwt>0</asrwt>
<pdfrwt beam="1">  1        2 0.13642807E+00 0.91852326E+02</pdfrwt>
<pdfrwt beam="2">  1       -2 0.36592313E-03 0.91852326E+02</pdfrwt>
<totfact> 0.24274574E+05</totfact>
</mgrwt>
</event>
<event>
 7    1  0.4879793E-009  0.8938734E+02  0.7818608E-02  0.1304342E+00
         -2   -1    0    0    0  501 -0.00000000000E+00  0.00000000000E+00  0.11828745090E+01  0.11828772576E+01  0.25500000000E-02 0.  1.
          2   -1    0    0  501    0  0.00000000000E+00 -0.00000000000E+00 -0.16887012779E+04  0.16887012779E+04  0.25500000000E-02 0. -1.
         23    2    1    2    0    0  0.00000000000E+00  0.00000000000E+00 -0.16875184034E+04  0.16898841551E+04  0.89387337333E+02 0.  0.
    9000005    2    3    3    0    0 -0.16254087730E+02 -0.69177515006E+01 -0.16181912711E+04  0.16183418465E+04  0.13239776248E+02 0.  0.
         22    1    3    3    0    0  0.16254087730E+02  0.69177515006E+01 -0.69327132244E+02  0.71542308593E+02  0.00000000000E+00 0.  1.
         22    1    4    4    0    0 -0.15851157883E+02 -0.95778660227E+01 -0.12101695731E+04  0.12103112783E+04  0.00000000000E+00 0.  1.
         22    1    4    4    0    0 -0.40292984677E+00  0.26601145221E+01 -0.40802169807E+03  0.40803056829E+03  0.00000000000E+00 0.  1.
<mgrwt>
<rscale>  0 0.89387337E+02</rscale>
<asrwt>0</asrwt>
<pdfrwt beam="2">  1        2 0.25979827E+00 0.89387337E+02</pdfrwt>
<pdfrwt beam="1">  1       -2 0.18198226E-03 0.89387337E+02</pdfrwt>
<totfact> 0.23511775E+05</totfact>
</mgrwt>
</event>
<event>
 7    1  0.3891761E-009  0.9031077E+02  0.7818608E-02  0.1302101E+00
          2   -1    0    0  501    0  0.00000000000E+00  0.00000000000E+00  0.90094329354E+02  0.90094329390E+02  0.25500000000E-02 0. -1.
         -2   -1    0    0    0  501 -0.00000000000E+00 -0.00000000000E+00 -0.22631931641E+02  0.22631931784E+02  0.25500000000E-02 0.  1.
         23    2    1    2    0    0 -0.22204460493E-15  0.00000000000E+00  0.67462397713E+02  0.11272626117E+03  0.90310768201E+02 0.  0.
    9000005    2    3    3    0    0  0.18763336674E+01 -0.29194693571E+02  0.76279402087E+02  0.82171550786E+02  0.88184927941E+01 0.  0.
         22    1    3    3    0    0 -0.18763336674E+01  0.29194693571E+02 -0.88170043739E+01  0.30554710388E+02  0.00000000000E+00 0.  1.
         22    1    4    4    0    0  0.22227706615E+01 -0.11071552958E+02  0.40745268093E+02  0.42281164438E+02  0.00000000000E+00 0.  1.
         22    1    4    4    0    0 -0.34643699405E+00 -0.18123140613E+02  0.35534133994E+02  0.39890386348E+02  0.00000000000E+00 0.  1.
<mgrwt>
<rscale>  0 0.90310768E+02</rscale>
<asrwt>0</asrwt>
<pdfrwt beam="1">  1        2 0.13860666E-01 0.90310768E+02</pdfrwt>
<pdfrwt beam="2">  1       -2 0.34818356E-02 0.90310768E+02</pdfrwt>
<totfact> 0.12206986E+05</totfact>
</mgrwt>
</event>
<event>
 7    1  0.3891761E-009  0.9388496E+02  0.7818608E-02  0.1293707E+00
          2   -1    0    0  501    0  0.00000000000E+00  0.00000000000E+00  0.22833970363E+02  0.22833970505E+02  0.25500000000E-02 0. -1.
         -2   -1    0    0    0  501 -0.00000000000E+00 -0.00000000000E+00 -0.96505181562E+02  0.96505181596E+02  0.25500000000E-02 0.  1.
         23    2    1    2    0    0  0.00000000000E+00  0.00000000000E+00 -0.73671211199E+02  0.11933915210E+03  0.93884960801E+02 0.  0.
    9000005    2    3    3    0    0 -0.19184513208E+02  0.42034763770E+02 -0.30844308472E+02  0.56338275048E+02  0.93628498845E+01 0.  0.
         22    1    3    3    0    0  0.19184513208E+02 -0.42034763770E+02 -0.42826902727E+02  0.63000877053E+02  0.00000000000E+00 0. -1.
         22    1    4    4    0    0 -0.30308050274E+01  0.52645153181E+01 -0.68520870905E+00  0.61131343535E+01  0.00000000000E+00 0. -1.
         22    1    4    4    0    0 -0.16153708180E+02  0.36770248452E+02 -0.30159099763E+02  0.50225140694E+02  0.00000000000E+00 0. -1.
<mgrwt>
<rscale>  0 0.93884961E+02</rscale>
<asrwt>0</asrwt>
<pdfrwt beam="1">  1        2 0.35129186E-02 0.93884961E+02</pdfrwt>
<pdfrwt beam="2">  1       -2 0.14846951E-01 0.93884961E+02</pdfrwt>
<totfact> 0.74993791E+04</totfact>
</mgrwt>
</event>
<event>
 7    1  0.3891761E-009  0.9173537E+02  0.7818608E-02  0.1298703E+00
          2   -1    0    0  501    0  0.00000000000E+00  0.00000000000E+00  0.54672391962E+02  0.54672392021E+02  0.25500000000E-02 0. -1.
         -2   -1    0    0    0  501 -0.00000000000E+00 -0.00000000000E+00 -0.38480927383E+02  0.38480927468E+02  0.25500000000E-02 0.  1.
         23    2    1    2    0    0  0.00000000000E+00 -0.35527136788E-14  0.16191464578E+02  0.93153319489E+02  0.91735366172E+02 0.  0.
    9000005    2    3    3    0    0 -0.44406625561E+01 -0.22408276897E+02 -0.30478299265E+02  0.41192591870E+02  0.15686062013E+02 0.  0.
         22    1    3    3    0    0  0.44406625561E+01  0.22408276897E+02  0.46669763844E+02  0.51960727619E+02  0.00000000000E+00 0. -1.
         22    1    4    4    0    0  0.13453340693E+01  0.14668879573E+01  0.70245677236E-01  0.19916371388E+01  0.00000000000E+00 0. -1.
         22    1    4    4    0    0 -0.57859966255E+01 -0.23875164854E+02 -0.30548544943E+02  0.39200954732E+02  0.00000000000E+00 0. -1.
<mgrwt>
<rscale>  0 0.91735366E+02</rscale>
<asrwt>0</asrwt>
<pdfrwt beam="1">  1        2 0.84111372E-02 0.91735366E+02</pdfrwt>
<pdfrwt beam="2">  1       -2 0.59201427E-02 0.91735366E+02</pdfrwt>
<totfact> 0.10169772E+05</totfact>
</mgrwt>
</event>
<event>
 7    1  0.3891761E-009  0.8613255E+02  0.7818608E-02  0.1312497E+00
          2   -1    0    0  501    0  0.00000000000E+00  0.00000000000E+00  0.67749956142E+02  0.67749956190E+02  0.25500000000E-02 0. -1.
         -2   -1    0    0    0  501 -0.00000000000E+00 -0.00000000000E+00 -0.27375721053E+02  0.27375721172E+02  0.25500000000E-02 0.  1.
         23    2    1    2    0    0  0.00000000000E+00  0.00000000000E+00  0.40374235089E+02  0.95125677362E+02  0.86132546895E+02 0.  0.
    9000005    2    3    3    0    0 -0.40339611663E+02  0.21955270902E+01  0.36098981849E+02  0.54500778610E+02  0.59239995147E+01 0.  0.
         22    1    3    3    0    0  0.40339611663E+02 -0.21955270902E+01  0.42752532398E+01  0.40624898752E+02  0.00000000000E+00 0.  1.
         22    1    4    4    0    0 -0.28027124796E+02  0.39336138778E+01  0.23335867770E+02  0.36681817936E+02  0.00000000000E+00 0.  1.
         22    1    4    4    0    0 -0.12312486867E+02 -0.17380867875E+01  0.12763114079E+02  0.17818960675E+02  0.00000000000E+00 0.  1.
<mgrwt>
<rscale>  0 0.86132547E+02</rscale>
<asrwt>0</asrwt>
<pdfrwt beam="1">  1        2 0.10423070E-01 0.86132547E+02</pdfrwt>
<pdfrwt beam="2">  1       -2 0.42116494E-02 0.86132547E+02</pdfrwt>
<totfact> 0.12846759E+05</totfact>
</mgrwt>
</event>
<event>
 7    1  0.3891761E-009  0.8949745E+02  0.7818608E-02  0.1304073E+00
         -2   -1    0    0    0  501 -0.00000000000E+00  0.00000000000E+00  0.11939533183E+03  0.11939533186E+03  0.25500000000E-02 0.  1.
          2   -1    0    0  501    0  0.00000000000E+00 -0.00000000000E+00 -0.16771581671E+02  0.16771581865E+02  0.25500000000E-02 0. -1.
         23    2    1    2    0    0  0.00000000000E+00  0.00000000000E+00  0.10262375016E+03  0.13616691372E+03  0.89497454131E+02 0.  0.
    9000005    2    3    3    0    0 -0.92288967366E+01 -0.13022951691E+02  0.11452029710E+03  0.11625968802E+03  0.12109781383E+02 0.  0.
         22    1    3    3    0    0  0.92288967366E+01  0.13022951691E+02 -0.11896546945E+02  0.19907225697E+02  0.00000000000E+00 0. -1.
         22    1    4    4    0    0  0.24572678677E+01 -0.10457014414E+01  0.28643142179E+02  0.28767364335E+02  0.00000000000E+00 0.  1.
         22    1    4    4    0    0 -0.11686164604E+02 -0.11977250250E+02  0.85877154924E+02  0.87492323689E+02  0.00000000000E+00 0.  1.
<mgrwt>
<rscale>  0 0.89497454E+02</rscale>
<asrwt>0</asrwt>
<pdfrwt beam="2">  1        2 0.25802434E-02 0.89497454E+02</pdfrwt>
<pdfrwt beam="1">  1       -2 0.18368512E-01 0.89497454E+02</pdfrwt>
<totfact> 0.79143860E+04</totfact>
</mgrwt>
</event>
<event>
 7    1  0.3891761E-009  0.9206571E+02  0.7818608E-02  0.1297925E+00
         -2   -1    0    0    0  501 -0.00000000000E+00  0.00000000000E+00  0.20525853938E+03  0.20525853939E+03  0.25500000000E-02 0. -1.
          2   -1    0    0  501    0  0.00000000000E+00 -0.00000000000E+00 -0.10323681888E+02  0.10323682203E+02  0.25500000000E-02 0.  1.
         23    2    1    2    0    0  0.00000000000E+00 -0.17763568394E-14  0.19493485749E+03  0.21558222160E+03  0.92065713508E+02 0.  0.
    9000005    2    3    3    0    0 -0.32873218807E+02  0.12534020791E+02  0.28132410283E+02  0.45109917141E+02  0.23920543847E+01 0.  0.
         22    1    3    3    0    0  0.32873218807E+02 -0.12534020791E+02  0.16680244721E+03  0.17047230446E+03  0.00000000000E+00 0. -1.
         22    1    4    4    0    0 -0.26132667893E+02  0.10290447914E+02  0.23584317653E+02  0.36674646401E+02  0.00000000000E+00 0.  1.
         22    1    4    4    0    0 -0.67405509145E+01  0.22435728768E+01  0.45480926293E+01  0.84352707395E+01  0.00000000000E+00 0.  1.
<mgrwt>
<rscale>  0 0.92065714E+02</rscale>
<asrwt>0</asrwt>
<pdfrwt beam="2">  1        2 0.15882587E-02 0.92065714E+02</pdfrwt>
<pdfrwt beam="1">  1       -2 0.31578238E-01 0.92065714E+02</pdfrwt>
<totfact> 0.60106932E+04</totfact>
</mgrwt>
</event>
<event>
 7    1  0.3891761E-009  0.9152835E+02  0.7818608E-02  0.1299192E+00
         -2   -1    0    0    0  501 -0.00000000000E+00  0.00000000000E+00  0.17869468831E+02  0.17869469013E+02  0.25500000000E-02 0.  1.
          2   -1    0    0  501    0  0.00000000000E+00 -0.00000000000E+00 -0.11720325438E+03  0.11720325441E+03  0.25500000000E-02 0. -1.
         23    2    1    2    0    0 -0.17763568394E-14  0.71054273576E-14 -0.99333785551E+02  0.13507272342E+03  0.91528354411E+02 0.  0.
    9000005    2    3    3    0    0 -0.10893161607E+02  0.40884375046E+02 -0.27714654992E+02  0.51889233748E+02  0.11584359493E+02 0.  0.
         22    1    3    3    0    0  0.10893161607E+02 -0.40884375046E+02 -0.71619130558E+02  0.83183489676E+02  0.00000000000E+00 0.  1.
         22    1    4    4    0    0 -0.74384152319E+01  0.33581746368E+02 -0.27096912621E+02  0.43787057265E+02  0.00000000000E+00 0. -1.
         22    1    4    4    0    0 -0.34547463749E+01  0.73026286779E+01 -0.61774237122E+00  0.81021764829E+01  0.00000000000E+00 0. -1.
<mgrwt>
<rscale>  0 0.91528354E+02</rscale>
<asrwt>0</asrwt>
<pdfrwt beam="2">  1        2 0.18031269E-01 0.91528354E+02</pdfrwt>
<pdfrwt beam="1">  1       -2 0.27491491E-02 0.91528354E+02</pdfrwt>
<totfact> 0.12753883E+05</totfact>
</mgrwt>
</event>
<event>
 7    1  0.3891761E-009  0.9808004E+02  0.7818608E-02  0.1284386E+00
         -2   -1    0    0    0  501 -0.00000000000E+00  0.00000000000E+00  0.11582047907E+02  0.11582048188E+02  0.25500000000E-02 0.  1.
          2   -1    0    0  501    0  0.00000000000E+00 -0.00000000000E+00 -0.20764233155E+03  0.20764233157E+03  0.25500000000E-02 0. -1.
         23    2    1    2    0    0  0.00000000000E+00  0.17763568394E-14 -0.19606028365E+03  0.21922437976E+03  0.98080038011E+02 0.  0.
    9000005    2    3    3    0    0  0.45234087714E+02 -0.15300070254E+02 -0.87210546044E+02  0.10036109603E+03  0.13654867808E+02 0.  0.
         22    1    3    3    0    0 -0.45234087714E+02  0.15300070254E+02 -0.10884973760E+03  0.11886328372E+03  0.00000000000E+00 0.  1.
         22    1    4    4    0    0  0.35672328663E+01  0.24164365788E+01 -0.93034997534E+01  0.10252776391E+02  0.00000000000E+00 0. -1.
         22    1    4    4    0    0  0.41666854848E+02 -0.17716506833E+02 -0.77907046291E+02  0.90108319644E+02  0.00000000000E+00 0. -1.
<mgrwt>
<rscale>  0 0.98080038E+02</rscale>
<asrwt>0</asrwt>
<pdfrwt beam="2">  1        2 0.31944971E-01 0.98080038E+02</pdfrwt>
<pdfrwt beam="1">  1       -2 0.17818537E-02 0.98080038E+02</pdfrwt>
<totfact> 0.12872314E+05</totfact>
</mgrwt>
</event>
<event>
 7    1  0.3891761E-009  0.9320271E+02  0.7818608E-02  0.1295276E+00
          2   -1    0    0  501    0  0.00000000000E+00  0.00000000000E+00  0.69446181566E+02  0.69446181613E+02  0.25500000000E-02 0. -1.
         -2   -1    0    0    0  501 -0.00000000000E+00 -0.00000000000E+00 -0.31271497543E+02  0.31271497647E+02  0.25500000000E-02 0.  1.
         23    2    1    2    0    0  0.35527136788E-14  0.00000000000E+00  0.38174684022E+02  0.10071767926E+03  0.93202706052E+02 0.  0.
    9000005    2    3    3    0    0  0.26753995277E+02  0.30585876581E+01  0.59839588459E+02  0.66156149983E+02  0.84100304333E+01 0.  0.
         22    1    3    3    0    0 -0.26753995277E+02 -0.30585876581E+01 -0.21664904437E+02  0.34561529277E+02  0.00000000000E+00 0.  1.
         22    1    4    4    0    0  0.15589966254E+02  0.18712010210E+01  0.44183932946E+02  0.46891026557E+02  0.00000000000E+00 0. -1.
         22    1    4    4    0    0  0.11164029023E+02  0.11873866370E+01  0.15655655513E+02  0.19265123426E+02  0.00000000000E+00 0. -1.
<mgrwt>
<rscale>  0 0.93202706E+02</rscale>
<asrwt>0</asrwt>
<pdfrwt beam="1">  1        2 0.10684028E-01 0.93202706E+02</pdfrwt>
<pdfrwt beam="2">  1       -2 0.48109997E-02 0.93202706E+02</pdfrwt>
<totfact> 0.10377455E+05</totfact>
</mgrwt>
</event>
<event>
 7    1  0.3891761E-009  0.8882802E+02  0.7818608E-02  0.1305715E+00
         -2   -1    0    0    0  501 -0.00000000000E+00  0.00000000000E+00  0.35086859813E+03  0.35086859814E+03  0.25500000000E-02 0.  1.
          2   -1    0    0  501    0  0.00000000000E+00 -0.00000000000E+00 -0.56220592376E+01  0.56220598159E+01  0.25500000000E-02 0. -1.
         23    2    1    2    0    0 -0.17763568394E-14  0.00000000000E+00  0.34524653889E+03  0.35649065796E+03  0.88828016933E+02 0.  0.
    9000005    2    3    3    0    0 -0.14258915121E+02 -0.33342437254E+02  0.27165910825E+03  0.27445319863E+03  0.14520756382E+02 0.  0.
         22    1    3    3    0    0  0.14258915121E+02  0.33342437254E+02  0.73587430648E+02  0.82037459321E+02  0.00000000000E+00 0. -1.
         22    1    4    4    0    0 -0.15947883857E+02 -0.27319685978E+02  0.24680532864E+03  0.24882437680E+03  0.00000000000E+00 0.  1.
         22    1    4    4    0    0  0.16889687361E+01 -0.60227512762E+01  0.24853779602E+02  0.25628821838E+02  0.00000000000E+00 0.  1.
<mgrwt>
<rscale>  0 0.88828017E+02</rscale>
<asrwt>0</asrwt>
<pdfrwt beam="2">  1        2 0.86493233E-03 0.88828017E+02</pdfrwt>
<pdfrwt beam="1">  1       -2 0.53979779E-01 0.88828017E+02</pdfrwt>
<totfact> 0.49718835E+04</totfact>
</mgrwt>
</event>
<event>
 7    1  0.3891761E-009  0.9054781E+02  0.7818608E-02  0.1301530E+00
          2   -1    0    0  501    0  0.00000000000E+00  0.00000000000E+00  0.15161938126E+02  0.15161938341E+02  0.25500000000E-02 0. -1.
         -2   -1    0    0    0  501 -0.00000000000E+00 -0.00000000000E+00 -0.13518896041E+03  0.13518896043E+03  0.25500000000E-02 0.  1.
         23    2    1    2    0    0 -0.35527136788E-14 -0.35527136788E-14 -0.12002702228E+03  0.15035089877E+03  0.90547814351E+02 0.  0.
    9000005    2    3    3    0    0  0.16244473630E+02  0.19831513577E+02 -0.12126732621E+03  0.12468554843E+03  0.13548052515E+02 0.  0.
         22    1    3    3    0    0 -0.16244473630E+02 -0.19831513577E+02  0.12403039299E+01  0.25665350341E+02  0.00000000000E+00 0. -1.
         22    1    4    4    0    0  0.60591355213E+01  0.12626609557E+02 -0.88910672306E+02  0.90006955520E+02  0.00000000000E+00 0.  1.
         22    1    4    4    0    0  0.10185338109E+02  0.72049040203E+01 -0.32356653904E+02  0.34678592910E+02  0.00000000000E+00 0.  1.
<mgrwt>
<rscale>  0 0.90547814E+02</rscale>
<asrwt>0</asrwt>
<pdfrwt beam="1">  1        2 0.23326060E-02 0.90547814E+02</pdfrwt>
<pdfrwt beam="2">  1       -2 0.20798301E-01 0.90547814E+02</pdfrwt>
<totfact> 0.73750591E+04</totfact>
</mgrwt>
</event>
<event>
 7    1  0.3891761E-009  0.9178685E+02  0.7818608E-02  0.1298581E+00
          2   -1    0    0  501    0  0.00000000000E+00  0.00000000000E+00  0.26899895312E+03  0.26899895313E+03  0.25500000000E-02 0. -1.
         -2   -1    0    0    0  501 -0.00000000000E+00 -0.00000000000E+00 -0.78297945404E+01  0.78297949556E+01  0.25500000000E-02 0.  1.
         23    2    1    2    0    0  0.35527136788E-14  0.71054273576E-14  0.26116915858E+03  0.27682874808E+03  0.91786852950E+02 0.  0.
    9000005    2    3    3    0    0 -0.18372225408E+02 -0.40022719462E+02  0.11494853630E+03  0.12412044078E+03  0.15917320235E+02 0.  0.
         22    1    3    3    0    0  0.18372225408E+02  0.40022719462E+02  0.14622062228E+03  0.15270830730E+03  0.00000000000E+00 0. -1.
         22    1    4    4    0    0 -0.65159081953E+01 -0.20562753723E+01  0.21493012538E+02  0.22552935861E+02  0.00000000000E+00 0. -1.
         22    1    4    4    0    0 -0.11856317212E+02 -0.37966444089E+02  0.93455523761E+02  0.10156750492E+03  0.00000000000E+00 0. -1.
<mgrwt>
<rscale>  0 0.91786853E+02</rscale>
<asrwt>0</asrwt>
<pdfrwt beam="1">  1        2 0.41384456E-01 0.91786853E+02</pdfrwt>
<pdfrwt beam="2">  1       -2 0.12045838E-02 0.91786853E+02</pdfrwt>
<totfact> 0.16944565E+05</totfact>
</mgrwt>
</event>
<event>
 7    1  0.3891761E-009  0.9163801E+02  0.7818608E-02  0.1298933E+00
          2   -1    0    0  501    0  0.00000000000E+00  0.00000000000E+00  0.16380769613E+02  0.16380769811E+02  0.25500000000E-02 0. -1.
         -2   -1    0    0    0  501 -0.00000000000E+00 -0.00000000000E+00 -0.12816132370E+03  0.12816132372E+03  0.25500000000E-02 0.  1.
         23    2    1    2    0    0  0.00000000000E+00  0.00000000000E+00 -0.11178055408E+03  0.14454209353E+03  0.91638008117E+02 0.  0.
    9000005    2    3    3    0    0 -0.80188376894E+01  0.37196985096E+02 -0.18574772582E+02  0.43868188456E+02  0.11466399775E+02 0.  0.
         22    1    3    3    0    0  0.80188376894E+01 -0.37196985096E+02 -0.93205781501E+02  0.10067390508E+03  0.00000000000E+00 0.  1.
         22    1    4    4    0    0 -0.36776106750E+01  0.23755865042E+02 -0.17438156407E+02  0.29697731278E+02  0.00000000000E+00 0. -1.
         22    1    4    4    0    0 -0.43412270144E+01  0.13441120054E+02 -0.11366161745E+01  0.14170457178E+02  0.00000000000E+00 0. -1.
<mgrwt>
<rscale>  0 0.91638008E+02</rscale>
<asrwt>0</asrwt>
<pdfrwt beam="1">  1        2 0.25201185E-02 0.91638008E+02</pdfrwt>
<pdfrwt beam="2">  1       -2 0.19717126E-01 0.91638008E+02</pdfrwt>
<totfact> 0.72868353E+04</totfact>
</mgrwt>
</event>
<event>
 7    1  0.3891761E-009  0.9027414E+02  0.7818608E-02  0.1302189E+00
         -2   -1    0    0    0  501 -0.00000000000E+00  0.00000000000E+00  0.12968279037E+02  0.12968279288E+02  0.25500000000E-02 0.  1.
          2   -1    0    0  501    0  0.00000000000E+00 -0.00000000000E+00 -0.15710297727E+03  0.15710297729E+03  0.25500000000E-02 0. -1.
         23    2    1    2    0    0  0.00000000000E+00  0.35527136788E-14 -0.14413469823E+03  0.17007125658E+03  0.90274144025E+02 0.  0.
    9000005    2    3    3    0    0 -0.23213329459E+02  0.29606830049E+02 -0.29056097851E+02  0.48998933911E+02  0.11883419206E+02 0.  0.
         22    1    3    3    0    0  0.23213329459E+02 -0.29606830049E+02 -0.11507860038E+03  0.12107232267E+03  0.00000000000E+00 0. -1.
         22    1    4    4    0    0 -0.94494080816E+01  0.21414090175E+02 -0.18189215167E+02  0.29642910105E+02  0.00000000000E+00 0. -1.
         22    1    4    4    0    0 -0.13763921377E+02  0.81927398738E+01 -0.10866882684E+02  0.19356023806E+02  0.00000000000E+00 0. -1.
<mgrwt>
<rscale>  0 0.90274144E+02</rscale>
<asrwt>0</asrwt>
<pdfrwt beam="2">  1        2 0.24169687E-01 0.90274144E+02</pdfrwt>
<pdfrwt beam="1">  1       -2 0.19951200E-02 0.90274144E+02</pdfrwt>
<totfact> 0.14591717E+05</totfact>
</mgrwt>
</event>
<event>
 7    1  0.3891761E-009  0.9152910E+02  0.7818608E-02  0.1299190E+00
         -2   -1    0    0    0  501 -0.00000000000E+00  0.00000000000E+00  0.91269500107E+01  0.91269503669E+01  0.25500000000E-02 0.  1.
          2   -1    0    0  501    0  0.00000000000E+00 -0.00000000000E+00 -0.22947360231E+03  0.22947360232E+03  0.25500000000E-02 0. -1.
         23    2    1    2    0    0  0.00000000000E+00  0.00000000000E+00 -0.22034665230E+03  0.23860055269E+03  0.91529102284E+02 0.  0.
    9000005    2    3    3    0    0 -0.32116882477E+02  0.13015065965E+01 -0.19395409077E+03  0.19701022492E+03  0.12714218020E+02 0.  0.
         22    1    3    3    0    0  0.32116882477E+02 -0.13015065965E+01 -0.26392561531E+02  0.41590327765E+02  0.00000000000E+00 0.  1.
         22    1    4    4    0    0  0.58557450862E+00  0.13703544941E+00 -0.19761827188E+02  0.19770975950E+02  0.00000000000E+00 0. -1.
         22    1    4    4    0    0 -0.32702456986E+02  0.11644711471E+01 -0.17419226358E+03  0.17723924897E+03  0.00000000000E+00 0. -1.
<mgrwt>
<rscale>  0 0.91529102E+02</rscale>
<asrwt>0</asrwt>
<pdfrwt beam="2">  1        2 0.35303627E-01 0.91529102E+02</pdfrwt>
<pdfrwt beam="1">  1       -2 0.14041464E-02 0.91529102E+02</pdfrwt>
<totfact> 0.16096153E+05</totfact>
</mgrwt>
</event>
<event>
 7    1  0.3891761E-009  0.9051859E+02  0.7818608E-02  0.1301601E+00
         -2   -1    0    0    0  501 -0.00000000000E+00  0.00000000000E+00  0.27053551465E+01  0.27053563483E+01  0.25500000000E-02 0.  1.
          2   -1    0    0  501    0  0.00000000000E+00 -0.00000000000E+00 -0.75716609543E+03  0.75716609543E+03  0.25500000000E-02 0. -1.
         23    2    1    2    0    0  0.00000000000E+00  0.88817841970E-15 -0.75446074028E+03  0.75987145178E+03  0.90518587070E+02 0.  0.
    9000005    2    3    3    0    0  0.35188475215E+02  0.63701623928E+01 -0.60912547649E+03  0.61020132564E+03  0.57449064294E+01 0.  0.
         22    1    3    3    0    0 -0.35188475215E+02 -0.63701623928E+01 -0.14533526379E+03  0.14967012614E+03  0.00000000000E+00 0.  1.
         22    1    4    4    0    0  0.20549440058E+02  0.87889933247E+00 -0.35491126508E+03  0.35550676228E+03  0.00000000000E+00 0.  1.
         22    1    4    4    0    0  0.14639035157E+02  0.54912630603E+01 -0.25421421141E+03  0.25469456336E+03  0.00000000000E+00 0.  1.
<mgrwt>
<rscale>  0 0.90518587E+02</rscale>
<asrwt>0</asrwt>
<pdfrwt beam="2">  1        2 0.11648692E+00 0.90518587E+02</pdfrwt>
<pdfrwt beam="1">  1       -2 0.41620918E-03 0.90518587E+02</pdfrwt>
<totfact> 0.24587362E+05</totfact>
</mgrwt>
</event>
<event>
 7    1  0.3891761E-009  0.9353454E+02  0.7818608E-02  0.1294511E+00
          2   -1    0    0  501    0  0.00000000000E+00  0.00000000000E+00  0.36729933497E+03  0.36729933498E+03  0.25500000000E-02 0. -1.
         -2   -1    0    0    0  501 -0.00000000000E+00 -0.00000000000E+00 -0.59547550351E+01  0.59547555811E+01  0.25500000000E-02 0.  1.
         23    2    1    2    0    0  0.00000000000E+00  0.00000000000E+00  0.36134457993E+03  0.37325409056E+03  0.93534542664E+02 0.  0.
    9000005    2    3    3    0    0  0.42125578271E+02 -0.32321434125E+01  0.11716639226E+03  0.12544771770E+03  0.14971816999E+02 0.  0.
         22    1    3    3    0    0 -0.42125578271E+02  0.32321434125E+01  0.24417818767E+03  0.24780637286E+03  0.00000000000E+00 0. -1.
         22    1    4    4    0    0  0.77870441542E+01 -0.44160460447E-01  0.42426200716E+02  0.43134933800E+02  0.00000000000E+00 0.  1.
         22    1    4    4    0    0  0.34338534117E+02 -0.31879829521E+01  0.74740191546E+02  0.82312783897E+02  0.00000000000E+00 0.  1.
<mgrwt>
<rscale>  0 0.93534543E+02</rscale>
<asrwt>0</asrwt>
<pdfrwt beam="1">  1        2 0.56507584E-01 0.93534543E+02</pdfrwt>
<pdfrwt beam="2">  1       -2 0.91611630E-03 0.93534543E+02</pdfrwt>
<totfact> 0.18084548E+05</totfact>
</mgrwt>
</event>
<event>
 7    1  0.3891761E-009  0.9335913E+02  0.7818608E-02  0.1294915E+00
         -2   -1    0    0    0  501 -0.00000000000E+00  0.00000000000E+00  0.95602673357E+01  0.95602676758E+01  0.25500000000E-02 0.  1.
          2   -1    0    0  501    0  0.00000000000E+00 -0.00000000000E+00 -0.22792058503E+03  0.22792058504E+03  0.25500000000E-02 0. -1.
         23    2    1    2    0    0  0.00000000000E+00  0.00000000000E+00 -0.21836031769E+03  0.23748085272E+03  0.93359129522E+02 0.  0.
    9000005    2    3    3    0    0 -0.76093006134E+01  0.43969462557E+02 -0.85198193909E+02  0.97040949899E+02  0.12922794532E+02 0.  0.
         22    1    3    3    0    0  0.76093006134E+01 -0.43969462557E+02 -0.13316212379E+03  0.14043990282E+03  0.00000000000E+00 0. -1.
         22    1    4    4    0    0 -0.24978833748E+01  0.17667411582E+01 -0.21334869711E+01  0.37299547357E+01  0.00000000000E+00 0.  1.
         22    1    4    4    0    0 -0.51114172386E+01  0.42202721399E+02 -0.83064706938E+02  0.93310995163E+02  0.00000000000E+00 0.  1.
<mgrwt>
<rscale>  0 0.93359130E+02</rscale>
<asrwt>0</asrwt>
<pdfrwt beam="2">  1        2 0.35064701E-01 0.93359130E+02</pdfrwt>
<pdfrwt beam="1">  1       -2 0.14708106E-02 0.93359130E+02</pdfrwt>
<totfact> 0.15223304E+05</totfact>
</mgrwt>
</event>
<event>
 7    1  0.4990416E-009  0.8974677E+02  0.7818608E-02  0.1303466E+00
         -2   -1    0    0    0  501 -0.00000000000E+00  0.00000000000E+00  0.98479282891E+01  0.98479286192E+01  0.25500000000E-02 0.  1.
          2   -1    0    0  501    0  0.00000000000E+00 -0.00000000000E+00 -0.20447148315E+03  0.20447148316E+03  0.25500000000E-02 0. -1.
         23    2    1    2    0    0  0.00000000000E+00  0.11102230246E-15 -0.19462355486E+03  0.21431941178E+03  0.89746766856E+02 0.  0.
    9000005    2    3    3    0    0 -0.42600875197E+02 -0.63217592964E+00 -0.78652896560E+02  0.90770118785E+02  0.15417591028E+02 0.  0.
         22    1    3    3    0    0  0.42600875197E+02  0.63217592964E+00 -0.11597065830E+03  0.12354929300E+03  0.00000000000E+00 0. -1.
         22    1    4    4    0    0 -0.10897359745E+02  0.48943662168E+01 -0.31434633153E+02  0.33628015576E+02  0.00000000000E+00 0.  1.
         22    1    4    4    0    0 -0.31703515451E+02 -0.55265421464E+01 -0.47218263406E+02  0.57142103209E+02  0.00000000000E+00 0.  1.
<mgrwt>
<rscale>  0 0.89746767E+02</rscale>
<asrwt>0</asrwt>
<pdfrwt beam="2">  1        2 0.31457148E-01 0.89746767E+02</pdfrwt>
<pdfrwt beam="1">  1       -2 0.15150661E-02 0.89746767E+02</pdfrwt>
<totfact> 0.16268867E+05</totfact>
</mgrwt>
</event>
<event>
 7    1  0.3891761E-009  0.9329431E+02  0.7818608E-02  0.1295065E+00
          2   -1    0    0  501    0  0.00000000000E+00  0.00000000000E+00  0.36884592112E+02  0.36884592200E+02  0.25500000000E-02 0. -1.
         -2   -1    0    0    0  501 -0.00000000000E+00 -0.00000000000E+00 -0.58993656123E+02  0.58993656179E+02  0.25500000000E-02 0.  1.
         23    2    1    2    0    0  0.00000000000E+00  0.00000000000E+00 -0.22109064012E+02  0.95878248379E+02  0.93294307440E+02 0.  0.
    9000005    2    3    3    0    0  0.97090637231E+01  0.12402537536E+02 -0.55106444512E+02  0.59314386772E+02  0.15277021818E+02 0.  0.
         22    1    3    3    0    0 -0.97090637231E+01 -0.12402537536E+02  0.32997380500E+02  0.36563861607E+02  0.00000000000E+00 0. -1.
         22    1    4    4    0    0  0.12249850746E+02  0.10775653927E+02 -0.53424750183E+02  0.55860339177E+02  0.00000000000E+00 0.  1.
         22    1    4    4    0    0 -0.25407870227E+01  0.16268836088E+01 -0.16816943294E+01  0.34540475950E+01  0.00000000000E+00 0.  1.
<mgrwt>
<rscale>  0 0.93294307E+02</rscale>
<asrwt>0</asrwt>
<pdfrwt beam="1">  1        2 0.56745527E-02 0.93294307E+02</pdfrwt>
<pdfrwt beam="2">  1       -2 0.90759471E-02 0.93294307E+02</pdfrwt>
<totfact> 0.87337326E+04</totfact>
</mgrwt>
</event>
<event>
 7    1  0.3891761E-009  0.9296877E+02  0.7818608E-02  0.1295818E+00
         -2   -1    0    0    0  501 -0.00000000000E+00  0.00000000000E+00  0.30388868987E+01  0.30388879686E+01  0.25500000000E-02 0.  1.
          2   -1    0    0  501    0  0.00000000000E+00 -0.00000000000E+00 -0.71104901748E+03  0.71104901748E+03  0.25500000000E-02 0. -1.
         23    2    1    2    0    0  0.00000000000E+00  0.00000000000E+00 -0.70801013058E+03  0.71408790545E+03  0.92968767383E+02 0.  0.
    9000005    2    3    3    0    0 -0.31602375952E+02 -0.66737617267E+01 -0.60945300088E+03  0.61037311829E+03  0.88957286235E+01 0.  0.
         22    1    3    3    0    0  0.31602375952E+02  0.66737617267E+01 -0.98557129702E+02  0.10371478716E+03  0.00000000000E+00 0.  1.
         22    1    4    4    0    0 -0.14636459280E+02 -0.35261992767E+01 -0.20493827149E+03  0.20549052325E+03  0.00000000000E+00 0.  1.
         22    1    4    4    0    0 -0.16965916672E+02 -0.31475624500E+01 -0.40451472939E+03  0.40488259504E+03  0.00000000000E+00 0.  1.
<mgrwt>
<rscale>  0 0.92968767E+02</rscale>
<asrwt>0</asrwt>
<pdfrwt beam="2">  1        2 0.10939202E+00 0.92968767E+02</pdfrwt>
<pdfrwt beam="1">  1       -2 0.46752171E-03 0.92968767E+02</pdfrwt>
<totfact> 0.22607592E+05</totfact>
</mgrwt>
</event>
<event>
 7    1  0.3891761E-009  0.8817104E+02  0.7818608E-02  0.1307342E+00
         -2   -1    0    0    0  501 -0.00000000000E+00  0.00000000000E+00  0.36857195409E+02  0.36857195497E+02  0.25500000000E-02 0.  1.
          2   -1    0    0  501    0  0.00000000000E+00 -0.00000000000E+00 -0.52731437750E+02  0.52731437811E+02  0.25500000000E-02 0. -1.
         23    2    1    2    0    0  0.00000000000E+00  0.00000000000E+00 -0.15874242341E+02  0.89588633308E+02  0.88171036333E+02 0.  0.
    9000005    2    3    3    0    0  0.16581699132E+02  0.37252431244E+02 -0.24113041485E+02  0.47988462743E+02  0.76653380332E+01 0.  0.
         22    1    3    3    0    0 -0.16581699132E+02 -0.37252431244E+02  0.82387991436E+01  0.41600170565E+02  0.00000000000E+00 0.  1.
         22    1    4    4    0    0  0.33563551417E+01  0.23565017576E+01 -0.32636655608E+01  0.52411576263E+01  0.00000000000E+00 0.  1.
         22    1    4    4    0    0  0.13225343990E+02  0.34895929486E+02 -0.20849375924E+02  0.42747305117E+02  0.00000000000E+00 0.  1.
<mgrwt>
<rscale>  0 0.88171036E+02</rscale>
<asrwt>0</asrwt>
<pdfrwt beam="2">  1        2 0.81125289E-02 0.88171036E+02</pdfrwt>
<pdfrwt beam="1">  1       -2 0.56703378E-02 0.88171036E+02</pdfrwt>
<totfact> 0.11269930E+05</totfact>
</mgrwt>
</event>
<event>
 7    1  0.3891761E-009  0.8987251E+02  0.7818608E-02  0.1303161E+00
         -2   -1    0    0    0  501 -0.00000000000E+00  0.00000000000E+00  0.70804890925E+01  0.70804895517E+01  0.25500000000E-02 0.  1.
          2   -1    0    0  501    0  0.00000000000E+00 -0.00000000000E+00 -0.28518751324E+03  0.28518751325E+03  0.25500000000E-02 0. -1.
         23    2    1    2    0    0  0.00000000000E+00  0.00000000000E+00 -0.27810702415E+03  0.29226800280E+03  0.89872512941E+02 0.  0.
    9000005    2    3    3    0    0  0.98999141803E+01 -0.13605224572E+02 -0.27424458166E+03  0.27500448930E+03  0.11587412545E+02 0.  0.
         22    1    3    3    0    0 -0.98999141803E+01  0.13605224572E+02 -0.38624424862E+01  0.17263513501E+02  0.00000000000E+00 0.  1.
         22    1    4    4    0    0  0.27621849676E+01 -0.12774711523E+02 -0.19342942918E+03  0.19387049026E+03  0.00000000000E+00 0. -1.
         22    1    4    4    0    0  0.71377292127E+01 -0.83051304877E+00 -0.80815152483E+02  0.81133999045E+02  0.00000000000E+00 0. -1.
<mgrwt>
<rscale>  0 0.89872513E+02</rscale>
<asrwt>0</asrwt>
<pdfrwt beam="2">  1        2 0.43874993E-01 0.89872513E+02</pdfrwt>
<pdfrwt beam="1">  1       -2 0.10893063E-02 0.89872513E+02</pdfrwt>
<totfact> 0.18320802E+05</totfact>
</mgrwt>
</event>
<event>
 7    1  0.3891761E-009  0.8815037E+02  0.7818608E-02  0.1307394E+00
         -2   -1    0    0    0  501 -0.00000000000E+00  0.00000000000E+00  0.12983625129E+03  0.12983625132E+03  0.25500000000E-02 0. -1.
          2   -1    0    0  501    0  0.00000000000E+00 -0.00000000000E+00 -0.14962090200E+02  0.14962090417E+02  0.25500000000E-02 0.  1.
         23    2    1    2    0    0  0.00000000000E+00  0.71054273576E-14  0.11487416109E+03  0.14479834173E+03  0.88150365186E+02 0.  0.
    9000005    2    3    3    0    0 -0.50610329135E+01  0.41159643739E+02  0.78058616180E+02  0.89344625231E+02  0.13022448727E+02 0.  0.
         22    1    3    3    0    0  0.50610329135E+01 -0.41159643739E+02  0.36815544911E+02  0.55453716502E+02  0.00000000000E+00 0.  1.
         22    1    4    4    0    0 -0.43304152518E+01  0.90989906492E+01  0.10456842874E+02  0.14522041523E+02  0.00000000000E+00 0. -1.
         22    1    4    4    0    0 -0.73061766163E+00  0.32060653090E+02  0.67601773306E+02  0.74822583708E+02  0.00000000000E+00 0. -1.
<mgrwt>
<rscale>  0 0.88150365E+02</rscale>
<asrwt>0</asrwt>
<pdfrwt beam="2">  1        2 0.23018600E-02 0.88150365E+02</pdfrwt>
<pdfrwt beam="1">  1       -2 0.19974808E-01 0.88150365E+02</pdfrwt>
<totfact> 0.79991593E+04</totfact>
</mgrwt>
</event>
<event>
 7    1  0.3891761E-009  0.9094031E+02  0.7818608E-02  0.1300590E+00
         -2   -1    0    0    0  501 -0.00000000000E+00  0.00000000000E+00  0.61493773511E+01  0.61493778799E+01  0.25500000000E-02 0.  1.
          2   -1    0    0  501    0  0.00000000000E+00 -0.00000000000E+00 -0.33621860594E+03  0.33621860595E+03  0.25500000000E-02 0. -1.
         23    2    1    2    0    0  0.00000000000E+00  0.00000000000E+00 -0.33006922859E+03  0.34236798383E+03  0.90940313889E+02 0.  0.
    9000005    2    3    3    0    0 -0.32993596972E+02 -0.25068701608E+02 -0.11104365245E+03  0.11945719395E+03  0.14910103811E+02 0.  0.
         22    1    3    3    0    0  0.32993596972E+02  0.25068701608E+02 -0.21902557614E+03  0.22291078988E+03  0.00000000000E+00 0. -1.
         22    1    4    4    0    0 -0.33033959003E+01 -0.38852061285E+01 -0.32010339391E+02  0.32414025962E+02  0.00000000000E+00 0.  1.
         22    1    4    4    0    0 -0.29690201071E+02 -0.21183495480E+02 -0.79033313058E+02  0.87043167988E+02  0.00000000000E+00 0.  1.
<mgrwt>
<rscale>  0 0.90940314E+02</rscale>
<asrwt>0</asrwt>
<pdfrwt beam="2">  1        2 0.51725925E-01 0.90940314E+02</pdfrwt>
<pdfrwt beam="1">  1       -2 0.94605836E-03 0.90940314E+02</pdfrwt>
<totfact> 0.18871285E+05</totfact>
</mgrwt>
</event>
<event>
 7    1  0.3891761E-009  0.1074613E+03  0.7818608E-02  0.1265345E+00
         -2   -1    0    0    0  501 -0.00000000000E+00  0.00000000000E+00  0.48131153156E+02  0.48131153223E+02  0.25500000000E-02 0. -1.
          2   -1    0    0  501    0  0.00000000000E+00 -0.00000000000E+00 -0.59981628231E+02  0.59981628286E+02  0.25500000000E-02 0.  1.
         23    2    1    2    0    0 -0.71054273576E-14  0.35527136788E-14 -0.11850475076E+02  0.10811278151E+03  0.10746134080E+03 0.  0.
    9000005    2    3    3    0    0  0.47139042293E+02 -0.21860003125E+02 -0.18633134180E+02  0.55710935077E+02  0.75210074368E+01 0.  0.
         22    1    3    3    0    0 -0.47139042293E+02  0.21860003125E+02  0.67826591044E+01  0.52401846432E+02  0.00000000000E+00 0.  1.
         22    1    4    4    0    0  0.57425374509E+00 -0.16390151011E+01 -0.61323270945E+00  0.18417904934E+01  0.00000000000E+00 0. -1.
         22    1    4    4    0    0  0.46564788548E+02 -0.20220988024E+02 -0.18019901471E+02  0.53869144584E+02  0.00000000000E+00 0. -1.
<mgrwt>
<rscale>  0 0.10746134E+03</rscale>
<asrwt>0</asrwt>
<pdfrwt beam="2">  1        2 0.92279428E-02 0.10746134E+03</pdfrwt>
<pdfrwt beam="1">  1       -2 0.74047928E-02 0.10746134E+03</pdfrwt>
<totfact> 0.66220173E+04</totfact>
</mgrwt>
</event>
<event>
 7    1  0.3891761E-009  0.9433016E+02  0.7818608E-02  0.1292692E+00
          2   -1    0    0  501    0  0.00000000000E+00  0.00000000000E+00  0.69079339267E+03  0.69079339268E+03  0.25500000000E-02 0. -1.
         -2   -1    0    0    0  501 -0.00000000000E+00 -0.00000000000E+00 -0.32202746974E+01  0.32202757070E+01  0.25500000000E-02 0.  1.
         23    2    1    2    0    0  0.00000000000E+00  0.00000000000E+00  0.68757311797E+03  0.69401366838E+03  0.94330161360E+02 0.  0.
    9000005    2    3    3    0    0  0.10607693613E+02  0.36336319607E+02  0.54351047807E+03  0.54506100643E+03  0.15969022322E+02 0.  0.
         22    1    3    3    0    0 -0.10607693613E+02 -0.36336319607E+02  0.14406263990E+03  0.14895266195E+03  0.00000000000E+00 0.  1.
         22    1    4    4    0    0  0.49466733970E+00  0.27759399004E+01  0.97133885684E+01  0.10114368769E+02  0.00000000000E+00 0. -1.
         22    1    4    4    0    0  0.10113026274E+02  0.33560379706E+02  0.53379708950E+03  0.53494663766E+03  0.00000000000E+00 0. -1.
<mgrwt>
<rscale>  0 0.94330161E+02</rscale>
<asrwt>0</asrwt>
<pdfrwt beam="1">  1        2 0.10627603E+00 0.94330161E+02</pdfrwt>
<pdfrwt beam="2">  1       -2 0.49542638E-03 0.94330161E+02</pdfrwt>
<totfact> 0.21608665E+05</totfact>
</mgrwt>
</event>
<event>
 7    1  0.3891761E-009  0.9907525E+02  0.7818608E-02  0.1282253E+00
          2   -1    0    0  501    0  0.00000000000E+00  0.00000000000E+00  0.92684242881E+01  0.92684246389E+01  0.25500000000E-02 0. -1.
         -2   -1    0    0    0  501 -0.00000000000E+00 -0.00000000000E+00 -0.26476738342E+03  0.26476738344E+03  0.25500000000E-02 0.  1.
         23    2    1    2    0    0  0.35527136788E-14  0.00000000000E+00 -0.25549895914E+03  0.27403580807E+03  0.99075254165E+02 0.  0.
    9000005    2    3    3    0    0  0.21467695746E+02 -0.38658081074E+02 -0.18928025647E+03  0.19441027338E+03  0.36096693005E+01 0.  0.
         22    1    3    3    0    0 -0.21467695746E+02  0.38658081074E+02 -0.66218702661E+02  0.79625534693E+02  0.00000000000E+00 0. -1.
         22    1    4    4    0    0  0.27402683744E+01 -0.43993022187E+01 -0.27618231090E+02  0.28100349096E+02  0.00000000000E+00 0.  1.
         22    1    4    4    0    0  0.18727427372E+02 -0.34258778856E+02 -0.16166202538E+03  0.16630992429E+03  0.00000000000E+00 0.  1.
<mgrwt>
<rscale>  0 0.99075254E+02</rscale>
<asrwt>0</asrwt>
<pdfrwt beam="1">  1        2 0.14259117E-02 0.99075254E+02</pdfrwt>
<pdfrwt beam="2">  1       -2 0.40733438E-01 0.99075254E+02</pdfrwt>
<totfact> 0.44052686E+04</totfact>
</mgrwt>
</event>
<event>
 7    1  0.3891761E-009  0.8870114E+02  0.7818608E-02  0.1306028E+00
          2   -1    0    0  501    0  0.00000000000E+00  0.00000000000E+00  0.98343942931E+01  0.98343946237E+01  0.25500000000E-02 0. -1.
         -2   -1    0    0    0  501 -0.00000000000E+00 -0.00000000000E+00 -0.20000959286E+03  0.20000959288E+03  0.25500000000E-02 0.  1.
         23    2    1    2    0    0  0.00000000000E+00 -0.71054273576E-14 -0.19017519857E+03  0.20984398750E+03  0.88701143961E+02 0.  0.
    9000005    2    3    3    0    0  0.17175557140E+02  0.37584807848E+02 -0.69825873595E+02  0.82597857636E+02  0.15464020136E+02 0.  0.
         22    1    3    3    0    0 -0.17175557140E+02 -0.37584807848E+02 -0.12034932497E+03  0.12724612987E+03  0.00000000000E+00 0.  1.
         22    1    4    4    0    0 -0.77714357677E+00  0.28171425024E+01 -0.46231347663E+00  0.29587121807E+01  0.00000000000E+00 0. -1.
         22    1    4    4    0    0  0.17952700717E+02  0.34767665346E+02 -0.69363560118E+02  0.79639145455E+02  0.00000000000E+00 0. -1.
<mgrwt>
<rscale>  0 0.88701144E+02</rscale>
<asrwt>0</asrwt>
<pdfrwt beam="1">  1        2 0.15129839E-02 0.88701144E+02</pdfrwt>
<pdfrwt beam="2">  1       -2 0.30770704E-01 0.88701144E+02</pdfrwt>
<totfact> 0.66850890E+04</totfact>
</mgrwt>
</event>
<event>
 7    1  0.3891761E-009  0.9094275E+02  0.7818608E-02  0.1300585E+00
          2   -1    0    0  501    0  0.00000000000E+00  0.00000000000E+00  0.14080448595E+03  0.14080448597E+03  0.25500000000E-02 0. -1.
         -2   -1    0    0    0  501 -0.00000000000E+00 -0.00000000000E+00 -0.14684518652E+02  0.14684518873E+02  0.25500000000E-02 0.  1.
         23    2    1    2    0    0 -0.71054273576E-14  0.00000000000E+00  0.12611996730E+03  0.15548900484E+03  0.90942753844E+02 0.  0.
    9000005    2    3    3    0    0  0.37554428933E+02  0.22607373918E+02  0.54899792156E+02  0.71860410243E+02  0.15116312167E+02 0.  0.
         22    1    3    3    0    0 -0.37554428933E+02 -0.22607373918E+02  0.71220175140E+02  0.83628594601E+02  0.00000000000E+00 0. -1.
         22    1    4    4    0    0  0.26873767205E+02  0.83189458139E+01  0.38061765897E+02  0.47329718427E+02  0.00000000000E+00 0.  1.
         22    1    4    4    0    0  0.10680661729E+02  0.14288428104E+02  0.16838026260E+02  0.24530691816E+02  0.00000000000E+00 0.  1.
<mgrwt>
<rscale>  0 0.90942754E+02</rscale>
<asrwt>0</asrwt>
<pdfrwt beam="1">  1        2 0.21662227E-01 0.90942754E+02</pdfrwt>
<pdfrwt beam="2">  1       -2 0.22591569E-02 0.90942754E+02</pdfrwt>
<totfact> 0.13781578E+05</totfact>
</mgrwt>
</event>
<event>
 7    1  0.3891761E-009  0.9023534E+02  0.7818608E-02  0.1302283E+00
          2   -1    0    0  501    0  0.00000000000E+00  0.00000000000E+00  0.35384564281E+03  0.35384564282E+03  0.25500000000E-02 0. -1.
         -2   -1    0    0    0  501 -0.00000000000E+00 -0.00000000000E+00 -0.57528019656E+01  0.57528025308E+01  0.25500000000E-02 0.  1.
         23    2    1    2    0    0  0.35527136788E-14  0.00000000000E+00  0.34809284085E+03  0.35959844535E+03  0.90235337042E+02 0.  0.
    9000005    2    3    3    0    0 -0.24655551907E+02 -0.16861792146E+02  0.30832387123E+03  0.30986126390E+03  0.76273863555E+01 0.  0.
         22    1    3    3    0    0  0.24655551907E+02  0.16861792146E+02  0.39768969617E+02  0.49737181450E+02  0.00000000000E+00 0.  1.
         22    1    4    4    0    0 -0.22146801166E+02 -0.14733571270E+02  0.24234991561E+03  0.24380533325E+03  0.00000000000E+00 0.  1.
         22    1    4    4    0    0 -0.25087507410E+01 -0.21282208761E+01  0.65973955617E+02  0.66055930651E+02  0.00000000000E+00 0.  1.
<mgrwt>
<rscale>  0 0.90235337E+02</rscale>
<asrwt>0</asrwt>
<pdfrwt beam="1">  1        2 0.54437793E-01 0.90235337E+02</pdfrwt>
<pdfrwt beam="2">  1       -2 0.88504647E-03 0.90235337E+02</pdfrwt>
<totfact> 0.19629901E+05</totfact>
</mgrwt>
</event>
<event>
 7    1  0.3891761E-009  0.1005098E+03  0.7818608E-02  0.1279228E+00
          2   -1    0    0  501    0  0.00000000000E+00  0.00000000000E+00  0.43181366551E+03  0.43181366551E+03  0.25500000000E-02 0.  1.
         -2   -1    0    0    0  501 -0.00000000000E+00 -0.00000000000E+00 -0.58487099546E+01  0.58487105105E+01  0.25500000000E-02 0. -1.
         23    2    1    2    0    0  0.00000000000E+00 -0.88817841970E-15  0.42596495555E+03  0.43766237602E+03  0.10050976087E+03 0.  0.
    9000005    2    3    3    0    0  0.44008191949E+02  0.72833108348E+01  0.31206001758E+03  0.31533452772E+03  0.80400390635E+01 0.  0.
         22    1    3    3    0    0 -0.44008191949E+02 -0.72833108348E+01  0.11390493797E+03  0.12232784830E+03  0.00000000000E+00 0. -1.
         22    1    4    4    0    0  0.31786810841E+02  0.26538428697E+01  0.20230761650E+03  0.20480677704E+03  0.00000000000E+00 0.  1.
         22    1    4    4    0    0  0.12221381108E+02  0.46294679651E+01  0.10975240107E+03  0.11052775069E+03  0.00000000000E+00 0.  1.
<mgrwt>
<rscale>  0 0.10050976E+03</rscale>
<asrwt>0</asrwt>
<pdfrwt beam="1">  1        2 0.66432879E-01 0.10050976E+03</pdfrwt>
<pdfrwt beam="2">  1       -2 0.89980147E-03 0.10050976E+03</pdfrwt>
<totfact> 0.15816240E+05</totfact>
</mgrwt>
</event>
<event>
 7    1  0.3891761E-009  0.9148224E+02  0.7818608E-02  0.1299301E+00
         -2   -1    0    0    0  501 -0.00000000000E+00  0.00000000000E+00  0.84626350669E+01  0.84626354511E+01  0.25500000000E-02 0.  1.
          2   -1    0    0  501    0  0.00000000000E+00 -0.00000000000E+00 -0.24723389070E+03  0.24723389071E+03  0.25500000000E-02 0. -1.
         23    2    1    2    0    0  0.00000000000E+00  0.00000000000E+00 -0.23877125563E+03  0.25569652616E+03  0.91482244046E+02 0.  0.
    9000005    2    3    3    0    0  0.25810299206E+02 -0.22565402239E+02 -0.36847110030E+02  0.50882636252E+02  0.74809244845E+01 0.  0.
         22    1    3    3    0    0 -0.25810299206E+02  0.22565402239E+02 -0.20192414560E+03  0.20481388991E+03  0.00000000000E+00 0. -1.
         22    1    4    4    0    0  0.82932994820E+01 -0.82174806221E+01 -0.17833964998E+02  0.21315630688E+02  0.00000000000E+00 0.  1.
         22    1    4    4    0    0  0.17516999724E+02 -0.14347921616E+02 -0.19013145032E+02  0.29567005564E+02  0.00000000000E+00 0.  1.
<mgrwt>
<rscale>  0 0.91482244E+02</rscale>
<asrwt>0</asrwt>
<pdfrwt beam="2">  1        2 0.38035978E-01 0.91482244E+02</pdfrwt>
<pdfrwt beam="1">  1       -2 0.13019441E-02 0.91482244E+02</pdfrwt>
<totfact> 0.16567879E+05</totfact>
</mgrwt>
</event>
<event>
 7    1  0.3891761E-009  0.9425317E+02  0.7818608E-02  0.1292867E+00
         -2   -1    0    0    0  501 -0.00000000000E+00  0.00000000000E+00  0.24981957679E+02  0.24981957809E+02  0.25500000000E-02 0.  1.
          2   -1    0    0  501    0  0.00000000000E+00 -0.00000000000E+00 -0.88900764890E+02  0.88900764926E+02  0.25500000000E-02 0. -1.
         23    2    1    2    0    0  0.00000000000E+00  0.00000000000E+00 -0.63918807211E+02  0.11388272274E+03  0.94253173010E+02 0.  0.
    9000005    2    3    3    0    0 -0.11337782168E+02 -0.26772313420E+01 -0.86483747212E+02  0.88488050275E+02  0.14662320333E+02 0.  0.
         22    1    3    3    0    0  0.11337782168E+02  0.26772313420E+01  0.22564940001E+02  0.25394672461E+02  0.00000000000E+00 0.  1.
         22    1    4    4    0    0  0.20993203773E+01 -0.10980423496E+01 -0.25890980948E+01  0.35094546574E+01  0.00000000000E+00 0. -1.
         22    1    4    4    0    0 -0.13437102545E+02 -0.15791889924E+01 -0.83894649117E+02  0.84978595618E+02  0.00000000000E+00 0. -1.
<mgrwt>
<rscale>  0 0.94253173E+02</rscale>
<asrwt>0</asrwt>
<pdfrwt beam="2">  1        2 0.13677041E-01 0.94253173E+02</pdfrwt>
<pdfrwt beam="1">  1       -2 0.38433782E-02 0.94253173E+02</pdfrwt>
<totfact> 0.10800684E+05</totfact>
</mgrwt>
</event>
<event>
 7    1  0.3891761E-009  0.9018554E+02  0.7818608E-02  0.1302403E+00
          2   -1    0    0  501    0  0.00000000000E+00  0.00000000000E+00  0.17245008251E+03  0.17245008253E+03  0.25500000000E-02 0. -1.
         -2   -1    0    0    0  501 -0.00000000000E+00 -0.00000000000E+00 -0.11790994115E+02  0.11790994391E+02  0.25500000000E-02 0.  1.
         23    2    1    2    0    0  0.00000000000E+00 -0.88817841970E-15  0.16065908839E+03  0.18424107692E+03  0.90185540642E+02 0.  0.
    9000005    2    3    3    0    0 -0.43607273929E+02  0.35075837176E+01  0.85855304038E+02  0.97583684638E+02  0.15412488215E+02 0.  0.
         22    1    3    3    0    0  0.43607273929E+02 -0.35075837176E+01  0.74803784355E+02  0.86657392280E+02  0.00000000000E+00 0. -1.
         22    1    4    4    0    0 -0.26968610931E+02  0.83591044243E+01  0.61706003147E+02  0.67858760870E+02  0.00000000000E+00 0. -1.
         22    1    4    4    0    0 -0.16638662998E+02 -0.48515207067E+01  0.24149300890E+02  0.29724923768E+02  0.00000000000E+00 0. -1.
<mgrwt>
<rscale>  0 0.90185541E+02</rscale>
<asrwt>0</asrwt>
<pdfrwt beam="1">  1        2 0.26530782E-01 0.90185541E+02</pdfrwt>
<pdfrwt beam="2">  1       -2 0.18139991E-02 0.90185541E+02</pdfrwt>
<totfact> 0.15110571E+05</totfact>
</mgrwt>
</event>
<event>
 7    1  0.3891761E-009  0.9198047E+02  0.7818608E-02  0.1298125E+00
         -2   -1    0    0    0  501 -0.00000000000E+00  0.00000000000E+00  0.42979181807E+01  0.42979189371E+01  0.25500000000E-02 0.  1.
          2   -1    0    0  501    0  0.00000000000E+00 -0.00000000000E+00 -0.49212233572E+03  0.49212233572E+03  0.25500000000E-02 0. -1.
         23    2    1    2    0    0  0.00000000000E+00  0.00000000000E+00 -0.48782441754E+03  0.49642025466E+03  0.91980470171E+02 0.  0.
    9000005    2    3    3    0    0 -0.40995488337E+02 -0.10655592287E+02 -0.33862023670E+03  0.34132009576E+03  0.64475854537E+01 0.  0.
         22    1    3    3    0    0  0.40995488337E+02  0.10655592287E+02 -0.14920418084E+03  0.15510015890E+03  0.00000000000E+00 0.  1.
         22    1    4    4    0    0 -0.15561897347E+02 -0.39475337285E+01 -0.15419709852E+03  0.15503064492E+03  0.00000000000E+00 0.  1.
         22    1    4    4    0    0 -0.25433590990E+02 -0.67080585584E+01 -0.18442313818E+03  0.18628945084E+03  0.00000000000E+00 0.  1.
<mgrwt>
<rscale>  0 0.91980470E+02</rscale>
<asrwt>0</asrwt>
<pdfrwt beam="2">  1        2 0.75711084E-01 0.91980470E+02</pdfrwt>
<pdfrwt beam="1">  1       -2 0.66121863E-03 0.91980470E+02</pdfrwt>
<totfact> 0.20945557E+05</totfact>
</mgrwt>
</event>
<event>
 7    1  0.3891761E-009  0.9088056E+02  0.7818608E-02  0.1300733E+00
          2   -1    0    0  501    0  0.00000000000E+00  0.00000000000E+00  0.24081326218E+03  0.24081326219E+03  0.25500000000E-02 0.  1.
         -2   -1    0    0    0  501 -0.00000000000E+00 -0.00000000000E+00 -0.85743583790E+01  0.85743587582E+01  0.25500000000E-02 0. -1.
         23    2    1    2    0    0  0.00000000000E+00 -0.44408920985E-15  0.23223890380E+03  0.24938762095E+03  0.90880564727E+02 0.  0.
    9000005    2    3    3    0    0  0.25831613940E+02 -0.35711195298E+01  0.21714461435E+03  0.21925686013E+03  0.15548697680E+02 0.  0.
         22    1    3    3    0    0 -0.25831613940E+02  0.35711195298E+01  0.15094289444E+02  0.30130760814E+02  0.00000000000E+00 0. -1.
         22    1    4    4    0    0  0.25727746905E+02  0.10097413562E+01  0.18061191248E+03  0.18243793319E+03  0.00000000000E+00 0.  1.
         22    1    4    4    0    0  0.10386703487E+00 -0.45808608860E+01  0.36532701873E+02  0.36818926939E+02  0.00000000000E+00 0.  1.
<mgrwt>
<rscale>  0 0.90880565E+02</rscale>
<asrwt>0</asrwt>
<pdfrwt beam="1">  1        2 0.37048198E-01 0.90880565E+02</pdfrwt>
<pdfrwt beam="2">  1       -2 0.13191319E-02 0.90880565E+02</pdfrwt>
<totfact> 0.16700373E+05</totfact>
</mgrwt>
</event>
<event>
 7    1  0.3891761E-009  0.9118110E+02  0.7818608E-02  0.1300016E+00
          2   -1    0    0  501    0  0.00000000000E+00  0.00000000000E+00  0.51436354267E+02  0.51436354330E+02  0.25500000000E-02 0. -1.
         -2   -1    0    0    0  501 -0.00000000000E+00 -0.00000000000E+00 -0.40409127417E+02  0.40409127497E+02  0.25500000000E-02 0.  1.
         23    2    1    2    0    0  0.00000000000E+00  0.00000000000E+00  0.11027226850E+02  0.91845481827E+02  0.91181098919E+02 0.  0.
    9000005    2    3    3    0    0 -0.30734147948E+02  0.11308809281E+02 -0.24882570335E+02  0.43245167514E+02  0.13361331872E+02 0.  0.
         22    1    3    3    0    0  0.30734147948E+02 -0.11308809281E+02  0.35909797186E+02  0.48600314313E+02  0.00000000000E+00 0. -1.
         22    1    4    4    0    0 -0.29934908005E+02  0.10984101105E+02 -0.18623113397E+02  0.36926542581E+02  0.00000000000E+00 0.  1.
         22    1    4    4    0    0 -0.79923994277E+00  0.32470817599E+00 -0.62594569384E+01  0.63186249335E+01  0.00000000000E+00 0.  1.
<mgrwt>
<rscale>  0 0.91181099E+02</rscale>
<asrwt>0</asrwt>
<pdfrwt beam="1">  1        2 0.79132853E-02 0.91181099E+02</pdfrwt>
<pdfrwt beam="2">  1       -2 0.62167889E-02 0.91181099E+02</pdfrwt>
<totfact> 0.10181606E+05</totfact>
</mgrwt>
</event>
<event>
 7    1  0.3891761E-009  0.9144909E+02  0.7818608E-02  0.1299380E+00
         -2   -1    0    0    0  501 -0.00000000000E+00  0.00000000000E+00  0.25706122495E+01  0.25706135143E+01  0.25500000000E-02 0.  1.
          2   -1    0    0  501    0  0.00000000000E+00 -0.00000000000E+00 -0.81332120184E+03  0.81332120184E+03  0.25500000000E-02 0. -1.
         23    2    1    2    0    0  0.00000000000E+00  0.00000000000E+00 -0.81075058959E+03  0.81589181536E+03  0.91449088827E+02 0.  0.
    9000005    2    3    3    0    0  0.30215346294E+02  0.45506119700E+01 -0.70879963771E+03  0.70946027957E+03  0.18129114149E+01 0.  0.
         22    1    3    3    0    0 -0.30215346294E+02 -0.45506119700E+01 -0.10195095187E+03  0.10643153578E+03  0.00000000000E+00 0.  1.
         22    1    4    4    0    0  0.23513427146E+02  0.32630093454E+01 -0.53362865841E+03  0.53415641302E+03  0.00000000000E+00 0.  1.
         22    1    4    4    0    0  0.67019191488E+01  0.12876026246E+01 -0.17517097930E+03  0.17530386656E+03  0.00000000000E+00 0.  1.
<mgrwt>
<rscale>  0 0.91449089E+02</rscale>
<asrwt>0</asrwt>
<pdfrwt beam="2">  1        2 0.12512613E+00 0.91449089E+02</pdfrwt>
<pdfrwt beam="1">  1       -2 0.39547955E-03 0.91449089E+02</pdfrwt>
<totfact> 0.24251782E+05</totfact>
</mgrwt>
</event>
<event>
 7    1  0.3891761E-009  0.9124558E+02  0.7818608E-02  0.1299863E+00
         -2   -1    0    0    0  501 -0.00000000000E+00  0.00000000000E+00  0.50108696370E+02  0.50108696435E+02  0.25500000000E-02 0.  1.
          2   -1    0    0  501    0  0.00000000000E+00 -0.00000000000E+00 -0.41538480872E+02  0.41538480951E+02  0.25500000000E-02 0. -1.
         23    2    1    2    0    0  0.00000000000E+00 -0.17763568394E-14  0.85702154977E+01  0.91647177385E+02  0.91245583614E+02 0.  0.
    9000005    2    3    3    0    0 -0.19032041036E+02  0.12338639913E+02  0.43482763805E+02  0.50013697466E+02  0.98060473807E+01 0.  0.
         22    1    3    3    0    0  0.19032041036E+02 -0.12338639913E+02 -0.34912548307E+02  0.41633479919E+02  0.00000000000E+00 0. -1.
         22    1    4    4    0    0 -0.54101228007E+01  0.24691009812E+01  0.21651890881E+02  0.22453736150E+02  0.00000000000E+00 0.  1.
         22    1    4    4    0    0 -0.13621918235E+02  0.98695389315E+01  0.21830872924E+02  0.27559961316E+02  0.00000000000E+00 0.  1.
<mgrwt>
<rscale>  0 0.91245584E+02</rscale>
<asrwt>0</asrwt>
<pdfrwt beam="2">  1        2 0.63905355E-02 0.91245584E+02</pdfrwt>
<pdfrwt beam="1">  1       -2 0.77090302E-02 0.91245584E+02</pdfrwt>
<totfact> 0.96114976E+04</totfact>
</mgrwt>
</event>
<event>
 7    1  0.3891761E-009  0.1077286E+03  0.7818608E-02  0.1264835E+00
          2   -1    0    0  501    0  0.00000000000E+00  0.00000000000E+00  0.21690158202E+02  0.21690158352E+02  0.25500000000E-02 0. -1.
         -2   -1    0    0    0  501 -0.00000000000E+00 -0.00000000000E+00 -0.13376401773E+03  0.13376401776E+03  0.25500000000E-02 0.  1.
         23    2    1    2    0    0  0.00000000000E+00  0.35527136788E-14 -0.11207385953E+03  0.15545417611E+03  0.10772859824E+03 0.  0.
    9000005    2    3    3    0    0 -0.35575013039E+02  0.29308933608E+02 -0.18966195312E+02  0.51561768887E+02  0.13202435540E+02 0.  0.
         22    1    3    3    0    0  0.35575013039E+02 -0.29308933608E+02 -0.93107664218E+02  0.10389240722E+03  0.00000000000E+00 0.  1.
         22    1    4    4    0    0 -0.14692702933E+02  0.11083259904E+02 -0.79951571876E+00  0.18421547030E+02  0.00000000000E+00 0. -1.
         22    1    4    4    0    0 -0.20882310106E+02  0.18225673704E+02 -0.18166679593E+02  0.33140221858E+02  0.00000000000E+00 0. -1.
<mgrwt>
<rscale>  0 0.10772860E+03</rscale>
<asrwt>0</asrwt>
<pdfrwt beam="1">  1        2 0.33369475E-02 0.10772860E+03</pdfrwt>
<pdfrwt beam="2">  1       -2 0.20579079E-01 0.10772860E+03</pdfrwt>
<totfact> 0.47772555E+04</totfact>
</mgrwt>
</event>
<event>
 7    1  0.3891761E-009  0.9222721E+02  0.7818608E-02  0.1297546E+00
         -2   -1    0    0    0  501 -0.00000000000E+00  0.00000000000E+00  0.49311697115E+02  0.49311697181E+02  0.25500000000E-02 0.  1.
          2   -1    0    0  501    0  0.00000000000E+00 -0.00000000000E+00 -0.43122919318E+02  0.43122919393E+02  0.25500000000E-02 0. -1.
         23    2    1    2    0    0  0.00000000000E+00  0.35527136788E-14  0.61887777967E+01  0.92434616574E+02  0.92227205154E+02 0.  0.
    9000005    2    3    3    0    0 -0.17776128494E+02  0.29355459347E+02  0.32585127954E+02  0.49139108270E+02  0.13233580777E+02 0.  0.
         22    1    3    3    0    0  0.17776128494E+02 -0.29355459347E+02 -0.26396350157E+02  0.43295508304E+02  0.00000000000E+00 0. -1.
         22    1    4    4    0    0 -0.12910972396E+02  0.12868251616E+02  0.23358347840E+02  0.29629335492E+02  0.00000000000E+00 0. -1.
         22    1    4    4    0    0 -0.48651560978E+01  0.16487207731E+02  0.92267801133E+01  0.19509772779E+02  0.00000000000E+00 0. -1.
<mgrwt>
<rscale>  0 0.92227205E+02</rscale>
<asrwt>0</asrwt>
<pdfrwt beam="2">  1        2 0.66342953E-02 0.92227205E+02</pdfrwt>
<pdfrwt beam="1">  1       -2 0.75864149E-02 0.92227205E+02</pdfrwt>
<totfact> 0.94098832E+04</totfact>
</mgrwt>
</event>
<event>
 7    1  0.3891761E-009  0.9123773E+02  0.7818608E-02  0.1299882E+00
          2   -1    0    0  501    0  0.00000000000E+00  0.00000000000E+00  0.84653182798E+03  0.84653182799E+03  0.25500000000E-02 0. -1.
         -2   -1    0    0    0  501 -0.00000000000E+00 -0.00000000000E+00 -0.24583605283E+01  0.24583618508E+01  0.25500000000E-02 0.  1.
         23    2    1    2    0    0 -0.35527136788E-14 -0.17763568394E-14  0.84407346745E+03  0.84899018984E+03  0.91237733310E+02 0.  0.
    9000005    2    3    3    0    0 -0.28077009660E+02 -0.12917206198E+02  0.73050783470E+03  0.73129428664E+03  0.13945050064E+02 0.  0.
         22    1    3    3    0    0  0.28077009660E+02  0.12917206198E+02  0.11356563275E+03  0.11769590320E+03  0.00000000000E+00 0.  1.
         22    1    4    4    0    0 -0.17348563414E+02 -0.27354808997E+01  0.50276339264E+03  0.50307005923E+03  0.00000000000E+00 0. -1.
         22    1    4    4    0    0 -0.10728446246E+02 -0.10181725298E+02  0.22774444206E+03  0.22822422741E+03  0.00000000000E+00 0. -1.
<mgrwt>
<rscale>  0 0.91237733E+02</rscale>
<asrwt>0</asrwt>
<pdfrwt beam="1">  1        2 0.13023576E+00 0.91237733E+02</pdfrwt>
<pdfrwt beam="2">  1       -2 0.37820915E-03 0.91237733E+02</pdfrwt>
<totfact> 0.24554331E+05</totfact>
</mgrwt>
</event>
<event>
 7    1  0.3891761E-009  0.8881759E+02  0.7818608E-02  0.1305741E+00
         -2   -1    0    0    0  501 -0.00000000000E+00  0.00000000000E+00  0.12315273811E+02  0.12315274075E+02  0.25500000000E-02 0.  1.
          2   -1    0    0  501    0  0.00000000000E+00 -0.00000000000E+00 -0.16013780202E+03  0.16013780204E+03  0.25500000000E-02 0. -1.
         23    2    1    2    0    0  0.71054273576E-14 -0.35527136788E-14 -0.14782252821E+03  0.17245307611E+03  0.88817586183E+02 0.  0.
    9000005    2    3    3    0    0  0.37992637755E+02 -0.18250041200E+02 -0.59438692384E+02  0.74533685989E+02  0.15678254604E+02 0.  0.
         22    1    3    3    0    0 -0.37992637755E+02  0.18250041200E+02 -0.88383835825E+02  0.97919390125E+02  0.00000000000E+00 0. -1.
         22    1    4    4    0    0  0.31081219985E+01  0.17091546465E+01 -0.11437300319E+01  0.37268955377E+01  0.00000000000E+00 0.  1.
         22    1    4    4    0    0  0.34884515757E+02 -0.19959195847E+02 -0.58294962352E+02  0.70806790451E+02  0.00000000000E+00 0.  1.
<mgrwt>
<rscale>  0 0.88817586E+02</rscale>
<asrwt>0</asrwt>
<pdfrwt beam="2">  1        2 0.24636583E-01 0.88817586E+02</pdfrwt>
<pdfrwt beam="1">  1       -2 0.18946576E-02 0.88817586E+02</pdfrwt>
<totfact> 0.15347486E+05</totfact>
</mgrwt>
</event>
<event>
 7    1  0.3891761E-009  0.9018759E+02  0.7818608E-02  0.1302398E+00
         -2   -1    0    0    0  501 -0.00000000000E+00  0.00000000000E+00  0.67342401177E+01  0.67342406005E+01  0.25500000000E-02 0.  1.
          2   -1    0    0  501    0  0.00000000000E+00 -0.00000000000E+00 -0.30195692682E+03  0.30195692683E+03  0.25500000000E-02 0. -1.
         23    2    1    2    0    0  0.35527136788E-14  0.17763568394E-14 -0.29522268670E+03  0.30869116743E+03  0.90187593972E+02 0.  0.
    9000005    2    3    3    0    0  0.31253077674E+02  0.10047930525E+02 -0.25278885717E+03  0.25504095158E+03  0.81218780422E+01 0.  0.
         22    1    3    3    0    0 -0.31253077674E+02 -0.10047930525E+02 -0.42433829538E+02  0.53650215854E+02  0.00000000000E+00 0.  1.
         22    1    4    4    0    0  0.15668161504E+02  0.11508228922E+01 -0.13053034967E+03  0.13147238441E+03  0.00000000000E+00 0.  1.
         22    1    4    4    0    0  0.15584916171E+02  0.88971076324E+01 -0.12225850750E+03  0.12356856717E+03  0.00000000000E+00 0.  1.
<mgrwt>
<rscale>  0 0.90187594E+02</rscale>
<asrwt>0</asrwt>
<pdfrwt beam="2">  1        2 0.46454901E-01 0.90187594E+02</pdfrwt>
<pdfrwt beam="1">  1       -2 0.10360372E-02 0.90187594E+02</pdfrwt>
<totfact> 0.18540824E+05</totfact>
</mgrwt>
</event>
<event>
 7    1  0.3891761E-009  0.9291374E+02  0.7818608E-02  0.1295945E+00
         -2   -1    0    0    0  501 -0.00000000000E+00  0.00000000000E+00  0.28707221157E+01  0.28707232483E+01  0.25500000000E-02 0.  1.
          2   -1    0    0  501    0  0.00000000000E+00 -0.00000000000E+00 -0.75181090167E+03  0.75181090167E+03  0.25500000000E-02 0. -1.
         23    2    1    2    0    0  0.17763568394E-14 -0.17763568394E-14 -0.74894017955E+03  0.75468162492E+03  0.92913736579E+02 0.  0.
    9000005    2    3    3    0    0 -0.85507912476E+01  0.13793531377E+02 -0.72730042660E+03  0.72763247620E+03  0.14823371659E+02 0.  0.
         22    1    3    3    0    0  0.85507912476E+01 -0.13793531377E+02 -0.21639752956E+02  0.27049148726E+02  0.00000000000E+00 0.  1.
         22    1    4    4    0    0  0.10441744965E+01  0.12020409673E+02 -0.44468779673E+03  0.44485145511E+03  0.00000000000E+00 0.  1.
         22    1    4    4    0    0 -0.95949657441E+01  0.17731217033E+01 -0.28261262987E+03  0.28278102109E+03  0.00000000000E+00 0.  1.
<mgrwt>
<rscale>  0 0.92913737E+02</rscale>
<asrwt>0</asrwt>
<pdfrwt beam="2">  1        2 0.11566306E+00 0.92913737E+02</pdfrwt>
<pdfrwt beam="1">  1       -2 0.44165024E-03 0.92913737E+02</pdfrwt>
<totfact> 0.22917418E+05</totfact>
</mgrwt>
</event>
<event>
 7    1  0.3891761E-009  0.9194165E+02  0.7818608E-02  0.1298217E+00
          2   -1    0    0  501    0  0.00000000000E+00  0.00000000000E+00  0.27021078409E+02  0.27021078530E+02  0.25500000000E-02 0. -1.
         -2   -1    0    0    0  501 -0.00000000000E+00 -0.00000000000E+00 -0.78209925861E+02  0.78209925903E+02  0.25500000000E-02 0.  1.
         23    2    1    2    0    0  0.00000000000E+00  0.44408920985E-15 -0.51188847452E+02  0.10523100443E+03  0.91941645572E+02 0.  0.
    9000005    2    3    3    0    0 -0.44935017374E+02 -0.38185054917E+01 -0.30439386411E+02  0.55589520731E+02  0.11397447057E+02 0.  0.
         22    1    3    3    0    0  0.44935017374E+02  0.38185054917E+01 -0.20749461041E+02  0.49641483702E+02  0.00000000000E+00 0.  1.
         22    1    4    4    0    0 -0.33370139618E+02 -0.73721222845E+01 -0.19915096782E+02  0.39554083038E+02  0.00000000000E+00 0. -1.
         22    1    4    4    0    0 -0.11564877756E+02  0.35536167927E+01 -0.10524289629E+02  0.16035437693E+02  0.00000000000E+00 0. -1.
<mgrwt>
<rscale>  0 0.91941646E+02</rscale>
<asrwt>0</asrwt>
<pdfrwt beam="1">  1        2 0.41570890E-02 0.91941646E+02</pdfrwt>
<pdfrwt beam="2">  1       -2 0.12032296E-01 0.91941646E+02</pdfrwt>
<totfact> 0.83872370E+04</totfact>
</mgrwt>
</event>
<event>
 7    1  0.3891761E-009  0.9380927E+02  0.7818608E-02  0.1293881E+00
         -2   -1    0    0    0  501 -0.00000000000E+00  0.00000000000E+00  0.95002886928E+01  0.95002890351E+01  0.25500000000E-02 0.  1.
          2   -1    0    0  501    0  0.00000000000E+00 -0.00000000000E+00 -0.23157664016E+03  0.23157664017E+03  0.25500000000E-02 0. -1.
         23    2    1    2    0    0 -0.35527136788E-14  0.00000000000E+00 -0.22207635147E+03  0.24107692921E+03  0.93809274146E+02 0.  0.
    9000005    2    3    3    0    0  0.19522944274E+02 -0.39734343205E+02 -0.86741044787E+02  0.98684483422E+02  0.15957914479E+02 0.  0.
         22    1    3    3    0    0 -0.19522944274E+02  0.39734343205E+02 -0.13533530668E+03  0.14239244579E+03  0.00000000000E+00 0. -1.
         22    1    4    4    0    0  0.16960763359E+02 -0.18468525914E+02 -0.39097860357E+02  0.46447783883E+02  0.00000000000E+00 0.  1.
         22    1    4    4    0    0  0.25621809145E+01 -0.21265817291E+02 -0.47643184430E+02  0.52236699539E+02  0.00000000000E+00 0.  1.
<mgrwt>
<rscale>  0 0.93809274E+02</rscale>
<asrwt>0</asrwt>
<pdfrwt beam="2">  1        2 0.35627171E-01 0.93809274E+02</pdfrwt>
<pdfrwt beam="1">  1       -2 0.14615831E-02 0.93809274E+02</pdfrwt>
<totfact> 0.15115980E+05</totfact>
</mgrwt>
</event>
<event>
 7    1  0.3891761E-009  0.8510388E+02  0.7818608E-02  0.1315161E+00
         -2   -1    0    0    0  501 -0.00000000000E+00  0.00000000000E+00  0.19317093416E+03  0.19317093418E+03  0.25500000000E-02 0.  1.
          2   -1    0    0  501    0  0.00000000000E+00 -0.00000000000E+00 -0.93733948601E+01  0.93733952069E+01  0.25500000000E-02 0. -1.
         23    2    1    2    0    0 -0.55511151231E-16 -0.35527136788E-14  0.18379753930E+03  0.20254432939E+03  0.85103877191E+02 0.  0.
    9000005    2    3    3    0    0 -0.46611738891E+00 -0.16503410641E+02  0.18477156361E+03  0.18600563078E+03  0.13600887345E+02 0.  0.
         22    1    3    3    0    0  0.46611738891E+00  0.16503410641E+02 -0.97402430423E+00  0.16538698605E+02  0.00000000000E+00 0. -1.
         22    1    4    4    0    0  0.49123316431E+00 -0.15243852327E+01  0.17601443519E+01  0.23797412672E+01  0.00000000000E+00 0.  1.
         22    1    4    4    0    0 -0.95735055321E+00 -0.14979025408E+02  0.18301141926E+03  0.18362588952E+03  0.00000000000E+00 0.  1.
<mgrwt>
<rscale>  0 0.85103877E+02</rscale>
<asrwt>0</asrwt>
<pdfrwt beam="2">  1        2 0.14420608E-02 0.85103877E+02</pdfrwt>
<pdfrwt beam="1">  1       -2 0.29718604E-01 0.85103877E+02</pdfrwt>
<totfact> 0.75392811E+04</totfact>
</mgrwt>
</event>
<event>
 7    1  0.3891761E-009  0.9249158E+02  0.7818608E-02  0.1296928E+00
         -2   -1    0    0    0  501 -0.00000000000E+00  0.00000000000E+00  0.63665939571E+03  0.63665939572E+03  0.25500000000E-02 0.  1.
          2   -1    0    0  501    0  0.00000000000E+00 -0.00000000000E+00 -0.33592103478E+01  0.33592113157E+01  0.25500000000E-02 0. -1.
         23    2    1    2    0    0  0.00000000000E+00  0.00000000000E+00  0.63330018536E+03  0.64001860703E+03  0.92491581054E+02 0.  0.
    9000005    2    3    3    0    0  0.36647481861E+02 -0.20451245018E+02  0.44422872796E+03  0.44634540973E+03  0.11125227645E+02 0.  0.
         22    1    3    3    0    0 -0.36647481861E+02  0.20451245018E+02  0.18907145740E+03  0.19367319731E+03  0.00000000000E+00 0. -1.
         22    1    4    4    0    0  0.21958684268E+02 -0.13871247517E+02  0.32482959990E+03  0.32586632887E+03  0.00000000000E+00 0. -1.
         22    1    4    4    0    0  0.14688797593E+02 -0.65799975012E+01  0.11939912806E+03  0.12047908086E+03  0.00000000000E+00 0. -1.
<mgrwt>
<rscale>  0 0.92491581E+02</rscale>
<asrwt>0</asrwt>
<pdfrwt beam="2">  1        2 0.51680196E-03 0.92491581E+02</pdfrwt>
<pdfrwt beam="1">  1       -2 0.97947545E-01 0.92491581E+02</pdfrwt>
<totfact> 0.28590823E+04</totfact>
</mgrwt>
</event>
<event>
 7    1  0.3891761E-009  0.9232113E+02  0.7818608E-02  0.1297326E+00
          2   -1    0    0  501    0  0.00000000000E+00  0.00000000000E+00  0.18467534895E+03  0.18467534897E+03  0.25500000000E-02 0. -1.
         -2   -1    0    0    0  501 -0.00000000000E+00 -0.00000000000E+00 -0.11538072957E+02  0.11538073239E+02  0.25500000000E-02 0.  1.
         23    2    1    2    0    0  0.71054273576E-14 -0.44408920985E-15  0.17313727599E+03  0.19621342220E+03  0.92321128219E+02 0.  0.
    9000005    2    3    3    0    0 -0.44239218296E+02  0.30979154558E+01  0.10327006430E+03  0.11345997644E+03  0.15548458403E+02 0.  0.
         22    1    3    3    0    0  0.44239218296E+02 -0.30979154558E+01  0.69867211693E+02  0.82753445761E+02  0.00000000000E+00 0.  1.
         22    1    4    4    0    0 -0.15800950703E+02  0.82255744111E+01  0.45578925864E+02  0.48936372980E+02  0.00000000000E+00 0.  1.
         22    1    4    4    0    0 -0.28438267593E+02 -0.51276589553E+01  0.57691138435E+02  0.64523603464E+02  0.00000000000E+00 0.  1.
<mgrwt>
<rscale>  0 0.92321128E+02</rscale>
<asrwt>0</asrwt>
<pdfrwt beam="1">  1        2 0.28411592E-01 0.92321128E+02</pdfrwt>
<pdfrwt beam="2">  1       -2 0.17750882E-02 0.92321128E+02</pdfrwt>
<totfact> 0.14533106E+05</totfact>
</mgrwt>
</event>
<event>
 7    1  0.3891761E-009  0.9304296E+02  0.7818608E-02  0.1295646E+00
          2   -1    0    0  501    0  0.00000000000E+00  0.00000000000E+00  0.15868674782E+04  0.15868674782E+04  0.25500000000E-02 0. -1.
         -2   -1    0    0    0  501 -0.00000000000E+00 -0.00000000000E+00 -0.13638479995E+01  0.13638503833E+01  0.25500000000E-02 0.  1.
         23    2    1    2    0    0  0.00000000000E+00  0.00000000000E+00  0.15855036302E+04  0.15882313286E+04  0.93042956323E+02 0.  0.
    9000005    2    3    3    0    0 -0.10039870566E+02 -0.18335762063E+02  0.15010688046E+04  0.15012471981E+04  0.99294852970E+01 0.  0.
         22    1    3    3    0    0  0.10039870566E+02  0.18335762063E+02  0.84434825657E+02  0.86984130479E+02  0.00000000000E+00 0.  1.
         22    1    4    4    0    0 -0.64644587480E+01 -0.17385570886E+02  0.10549195629E+04  0.10550826183E+04  0.00000000000E+00 0. -1.
         22    1    4    4    0    0 -0.35754118178E+01 -0.95019117680E+00  0.44614924167E+03  0.44616457981E+03  0.00000000000E+00 0. -1.
<mgrwt>
<rscale>  0 0.93042956E+02</rscale>
<asrwt>0</asrwt>
<pdfrwt beam="1">  1        2 0.24413383E+00 0.93042956E+02</pdfrwt>
<pdfrwt beam="2">  1       -2 0.20982263E-03 0.93042956E+02</pdfrwt>
<totfact> 0.21844859E+05</totfact>
</mgrwt>
</event>
<event>
 7    1  0.3891761E-009  0.9055027E+02  0.7818608E-02  0.1301525E+00
         -2   -1    0    0    0  501 -0.00000000000E+00  0.00000000000E+00  0.48999486519E+01  0.48999493155E+01  0.25500000000E-02 0.  1.
          2   -1    0    0  501    0  0.00000000000E+00 -0.00000000000E+00 -0.41833858661E+03  0.41833858662E+03  0.25500000000E-02 0. -1.
         23    2    1    2    0    0  0.11102230246E-15  0.00000000000E+00 -0.41343863796E+03  0.42323853593E+03  0.90550267489E+02 0.  0.
    9000005    2    3    3    0    0  0.94476483859E+00  0.39843431094E+02 -0.30562340152E+03  0.30829282357E+03  0.70999949201E+01 0.  0.
         22    1    3    3    0    0 -0.94476483859E+00 -0.39843431094E+02 -0.10781523644E+03  0.11494571237E+03  0.00000000000E+00 0.  1.
         22    1    4    4    0    0 -0.78275141263E+00  0.86323453350E+01 -0.47587790596E+02  0.48370733916E+02  0.00000000000E+00 0.  1.
         22    1    4    4    0    0  0.17275162512E+01  0.31211085759E+02 -0.25803561092E+03  0.25992208965E+03  0.00000000000E+00 0.  1.
<mgrwt>
<rscale>  0 0.90550267E+02</rscale>
<asrwt>0</asrwt>
<pdfrwt beam="2">  1        2 0.64359754E-01 0.90550267E+02</pdfrwt>
<pdfrwt beam="1">  1       -2 0.75383864E-03 0.90550267E+02</pdfrwt>
<totfact> 0.20657003E+05</totfact>
</mgrwt>
</event>
<event>
 7    1  0.4933498E-009  0.9133427E+02  0.7818608E-02  0.1299652E+00
         -2   -1    0    0    0  501 -0.00000000000E+00  0.00000000000E+00  0.17818217760E+02  0.17818217942E+02  0.25500000000E-02 0.  1.
          2   -1    0    0  501    0  0.00000000000E+00 -0.00000000000E+00 -0.11704240108E+03  0.11704240110E+03  0.25500000000E-02 0. -1.
         23    2    1    2    0    0 -0.35527136788E-14 -0.35527136788E-14 -0.99224183315E+02  0.13486061905E+03  0.91334265283E+02 0.  0.
    9000005    2    3    3    0    0 -0.27097644519E+02 -0.17938929314E+02 -0.96032612175E+02  0.10220677318E+03  0.12956633800E+02 0.  0.
         22    1    3    3    0    0  0.27097644519E+02  0.17938929314E+02 -0.31915711403E+01  0.32653845865E+02  0.00000000000E+00 0.  1.
         22    1    4    4    0    0 -0.20906253550E+02 -0.15583783293E+02 -0.57867329277E+02  0.63470887317E+02  0.00000000000E+00 0. -1.
         22    1    4    4    0    0 -0.61913909689E+01 -0.23551460214E+01 -0.38165282898E+02  0.38735885863E+02  0.00000000000E+00 0. -1.
<mgrwt>
<rscale>  0 0.91334265E+02</rscale>
<asrwt>0</asrwt>
<pdfrwt beam="2">  1        2 0.18006523E-01 0.91334265E+02</pdfrwt>
<pdfrwt beam="1">  1       -2 0.27412644E-02 0.91334265E+02</pdfrwt>
<totfact> 0.12822669E+05</totfact>
</mgrwt>
</event>
<event>
 7    1  0.3891761E-009  0.8987951E+02  0.7818608E-02  0.1303144E+00
         -2   -1    0    0    0  501 -0.00000000000E+00  0.00000000000E+00  0.17996084080E+02  0.17996084261E+02  0.25500000000E-02 0. -1.
          2   -1    0    0  501    0  0.00000000000E+00 -0.00000000000E+00 -0.11222339290E+03  0.11222339293E+03  0.25500000000E-02 0.  1.
         23    2    1    2    0    0  0.00000000000E+00  0.00000000000E+00 -0.94227308820E+02  0.13021947719E+03  0.89879511081E+02 0.  0.
    9000005    2    3    3    0    0 -0.26481173992E+02  0.30464817492E+02 -0.23256337506E+02  0.48572453667E+02  0.13750212371E+02 0.  0.
         22    1    3    3    0    0  0.26481173992E+02 -0.30464817492E+02 -0.70970971314E+02  0.81647023523E+02  0.00000000000E+00 0.  1.
         22    1    4    4    0    0 -0.20785090851E+02  0.29780623228E+02 -0.17047475279E+02  0.40118847627E+02  0.00000000000E+00 0.  1.
         22    1    4    4    0    0 -0.56960831407E+01  0.68419426468E+00 -0.62088622267E+01  0.84536060405E+01  0.00000000000E+00 0.  1.
<mgrwt>
<rscale>  0 0.89879511E+02</rscale>
<asrwt>0</asrwt>
<pdfrwt beam="2">  1        2 0.17265137E-01 0.89879511E+02</pdfrwt>
<pdfrwt beam="1">  1       -2 0.27686284E-02 0.89879511E+02</pdfrwt>
<totfact> 0.13221629E+05</totfact>
</mgrwt>
</event>
<event>
 7    1  0.3891761E-009  0.8977750E+02  0.7818608E-02  0.1303391E+00
         -2   -1    0    0    0  501 -0.00000000000E+00  0.00000000000E+00  0.16365789193E+03  0.16365789195E+03  0.25500000000E-02 0.  1.
          2   -1    0    0  501    0  0.00000000000E+00 -0.00000000000E+00 -0.12312266897E+02  0.12312267162E+02  0.25500000000E-02 0. -1.
         23    2    1    2    0    0  0.00000000000E+00  0.00000000000E+00  0.15134562503E+03  0.17597015911E+03  0.89777495405E+02 0.  0.
    9000005    2    3    3    0    0 -0.32147085871E+02 -0.14905481444E+02  0.28627956480E+02  0.48239056078E+02  0.15869408686E+02 0.  0.
         22    1    3    3    0    0  0.32147085871E+02  0.14905481444E+02  0.12271766855E+03  0.12773110303E+03  0.00000000000E+00 0.  1.
         22    1    4    4    0    0 -0.12672061532E+02 -0.10040323633E+02  0.21579279517E+02  0.26963949017E+02  0.00000000000E+00 0.  1.
         22    1    4    4    0    0 -0.19475024339E+02 -0.48651578107E+01  0.70486769625E+01  0.21275107061E+02  0.00000000000E+00 0.  1.
<mgrwt>
<rscale>  0 0.89777495E+02</rscale>
<asrwt>0</asrwt>
<pdfrwt beam="2">  1        2 0.18941949E-02 0.89777495E+02</pdfrwt>
<pdfrwt beam="1">  1       -2 0.25178137E-01 0.89777495E+02</pdfrwt>
<totfact> 0.70326781E+04</totfact>
</mgrwt>
</event>
<event>
 7    1  0.3891761E-009  0.7368545E+02  0.7818608E-02  0.1347991E+00
         -2   -1    0    0    0  501 -0.00000000000E+00  0.00000000000E+00  0.18877956667E+02  0.18877956839E+02  0.25500000000E-02 0.  1.
          2   -1    0    0  501    0  0.00000000000E+00 -0.00000000000E+00 -0.71903252585E+02  0.71903252630E+02  0.25500000000E-02 0. -1.
         23    2    1    2    0    0  0.44408920985E-15 -0.35527136788E-14 -0.53025295918E+02  0.90781209469E+02  0.73685453011E+02 0.  0.
    9000005    2    3    3    0    0 -0.36638358361E+01  0.22980037495E+02 -0.61298539882E+02  0.66083995415E+02  0.82509176499E+01 0.  0.
         22    1    3    3    0    0  0.36638358361E+01 -0.22980037495E+02  0.82732439645E+01  0.24697214053E+02  0.00000000000E+00 0.  1.
         22    1    4    4    0    0 -0.26018028098E+00 -0.33831053654E+00 -0.16428420595E-01  0.42710384070E+00  0.00000000000E+00 0. -1.
         22    1    4    4    0    0 -0.34036555551E+01  0.23318348031E+02 -0.61282111462E+02  0.65656891575E+02  0.00000000000E+00 0. -1.
<mgrwt>
<rscale>  0 0.73685453E+02</rscale>
<asrwt>0</asrwt>
<pdfrwt beam="2">  1        2 0.11062039E-01 0.73685453E+02</pdfrwt>
<pdfrwt beam="1">  1       -2 0.29043011E-02 0.73685453E+02</pdfrwt>
<totfact> 0.19997394E+05</totfact>
</mgrwt>
</event>
<event>
 7    1  0.3891761E-009  0.8850977E+02  0.7818608E-02  0.1306501E+00
         -2   -1    0    0    0  501 -0.00000000000E+00  0.00000000000E+00  0.99183368890E+02  0.99183368923E+02  0.25500000000E-02 0.  1.
          2   -1    0    0  501    0  0.00000000000E+00 -0.00000000000E+00 -0.19746202515E+02  0.19746202680E+02  0.25500000000E-02 0. -1.
         23    2    1    2    0    0 -0.17763568394E-14  0.00000000000E+00  0.79437166376E+02  0.11892957160E+03  0.88509771211E+02 0.  0.
    9000005    2    3    3    0    0  0.80466609264E+01 -0.33763041791E+02  0.46761479392E+01  0.36504444241E+02  0.10296423977E+02 0.  0.
         22    1    3    3    0    0 -0.80466609264E+01  0.33763041791E+02  0.74761018436E+02  0.82425127362E+02  0.00000000000E+00 0.  1.
         22    1    4    4    0    0  0.71378656994E+01 -0.11202054449E+02 -0.67393037856E+00  0.13299974916E+02  0.00000000000E+00 0. -1.
         22    1    4    4    0    0  0.90879522701E+00 -0.22560987342E+02  0.53500783178E+01  0.23204469325E+02  0.00000000000E+00 0. -1.
<mgrwt>
<rscale>  0 0.88509771E+02</rscale>
<asrwt>0</asrwt>
<pdfrwt beam="2">  1        2 0.30378774E-02 0.88509771E+02</pdfrwt>
<pdfrwt beam="1">  1       -2 0.15258980E-01 0.88509771E+02</pdfrwt>
<totfact> 0.86128621E+04</totfact>
</mgrwt>
</event>
<event>
 7    1  0.3891761E-009  0.1132047E+03  0.7818608E-02  0.1254748E+00
          2   -1    0    0  501    0  0.00000000000E+00  0.00000000000E+00  0.62847159865E+03  0.62847159866E+03  0.25500000000E-02 0. -1.
         -2   -1    0    0    0  501 -0.00000000000E+00 -0.00000000000E+00 -0.50978042594E+01  0.50978048972E+01  0.25500000000E-02 0.  1.
         23    2    1    2    0    0  0.17763568394E-14  0.00000000000E+00  0.62337379439E+03  0.63356940356E+03  0.11320468888E+03 0.  0.
    9000005    2    3    3    0    0  0.14681151195E+02  0.53791755258E+02  0.30526680152E+03  0.31061252091E+03  0.13536207020E+02 0.  0.
         22    1    3    3    0    0 -0.14681151195E+02 -0.53791755258E+02  0.31810699287E+03  0.32295688265E+03  0.00000000000E+00 0.  1.
         22    1    4    4    0    0  0.17032859927E+02  0.41420120178E+02  0.23817436991E+03  0.24234845812E+03  0.00000000000E+00 0.  1.
         22    1    4    4    0    0 -0.23517087315E+01  0.12371635080E+02  0.67092431610E+02  0.68264062785E+02  0.00000000000E+00 0.  1.
<mgrwt>
<rscale>  0 0.11320469E+03</rscale>
<asrwt>0</asrwt>
<pdfrwt beam="1">  1        2 0.96687855E-01 0.11320469E+03</pdfrwt>
<pdfrwt beam="2">  1       -2 0.78427830E-03 0.11320469E+03</pdfrwt>
<totfact> 0.12952028E+05</totfact>
</mgrwt>
</event>
<event>
 7    1  0.3891761E-009  0.8843875E+02  0.7818608E-02  0.1306677E+00
          2   -1    0    0  501    0  0.00000000000E+00  0.00000000000E+00  0.35941913917E+02  0.35941914007E+02  0.25500000000E-02 0.  1.
         -2   -1    0    0    0  501 -0.00000000000E+00 -0.00000000000E+00 -0.54403138894E+02  0.54403138954E+02  0.25500000000E-02 0. -1.
         23    2    1    2    0    0  0.00000000000E+00 -0.35527136788E-14 -0.18461224977E+02  0.90345052961E+02  0.88438745846E+02 0.  0.
    9000005    2    3    3    0    0 -0.15668667646E+02  0.26397418223E+02  0.22765769890E+02  0.38944703347E+02  0.74885783336E+01 0.  0.
         22    1    3    3    0    0  0.15668667646E+02 -0.26397418223E+02 -0.41226994867E+02  0.51400349614E+02  0.00000000000E+00 0. -1.
         22    1    4    4    0    0 -0.25064952771E+01  0.13837165468E+01  0.37937520727E+00  0.28880989602E+01  0.00000000000E+00 0. -1.
         22    1    4    4    0    0 -0.13162172369E+02  0.25013701676E+02  0.22386394682E+02  0.36056604387E+02  0.00000000000E+00 0. -1.
<mgrwt>
<rscale>  0 0.88438746E+02</rscale>
<asrwt>0</asrwt>
<pdfrwt beam="1">  1        2 0.55295252E-02 0.88438746E+02</pdfrwt>
<pdfrwt beam="2">  1       -2 0.83697137E-02 0.88438746E+02</pdfrwt>
<totfact> 0.10138167E+05</totfact>
</mgrwt>
</event>
<event>
 7    1  0.3891761E-009  0.9189993E+02  0.7818608E-02  0.1298315E+00
         -2   -1    0    0    0  501 -0.00000000000E+00  0.00000000000E+00  0.12806061938E+02  0.12806062192E+02  0.25500000000E-02 0.  1.
          2   -1    0    0  501    0  0.00000000000E+00 -0.00000000000E+00 -0.16487499122E+03  0.16487499124E+03  0.25500000000E-02 0. -1.
         23    2    1    2    0    0  0.00000000000E+00 -0.17763568394E-14 -0.15206892928E+03  0.17768105343E+03  0.91899931968E+02 0.  0.
    9000005    2    3    3    0    0 -0.25902925432E+02 -0.88184648207E+01 -0.14680494301E+03  0.14981644471E+03  0.12022851020E+02 0.  0.
         22    1    3    3    0    0  0.25902925432E+02  0.88184648207E+01 -0.52639862748E+01  0.27864608722E+02  0.00000000000E+00 0.  1.
         22    1    4    4    0    0 -0.14276541110E+02 -0.26224470601E+00 -0.93815799735E+02  0.94896220569E+02  0.00000000000E+00 0. -1.
         22    1    4    4    0    0 -0.11626384321E+02 -0.85562201147E+01 -0.52989143270E+02  0.54920224140E+02  0.00000000000E+00 0. -1.
<mgrwt>
<rscale>  0 0.91899932E+02</rscale>
<asrwt>0</asrwt>
<pdfrwt beam="2">  1        2 0.25365382E-01 0.91899932E+02</pdfrwt>
<pdfrwt beam="1">  1       -2 0.19701635E-02 0.91899932E+02</pdfrwt>
<totfact> 0.14137058E+05</totfact>
</mgrwt>
</event>
<event>
 7    1  0.4200275E-009  0.9533346E+02  0.7818608E-02  0.1290427E+00
          2   -1    0    0  501    0  0.00000000000E+00  0.00000000000E+00  0.20473546007E+03  0.20473546008E+03  0.25500000000E-02 0. -1.
         -2   -1    0    0    0  501 -0.00000000000E+00 -0.00000000000E+00 -0.11097819702E+02  0.11097819994E+02  0.25500000000E-02 0.  1.
         23    2    1    2    0    0  0.00000000000E+00  0.00000000000E+00  0.19363764037E+03  0.21583328008E+03  0.95333462240E+02 0.  0.
    9000005    2    3    3    0    0 -0.66787225550E+01 -0.28353758701E+02  0.17640944029E+02  0.37442198213E+02  0.15561951464E+02 0.  0.
         22    1    3    3    0    0  0.66787225550E+01  0.28353758701E+02  0.17599669634E+03  0.17839108187E+03  0.00000000000E+00 0. -1.
         22    1    4    4    0    0 -0.73825067578E+00 -0.19297688893E+02  0.34938671178E+01  0.19625313198E+02  0.00000000000E+00 0.  1.
         22    1    4    4    0    0 -0.59404718792E+01 -0.90560698074E+01  0.14147076911E+02  0.17816885015E+02  0.00000000000E+00 0.  1.
<mgrwt>
<rscale>  0 0.95333462E+02</rscale>
<asrwt>0</asrwt>
<pdfrwt beam="1">  1        2 0.31497763E-01 0.95333462E+02</pdfrwt>
<pdfrwt beam="2">  1       -2 0.17073569E-02 0.95333462E+02</pdfrwt>
<totfact> 0.13830701E+05</totfact>
</mgrwt>
</event>
<event>
 7    1  0.3891761E-009  0.9189570E+02  0.7818608E-02  0.1298325E+00
         -2   -1    0    0    0  501 -0.00000000000E+00  0.00000000000E+00  0.11492776449E+03  0.11492776452E+03  0.25500000000E-02 0.  1.
          2   -1    0    0  501    0  0.00000000000E+00 -0.00000000000E+00 -0.18369841632E+02  0.18369841809E+02  0.25500000000E-02 0. -1.
         23    2    1    2    0    0  0.00000000000E+00 -0.11102230246E-15  0.96557922858E+02  0.13329760633E+03  0.91895698409E+02 0.  0.
    9000005    2    3    3    0    0 -0.30703406744E+02  0.99453465119E+00  0.22018636410E+01  0.34066793594E+02  0.14560561026E+02 0.  0.
         22    1    3    3    0    0  0.30703406744E+02 -0.99453465119E+00  0.94356059217E+02  0.99230812734E+02  0.00000000000E+00 0.  1.
         22    1    4    4    0    0 -0.24671574045E+02 -0.33423390041E+01 -0.28842585530E+01  0.25063454336E+02  0.00000000000E+00 0.  1.
         22    1    4    4    0    0 -0.60318326994E+01  0.43368736553E+01  0.50861221941E+01  0.90033392576E+01  0.00000000000E+00 0.  1.
<mgrwt>
<rscale>  0 0.91895698E+02</rscale>
<asrwt>0</asrwt>
<pdfrwt beam="2">  1        2 0.28261295E-02 0.91895698E+02</pdfrwt>
<pdfrwt beam="1">  1       -2 0.17681194E-01 0.91895698E+02</pdfrwt>
<totfact> 0.74975559E+04</totfact>
</mgrwt>
</event>
<event>
 7    1  0.3891761E-009  0.9103604E+02  0.7818608E-02  0.1300362E+00
          2   -1    0    0  501    0  0.00000000000E+00  0.00000000000E+00  0.32725231039E+03  0.32725231040E+03  0.25500000000E-02 0.  1.
         -2   -1    0    0    0  501 -0.00000000000E+00 -0.00000000000E+00 -0.63311707880E+01  0.63311713015E+01  0.25500000000E-02 0. -1.
         23    2    1    2    0    0  0.00000000000E+00  0.00000000000E+00  0.32092113960E+03  0.33358348170E+03  0.91036044623E+02 0.  0.
    9000005    2    3    3    0    0  0.20241854780E+02 -0.38558267308E+02  0.13578198048E+03  0.14339152366E+03  0.15096694077E+02 0.  0.
         22    1    3    3    0    0 -0.20241854780E+02  0.38558267308E+02  0.18513915912E+03  0.19019195804E+03  0.00000000000E+00 0.  1.
         22    1    4    4    0    0  0.12491864807E+01 -0.13686457112E+02  0.28537069180E+02  0.31674025519E+02  0.00000000000E+00 0.  1.
         22    1    4    4    0    0  0.18992668300E+02 -0.24871810196E+02  0.10724491130E+03  0.11171749815E+03  0.00000000000E+00 0.  1.
<mgrwt>
<rscale>  0 0.91036045E+02</rscale>
<asrwt>0</asrwt>
<pdfrwt beam="1">  1        2 0.50346527E-01 0.91036045E+02</pdfrwt>
<pdfrwt beam="2">  1       -2 0.97402598E-03 0.91036045E+02</pdfrwt>
<totfact> 0.18631841E+05</totfact>
</mgrwt>
</event>
<event>
 7    1  0.3891761E-009  0.9207668E+02  0.7818608E-02  0.1297899E+00
         -2   -1    0    0    0  501 -0.00000000000E+00  0.00000000000E+00  0.82485791308E+01  0.82485795250E+01  0.25500000000E-02 0.  1.
          2   -1    0    0  501    0  0.00000000000E+00 -0.00000000000E+00 -0.25695683147E+03  0.25695683148E+03  0.25500000000E-02 0. -1.
         23    2    1    2    0    0 -0.17763568394E-14  0.00000000000E+00 -0.24870825234E+03  0.26520541101E+03  0.92076681338E+02 0.  0.
    9000005    2    3    3    0    0 -0.11586207709E+02 -0.43211161409E+02 -0.11974186412E+03  0.12869982881E+03  0.14969543570E+02 0.  0.
         22    1    3    3    0    0  0.11586207709E+02  0.43211161409E+02 -0.12896638823E+03  0.13650558220E+03  0.00000000000E+00 0. -1.
         22    1    4    4    0    0 -0.71074331381E+01 -0.66121458625E+01 -0.17495434104E+02  0.20008155667E+02  0.00000000000E+00 0.  1.
         22    1    4    4    0    0 -0.44787745707E+01 -0.36599015547E+02 -0.10224643001E+03  0.10869167314E+03  0.00000000000E+00 0.  1.
<mgrwt>
<rscale>  0 0.92076681E+02</rscale>
<asrwt>0</asrwt>
<pdfrwt beam="2">  1        2 0.39531814E-01 0.92076681E+02</pdfrwt>
<pdfrwt beam="1">  1       -2 0.12690124E-02 0.92076681E+02</pdfrwt>
<totfact> 0.16517146E+05</totfact>
</mgrwt>
</event>
<event>
 7    1  0.3891761E-009  0.9114349E+02  0.7818608E-02  0.1300106E+00
         -2   -1    0    0    0  501 -0.00000000000E+00  0.00000000000E+00  0.37246662249E+01  0.37246670978E+01  0.25500000000E-02 0.  1.
          2   -1    0    0  501    0  0.00000000000E+00 -0.00000000000E+00 -0.55757582302E+03  0.55757582302E+03  0.25500000000E-02 0. -1.
         23    2    1    2    0    0  0.00000000000E+00  0.00000000000E+00 -0.55385115679E+03  0.56130049012E+03  0.91143493074E+02 0.  0.
    9000005    2    3    3    0    0 -0.18940912569E+02  0.19795173740E+02 -0.50070773514E+03  0.50151060522E+03  0.73514651125E+01 0.  0.
         22    1    3    3    0    0  0.18940912569E+02 -0.19795173740E+02 -0.53143421647E+02  0.59789884903E+02  0.00000000000E+00 0.  1.
         22    1    4    4    0    0 -0.92400387233E+01  0.14653972914E+02 -0.32256566471E+03  0.32303053306E+03  0.00000000000E+00 0.  1.
         22    1    4    4    0    0 -0.97008738456E+01  0.51412008268E+01 -0.17814207043E+03  0.17848007216E+03  0.00000000000E+00 0.  1.
<mgrwt>
<rscale>  0 0.91143493E+02</rscale>
<asrwt>0</asrwt>
<pdfrwt beam="2">  1        2 0.85780830E-01 0.91143493E+02</pdfrwt>
<pdfrwt beam="1">  1       -2 0.57302608E-03 0.91143493E+02</pdfrwt>
<totfact> 0.22321764E+05</totfact>
</mgrwt>
</event>
<event>
 7    1  0.3891761E-009  0.9186954E+02  0.7818608E-02  0.1298386E+00
         -2   -1    0    0    0  501 -0.00000000000E+00  0.00000000000E+00  0.61377494011E+03  0.61377494012E+03  0.25500000000E-02 0.  1.
          2   -1    0    0  501    0  0.00000000000E+00 -0.00000000000E+00 -0.34377465069E+01  0.34377474527E+01  0.25500000000E-02 0. -1.
         23    2    1    2    0    0  0.00000000000E+00  0.00000000000E+00  0.61033719361E+03  0.61721268757E+03  0.91869536843E+02 0.  0.
    9000005    2    3    3    0    0 -0.18402362720E+01  0.29885119114E+02  0.53893999512E+03  0.53979132898E+03  0.46747931218E+01 0.  0.
         22    1    3    3    0    0  0.18402362720E+01 -0.29885119114E+02  0.71397198486E+02  0.77421358588E+02  0.00000000000E+00 0. -1.
         22    1    4    4    0    0 -0.48478711509E+00  0.23706528664E+02  0.39339827982E+03  0.39411221890E+03  0.00000000000E+00 0.  1.
         22    1    4    4    0    0 -0.13554491569E+01  0.61785904502E+01  0.14554171530E+03  0.14567911008E+03  0.00000000000E+00 0.  1.
<mgrwt>
<rscale>  0 0.91869537E+02</rscale>
<asrwt>0</asrwt>
<pdfrwt beam="2">  1        2 0.52888444E-03 0.91869537E+02</pdfrwt>
<pdfrwt beam="1">  1       -2 0.94426862E-01 0.91869537E+02</pdfrwt>
<totfact> 0.30055038E+04</totfact>
</mgrwt>
</event>
<event>
 7    1  0.3891761E-009  0.9207809E+02  0.7818608E-02  0.1297896E+00
         -2   -1    0    0    0  501 -0.00000000000E+00  0.00000000000E+00  0.71767512760E+03  0.71767512760E+03  0.25500000000E-02 0.  1.
          2   -1    0    0  501    0  0.00000000000E+00 -0.00000000000E+00 -0.29534163424E+01  0.29534174433E+01  0.25500000000E-02 0. -1.
         23    2    1    2    0    0 -0.71054273576E-14 -0.17763568394E-14  0.71472171126E+03  0.72062854505E+03  0.92078094000E+02 0.  0.
    9000005    2    3    3    0    0  0.38759186120E+02  0.14768322765E+02  0.50577229616E+03  0.50760217125E+03  0.11574576609E+02 0.  0.
         22    1    3    3    0    0 -0.38759186120E+02 -0.14768322765E+02  0.20894941510E+03  0.21302637380E+03  0.00000000000E+00 0. -1.
         22    1    4    4    0    0  0.24369598331E+02  0.15067894489E+02  0.34346661823E+03  0.34465959526E+03  0.00000000000E+00 0. -1.
         22    1    4    4    0    0  0.14389587789E+02 -0.29957172454E+00  0.16230567793E+03  0.16294257598E+03  0.00000000000E+00 0. -1.
<mgrwt>
<rscale>  0 0.92078094E+02</rscale>
<asrwt>0</asrwt>
<pdfrwt beam="2">  1        2 0.45437153E-03 0.92078094E+02</pdfrwt>
<pdfrwt beam="1">  1       -2 0.11041163E+00 0.92078094E+02</pdfrwt>
<totfact> 0.25874984E+04</totfact>
</mgrwt>
</event>
<event>
 7    1  0.3891761E-009  0.1199975E+03  0.7818608E-02  0.1243101E+00
         -2   -1    0    0    0  501 -0.00000000000E+00  0.00000000000E+00  0.86000693579E+02  0.86000693617E+02  0.25500000000E-02 0. -1.
          2   -1    0    0  501    0  0.00000000000E+00 -0.00000000000E+00 -0.41858359171E+02  0.41858359249E+02  0.25500000000E-02 0.  1.
         23    2    1    2    0    0  0.00000000000E+00  0.00000000000E+00  0.44142334408E+02  0.12785905287E+03  0.11999746544E+03 0.  0.
    9000005    2    3    3    0    0  0.16351255625E+02 -0.39375630205E+02  0.65936788355E+02  0.79975840386E+02  0.15187862665E+02 0.  0.
         22    1    3    3    0    0 -0.16351255625E+02  0.39375630205E+02 -0.21794453947E+02  0.47883212480E+02  0.00000000000E+00 0.  1.
         22    1    4    4    0    0  0.89816594345E+01 -0.15067728704E+02  0.15095735117E+02  0.23142771511E+02  0.00000000000E+00 0.  1.
         22    1    4    4    0    0  0.73695961905E+01 -0.24307901501E+02  0.50841053238E+02  0.56833068875E+02  0.00000000000E+00 0.  1.
<mgrwt>
<rscale>  0 0.11999747E+03</rscale>
<asrwt>0</asrwt>
<pdfrwt beam="2">  1        2 0.64397476E-02 0.11999747E+03</pdfrwt>
<pdfrwt beam="1">  1       -2 0.13230876E-01 0.11999747E+03</pdfrwt>
<totfact> 0.42538019E+04</totfact>
</mgrwt>
</event>
<event>
 7    1  0.3891761E-009  0.8958836E+02  0.7818608E-02  0.1303852E+00
          2   -1    0    0  501    0  0.00000000000E+00  0.00000000000E+00  0.72528997442E+03  0.72528997442E+03  0.25500000000E-02 0. -1.
         -2   -1    0    0    0  501 -0.00000000000E+00 -0.00000000000E+00 -0.27665045015E+01  0.27665056767E+01  0.25500000000E-02 0.  1.
         23    2    1    2    0    0  0.17763568394E-14  0.00000000000E+00  0.72252346992E+03  0.72805648010E+03  0.89588356577E+02 0.  0.
    9000005    2    3    3    0    0  0.14797142434E+02  0.33391082639E+02  0.56943815448E+03  0.57067467167E+03  0.87091490619E+01 0.  0.
         22    1    3    3    0    0 -0.14797142434E+02 -0.33391082639E+02  0.15308531544E+03  0.15738180844E+03  0.00000000000E+00 0.  1.
         22    1    4    4    0    0  0.12091544375E+02  0.27542744951E+02  0.40766942145E+03  0.40877764791E+03  0.00000000000E+00 0.  1.
         22    1    4    4    0    0  0.27055980591E+01  0.58483376871E+01  0.16176873303E+03  0.16189702375E+03  0.00000000000E+00 0.  1.
<mgrwt>
<rscale>  0 0.89588357E+02</rscale>
<asrwt>0</asrwt>
<pdfrwt beam="1">  1        2 0.11158315E+00 0.89588357E+02</pdfrwt>
<pdfrwt beam="2">  1       -2 0.42561589E-03 0.89588357E+02</pdfrwt>
<totfact> 0.25038080E+05</totfact>
</mgrwt>
</event>
<event>
 7    1  0.3891761E-009  0.9095546E+02  0.7818608E-02  0.1300554E+00
          2   -1    0    0  501    0  0.00000000000E+00  0.00000000000E+00  0.13631826363E+03  0.13631826365E+03  0.25500000000E-02 0. -1.
         -2   -1    0    0    0  501 -0.00000000000E+00 -0.00000000000E+00 -0.15172023618E+02  0.15172023833E+02  0.25500000000E-02 0.  1.
         23    2    1    2    0    0  0.00000000000E+00  0.00000000000E+00  0.12114624001E+03  0.15149028748E+03  0.90955460164E+02 0.  0.
    9000005    2    3    3    0    0 -0.37028827431E+01 -0.23297365971E+02  0.12488580287E+03  0.12760592163E+03  0.11416167252E+02 0.  0.
         22    1    3    3    0    0  0.37028827431E+01  0.23297365971E+02 -0.37395628620E+01  0.23884365853E+02  0.00000000000E+00 0.  1.
         22    1    4    4    0    0 -0.59289760935E+01 -0.97320906324E+01  0.74995454341E+02  0.75856341313E+02  0.00000000000E+00 0.  1.
         22    1    4    4    0    0  0.22260933504E+01 -0.13565275339E+02  0.49890348531E+02  0.51749580319E+02  0.00000000000E+00 0.  1.
<mgrwt>
<rscale>  0 0.90955460E+02</rscale>
<asrwt>0</asrwt>
<pdfrwt beam="1">  1        2 0.20972040E-01 0.90955460E+02</pdfrwt>
<pdfrwt beam="2">  1       -2 0.23341576E-02 0.90955460E+02</pdfrwt>
<totfact> 0.13628443E+05</totfact>
</mgrwt>
</event>
<event>
 7    1  0.3891761E-009  0.8978565E+02  0.7818608E-02  0.1303372E+00
         -2   -1    0    0    0  501 -0.00000000000E+00  0.00000000000E+00  0.15493262703E+03  0.15493262705E+03  0.25500000000E-02 0.  1.
          2   -1    0    0  501    0  0.00000000000E+00 -0.00000000000E+00 -0.13008013474E+02  0.13008013724E+02  0.25500000000E-02 0. -1.
         23    2    1    2    0    0  0.00000000000E+00  0.00000000000E+00  0.14192461356E+03  0.16794064078E+03  0.89785649695E+02 0.  0.
    9000005    2    3    3    0    0 -0.39887047764E+02 -0.65911386156E+00  0.35247093410E+02  0.54048128665E+02  0.93504870432E+01 0.  0.
         22    1    3    3    0    0  0.39887047764E+02  0.65911386156E+00  0.10667752015E+03  0.11389251211E+03  0.00000000000E+00 0.  1.
         22    1    4    4    0    0 -0.16722640344E+02 -0.32743910985E+01  0.10331778968E+02  0.19927719231E+02  0.00000000000E+00 0.  1.
         22    1    4    4    0    0 -0.23164407420E+02  0.26152772370E+01  0.24915314443E+02  0.34120409434E+02  0.00000000000E+00 0.  1.
<mgrwt>
<rscale>  0 0.89785650E+02</rscale>
<asrwt>0</asrwt>
<pdfrwt beam="2">  1        2 0.20012329E-02 0.89785650E+02</pdfrwt>
<pdfrwt beam="1">  1       -2 0.23835788E-01 0.89785650E+02</pdfrwt>
<totfact> 0.71771901E+04</totfact>
</mgrwt>
</event>
<event>
 7    1  0.3891761E-009  0.9179866E+02  0.7818608E-02  0.1298554E+00
         -2   -1    0    0    0  501 -0.00000000000E+00  0.00000000000E+00  0.27038956408E+02  0.27038956528E+02  0.25500000000E-02 0.  1.
          2   -1    0    0  501    0  0.00000000000E+00 -0.00000000000E+00 -0.77915310796E+02  0.77915310838E+02  0.25500000000E-02 0. -1.
         23    2    1    2    0    0  0.00000000000E+00  0.35527136788E-14 -0.50876354388E+02  0.10495426737E+03  0.91798664492E+02 0.  0.
    9000005    2    3    3    0    0 -0.41457257117E+02  0.16936938131E+02 -0.21265793867E+02  0.51266751729E+02  0.13056868045E+02 0.  0.
         22    1    3    3    0    0  0.41457257117E+02 -0.16936938131E+02 -0.29610560522E+02  0.53687515637E+02  0.00000000000E+00 0.  1.
         22    1    4    4    0    0 -0.13808021454E+02  0.22211218374E+01 -0.12460173947E+02  0.18731011011E+02  0.00000000000E+00 0.  1.
         22    1    4    4    0    0 -0.27649235663E+02  0.14715816293E+02 -0.88056199196E+01  0.32535740718E+02  0.00000000000E+00 0.  1.
<mgrwt>
<rscale>  0 0.91798664E+02</rscale>
<asrwt>0</asrwt>
<pdfrwt beam="2">  1        2 0.11986971E-01 0.91798664E+02</pdfrwt>
<pdfrwt beam="1">  1       -2 0.41598395E-02 0.91798664E+02</pdfrwt>
<totfact> 0.11185553E+05</totfact>
</mgrwt>
</event>
<event>
 7    1  0.3891761E-009  0.9158837E+02  0.7818608E-02  0.1299050E+00
         -2   -1    0    0    0  501 -0.00000000000E+00  0.00000000000E+00  0.12021895797E+03  0.12021895800E+03  0.25500000000E-02 0.  1.
          2   -1    0    0  501    0  0.00000000000E+00 -0.00000000000E+00 -0.17444067160E+02  0.17444067347E+02  0.25500000000E-02 0. -1.
         23    2    1    2    0    0  0.00000000000E+00 -0.71054273576E-14  0.10277489081E+03  0.13766302534E+03  0.91588374622E+02 0.  0.
    9000005    2    3    3    0    0 -0.66493718013E+01  0.39042513367E+02  0.83655571798E+02  0.93684844904E+02  0.14493566729E+02 0.  0.
         22    1    3    3    0    0  0.66493718013E+01 -0.39042513367E+02  0.19119319013E+02  0.43978180441E+02  0.00000000000E+00 0. -1.
         22    1    4    4    0    0  0.45514713477E+01  0.85018112234E+01  0.19179233814E+02  0.21467177160E+02  0.00000000000E+00 0. -1.
         22    1    4    4    0    0 -0.11200843149E+02  0.30540702143E+02  0.64476337984E+02  0.72217667744E+02  0.00000000000E+00 0. -1.
<mgrwt>
<rscale>  0 0.91588375E+02</rscale>
<asrwt>0</asrwt>
<pdfrwt beam="2">  1        2 0.26837026E-02 0.91588375E+02</pdfrwt>
<pdfrwt beam="1">  1       -2 0.18495225E-01 0.91588375E+02</pdfrwt>
<totfact> 0.74524318E+04</totfact>
</mgrwt>
</event>
<event>
 7    1  0.3891761E-009  0.8980361E+02  0.7818608E-02  0.1303328E+00
          2   -1    0    0  501    0  0.00000000000E+00  0.00000000000E+00  0.52308384958E+02  0.52308385020E+02  0.25500000000E-02 0. -1.
         -2   -1    0    0    0  501 -0.00000000000E+00 -0.00000000000E+00 -0.38543954645E+02  0.38543954729E+02  0.25500000000E-02 0.  1.
         23    2    1    2    0    0 -0.17763568394E-14  0.00000000000E+00  0.13764430313E+02  0.90852339749E+02  0.89803608480E+02 0.  0.
    9000005    2    3    3    0    0  0.10135544335E+02 -0.59874437851E+01  0.50009487805E+02  0.52743509609E+02  0.11931060022E+02 0.  0.
         22    1    3    3    0    0 -0.10135544335E+02  0.59874437851E+01 -0.36245057492E+02  0.38108830141E+02  0.00000000000E+00 0.  1.
         22    1    4    4    0    0  0.99882336603E+01 -0.76540892967E+01  0.28323489798E+02  0.30993063239E+02  0.00000000000E+00 0. -1.
         22    1    4    4    0    0  0.14731067482E+00  0.16666455116E+01  0.21685998007E+02  0.21750446370E+02  0.00000000000E+00 0. -1.
<mgrwt>
<rscale>  0 0.89803608E+02</rscale>
<asrwt>0</asrwt>
<pdfrwt beam="1">  1        2 0.80474438E-02 0.89803608E+02</pdfrwt>
<pdfrwt beam="2">  1       -2 0.59298392E-02 0.89803608E+02</pdfrwt>
<totfact> 0.10678002E+05</totfact>
</mgrwt>
</event>
<event>
 7    1  0.3891761E-009  0.9164820E+02  0.7818608E-02  0.1298909E+00
         -2   -1    0    0    0  501 -0.00000000000E+00  0.00000000000E+00  0.17951745327E+02  0.17951745508E+02  0.25500000000E-02 0.  1.
          2   -1    0    0  501    0  0.00000000000E+00 -0.00000000000E+00 -0.11697180899E+03  0.11697180902E+03  0.25500000000E-02 0. -1.
         23    2    1    2    0    0 -0.17763568394E-14  0.00000000000E+00 -0.99020063663E+02  0.13492355453E+03  0.91648199972E+02 0.  0.
    9000005    2    3    3    0    0 -0.13671437496E+02 -0.36722743691E+02 -0.82080672663E+02  0.92233847630E+02  0.15309399612E+02 0.  0.
         22    1    3    3    0    0  0.13671437496E+02  0.36722743691E+02 -0.16939390999E+02  0.42689706895E+02  0.00000000000E+00 0.  1.
         22    1    4    4    0    0 -0.11085295785E+02 -0.37637349649E+02 -0.75059032445E+02  0.84695408511E+02  0.00000000000E+00 0. -1.
         22    1    4    4    0    0 -0.25861417112E+01  0.91460595782E+00 -0.70216402179E+01  0.75384391194E+01  0.00000000000E+00 0. -1.
<mgrwt>
<rscale>  0 0.91648200E+02</rscale>
<asrwt>0</asrwt>
<pdfrwt beam="2">  1        2 0.17995662E-01 0.91648200E+02</pdfrwt>
<pdfrwt beam="1">  1       -2 0.27618071E-02 0.91648200E+02</pdfrwt>
<totfact> 0.12700231E+05</totfact>
</mgrwt>
</event>
<event>
 7    1  0.3891761E-009  0.9494399E+02  0.7818608E-02  0.1291302E+00
         -2   -1    0    0    0  501 -0.00000000000E+00  0.00000000000E+00  0.75208968940E+02  0.75208968984E+02  0.25500000000E-02 0.  1.
          2   -1    0    0  501    0  0.00000000000E+00 -0.00000000000E+00 -0.29964385286E+02  0.29964385395E+02  0.25500000000E-02 0. -1.
         23    2    1    2    0    0  0.00000000000E+00  0.00000000000E+00  0.45244583654E+02  0.10517335438E+03  0.94943994656E+02 0.  0.
    9000005    2    3    3    0    0 -0.43058130174E+02  0.16331107383E+02  0.35332237486E+02  0.58067492227E+02  0.16610253837E+01 0.  0.
         22    1    3    3    0    0  0.43058130174E+02 -0.16331107383E+02  0.99123461676E+01  0.47105862151E+02  0.00000000000E+00 0.  1.
         22    1    4    4    0    0 -0.38578658654E+02  0.15164495915E+02  0.31822202539E+02  0.52258276037E+02  0.00000000000E+00 0. -1.
         22    1    4    4    0    0 -0.44794715198E+01  0.11666114679E+01  0.35100349476E+01  0.58092161904E+01  0.00000000000E+00 0. -1.
<mgrwt>
<rscale>  0 0.94943995E+02</rscale>
<asrwt>0</asrwt>
<pdfrwt beam="2">  1        2 0.46099055E-02 0.94943995E+02</pdfrwt>
<pdfrwt beam="1">  1       -2 0.11570610E-01 0.94943995E+02</pdfrwt>
<totfact> 0.78368278E+04</totfact>
</mgrwt>
</event>
<event>
 7    1  0.3891761E-009  0.9150328E+02  0.7818608E-02  0.1299252E+00
          2   -1    0    0  501    0  0.00000000000E+00  0.00000000000E+00  0.36959680333E+03  0.36959680334E+03  0.25500000000E-02 0.  1.
         -2   -1    0    0    0  501 -0.00000000000E+00 -0.00000000000E+00 -0.56635020477E+01  0.56635026218E+01  0.25500000000E-02 0. -1.
         23    2    1    2    0    0 -0.44408920985E-15  0.00000000000E+00  0.36393330128E+03  0.37526030596E+03  0.91503275610E+02 0.  0.
    9000005    2    3    3    0    0  0.27992441433E+01  0.34675896294E+02  0.30169206275E+03  0.30395655202E+03  0.12697686394E+02 0.  0.
         22    1    3    3    0    0 -0.27992441433E+01 -0.34675896294E+02  0.62241238532E+02  0.71303753938E+02  0.00000000000E+00 0. -1.
         22    1    4    4    0    0 -0.33071519843E+01  0.13180058320E+02  0.15193249795E+03  0.15253896264E+03  0.00000000000E+00 0. -1.
         22    1    4    4    0    0  0.61063961275E+01  0.21495837974E+02  0.14975956480E+03  0.15141758938E+03  0.00000000000E+00 0. -1.
<mgrwt>
<rscale>  0 0.91503276E+02</rscale>
<asrwt>0</asrwt>
<pdfrwt beam="1">  1        2 0.56861065E-01 0.91503276E+02</pdfrwt>
<pdfrwt beam="2">  1       -2 0.87130778E-03 0.91503276E+02</pdfrwt>
<totfact> 0.19217276E+05</totfact>
</mgrwt>
</event>
<event>
 7    1  0.3891761E-009  0.9064624E+02  0.7818608E-02  0.1301294E+00
         -2   -1    0    0    0  501 -0.00000000000E+00  0.00000000000E+00  0.45648559800E+01  0.45648566923E+01  0.25500000000E-02 0.  1.
          2   -1    0    0  501    0  0.00000000000E+00 -0.00000000000E+00 -0.44999995108E+03  0.44999995109E+03  0.25500000000E-02 0. -1.
         23    2    1    2    0    0  0.00000000000E+00  0.00000000000E+00 -0.44543509510E+03  0.45456480778E+03  0.90646238339E+02 0.  0.
    9000005    2    3    3    0    0 -0.37081929179E+02 -0.31808064265E+01 -0.35165834446E+03  0.35367245940E+03  0.59523363259E+01 0.  0.
         22    1    3    3    0    0  0.37081929179E+02  0.31808064265E+01 -0.93776750641E+02  0.10089234838E+03  0.00000000000E+00 0.  1.
         22    1    4    4    0    0 -0.25099269594E+02  0.56377163225E-01 -0.25096517819E+03  0.25221716273E+03  0.00000000000E+00 0. -1.
         22    1    4    4    0    0 -0.11982659586E+02 -0.32371835897E+01 -0.10069316627E+03  0.10145529666E+03  0.00000000000E+00 0. -1.
<mgrwt>
<rscale>  0 0.90646238E+02</rscale>
<asrwt>0</asrwt>
<pdfrwt beam="2">  1        2 0.69230727E-01 0.90646238E+02</pdfrwt>
<pdfrwt beam="1">  1       -2 0.70228594E-03 0.90646238E+02</pdfrwt>
<totfact> 0.21128145E+05</totfact>
</mgrwt>
</event>
<event>
 7    1  0.3891761E-009  0.9390084E+02  0.7818608E-02  0.1293671E+00
          2   -1    0    0  501    0  0.00000000000E+00  0.00000000000E+00  0.81975400919E+02  0.81975400959E+02  0.25500000000E-02 0. -1.
         -2   -1    0    0    0  501 -0.00000000000E+00 -0.00000000000E+00 -0.26890283477E+02  0.26890283597E+02  0.25500000000E-02 0.  1.
         23    2    1    2    0    0  0.35527136788E-14 -0.71054273576E-14  0.55085117443E+02  0.10886568456E+03  0.93900836579E+02 0.  0.
    9000005    2    3    3    0    0  0.31643045394E+02 -0.32199112104E+02  0.15536838244E+02  0.48847924438E+02  0.10327692727E+02 0.  0.
         22    1    3    3    0    0 -0.31643045394E+02  0.32199112104E+02  0.39548279198E+02  0.60017760119E+02  0.00000000000E+00 0.  1.
         22    1    4    4    0    0  0.30769448202E+02 -0.32764370955E+02  0.15998349514E+02  0.47709644035E+02  0.00000000000E+00 0. -1.
         22    1    4    4    0    0  0.87359719219E+00  0.56525885077E+00 -0.46151126987E+00  0.11382804025E+01  0.00000000000E+00 0. -1.
<mgrwt>
<rscale>  0 0.93900837E+02</rscale>
<asrwt>0</asrwt>
<pdfrwt beam="1">  1        2 0.12611600E-01 0.93900837E+02</pdfrwt>
<pdfrwt beam="2">  1       -2 0.41369667E-02 0.93900837E+02</pdfrwt>
<totfact> 0.10655774E+05</totfact>
</mgrwt>
</event>
<event>
 7    1  0.3891761E-009  0.9506181E+02  0.7818608E-02  0.1291037E+00
          2   -1    0    0  501    0  0.00000000000E+00  0.00000000000E+00  0.46339643204E+02  0.46339643274E+02  0.25500000000E-02 0. -1.
         -2   -1    0    0    0  501 -0.00000000000E+00 -0.00000000000E+00 -0.48752789258E+02  0.48752789324E+02  0.25500000000E-02 0.  1.
         23    2    1    2    0    0  0.00000000000E+00  0.00000000000E+00 -0.24131460541E+01  0.95092432598E+02  0.95061808649E+02 0.  0.
    9000005    2    3    3    0    0  0.20843738036E+02  0.41555297907E+02  0.73765932635E+00  0.48495954470E+02  0.13784384614E+02 0.  0.
         22    1    3    3    0    0 -0.20843738036E+02 -0.41555297907E+02 -0.31508053804E+01  0.46596478129E+02  0.00000000000E+00 0. -1.
         22    1    4    4    0    0 -0.17481652705E+01  0.10558833813E+01 -0.50864925432E+00  0.21046842023E+01  0.00000000000E+00 0.  1.
         22    1    4    4    0    0  0.22591903307E+02  0.40499414525E+02  0.12463085807E+01  0.46391270267E+02  0.00000000000E+00 0.  1.
<mgrwt>
<rscale>  0 0.95061809E+02</rscale>
<asrwt>0</asrwt>
<pdfrwt beam="1">  1        2 0.71291759E-02 0.95061809E+02</pdfrwt>
<pdfrwt beam="2">  1       -2 0.75004291E-02 0.95061809E+02</pdfrwt>
<totfact> 0.87868911E+04</totfact>
</mgrwt>
</event>
<event>
 7    1  0.3891761E-009  0.9397925E+02  0.7818608E-02  0.1293492E+00
         -2   -1    0    0    0  501 -0.00000000000E+00  0.00000000000E+00  0.33411947417E+02  0.33411947515E+02  0.25500000000E-02 0.  1.
          2   -1    0    0  501    0  0.00000000000E+00 -0.00000000000E+00 -0.66084884472E+02  0.66084884521E+02  0.25500000000E-02 0. -1.
         23    2    1    2    0    0  0.00000000000E+00  0.17763568394E-14 -0.32672937054E+02  0.99496832035E+02  0.93979246482E+02 0.  0.
    9000005    2    3    3    0    0 -0.43416837866E+02  0.13141618529E+02 -0.92040710838E+01  0.48423241818E+02  0.14225732874E+02 0.  0.
         22    1    3    3    0    0  0.43416837866E+02 -0.13141618529E+02 -0.23468865971E+02  0.51073590218E+02  0.00000000000E+00 0. -1.
         22    1    4    4    0    0 -0.23539137854E+02  0.81860124320E+01 -0.12150889716E+02  0.27726267894E+02  0.00000000000E+00 0. -1.
         22    1    4    4    0    0 -0.19877700011E+02  0.49556060968E+01  0.29468186322E+01  0.20696973923E+02  0.00000000000E+00 0. -1.
<mgrwt>
<rscale>  0 0.93979246E+02</rscale>
<asrwt>0</asrwt>
<pdfrwt beam="2">  1        2 0.10166905E-01 0.93979246E+02</pdfrwt>
<pdfrwt beam="1">  1       -2 0.51402996E-02 0.93979246E+02</pdfrwt>
<totfact> 0.99983982E+04</totfact>
</mgrwt>
</event>
<event>
 7    1  0.3891761E-009  0.9085071E+02  0.7818608E-02  0.1300805E+00
         -2   -1    0    0    0  501 -0.00000000000E+00  0.00000000000E+00  0.22384493558E+03  0.22384493560E+03  0.25500000000E-02 0.  1.
          2   -1    0    0  501    0  0.00000000000E+00 -0.00000000000E+00 -0.92182683575E+01  0.92182687102E+01  0.25500000000E-02 0. -1.
         23    2    1    2    0    0  0.00000000000E+00 -0.35527136788E-14  0.21462666722E+03  0.23306320431E+03  0.90850706755E+02 0.  0.
    9000005    2    3    3    0    0 -0.77787375510E+01  0.22094092812E+02  0.20630058859E+03  0.20820397503E+03  0.15501763392E+02 0.  0.
         22    1    3    3    0    0  0.77787375510E+01 -0.22094092812E+02  0.83260786338E+01  0.24859229282E+02  0.00000000000E+00 0. -1.
         22    1    4    4    0    0 -0.10171806381E+02  0.17264329954E+02  0.11411453453E+03  0.11586047525E+03  0.00000000000E+00 0.  1.
         22    1    4    4    0    0  0.23930688301E+01  0.48297628579E+01  0.92186054058E+02  0.92343499773E+02  0.00000000000E+00 0.  1.
<mgrwt>
<rscale>  0 0.90850707E+02</rscale>
<asrwt>0</asrwt>
<pdfrwt beam="2">  1        2 0.14181953E-02 0.90850707E+02</pdfrwt>
<pdfrwt beam="1">  1       -2 0.34437679E-01 0.90850707E+02</pdfrwt>
<totfact> 0.59794438E+04</totfact>
</mgrwt>
</event>
<event>
 7    1  0.3891761E-009  0.9018056E+02  0.7818608E-02  0.1302415E+00
         -2   -1    0    0    0  501 -0.00000000000E+00  0.00000000000E+00  0.14162570176E+02  0.14162570406E+02  0.25500000000E-02 0.  1.
          2   -1    0    0  501    0  0.00000000000E+00 -0.00000000000E+00 -0.14355681768E+03  0.14355681771E+03  0.25500000000E-02 0. -1.
         23    2    1    2    0    0  0.44408920985E-15  0.71054273576E-14 -0.12939424751E+03  0.15771938811E+03  0.90180563862E+02 0.  0.
    9000005    2    3    3    0    0 -0.33327150284E+01 -0.39683946886E+02 -0.10105694939E+03  0.10884275674E+03  0.69509743629E+01 0.  0.
         22    1    3    3    0    0  0.33327150284E+01  0.39683946886E+02 -0.28337298120E+02  0.48876631376E+02  0.00000000000E+00 0.  1.
         22    1    4    4    0    0 -0.86033413445E+00 -0.35870025200E+02 -0.89587238361E+02  0.96505296019E+02  0.00000000000E+00 0. -1.
         22    1    4    4    0    0 -0.24723808940E+01 -0.38139216859E+01 -0.11469711028E+02  0.12337460718E+02  0.00000000000E+00 0. -1.
<mgrwt>
<rscale>  0 0.90180564E+02</rscale>
<asrwt>0</asrwt>
<pdfrwt beam="2">  1        2 0.22085663E-01 0.90180564E+02</pdfrwt>
<pdfrwt beam="1">  1       -2 0.21788571E-02 0.90180564E+02</pdfrwt>
<totfact> 0.14191768E+05</totfact>
</mgrwt>
</event>
<event>
 7    1  0.3891761E-009  0.9167641E+02  0.7818608E-02  0.1298842E+00
         -2   -1    0    0    0  501 -0.00000000000E+00  0.00000000000E+00  0.54718444754E+01  0.54718450695E+01  0.25500000000E-02 0. -1.
          2   -1    0    0  501    0  0.00000000000E+00 -0.00000000000E+00 -0.38399132308E+03  0.38399132309E+03  0.25500000000E-02 0.  1.
         23    2    1    2    0    0  0.00000000000E+00  0.00000000000E+00 -0.37851947860E+03  0.38946316816E+03  0.91676407371E+02 0.  0.
    9000005    2    3    3    0    0 -0.40264508854E+02 -0.14136659891E+02 -0.25852662058E+03  0.26210790991E+03  0.65929555886E+01 0.  0.
         22    1    3    3    0    0  0.40264508854E+02  0.14136659891E+02 -0.11999285802E+03  0.12735525824E+03  0.00000000000E+00 0. -1.
         22    1    4    4    0    0 -0.37289821709E+02 -0.13856846886E+02 -0.24780298456E+03  0.25097581988E+03  0.00000000000E+00 0. -1.
         22    1    4    4    0    0 -0.29746871449E+01 -0.27981300460E+00 -0.10723636027E+02  0.11132090036E+02  0.00000000000E+00 0. -1.
<mgrwt>
<rscale>  0 0.91676407E+02</rscale>
<asrwt>0</asrwt>
<pdfrwt beam="2">  1        2 0.59075567E-01 0.91676407E+02</pdfrwt>
<pdfrwt beam="1">  1       -2 0.84182257E-03 0.91676407E+02</pdfrwt>
<totfact> 0.19387789E+05</totfact>
</mgrwt>
</event>
<event>
 7    1  0.3891761E-009  0.1002747E+03  0.7818608E-02  0.1279719E+00
         -2   -1    0    0    0  501 -0.00000000000E+00  0.00000000000E+00  0.10186432635E+02  0.10186432954E+02  0.25500000000E-02 0.  1.
          2   -1    0    0  501    0  0.00000000000E+00 -0.00000000000E+00 -0.24677489504E+03  0.24677489505E+03  0.25500000000E-02 0. -1.
         23    2    1    2    0    0  0.00000000000E+00  0.00000000000E+00 -0.23658846240E+03  0.25696132801E+03  0.10027474033E+03 0.  0.
    9000005    2    3    3    0    0 -0.20435838693E+02 -0.29560799027E+02 -0.20703844249E+03  0.21043533507E+03  0.11253854138E+02 0.  0.
         22    1    3    3    0    0  0.20435838693E+02  0.29560799027E+02 -0.29550019913E+02  0.46525992940E+02  0.00000000000E+00 0.  1.
         22    1    4    4    0    0 -0.17106743804E+01 -0.11365706314E+02 -0.68633327238E+02  0.69589074535E+02  0.00000000000E+00 0. -1.
         22    1    4    4    0    0 -0.18725164313E+02 -0.18195092714E+02 -0.13840511525E+03  0.14084626053E+03  0.00000000000E+00 0. -1.
<mgrwt>
<rscale>  0 0.10027474E+03</rscale>
<asrwt>0</asrwt>
<pdfrwt beam="2">  1        2 0.37965364E-01 0.10027474E+03</pdfrwt>
<pdfrwt beam="1">  1       -2 0.15671437E-02 0.10027474E+03</pdfrwt>
<totfact> 0.12928160E+05</totfact>
</mgrwt>
</event>
<event>
 6    1  0.3891761E-009  0.3986936E+03  0.7818608E-02  0.1044233E+00
         -2   -1    0    0    0  501 -0.00000000000E+00  0.00000000000E+00  0.41217526816E+03  0.41217526817E+03  0.25500000000E-02 0.  1.
          2   -1    0    0  501    0  0.00000000000E+00 -0.00000000000E+00 -0.96413246903E+02  0.96413246937E+02  0.25500000000E-02 0. -1.
    9000005    2    1    2    0    0 -0.43679477923E+02  0.66872785704E+02  0.39079585732E+03  0.39899863048E+03  0.99317051267E+01 0.  0.
         22    1    1    2    0    0  0.43679477923E+02 -0.66872785704E+02 -0.75033836059E+02  0.10958988463E+03  0.00000000000E+00 0. -1.
         22    1    3    3    0    0 -0.42646039121E+02  0.61718074425E+02  0.37154190923E+03  0.37903983389E+03  0.00000000000E+00 0. -1.
         22    1    3    3    0    0 -0.10334388017E+01  0.51547112795E+01  0.19253948089E+02  0.19958796586E+02  0.00000000000E+00 0. -1.
<mgrwt>
<rscale>  0 0.39869365E+03</rscale>
<asrwt>0</asrwt>
<pdfrwt beam="2">  1        2 0.14832808E-01 0.39869365E+03</pdfrwt>
<pdfrwt beam="1">  1       -2 0.63411578E-01 0.39869365E+03</pdfrwt>
<totfact> 0.93656925E+02</totfact>
</mgrwt>
</event>
<event>
 7    1  0.4808104E-009  0.9066604E+02  0.7818608E-02  0.1301247E+00
          2   -1    0    0  501    0  0.00000000000E+00  0.00000000000E+00  0.26368850363E+02  0.26368850486E+02  0.25500000000E-02 0. -1.
         -2   -1    0    0    0  501 -0.00000000000E+00 -0.00000000000E+00 -0.77936005378E+02  0.77936005420E+02  0.25500000000E-02 0.  1.
         23    2    1    2    0    0 -0.88817841970E-15  0.00000000000E+00 -0.51567155015E+02  0.10430485591E+03  0.90666043749E+02 0.  0.
    9000005    2    3    3    0    0  0.79816136963E+01 -0.13045534583E+02 -0.74003615937E+02  0.77151828294E+02  0.15555619810E+02 0.  0.
         22    1    3    3    0    0 -0.79816136963E+01  0.13045534583E+02  0.22436460922E+02  0.27153027611E+02  0.00000000000E+00 0. -1.
         22    1    4    4    0    0 -0.16713300322E+00 -0.13523899620E+01 -0.43083212339E+02  0.43104757017E+02  0.00000000000E+00 0. -1.
         22    1    4    4    0    0  0.81487466995E+01 -0.11693144621E+02 -0.30920403598E+02  0.34047071277E+02  0.00000000000E+00 0. -1.
<mgrwt>
<rscale>  0 0.90666044E+02</rscale>
<asrwt>0</asrwt>
<pdfrwt beam="1">  1        2 0.40567462E-02 0.90666044E+02</pdfrwt>
<pdfrwt beam="2">  1       -2 0.11990155E-01 0.90666044E+02</pdfrwt>
<totfact> 0.86881522E+04</totfact>
</mgrwt>
</event>
<event>
 7    1  0.3891761E-009  0.9202654E+02  0.7818608E-02  0.1298017E+00
          2   -1    0    0  501    0  0.00000000000E+00  0.00000000000E+00  0.50515163109E+03  0.50515163110E+03  0.25500000000E-02 0. -1.
         -2   -1    0    0    0  501 -0.00000000000E+00 -0.00000000000E+00 -0.41912579255E+01  0.41912587012E+01  0.25500000000E-02 0.  1.
         23    2    1    2    0    0  0.00000000000E+00  0.00000000000E+00  0.50096037317E+03  0.50934288980E+03  0.92026539142E+02 0.  0.
    9000005    2    3    3    0    0 -0.28205687346E+02 -0.33000257583E+02  0.32189331424E+03  0.32508874632E+03  0.13520703685E+02 0.  0.
         22    1    3    3    0    0  0.28205687346E+02  0.33000257583E+02  0.17906705892E+03  0.18425414348E+03  0.00000000000E+00 0.  1.
         22    1    4    4    0    0 -0.18004926680E+02 -0.12153574153E+02  0.13085644826E+03  0.13264726458E+03  0.00000000000E+00 0.  1.
         22    1    4    4    0    0 -0.10200760666E+02 -0.20846683431E+02  0.19103686599E+03  0.19244148174E+03  0.00000000000E+00 0.  1.
<mgrwt>
<rscale>  0 0.92026539E+02</rscale>
<asrwt>0</asrwt>
<pdfrwt beam="1">  1        2 0.77715589E-01 0.92026539E+02</pdfrwt>
<pdfrwt beam="2">  1       -2 0.64480936E-03 0.92026539E+02</pdfrwt>
<totfact> 0.21096619E+05</totfact>
</mgrwt>
</event>
<event>
 7    1  0.3891761E-009  0.9212811E+02  0.7818608E-02  0.1297778E+00
          2   -1    0    0  501    0  0.00000000000E+00  0.00000000000E+00  0.92135618119E+01  0.92135621648E+01  0.25500000000E-02 0. -1.
         -2   -1    0    0    0  501 -0.00000000000E+00 -0.00000000000E+00 -0.23030152325E+03  0.23030152326E+03  0.25500000000E-02 0.  1.
         23    2    1    2    0    0  0.88817841970E-15  0.71054273576E-14 -0.22108796144E+03  0.23951508543E+03  0.92128114358E+02 0.  0.
    9000005    2    3    3    0    0 -0.67698218861E+01 -0.45120282228E+02 -0.10818995579E+03  0.11774632903E+03  0.88011992615E+01 0.  0.
         22    1    3    3    0    0  0.67698218861E+01  0.45120282228E+02 -0.11289800564E+03  0.12176875640E+03  0.00000000000E+00 0. -1.
         22    1    4    4    0    0 -0.27282821549E+00 -0.76219578791E+01 -0.11134256970E+02  0.13495938479E+02  0.00000000000E+00 0. -1.
         22    1    4    4    0    0 -0.64969936706E+01 -0.37498324349E+02 -0.97055698824E+02  0.10425039055E+03  0.00000000000E+00 0. -1.
<mgrwt>
<rscale>  0 0.92128114E+02</rscale>
<asrwt>0</asrwt>
<pdfrwt beam="1">  1        2 0.14174712E-02 0.92128114E+02</pdfrwt>
<pdfrwt beam="2">  1       -2 0.35430999E-01 0.92128114E+02</pdfrwt>
<totfact> 0.56927559E+04</totfact>
</mgrwt>
</event>
<event>
 7    1  0.3891761E-009  0.9065312E+02  0.7818608E-02  0.1301278E+00
         -2   -1    0    0    0  501 -0.00000000000E+00  0.00000000000E+00  0.24100747773E+02  0.24100747908E+02  0.25500000000E-02 0.  1.
          2   -1    0    0  501    0  0.00000000000E+00 -0.00000000000E+00 -0.85246193441E+02  0.85246193479E+02  0.25500000000E-02 0. -1.
         23    2    1    2    0    0  0.00000000000E+00 -0.35527136788E-14 -0.61145445669E+02  0.10934694139E+03  0.90653119443E+02 0.  0.
    9000005    2    3    3    0    0 -0.61167362574E+01  0.25766524761E+02  0.12676581935E+02  0.30918502538E+02  0.96917392116E+01 0.  0.
         22    1    3    3    0    0  0.61167362574E+01 -0.25766524761E+02 -0.73822027604E+02  0.78428438849E+02  0.00000000000E+00 0. -1.
         22    1    4    4    0    0 -0.66442337361E+00 -0.81939240720E+00  0.35416415979E+00  0.11127868567E+01  0.00000000000E+00 0.  1.
         22    1    4    4    0    0 -0.54523128837E+01  0.26585917168E+02  0.12322417776E+02  0.29805715682E+02  0.00000000000E+00 0.  1.
<mgrwt>
<rscale>  0 0.90653119E+02</rscale>
<asrwt>0</asrwt>
<pdfrwt beam="2">  1        2 0.13114799E-01 0.90653119E+02</pdfrwt>
<pdfrwt beam="1">  1       -2 0.37078074E-02 0.90653119E+02</pdfrwt>
<totfact> 0.11886106E+05</totfact>
</mgrwt>
</event>
<event>
 7    1  0.3891761E-009  0.9002088E+02  0.7818608E-02  0.1302801E+00
          2   -1    0    0  501    0  0.00000000000E+00  0.00000000000E+00  0.30799974457E+03  0.30799974458E+03  0.25500000000E-02 0. -1.
         -2   -1    0    0    0  501 -0.00000000000E+00 -0.00000000000E+00 -0.65777319739E+01  0.65777324682E+01  0.25500000000E-02 0.  1.
         23    2    1    2    0    0  0.00000000000E+00  0.00000000000E+00  0.30142201260E+03  0.31457747705E+03  0.90020883071E+02 0.  0.
    9000005    2    3    3    0    0  0.40832438488E+02 -0.17373850785E+02  0.15169579669E+03  0.15841384987E+03  0.10686176743E+02 0.  0.
         22    1    3    3    0    0 -0.40832438488E+02  0.17373850785E+02  0.14972621590E+03  0.15616362718E+03  0.00000000000E+00 0.  1.
         22    1    4    4    0    0  0.12304917191E+02 -0.74097478870E+01  0.66047008598E+02  0.67590847721E+02  0.00000000000E+00 0. -1.
         22    1    4    4    0    0  0.28527521297E+02 -0.99641028978E+01  0.85648788094E+02  0.90823002152E+02  0.00000000000E+00 0. -1.
<mgrwt>
<rscale>  0 0.90020883E+02</rscale>
<asrwt>0</asrwt>
<pdfrwt beam="1">  1        2 0.47384565E-01 0.90020883E+02</pdfrwt>
<pdfrwt beam="2">  1       -2 0.10119590E-02 0.90020883E+02</pdfrwt>
<totfact> 0.18770002E+05</totfact>
</mgrwt>
</event>
<event>
 7    1  0.3891761E-009  0.8848277E+02  0.7818608E-02  0.1306568E+00
          2   -1    0    0  501    0  0.00000000000E+00  0.00000000000E+00  0.32537525130E+03  0.32537525131E+03  0.25500000000E-02 0. -1.
         -2   -1    0    0    0  501 -0.00000000000E+00 -0.00000000000E+00 -0.60155160957E+01  0.60155166361E+01  0.25500000000E-02 0.  1.
         23    2    1    2    0    0  0.00000000000E+00  0.00000000000E+00  0.31935973520E+03  0.33139076794E+03  0.88482770131E+02 0.  0.
    9000005    2    3    3    0    0  0.13400654695E+02 -0.32440393465E+02  0.26012905316E+03  0.26254143701E+03  0.53782131316E+01 0.  0.
         22    1    3    3    0    0 -0.13400654695E+02  0.32440393465E+02  0.59230682040E+02  0.68849330929E+02  0.00000000000E+00 0.  1.
         22    1    4    4    0    0  0.10407356119E+02 -0.28113482732E+02  0.23150153441E+03  0.23343444777E+03  0.00000000000E+00 0.  1.
         22    1    4    4    0    0  0.29932985761E+01 -0.43269107327E+01  0.28627518748E+02  0.29106989239E+02  0.00000000000E+00 0.  1.
<mgrwt>
<rscale>  0 0.88482770E+02</rscale>
<asrwt>0</asrwt>
<pdfrwt beam="1">  1        2 0.50057718E-01 0.88482770E+02</pdfrwt>
<pdfrwt beam="2">  1       -2 0.92546430E-03 0.88482770E+02</pdfrwt>
<totfact> 0.20052549E+05</totfact>
</mgrwt>
</event>
<event>
 7    1  0.3891761E-009  0.8863599E+02  0.7818608E-02  0.1306189E+00
         -2   -1    0    0    0  501 -0.00000000000E+00  0.00000000000E+00  0.10279774766E+02  0.10279775082E+02  0.25500000000E-02 0.  1.
          2   -1    0    0  501    0  0.00000000000E+00 -0.00000000000E+00 -0.19106299532E+03  0.19106299534E+03  0.25500000000E-02 0. -1.
         23    2    1    2    0    0  0.00000000000E+00  0.00000000000E+00 -0.18078322056E+03  0.20134277042E+03  0.88635987986E+02 0.  0.
    9000005    2    3    3    0    0  0.41611637471E+02  0.15031093424E+02 -0.86486559477E+02  0.97182689617E+02  0.26623389043E+01 0.  0.
         22    1    3    3    0    0 -0.41611637471E+02 -0.15031093424E+02 -0.94296661079E+02  0.10416008080E+03  0.00000000000E+00 0.  1.
         22    1    4    4    0    0  0.17410022739E+02  0.73929846411E+01 -0.35165643150E+02  0.39929783017E+02  0.00000000000E+00 0.  1.
         22    1    4    4    0    0  0.24201614732E+02  0.76381087831E+01 -0.51320916327E+02  0.57252906600E+02  0.00000000000E+00 0.  1.
<mgrwt>
<rscale>  0 0.88635988E+02</rscale>
<asrwt>0</asrwt>
<pdfrwt beam="2">  1        2 0.29394304E-01 0.88635988E+02</pdfrwt>
<pdfrwt beam="1">  1       -2 0.15815040E-02 0.88635988E+02</pdfrwt>
<totfact> 0.16416732E+05</totfact>
</mgrwt>
</event>
<event>
 7    1  0.3891761E-009  0.9154589E+02  0.7818608E-02  0.1299151E+00
         -2   -1    0    0    0  501 -0.00000000000E+00  0.00000000000E+00  0.84398135598E+01  0.84398139450E+01  0.25500000000E-02 0.  1.
          2   -1    0    0  501    0  0.00000000000E+00 -0.00000000000E+00 -0.24824750208E+03  0.24824750210E+03  0.25500000000E-02 0. -1.
         23    2    1    2    0    0  0.00000000000E+00  0.00000000000E+00 -0.23980768852E+03  0.25668731604E+03  0.91545894182E+02 0.  0.
    9000005    2    3    3    0    0  0.34285384631E+02  0.13561787014E+02 -0.19541186814E+03  0.19897771083E+03  0.68499292427E+01 0.  0.
         22    1    3    3    0    0 -0.34285384631E+02 -0.13561787014E+02 -0.44395820389E+02  0.57709605217E+02  0.00000000000E+00 0.  1.
         22    1    4    4    0    0  0.27613718956E+02  0.79729249682E+01 -0.15443609453E+03  0.15708784899E+03  0.00000000000E+00 0. -1.
         22    1    4    4    0    0  0.66716656749E+01  0.55888620463E+01 -0.40975773604E+02  0.41889861832E+02  0.00000000000E+00 0. -1.
<mgrwt>
<rscale>  0 0.91545894E+02</rscale>
<asrwt>0</asrwt>
<pdfrwt beam="2">  1        2 0.38191918E-01 0.91545894E+02</pdfrwt>
<pdfrwt beam="1">  1       -2 0.12984331E-02 0.91545894E+02</pdfrwt>
<totfact> 0.16562065E+05</totfact>
</mgrwt>
</event>
<event>
 7    1  0.3891761E-009  0.8817657E+02  0.7818608E-02  0.1307328E+00
         -2   -1    0    0    0  501 -0.00000000000E+00  0.00000000000E+00  0.24744845454E+02  0.24744845586E+02  0.25500000000E-02 0.  1.
          2   -1    0    0  501    0  0.00000000000E+00 -0.00000000000E+00 -0.78552802935E+02  0.78552802977E+02  0.25500000000E-02 0. -1.
         23    2    1    2    0    0 -0.35527136788E-14  0.00000000000E+00 -0.53807957481E+02  0.10329764856E+03  0.88176572344E+02 0.  0.
    9000005    2    3    3    0    0  0.31679822059E+02 -0.98413407394E+01  0.58017764918E+01  0.35079003769E+02  0.98190010552E+01 0.  0.
         22    1    3    3    0    0 -0.31679822059E+02  0.98413407394E+01 -0.59609733973E+02  0.68218644794E+02  0.00000000000E+00 0. -1.
         22    1    4    4    0    0  0.22307277717E+02 -0.43120844550E+01  0.77866258854E+01  0.24017498916E+02  0.00000000000E+00 0. -1.
         22    1    4    4    0    0  0.93725443420E+01 -0.55292562845E+01 -0.19848493936E+01  0.11061504853E+02  0.00000000000E+00 0. -1.
<mgrwt>
<rscale>  0 0.88176572E+02</rscale>
<asrwt>0</asrwt>
<pdfrwt beam="2">  1        2 0.12085046E-01 0.88176572E+02</pdfrwt>
<pdfrwt beam="1">  1       -2 0.38068994E-02 0.88176572E+02</pdfrwt>
<totfact> 0.12536298E+05</totfact>
</mgrwt>
</event>
<event>
 7    1  0.3891761E-009  0.9093352E+02  0.7818608E-02  0.1300607E+00
          2   -1    0    0  501    0  0.00000000000E+00  0.00000000000E+00  0.20676857336E+02  0.20676857493E+02  0.25500000000E-02 0. -1.
         -2   -1    0    0    0  501 -0.00000000000E+00 -0.00000000000E+00 -0.99977776675E+02  0.99977776708E+02  0.25500000000E-02 0.  1.
         23    2    1    2    0    0 -0.35527136788E-14 -0.35527136788E-14 -0.79300919339E+02  0.12065463420E+03  0.90933519375E+02 0.  0.
    9000005    2    3    3    0    0  0.31275204767E+02  0.30824570595E+02 -0.31108516522E+02  0.55456472609E+02  0.13393579372E+02 0.  0.
         22    1    3    3    0    0 -0.31275204767E+02 -0.30824570595E+02 -0.48192402817E+02  0.65198161592E+02  0.00000000000E+00 0.  1.
         22    1    4    4    0    0  0.17021120640E+02  0.20539988061E+02 -0.25760492593E+02  0.37083859508E+02  0.00000000000E+00 0.  1.
         22    1    4    4    0    0  0.14254084127E+02  0.10284582534E+02 -0.53480239295E+01  0.18372613101E+02  0.00000000000E+00 0.  1.
<mgrwt>
<rscale>  0 0.90933519E+02</rscale>
<asrwt>0</asrwt>
<pdfrwt beam="1">  1        2 0.31810551E-02 0.90933519E+02</pdfrwt>
<pdfrwt beam="2">  1       -2 0.15381196E-01 0.90933519E+02</pdfrwt>
<totfact> 0.80344144E+04</totfact>
</mgrwt>
</event>
<event>
 7    1  0.3891761E-009  0.9101993E+02  0.7818608E-02  0.1300400E+00
          2   -1    0    0  501    0  0.00000000000E+00  0.00000000000E+00  0.59257358320E+02  0.59257358375E+02  0.25500000000E-02 0.  1.
         -2   -1    0    0    0  501 -0.00000000000E+00 -0.00000000000E+00 -0.34951892168E+02  0.34951892261E+02  0.25500000000E-02 0. -1.
         23    2    1    2    0    0  0.00000000000E+00  0.17763568394E-14  0.24305466152E+02  0.94209250635E+02  0.91019927601E+02 0.  0.
    9000005    2    3    3    0    0  0.23273230065E+02 -0.11316026394E+02 -0.24802198952E+02  0.38700166127E+02  0.14589657102E+02 0.  0.
         22    1    3    3    0    0 -0.23273230065E+02  0.11316026394E+02  0.49107665105E+02  0.55509084509E+02  0.00000000000E+00 0.  1.
         22    1    4    4    0    0  0.16711957081E+02 -0.10563188721E+02 -0.92975572213E+01  0.21847540725E+02  0.00000000000E+00 0.  1.
         22    1    4    4    0    0  0.65612729842E+01 -0.75283767243E+00 -0.15504641731E+02  0.16852625402E+02  0.00000000000E+00 0.  1.
<mgrwt>
<rscale>  0 0.91019928E+02</rscale>
<asrwt>0</asrwt>
<pdfrwt beam="1">  1        2 0.91165166E-02 0.91019928E+02</pdfrwt>
<pdfrwt beam="2">  1       -2 0.53772142E-02 0.91019928E+02</pdfrwt>
<totfact> 0.10623145E+05</totfact>
</mgrwt>
</event>
<event>
 7    1  0.3891761E-009  0.9162251E+02  0.7818608E-02  0.1298969E+00
         -2   -1    0    0    0  501 -0.00000000000E+00  0.00000000000E+00  0.75666957015E+01  0.75666961312E+01  0.25500000000E-02 0. -1.
          2   -1    0    0  501    0  0.00000000000E+00 -0.00000000000E+00 -0.27735631720E+03  0.27735631722E+03  0.25500000000E-02 0.  1.
         23    2    1    2    0    0  0.00000000000E+00  0.00000000000E+00 -0.26978962150E+03  0.28492301335E+03  0.91622506319E+02 0.  0.
    9000005    2    3    3    0    0  0.18130579312E+01  0.32310912997E+02 -0.23554476216E+03  0.23780621519E+03  0.48144284057E+01 0.  0.
         22    1    3    3    0    0 -0.18130579312E+01 -0.32310912997E+02 -0.34244859340E+02  0.47116798161E+02  0.00000000000E+00 0. -1.
         22    1    4    4    0    0 -0.49555807622E-01  0.81497341577E+00 -0.14275857785E+02  0.14299187143E+02  0.00000000000E+00 0. -1.
         22    1    4    4    0    0  0.18626137388E+01  0.31495939581E+02 -0.22126890438E+03  0.22350702804E+03  0.00000000000E+00 0. -1.
<mgrwt>
<rscale>  0 0.91622506E+02</rscale>
<asrwt>0</asrwt>
<pdfrwt beam="2">  1        2 0.42670195E-01 0.91622506E+02</pdfrwt>
<pdfrwt beam="1">  1       -2 0.11641073E-02 0.91622506E+02</pdfrwt>
<totfact> 0.17221732E+05</totfact>
</mgrwt>
</event>
<event>
 7    1  0.3891761E-009  0.9225093E+02  0.7818608E-02  0.1297490E+00
         -2   -1    0    0    0  501 -0.00000000000E+00  0.00000000000E+00  0.19314421067E+02  0.19314421235E+02  0.25500000000E-02 0. -1.
          2   -1    0    0  501    0  0.00000000000E+00 -0.00000000000E+00 -0.11015389375E+03  0.11015389377E+03  0.25500000000E-02 0.  1.
         23    2    1    2    0    0  0.00000000000E+00  0.00000000000E+00 -0.90839472678E+02  0.12946831501E+03  0.92250933844E+02 0.  0.
    9000005    2    3    3    0    0  0.30169400422E+02 -0.31771460115E+02 -0.62680879230E+02  0.77386410431E+02  0.11838306410E+02 0.  0.
         22    1    3    3    0    0 -0.30169400422E+02  0.31771460115E+02 -0.28158593448E+02  0.52081904580E+02  0.00000000000E+00 0. -1.
         22    1    4    4    0    0  0.31279191269E+00 -0.43861599520E+01 -0.32844764582E+01  0.54885356435E+01  0.00000000000E+00 0. -1.
         22    1    4    4    0    0  0.29856608509E+02 -0.27385300163E+02 -0.59396402772E+02  0.71897874787E+02  0.00000000000E+00 0. -1.
<mgrwt>
<rscale>  0 0.92250934E+02</rscale>
<asrwt>0</asrwt>
<pdfrwt beam="2">  1        2 0.16946753E-01 0.92250934E+02</pdfrwt>
<pdfrwt beam="1">  1       -2 0.29714495E-02 0.92250934E+02</pdfrwt>
<totfact> 0.12239101E+05</totfact>
</mgrwt>
</event>
<event>
 7    1  0.3891761E-009  0.8904349E+02  0.7818608E-02  0.1305185E+00
         -2   -1    0    0    0  501 -0.00000000000E+00  0.00000000000E+00  0.87245072362E+01  0.87245076089E+01  0.25500000000E-02 0.  1.
          2   -1    0    0  501    0  0.00000000000E+00 -0.00000000000E+00 -0.22719743687E+03  0.22719743688E+03  0.25500000000E-02 0. -1.
         23    2    1    2    0    0  0.00000000000E+00  0.00000000000E+00 -0.21847292963E+03  0.23592194449E+03  0.89043488873E+02 0.  0.
    9000005    2    3    3    0    0 -0.18582942024E+02 -0.36819779420E+02 -0.73622699596E+02  0.85314471130E+02  0.12539345980E+02 0.  0.
         22    1    3    3    0    0  0.18582942024E+02  0.36819779420E+02 -0.14485023004E+03  0.15060747336E+03  0.00000000000E+00 0. -1.
         22    1    4    4    0    0 -0.46156625954E+01 -0.11816172179E+02 -0.12475345132E+02  0.17792147209E+02  0.00000000000E+00 0.  1.
         22    1    4    4    0    0 -0.13967279428E+02 -0.25003607241E+02 -0.61147354464E+02  0.67522323921E+02  0.00000000000E+00 0.  1.
<mgrwt>
<rscale>  0 0.89043489E+02</rscale>
<asrwt>0</asrwt>
<pdfrwt beam="2">  1        2 0.34953447E-01 0.89043489E+02</pdfrwt>
<pdfrwt beam="1">  1       -2 0.13422321E-02 0.89043489E+02</pdfrwt>
<totfact> 0.17265151E+05</totfact>
</mgrwt>
</event>
<event>
 7    1  0.3891761E-009  0.9085320E+02  0.7818608E-02  0.1300799E+00
         -2   -1    0    0    0  501 -0.00000000000E+00  0.00000000000E+00  0.61610610967E+02  0.61610611020E+02  0.25500000000E-02 0.  1.
          2   -1    0    0  501    0  0.00000000000E+00 -0.00000000000E+00 -0.33493842572E+02  0.33493842669E+02  0.25500000000E-02 0. -1.
         23    2    1    2    0    0  0.35527136788E-14  0.00000000000E+00  0.28116768395E+02  0.95104453689E+02  0.90853202732E+02 0.  0.
    9000005    2    3    3    0    0  0.16852105360E+02 -0.40045517767E+02  0.25260129133E+02  0.51563698802E+02  0.11537069039E+02 0.  0.
         22    1    3    3    0    0 -0.16852105360E+02  0.40045517767E+02  0.28566392613E+01  0.43540754887E+02  0.00000000000E+00 0.  1.
         22    1    4    4    0    0  0.16251629186E+02 -0.24679694584E+02  0.15792346935E+02  0.33505238362E+02  0.00000000000E+00 0. -1.
         22    1    4    4    0    0  0.60047617453E+00 -0.15365823182E+02  0.94677821981E+01  0.18058460440E+02  0.00000000000E+00 0. -1.
<mgrwt>
<rscale>  0 0.90853203E+02</rscale>
<asrwt>0</asrwt>
<pdfrwt beam="2">  1        2 0.51528990E-02 0.90853203E+02</pdfrwt>
<pdfrwt beam="1">  1       -2 0.94785554E-02 0.90853203E+02</pdfrwt>
<totfact> 0.92038967E+04</totfact>
</mgrwt>
</event>
<event>
 7    1  0.3891761E-009  0.9234959E+02  0.7818608E-02  0.1297260E+00
          2   -1    0    0  501    0  0.00000000000E+00  0.00000000000E+00  0.19145916339E+02  0.19145916509E+02  0.25500000000E-02 0. -1.
         -2   -1    0    0    0  501 -0.00000000000E+00 -0.00000000000E+00 -0.11136116966E+03  0.11136116969E+03  0.25500000000E-02 0.  1.
         23    2    1    2    0    0  0.00000000000E+00  0.00000000000E+00 -0.92215253321E+02  0.13050708620E+03  0.92349589077E+02 0.  0.
    9000005    2    3    3    0    0  0.45612549540E+02  0.44189924327E+01 -0.49661409255E+02  0.67970202565E+02  0.73253462599E+01 0.  0.
         22    1    3    3    0    0 -0.45612549540E+02 -0.44189924327E+01 -0.42553844065E+02  0.62536883632E+02  0.00000000000E+00 0.  1.
         22    1    4    4    0    0  0.27186268612E+02  0.58631536356E+01 -0.27479888064E+02  0.39097493777E+02  0.00000000000E+00 0.  1.
         22    1    4    4    0    0  0.18426280929E+02 -0.14441612029E+01 -0.22181521191E+02  0.28872708789E+02  0.00000000000E+00 0.  1.
<mgrwt>
<rscale>  0 0.92349589E+02</rscale>
<asrwt>0</asrwt>
<pdfrwt beam="1">  1        2 0.29455257E-02 0.92349589E+02</pdfrwt>
<pdfrwt beam="2">  1       -2 0.17132487E-01 0.92349589E+02</pdfrwt>
<totfact> 0.74796629E+04</totfact>
</mgrwt>
</event>
<event>
 7    1  0.3891761E-009  0.9188779E+02  0.7818608E-02  0.1298343E+00
         -2   -1    0    0    0  501 -0.00000000000E+00  0.00000000000E+00  0.17224164594E+03  0.17224164596E+03  0.25500000000E-02 0. -1.
          2   -1    0    0  501    0  0.00000000000E+00 -0.00000000000E+00 -0.12255115339E+02  0.12255115604E+02  0.25500000000E-02 0.  1.
         23    2    1    2    0    0  0.00000000000E+00  0.00000000000E+00  0.15998653060E+03  0.18449676156E+03  0.91887785115E+02 0.  0.
    9000005    2    3    3    0    0 -0.16706462986E+02  0.21100337596E+02  0.88883238985E+01  0.31020384811E+02  0.12606816407E+02 0.  0.
         22    1    3    3    0    0  0.16706462986E+02 -0.21100337596E+02  0.15109820670E+03  0.15347637675E+03  0.00000000000E+00 0. -1.
         22    1    4    4    0    0 -0.17413067657E+02  0.15279470166E+02  0.42702376602E+01  0.23556571556E+02  0.00000000000E+00 0. -1.
         22    1    4    4    0    0  0.70660467154E+00  0.58208674307E+01  0.46180862383E+01  0.74638132554E+01  0.00000000000E+00 0. -1.
<mgrwt>
<rscale>  0 0.91887785E+02</rscale>
<asrwt>0</asrwt>
<pdfrwt beam="2">  1        2 0.18854025E-02 0.91887785E+02</pdfrwt>
<pdfrwt beam="1">  1       -2 0.26498713E-01 0.91887785E+02</pdfrwt>
<totfact> 0.64993880E+04</totfact>
</mgrwt>
</event>
<event>
 7    1  0.3891761E-009  0.8043259E+02  0.7818608E-02  0.1327828E+00
         -2   -1    0    0    0  501 -0.00000000000E+00  0.00000000000E+00  0.41115040553E+03  0.41115040554E+03  0.25500000000E-02 0.  1.
          2   -1    0    0  501    0  0.00000000000E+00 -0.00000000000E+00 -0.39337192992E+01  0.39337201257E+01  0.25500000000E-02 0. -1.
         23    2    1    2    0    0 -0.35527136788E-14  0.35527136788E-14  0.40721668623E+03  0.41508412566E+03  0.80432591859E+02 0.  0.
    9000005    2    3    3    0    0 -0.31586227707E+02  0.23402886882E+02  0.20186444500E+03  0.20600297426E+03  0.11940952735E+02 0.  0.
         22    1    3    3    0    0  0.31586227707E+02 -0.23402886882E+02  0.20535224123E+03  0.20908115141E+03  0.00000000000E+00 0.  1.
         22    1    4    4    0    0 -0.96965675041E+01  0.80742818648E+01  0.95636178852E+02  0.96464999634E+02  0.00000000000E+00 0.  1.
         22    1    4    4    0    0 -0.21889660203E+02  0.15328605017E+02  0.10622826615E+03  0.10953797462E+03  0.00000000000E+00 0.  1.
<mgrwt>
<rscale>  0 0.80432592E+02</rscale>
<asrwt>0</asrwt>
<pdfrwt beam="2">  1        2 0.60518769E-03 0.80432592E+02</pdfrwt>
<pdfrwt beam="1">  1       -2 0.63253904E-01 0.80432592E+02</pdfrwt>
<totfact> 0.57864263E+04</totfact>
</mgrwt>
</event>
<event>
 7    1  0.3891761E-009  0.9323229E+02  0.7818608E-02  0.1295208E+00
          2   -1    0    0  501    0  0.00000000000E+00  0.00000000000E+00  0.83453002922E+02  0.83453002961E+02  0.25500000000E-02 0. -1.
         -2   -1    0    0    0  501 -0.00000000000E+00 -0.00000000000E+00 -0.26039383410E+02  0.26039383535E+02  0.25500000000E-02 0.  1.
         23    2    1    2    0    0  0.00000000000E+00  0.00000000000E+00  0.57413619512E+02  0.10949238650E+03  0.93232285154E+02 0.  0.
    9000005    2    3    3    0    0 -0.33148829558E+02  0.23591907697E+02  0.53731042483E+02  0.68639181194E+02  0.12995740027E+02 0.  0.
         22    1    3    3    0    0  0.33148829558E+02 -0.23591907697E+02  0.36825770295E+01  0.40853205302E+02  0.00000000000E+00 0.  1.
         22    1    4    4    0    0 -0.31026160293E+02  0.24590053885E+02  0.53055824224E+02  0.66198291946E+02  0.00000000000E+00 0. -1.
         22    1    4    4    0    0 -0.21226692652E+01 -0.99814618793E+00  0.67521825922E+00  0.24408892477E+01  0.00000000000E+00 0. -1.
<mgrwt>
<rscale>  0 0.93232285E+02</rscale>
<asrwt>0</asrwt>
<pdfrwt beam="1">  1        2 0.12838924E-01 0.93232285E+02</pdfrwt>
<pdfrwt beam="2">  1       -2 0.40060590E-02 0.93232285E+02</pdfrwt>
<totfact> 0.10927056E+05</totfact>
</mgrwt>
</event>
<event>
 7    1  0.3891761E-009  0.9051552E+02  0.7818608E-02  0.1301608E+00
          2   -1    0    0  501    0  0.00000000000E+00  0.00000000000E+00  0.35244219531E+03  0.35244219532E+03  0.25500000000E-02 0.  1.
         -2   -1    0    0    0  501 -0.00000000000E+00 -0.00000000000E+00 -0.58116330198E+01  0.58116335792E+01  0.25500000000E-02 0. -1.
         23    2    1    2    0    0  0.44408920985E-15  0.00000000000E+00  0.34663056229E+03  0.35825382890E+03  0.90515519148E+02 0.  0.
    9000005    2    3    3    0    0  0.28938744095E+01  0.22883238659E+02  0.32716261970E+03  0.32807075567E+03  0.79387579996E+01 0.  0.
         22    1    3    3    0    0 -0.28938744095E+01 -0.22883238659E+02  0.19467942591E+02  0.30183073225E+02  0.00000000000E+00 0. -1.
         22    1    4    4    0    0  0.42949237408E+01  0.21273640638E+02  0.27101254735E+03  0.27188014818E+03  0.00000000000E+00 0.  1.
         22    1    4    4    0    0 -0.14010493314E+01  0.16095980207E+01  0.56150072349E+02  0.56190607488E+02  0.00000000000E+00 0.  1.
<mgrwt>
<rscale>  0 0.90515519E+02</rscale>
<asrwt>0</asrwt>
<pdfrwt beam="1">  1        2 0.54221896E-01 0.90515519E+02</pdfrwt>
<pdfrwt beam="2">  1       -2 0.89409710E-03 0.90515519E+02</pdfrwt>
<totfact> 0.19440706E+05</totfact>
</mgrwt>
</event>
<event>
 7    1  0.3891761E-009  0.9065499E+02  0.7818608E-02  0.1301273E+00
         -2   -1    0    0    0  501 -0.00000000000E+00  0.00000000000E+00  0.39326845476E+02  0.39326845559E+02  0.25500000000E-02 0.  1.
          2   -1    0    0  501    0  0.00000000000E+00 -0.00000000000E+00 -0.52243748868E+02  0.52243748930E+02  0.25500000000E-02 0. -1.
         23    2    1    2    0    0  0.11102230246E-15  0.00000000000E+00 -0.12916903392E+02  0.91570594489E+02  0.90654990937E+02 0.  0.
    9000005    2    3    3    0    0  0.61887364741E+00  0.43680090299E+02 -0.15913203994E+02  0.47783483252E+02  0.11031677896E+02 0.  0.
         22    1    3    3    0    0 -0.61887364741E+00 -0.43680090299E+02  0.29963006023E+01  0.43787111237E+02  0.00000000000E+00 0.  1.
         22    1    4    4    0    0 -0.29662485575E+01  0.42341517745E+01 -0.20506317032E+00  0.51738498875E+01  0.00000000000E+00 0. -1.
         22    1    4    4    0    0  0.35851222049E+01  0.39445938525E+02 -0.15708140824E+02  0.42609633365E+02  0.00000000000E+00 0. -1.
<mgrwt>
<rscale>  0 0.90654991E+02</rscale>
<asrwt>0</asrwt>
<pdfrwt beam="2">  1        2 0.80374999E-02 0.90654991E+02</pdfrwt>
<pdfrwt beam="1">  1       -2 0.60502839E-02 0.90654991E+02</pdfrwt>
<totfact> 0.10392774E+05</totfact>
</mgrwt>
</event>
<event>
 7    1  0.3891761E-009  0.9086561E+02  0.7818608E-02  0.1300769E+00
         -2   -1    0    0    0  501 -0.00000000000E+00  0.00000000000E+00  0.16964410423E+02  0.16964410614E+02  0.25500000000E-02 0.  1.
          2   -1    0    0  501    0  0.00000000000E+00 -0.00000000000E+00 -0.12167472245E+03  0.12167472247E+03  0.25500000000E-02 0. -1.
         23    2    1    2    0    0  0.35527136788E-14  0.00000000000E+00 -0.10471031202E+03  0.13863913309E+03  0.90865613843E+02 0.  0.
    9000005    2    3    3    0    0  0.26621699367E+02 -0.97652259230E+01 -0.14798668345E+01  0.31584944339E+02  0.13832721661E+02 0.  0.
         22    1    3    3    0    0 -0.26621699367E+02  0.97652259230E+01 -0.10323044519E+03  0.10705418875E+03  0.00000000000E+00 0. -1.
         22    1    4    4    0    0  0.25515259429E+02 -0.12267993511E+02  0.31374236346E+00  0.28313081125E+02  0.00000000000E+00 0.  1.
         22    1    4    4    0    0  0.11064399387E+01  0.25027675884E+01 -0.17936091980E+01  0.32718632145E+01  0.00000000000E+00 0.  1.
<mgrwt>
<rscale>  0 0.90865614E+02</rscale>
<asrwt>0</asrwt>
<pdfrwt beam="2">  1        2 0.18719188E-01 0.90865614E+02</pdfrwt>
<pdfrwt beam="1">  1       -2 0.26099094E-02 0.90865614E+02</pdfrwt>
<totfact> 0.13166703E+05</totfact>
</mgrwt>
</event>
<event>
 7    1  0.3891761E-009  0.9285127E+02  0.7818608E-02  0.1296090E+00
          2   -1    0    0  501    0  0.00000000000E+00  0.00000000000E+00  0.68980512763E+03  0.68980512763E+03  0.25500000000E-02 0. -1.
         -2   -1    0    0    0  501 -0.00000000000E+00 -0.00000000000E+00 -0.31245624132E+01  0.31245634538E+01  0.25500000000E-02 0.  1.
         23    2    1    2    0    0  0.00000000000E+00  0.00000000000E+00  0.68668056521E+03  0.69292969108E+03  0.92851268949E+02 0.  0.
    9000005    2    3    3    0    0 -0.39467537860E+02 -0.13614968346E+02  0.49053307585E+03  0.49238819540E+03  0.89656321113E+01 0.  0.
         22    1    3    3    0    0  0.39467537860E+02  0.13614968346E+02  0.19614748936E+03  0.20054149568E+03  0.00000000000E+00 0.  1.
         22    1    4    4    0    0 -0.66808383153E+01 -0.17004809419E+00  0.52409384051E+02  0.52833758655E+02  0.00000000000E+00 0.  1.
         22    1    4    4    0    0 -0.32786699545E+02 -0.13444920252E+02  0.43812369180E+03  0.43955443675E+03  0.00000000000E+00 0.  1.
<mgrwt>
<rscale>  0 0.92851269E+02</rscale>
<asrwt>0</asrwt>
<pdfrwt beam="1">  1        2 0.10612396E+00 0.92851269E+02</pdfrwt>
<pdfrwt beam="2">  1       -2 0.48070158E-03 0.92851269E+02</pdfrwt>
<totfact> 0.22523477E+05</totfact>
</mgrwt>
</event>
<event>
 7    1  0.4644779E-009  0.9147536E+02  0.7818608E-02  0.1299318E+00
          2   -1    0    0  501    0  0.00000000000E+00  0.00000000000E+00  0.81224403524E+03  0.81224403525E+03  0.25500000000E-02 0. -1.
         -2   -1    0    0    0  501 -0.00000000000E+00 -0.00000000000E+00 -0.25755005238E+01  0.25755017862E+01  0.25500000000E-02 0.  1.
         23    2    1    2    0    0  0.35527136788E-14  0.17763568394E-14  0.80966853472E+03  0.81481953703E+03  0.91475361801E+02 0.  0.
    9000005    2    3    3    0    0  0.19157408344E+02  0.14263908376E+02  0.75022814860E+03  0.75075999536E+03  0.15094048946E+02 0.  0.
         22    1    3    3    0    0 -0.19157408344E+02 -0.14263908376E+02  0.59440386121E+02  0.64059541669E+02  0.00000000000E+00 0.  1.
         22    1    4    4    0    0  0.73596461810E+01 -0.20521954675E+01  0.15030908498E+03  0.15050314590E+03  0.00000000000E+00 0.  1.
         22    1    4    4    0    0  0.11797762163E+02  0.16316103844E+02  0.59991906362E+03  0.60025684946E+03  0.00000000000E+00 0.  1.
<mgrwt>
<rscale>  0 0.91475362E+02</rscale>
<asrwt>0</asrwt>
<pdfrwt beam="1">  1        2 0.12496082E+00 0.91475362E+02</pdfrwt>
<pdfrwt beam="2">  1       -2 0.39623030E-03 0.91475362E+02</pdfrwt>
<totfact> 0.24228044E+05</totfact>
</mgrwt>
</event>
<event>
 7    1  0.3891761E-009  0.9290819E+02  0.7818608E-02  0.1295958E+00
         -2   -1    0    0    0  501 -0.00000000000E+00  0.00000000000E+00  0.23924816882E+02  0.23924817018E+02  0.25500000000E-02 0. -1.
          2   -1    0    0  501    0  0.00000000000E+00 -0.00000000000E+00 -0.90198510811E+02  0.90198510847E+02  0.25500000000E-02 0.  1.
         23    2    1    2    0    0  0.00000000000E+00  0.17763568394E-14 -0.66273693929E+02  0.11412332787E+03  0.92908188315E+02 0.  0.
    9000005    2    3    3    0    0  0.43405230205E+02 -0.12792515560E+02 -0.42276485175E+02  0.62902936501E+02  0.11037017634E+02 0.  0.
         22    1    3    3    0    0 -0.43405230205E+02  0.12792515560E+02 -0.23997208754E+02  0.51220391364E+02  0.00000000000E+00 0. -1.
         22    1    4    4    0    0  0.31735672118E+02 -0.41082890300E+01 -0.30116014930E+02  0.43943205149E+02  0.00000000000E+00 0. -1.
         22    1    4    4    0    0  0.11669558087E+02 -0.86842265297E+01 -0.12160470245E+02  0.18959731352E+02  0.00000000000E+00 0. -1.
<mgrwt>
<rscale>  0 0.92908188E+02</rscale>
<asrwt>0</asrwt>
<pdfrwt beam="2">  1        2 0.13876694E-01 0.92908188E+02</pdfrwt>
<pdfrwt beam="1">  1       -2 0.36807411E-02 0.92908188E+02</pdfrwt>
<totfact> 0.11289494E+05</totfact>
</mgrwt>
</event>
<event>
 7    1  0.3891761E-009  0.9006826E+02  0.7818608E-02  0.1302686E+00
         -2   -1    0    0    0  501 -0.00000000000E+00  0.00000000000E+00  0.86546084095E+02  0.86546084132E+02  0.25500000000E-02 0.  1.
          2   -1    0    0  501    0  0.00000000000E+00 -0.00000000000E+00 -0.23433446488E+02  0.23433446627E+02  0.25500000000E-02 0. -1.
         23    2    1    2    0    0 -0.88817841970E-15  0.71054273576E-14  0.63112637607E+02  0.10997953076E+03  0.90068263891E+02 0.  0.
    9000005    2    3    3    0    0 -0.66093584809E+01  0.41429465445E+02  0.17315522789E+02  0.47871077613E+02  0.15222631697E+02 0.  0.
         22    1    3    3    0    0  0.66093584809E+01 -0.41429465445E+02  0.45797114818E+02  0.62108453146E+02  0.00000000000E+00 0.  1.
         22    1    4    4    0    0  0.10425722855E+01  0.33826961089E+02  0.13180806360E+02  0.36319194784E+02  0.00000000000E+00 0. -1.
         22    1    4    4    0    0 -0.76519307664E+01  0.76025043559E+01  0.41347164291E+01  0.11551882829E+02  0.00000000000E+00 0. -1.
<mgrwt>
<rscale>  0 0.90068264E+02</rscale>
<asrwt>0</asrwt>
<pdfrwt beam="2">  1        2 0.36051456E-02 0.90068264E+02</pdfrwt>
<pdfrwt beam="1">  1       -2 0.13314782E-01 0.90068264E+02</pdfrwt>
<totfact> 0.85778233E+04</totfact>
</mgrwt>
</event>
<event>
 7    1  0.3891761E-009  0.9136771E+02  0.7818608E-02  0.1299573E+00
          2   -1    0    0  501    0  0.00000000000E+00  0.00000000000E+00  0.44364682116E+02  0.44364682189E+02  0.25500000000E-02 0. -1.
         -2   -1    0    0    0  501 -0.00000000000E+00 -0.00000000000E+00 -0.47042249995E+02  0.47042250064E+02  0.25500000000E-02 0.  1.
         23    2    1    2    0    0  0.00000000000E+00  0.00000000000E+00 -0.26775678792E+01  0.91406932254E+02  0.91367707065E+02 0.  0.
    9000005    2    3    3    0    0 -0.41617029572E+02 -0.10240339829E+02  0.11695423515E+02  0.46202678119E+02  0.12691052910E+02 0.  0.
         22    1    3    3    0    0  0.41617029572E+02  0.10240339829E+02 -0.14372991394E+02  0.45204254135E+02  0.00000000000E+00 0.  1.
         22    1    4    4    0    0 -0.22740987429E+02 -0.78627268999E+01  0.12589655474E+02  0.27156480046E+02  0.00000000000E+00 0. -1.
         22    1    4    4    0    0 -0.18876042143E+02 -0.23776129290E+01 -0.89423195897E+00  0.19046198073E+02  0.00000000000E+00 0. -1.
<mgrwt>
<rscale>  0 0.91367707E+02</rscale>
<asrwt>0</asrwt>
<pdfrwt beam="1">  1        2 0.68253357E-02 0.91367707E+02</pdfrwt>
<pdfrwt beam="2">  1       -2 0.72372692E-02 0.91367707E+02</pdfrwt>
<totfact> 0.97392593E+04</totfact>
</mgrwt>
</event>
<event>
 7    1  0.3891761E-009  0.8938688E+02  0.7818608E-02  0.1304343E+00
          2   -1    0    0  501    0  0.00000000000E+00  0.00000000000E+00  0.40708525913E+02  0.40708525992E+02  0.25500000000E-02 0. -1.
         -2   -1    0    0    0  501 -0.00000000000E+00 -0.00000000000E+00 -0.49068437809E+02  0.49068437875E+02  0.25500000000E-02 0.  1.
         23    2    1    2    0    0  0.00000000000E+00  0.00000000000E+00 -0.83599118961E+01  0.89776963867E+02  0.89386884465E+02 0.  0.
    9000005    2    3    3    0    0 -0.13595026853E+02 -0.18635968969E+02  0.33408623295E+02  0.42061823434E+02  0.10997126241E+02 0.  0.
         22    1    3    3    0    0  0.13595026853E+02  0.18635968969E+02 -0.41768535192E+02  0.47715140433E+02  0.00000000000E+00 0.  1.
         22    1    4    4    0    0 -0.72955183955E+01 -0.55495509794E+01  0.57464424806E+01  0.10818673944E+02  0.00000000000E+00 0. -1.
         22    1    4    4    0    0 -0.62995084576E+01 -0.13086417989E+02  0.27662180815E+02  0.31243149490E+02  0.00000000000E+00 0. -1.
<mgrwt>
<rscale>  0 0.89386884E+02</rscale>
<asrwt>0</asrwt>
<pdfrwt beam="1">  1        2 0.62628502E-02 0.89386884E+02</pdfrwt>
<pdfrwt beam="2">  1       -2 0.75489904E-02 0.89386884E+02</pdfrwt>
<totfact> 0.10146270E+05</totfact>
</mgrwt>
</event>
<event>
 7    1  0.3891761E-009  0.9594820E+02  0.7818608E-02  0.1289055E+00
         -2   -1    0    0    0  501 -0.00000000000E+00  0.00000000000E+00  0.12290970420E+02  0.12290970684E+02  0.25500000000E-02 0.  1.
          2   -1    0    0  501    0  0.00000000000E+00 -0.00000000000E+00 -0.18725242551E+03  0.18725242553E+03  0.25500000000E-02 0. -1.
         23    2    1    2    0    0 -0.17763568394E-14  0.00000000000E+00 -0.17496145509E+03  0.19954339621E+03  0.95948195421E+02 0.  0.
    9000005    2    3    3    0    0  0.14616853860E+02 -0.39357654713E+02 -0.13239582432E+03  0.13975618751E+03  0.15506780764E+02 0.  0.
         22    1    3    3    0    0 -0.14616853860E+02  0.39357654713E+02 -0.42565630777E+02  0.59787208705E+02  0.00000000000E+00 0. -1.
         22    1    4    4    0    0 -0.41041236055E+00 -0.14272747489E+02 -0.29306574157E+02  0.32599924049E+02  0.00000000000E+00 0.  1.
         22    1    4    4    0    0  0.15027266220E+02 -0.25084907224E+02 -0.10308925016E+03  0.10715626346E+03  0.00000000000E+00 0.  1.
<mgrwt>
<rscale>  0 0.95948195E+02</rscale>
<asrwt>0</asrwt>
<pdfrwt beam="2">  1        2 0.28808063E-01 0.95948195E+02</pdfrwt>
<pdfrwt beam="1">  1       -2 0.18909187E-02 0.95948195E+02</pdfrwt>
<totfact> 0.13157538E+05</totfact>
</mgrwt>
</event>
<event>
 7    1  0.3891761E-009  0.9009770E+02  0.7818608E-02  0.1302615E+00
          2   -1    0    0  501    0  0.00000000000E+00  0.00000000000E+00  0.19780359576E+03  0.19780359578E+03  0.25500000000E-02 0. -1.
         -2   -1    0    0    0  501 -0.00000000000E+00 -0.00000000000E+00 -0.10259666170E+02  0.10259666487E+02  0.25500000000E-02 0.  1.
         23    2    1    2    0    0  0.35527136788E-14  0.00000000000E+00  0.18754392959E+03  0.20806326226E+03  0.90097700180E+02 0.  0.
    9000005    2    3    3    0    0 -0.28031999040E+02  0.22691142680E+02  0.15489509091E+03  0.15941526546E+03  0.10957040934E+02 0.  0.
         22    1    3    3    0    0  0.28031999040E+02 -0.22691142680E+02  0.32648838681E+02  0.48647996809E+02  0.00000000000E+00 0.  1.
         22    1    4    4    0    0 -0.46938830407E+01  0.26224364000E+01  0.44014579640E+02  0.44341774114E+02  0.00000000000E+00 0. -1.
         22    1    4    4    0    0 -0.23338115999E+02  0.20068706280E+02  0.11088051127E+03  0.11507349134E+03  0.00000000000E+00 0. -1.
<mgrwt>
<rscale>  0 0.90097700E+02</rscale>
<asrwt>0</asrwt>
<pdfrwt beam="1">  1        2 0.30431322E-01 0.90097700E+02</pdfrwt>
<pdfrwt beam="2">  1       -2 0.15784102E-02 0.90097700E+02</pdfrwt>
<totfact> 0.15907719E+05</totfact>
</mgrwt>
</event>
<event>
 7    1  0.3891761E-009  0.9092544E+02  0.7818608E-02  0.1300626E+00
          2   -1    0    0  501    0  0.00000000000E+00  0.00000000000E+00  0.23398908438E+03  0.23398908440E+03  0.25500000000E-02 0. -1.
         -2   -1    0    0    0  501 -0.00000000000E+00 -0.00000000000E+00 -0.88331421666E+01  0.88331425346E+01  0.25500000000E-02 0.  1.
         23    2    1    2    0    0  0.00000000000E+00  0.00000000000E+00  0.22515594222E+03  0.24282222693E+03  0.90925439656E+02 0.  0.
    9000005    2    3    3    0    0 -0.51540536114E+00 -0.38525175695E+02  0.17643589762E+03  0.18070864106E+03  0.64445463631E+01 0.  0.
         22    1    3    3    0    0  0.51540536114E+00  0.38525175695E+02  0.48720044595E+02  0.62113585876E+02  0.00000000000E+00 0.  1.
         22    1    4    4    0    0 -0.22137940029E+01 -0.11326567760E+02  0.62719746212E+02  0.63772710355E+02  0.00000000000E+00 0.  1.
         22    1    4    4    0    0  0.16983886418E+01 -0.27198607935E+02  0.11371615141E+03  0.11693593070E+03  0.00000000000E+00 0.  1.
<mgrwt>
<rscale>  0 0.90925440E+02</rscale>
<asrwt>0</asrwt>
<pdfrwt beam="1">  1        2 0.35998318E-01 0.90925440E+02</pdfrwt>
<pdfrwt beam="2">  1       -2 0.13589451E-02 0.90925440E+02</pdfrwt>
<totfact> 0.16502539E+05</totfact>
</mgrwt>
</event>
<event>
 7    1  0.3891761E-009  0.9196159E+02  0.7818608E-02  0.1298170E+00
         -2   -1    0    0    0  501 -0.00000000000E+00  0.00000000000E+00  0.14335313021E+01  0.14335335701E+01  0.25500000000E-02 0.  1.
          2   -1    0    0  501    0  0.00000000000E+00 -0.00000000000E+00 -0.14748418849E+04  0.14748418849E+04  0.25500000000E-02 0. -1.
         23    2    1    2    0    0  0.00000000000E+00  0.00000000000E+00 -0.14734083536E+04  0.14762754185E+04  0.91961593795E+02 0.  0.
    9000005    2    3    3    0    0  0.11433693599E+02 -0.15974435611E+02 -0.14030469023E+04  0.14032230690E+04  0.10414375995E+02 0.  0.
         22    1    3    3    0    0 -0.11433693599E+02  0.15974435611E+02 -0.70361451286E+02  0.73052349514E+02  0.00000000000E+00 0.  1.
         22    1    4    4    0    0 -0.17481799307E+01 -0.40717479464E+01 -0.31659358704E+03  0.31662459573E+03  0.00000000000E+00 0. -1.
         22    1    4    4    0    0  0.13181873530E+02 -0.11902687665E+02 -0.10864533153E+04  0.10865984732E+04  0.00000000000E+00 0. -1.
<mgrwt>
<rscale>  0 0.91961594E+02</rscale>
<asrwt>0</asrwt>
<pdfrwt beam="2">  1        2 0.22689754E+00 0.91961594E+02</pdfrwt>
<pdfrwt beam="1">  1       -2 0.22054463E-03 0.91961594E+02</pdfrwt>
<totfact> 0.23212940E+05</totfact>
</mgrwt>
</event>
<event>
 7    1  0.3891761E-009  0.9019610E+02  0.7818608E-02  0.1302378E+00
          2   -1    0    0  501    0  0.00000000000E+00  0.00000000000E+00  0.32678518122E+02  0.32678518221E+02  0.25500000000E-02 0. -1.
         -2   -1    0    0    0  501 -0.00000000000E+00 -0.00000000000E+00 -0.62237650218E+02  0.62237650271E+02  0.25500000000E-02 0.  1.
         23    2    1    2    0    0  0.35527136788E-14 -0.17763568394E-14 -0.29559132097E+02  0.94916168492E+02  0.90196101639E+02 0.  0.
    9000005    2    3    3    0    0  0.28303109814E+02 -0.13595872316E+02  0.17437978921E+02  0.38395002428E+02  0.13571268673E+02 0.  0.
         22    1    3    3    0    0 -0.28303109814E+02  0.13595872316E+02 -0.46997111018E+02  0.56521166064E+02  0.00000000000E+00 0.  1.
         22    1    4    4    0    0  0.17765942485E+02 -0.19864061365E+01  0.12990128672E+02  0.22097917653E+02  0.00000000000E+00 0.  1.
         22    1    4    4    0    0  0.10537167329E+02 -0.11609466180E+02  0.44478502492E+01  0.16297084774E+02  0.00000000000E+00 0.  1.
<mgrwt>
<rscale>  0 0.90196102E+02</rscale>
<asrwt>0</asrwt>
<pdfrwt beam="1">  1        2 0.50274643E-02 0.90196102E+02</pdfrwt>
<pdfrwt beam="2">  1       -2 0.95750232E-02 0.90196102E+02</pdfrwt>
<totfact> 0.93417322E+04</totfact>
</mgrwt>
</event>
<event>
 7    1  0.3891761E-009  0.9027486E+02  0.7818608E-02  0.1302187E+00
          2   -1    0    0  501    0  0.00000000000E+00  0.00000000000E+00  0.39490855385E+03  0.39490855386E+03  0.25500000000E-02 0. -1.
         -2   -1    0    0    0  501 -0.00000000000E+00 -0.00000000000E+00 -0.51591375546E+01  0.51591381848E+01  0.25500000000E-02 0.  1.
         23    2    1    2    0    0  0.00000000000E+00  0.00000000000E+00  0.38974941630E+03  0.40006769205E+03  0.90274862028E+02 0.  0.
    9000005    2    3    3    0    0  0.97574014500E+01  0.69879300073E+01  0.38761507858E+03  0.38787780089E+03  0.77266575058E+01 0.  0.
         22    1    3    3    0    0 -0.97574014500E+01 -0.69879300073E+01  0.21343377223E+01  0.12189891154E+02  0.00000000000E+00 0.  1.
         22    1    4    4    0    0  0.95869269227E+01  0.78596317604E+01  0.38119996326E+03  0.38140148789E+03  0.00000000000E+00 0. -1.
         22    1    4    4    0    0  0.17047452730E+00 -0.87170175310E+00  0.64151153182E+01  0.64763129986E+01  0.00000000000E+00 0. -1.
<mgrwt>
<rscale>  0 0.90274862E+02</rscale>
<asrwt>0</asrwt>
<pdfrwt beam="1">  1        2 0.60755187E-01 0.90274862E+02</pdfrwt>
<pdfrwt beam="2">  1       -2 0.79371319E-03 0.90274862E+02</pdfrwt>
<totfact> 0.20402199E+05</totfact>
</mgrwt>
</event>
<event>
 7    1  0.3891761E-009  0.9314305E+02  0.7818608E-02  0.1295414E+00
         -2   -1    0    0    0  501 -0.00000000000E+00  0.00000000000E+00  0.42154943567E+01  0.42154951279E+01  0.25500000000E-02 0. -1.
          2   -1    0    0  501    0  0.00000000000E+00 -0.00000000000E+00 -0.51450826997E+03  0.51450826997E+03  0.25500000000E-02 0.  1.
         23    2    1    2    0    0  0.35527136788E-14 -0.44408920985E-15 -0.51029277561E+03  0.51872376510E+03  0.93143049342E+02 0.  0.
    9000005    2    3    3    0    0  0.23434777640E+02  0.21530839499E+01 -0.47826587001E+03  0.47898024669E+03  0.11402180846E+02 0.  0.
         22    1    3    3    0    0 -0.23434777640E+02 -0.21530839499E+01 -0.32026905602E+02  0.39743518415E+02  0.00000000000E+00 0. -1.
         22    1    4    4    0    0  0.52507857373E+01 -0.11774683324E+01 -0.45070989043E+02  0.45391092032E+02  0.00000000000E+00 0.  1.
         22    1    4    4    0    0  0.18183991902E+02  0.33305522823E+01 -0.43319488096E+03  0.43358915465E+03  0.00000000000E+00 0.  1.
<mgrwt>
<rscale>  0 0.93143049E+02</rscale>
<asrwt>0</asrwt>
<pdfrwt beam="2">  1        2 0.79155069E-01 0.93143049E+02</pdfrwt>
<pdfrwt beam="1">  1       -2 0.64853806E-03 0.93143049E+02</pdfrwt>
<totfact> 0.20553786E+05</totfact>
</mgrwt>
</event>
<event>
 7    1  0.3891761E-009  0.8668205E+02  0.7818608E-02  0.1311091E+00
         -2   -1    0    0    0  501 -0.00000000000E+00  0.00000000000E+00  0.54525619992E+02  0.54525620051E+02  0.25500000000E-02 0. -1.
          2   -1    0    0  501    0  0.00000000000E+00 -0.00000000000E+00 -0.34450673985E+02  0.34450674079E+02  0.25500000000E-02 0.  1.
         23    2    1    2    0    0  0.00000000000E+00 -0.35527136788E-14  0.20074946007E+02  0.88976294130E+02  0.86682048084E+02 0.  0.
    9000005    2    3    3    0    0 -0.13099483721E+02 -0.17959251432E+02 -0.27531799307E+02  0.36435515823E+02  0.86842187049E+01 0.  0.
         22    1    3    3    0    0  0.13099483721E+02  0.17959251432E+02  0.47606745314E+02  0.52540778307E+02  0.00000000000E+00 0. -1.
         22    1    4    4    0    0 -0.10181802626E+02 -0.17024597542E+02 -0.19403139105E+02  0.27748654621E+02  0.00000000000E+00 0.  1.
         22    1    4    4    0    0 -0.29176810943E+01 -0.93465388995E+00 -0.81286602020E+01  0.86868612019E+01  0.00000000000E+00 0.  1.
<mgrwt>
<rscale>  0 0.86682048E+02</rscale>
<asrwt>0</asrwt>
<pdfrwt beam="2">  1        2 0.53001037E-02 0.86682048E+02</pdfrwt>
<pdfrwt beam="1">  1       -2 0.83885569E-02 0.86682048E+02</pdfrwt>
<totfact> 0.10631088E+05</totfact>
</mgrwt>
</event>
<event>
 7    1  0.3891761E-009  0.8437269E+02  0.7818608E-02  0.1317081E+00
          2   -1    0    0  501    0  0.00000000000E+00  0.00000000000E+00  0.24716250760E+02  0.24716250892E+02  0.25500000000E-02 0. -1.
         -2   -1    0    0    0  501 -0.00000000000E+00 -0.00000000000E+00 -0.72004758641E+02  0.72004758686E+02  0.25500000000E-02 0.  1.
         23    2    1    2    0    0  0.00000000000E+00  0.00000000000E+00 -0.47288507880E+02  0.96721009578E+02  0.84372689397E+02 0.  0.
    9000005    2    3    3    0    0 -0.12281358746E+02 -0.35782918166E+02 -0.39032496665E+01  0.39157743206E+02  0.93190391070E+01 0.  0.
         22    1    3    3    0    0  0.12281358746E+02  0.35782918166E+02 -0.43385258214E+02  0.57563266372E+02  0.00000000000E+00 0.  1.
         22    1    4    4    0    0 -0.65398432366E+01 -0.71192730625E+01 -0.14096547674E-01  0.96671504183E+01  0.00000000000E+00 0. -1.
         22    1    4    4    0    0 -0.57415155090E+01 -0.28663645104E+02 -0.38891531189E+01  0.29490592787E+02  0.00000000000E+00 0. -1.
<mgrwt>
<rscale>  0 0.84372689E+02</rscale>
<asrwt>0</asrwt>
<pdfrwt beam="1">  1        2 0.38025002E-02 0.84372689E+02</pdfrwt>
<pdfrwt beam="2">  1       -2 0.11077655E-01 0.84372689E+02</pdfrwt>
<totfact> 0.10581685E+05</totfact>
</mgrwt>
</event>
<event>
 7    1  0.3891761E-009  0.9208014E+02  0.7818608E-02  0.1297891E+00
          2   -1    0    0  501    0  0.00000000000E+00  0.00000000000E+00  0.10465594632E+03  0.10465594635E+03  0.25500000000E-02 0.  1.
         -2   -1    0    0    0  501 -0.00000000000E+00 -0.00000000000E+00 -0.20253871781E+02  0.20253871942E+02  0.25500000000E-02 0. -1.
         23    2    1    2    0    0  0.00000000000E+00 -0.35527136788E-14  0.84402074538E+02  0.12490981829E+03  0.92080141830E+02 0.  0.
    9000005    2    3    3    0    0 -0.32297506343E+02 -0.28552133085E+02  0.26152279302E+02  0.52443330418E+02  0.14422481513E+02 0.  0.
         22    1    3    3    0    0  0.32297506343E+02  0.28552133085E+02  0.58249795236E+02  0.72466487873E+02  0.00000000000E+00 0.  1.
         22    1    4    4    0    0  0.49060857754E+00 -0.15010918166E+01  0.44397984637E+01  0.47123013291E+01  0.00000000000E+00 0. -1.
         22    1    4    4    0    0 -0.32788114921E+02 -0.27051041269E+02  0.21712480838E+02  0.47731029089E+02  0.00000000000E+00 0. -1.
<mgrwt>
<rscale>  0 0.92080142E+02</rscale>
<asrwt>0</asrwt>
<pdfrwt beam="1">  1        2 0.16100915E-01 0.92080142E+02</pdfrwt>
<pdfrwt beam="2">  1       -2 0.31159803E-02 0.92080142E+02</pdfrwt>
<totfact> 0.12106872E+05</totfact>
</mgrwt>
</event>
<event>
 7    1  0.3891761E-009  0.9012151E+02  0.7818608E-02  0.1302558E+00
          2   -1    0    0  501    0  0.00000000000E+00  0.00000000000E+00  0.61053314389E+03  0.61053314390E+03  0.25500000000E-02 0. -1.
         -2   -1    0    0    0  501 -0.00000000000E+00 -0.00000000000E+00 -0.33257347665E+01  0.33257357441E+01  0.25500000000E-02 0.  1.
         23    2    1    2    0    0  0.00000000000E+00  0.35527136788E-14  0.60720740913E+03  0.61385887964E+03  0.90121509185E+02 0.  0.
    9000005    2    3    3    0    0 -0.59231255845E+01 -0.22561900765E+02  0.56520590137E+03  0.56581463507E+03  0.12015304068E+02 0.  0.
         22    1    3    3    0    0  0.59231255845E+01  0.22561900765E+02  0.42001507756E+02  0.48044244573E+02  0.00000000000E+00 0.  1.
         22    1    4    4    0    0 -0.86091274409E+01 -0.18006731478E+02  0.37075238799E+03  0.37128923045E+03  0.00000000000E+00 0.  1.
         22    1    4    4    0    0  0.26860018563E+01 -0.45551692873E+01  0.19445351338E+03  0.19452540462E+03  0.00000000000E+00 0.  1.
<mgrwt>
<rscale>  0 0.90121509E+02</rscale>
<asrwt>0</asrwt>
<pdfrwt beam="1">  1        2 0.93928109E-01 0.90121509E+02</pdfrwt>
<pdfrwt beam="2">  1       -2 0.51165194E-03 0.90121509E+02</pdfrwt>
<totfact> 0.23610910E+05</totfact>
</mgrwt>
</event>
<event>
 7    1  0.3891761E-009  0.9167505E+02  0.7818608E-02  0.1298845E+00
         -2   -1    0    0    0  501 -0.00000000000E+00  0.00000000000E+00  0.43242100503E+03  0.43242100504E+03  0.25500000000E-02 0. -1.
          2   -1    0    0  501    0  0.00000000000E+00 -0.00000000000E+00 -0.48588723344E+01  0.48588730036E+01  0.25500000000E-02 0.  1.
         23    2    1    2    0    0  0.00000000000E+00  0.00000000000E+00  0.42756213269E+03  0.43727987804E+03  0.91675047992E+02 0.  0.
    9000005    2    3    3    0    0  0.24492946786E+02 -0.13061459263E+02  0.38710574548E+03  0.38821639440E+03  0.95186415905E+01 0.  0.
         22    1    3    3    0    0 -0.24492946786E+02  0.13061459263E+02  0.40456387214E+02  0.49063483639E+02  0.00000000000E+00 0.  1.
         22    1    4    4    0    0  0.53385915320E+01 -0.65960121437E+01  0.15491357926E+03  0.15514581843E+03  0.00000000000E+00 0. -1.
         22    1    4    4    0    0  0.19154355254E+02 -0.64654471194E+01  0.23219216622E+03  0.23307057597E+03  0.00000000000E+00 0. -1.
<mgrwt>
<rscale>  0 0.91675048E+02</rscale>
<asrwt>0</asrwt>
<pdfrwt beam="2">  1        2 0.74751884E-03 0.91675048E+02</pdfrwt>
<pdfrwt beam="1">  1       -2 0.66526311E-01 0.91675048E+02</pdfrwt>
<totfact> 0.39879688E+04</totfact>
</mgrwt>
</event>
<event>
 7    1  0.3891761E-009  0.8985416E+02  0.7818608E-02  0.1303205E+00
          2   -1    0    0  501    0  0.00000000000E+00  0.00000000000E+00  0.43836556040E+02  0.43836556114E+02  0.25500000000E-02 0.  1.
         -2   -1    0    0    0  501 -0.00000000000E+00 -0.00000000000E+00 -0.46044729522E+02  0.46044729592E+02  0.25500000000E-02 0. -1.
         23    2    1    2    0    0  0.00000000000E+00  0.00000000000E+00 -0.22081734816E+01  0.89881285707E+02  0.89854156777E+02 0.  0.
    9000005    2    3    3    0    0 -0.37888881969E+02  0.19482342934E+02  0.13116905799E+02  0.44604502274E+02  0.15425116877E+01 0.  0.
         22    1    3    3    0    0  0.37888881969E+02 -0.19482342934E+02 -0.15325079281E+02  0.45276783433E+02  0.00000000000E+00 0. -1.
         22    1    4    4    0    0 -0.91991379373E+01  0.40485094969E+01  0.33518179404E+01  0.10594774724E+02  0.00000000000E+00 0.  1.
         22    1    4    4    0    0 -0.28689744031E+02  0.15433833438E+02  0.97650878590E+01  0.34009727550E+02  0.00000000000E+00 0.  1.
<mgrwt>
<rscale>  0 0.89854157E+02</rscale>
<asrwt>0</asrwt>
<pdfrwt beam="1">  1        2 0.67440856E-02 0.89854157E+02</pdfrwt>
<pdfrwt beam="2">  1       -2 0.70838045E-02 0.89854157E+02</pdfrwt>
<totfact> 0.10186213E+05</totfact>
</mgrwt>
</event>
<event>
 7    1  0.3891761E-009  0.9354179E+02  0.7818608E-02  0.1294495E+00
         -2   -1    0    0    0  501 -0.00000000000E+00  0.00000000000E+00  0.20272351484E+01  0.20272367522E+01  0.25500000000E-02 0.  1.
          2   -1    0    0  501    0  0.00000000000E+00 -0.00000000000E+00 -0.10790636851E+04  0.10790636851E+04  0.25500000000E-02 0. -1.
         23    2    1    2    0    0 -0.35527136788E-14  0.22204460493E-15 -0.10770364499E+04  0.10810909218E+04  0.93541791693E+02 0.  0.
    9000005    2    3    3    0    0  0.21697661306E+02  0.11046535350E+01 -0.10152456634E+04  0.10155919901E+04  0.15209353104E+02 0.  0.
         22    1    3    3    0    0 -0.21697661306E+02 -0.11046535350E+01 -0.61790786513E+02  0.65498931774E+02  0.00000000000E+00 0.  1.
         22    1    4    4    0    0  0.83729312067E+01 -0.27490901915E+01 -0.16655532224E+03  0.16678830547E+03  0.00000000000E+00 0.  1.
         22    1    4    4    0    0  0.13324730099E+02  0.38537437265E+01 -0.84869034117E+03  0.84880368459E+03  0.00000000000E+00 0.  1.
<mgrwt>
<rscale>  0 0.93541792E+02</rscale>
<asrwt>0</asrwt>
<pdfrwt beam="2">  1        2 0.16600934E+00 0.93541792E+02</pdfrwt>
<pdfrwt beam="1">  1       -2 0.31188332E-03 0.93541792E+02</pdfrwt>
<totfact> 0.23396212E+05</totfact>
</mgrwt>
</event>
<event>
 7    1  0.3891761E-009  0.9298076E+02  0.7818608E-02  0.1295790E+00
         -2   -1    0    0    0  501 -0.00000000000E+00  0.00000000000E+00  0.50764453156E+01  0.50764459561E+01  0.25500000000E-02 0.  1.
          2   -1    0    0  501    0  0.00000000000E+00 -0.00000000000E+00 -0.42576153903E+03  0.42576153903E+03  0.25500000000E-02 0. -1.
         23    2    1    2    0    0  0.00000000000E+00  0.00000000000E+00 -0.42068509371E+03  0.43083798499E+03  0.92980757363E+02 0.  0.
    9000005    2    3    3    0    0  0.94894631860E+01  0.38006045755E+02 -0.32340136155E+03  0.32596361267E+03  0.11372190202E+02 0.  0.
         22    1    3    3    0    0 -0.94894631860E+01 -0.38006045755E+02 -0.97283732164E+02  0.10487437232E+03  0.00000000000E+00 0.  1.
         22    1    4    4    0    0  0.12201112072E+01 -0.55447946399E+00 -0.92693588621E+01  0.93657424985E+01  0.00000000000E+00 0. -1.
         22    1    4    4    0    0  0.82693519788E+01  0.38560525219E+02 -0.31413200268E+03  0.31659787017E+03  0.00000000000E+00 0. -1.
<mgrwt>
<rscale>  0 0.92980757E+02</rscale>
<asrwt>0</asrwt>
<pdfrwt beam="2">  1        2 0.65501747E-01 0.92980757E+02</pdfrwt>
<pdfrwt beam="1">  1       -2 0.78099198E-03 0.92980757E+02</pdfrwt>
<totfact> 0.19373535E+05</totfact>
</mgrwt>
</event>
<event>
 7    1  0.3973104E-009  0.9075637E+02  0.7818608E-02  0.1301030E+00
         -2   -1    0    0    0  501 -0.00000000000E+00  0.00000000000E+00  0.82278021934E+02  0.82278021974E+02  0.25500000000E-02 0.  1.
          2   -1    0    0  501    0  0.00000000000E+00 -0.00000000000E+00 -0.25027094180E+02  0.25027094310E+02  0.25500000000E-02 0. -1.
         23    2    1    2    0    0  0.00000000000E+00  0.00000000000E+00  0.57250927754E+02  0.10730511628E+03  0.90756373065E+02 0.  0.
    9000005    2    3    3    0    0 -0.19843666528E+02 -0.34962178881E+01  0.75814157420E+02  0.79908252660E+02  0.15216692711E+02 0.  0.
         22    1    3    3    0    0  0.19843666528E+02  0.34962178881E+01 -0.18563229666E+02  0.27396863624E+02  0.00000000000E+00 0. -1.
         22    1    4    4    0    0 -0.27892191337E+01  0.18938656928E+00  0.39717597187E+02  0.39815865393E+02  0.00000000000E+00 0.  1.
         22    1    4    4    0    0 -0.17054447394E+02 -0.36856044573E+01  0.36096560232E+02  0.40092387267E+02  0.00000000000E+00 0.  1.
<mgrwt>
<rscale>  0 0.90756373E+02</rscale>
<asrwt>0</asrwt>
<pdfrwt beam="2">  1        2 0.38503221E-02 0.90756373E+02</pdfrwt>
<pdfrwt beam="1">  1       -2 0.12658157E-01 0.90756373E+02</pdfrwt>
<totfact> 0.85384470E+04</totfact>
</mgrwt>
</event>
<event>
 7    1  0.3891761E-009  0.8957668E+02  0.7818608E-02  0.1303880E+00
          2   -1    0    0  501    0  0.00000000000E+00  0.00000000000E+00  0.16080454262E+03  0.16080454264E+03  0.25500000000E-02 0. -1.
         -2   -1    0    0    0  501 -0.00000000000E+00 -0.00000000000E+00 -0.12474744291E+02  0.12474744552E+02  0.25500000000E-02 0.  1.
         23    2    1    2    0    0  0.00000000000E+00  0.00000000000E+00  0.14832979833E+03  0.17327928719E+03  0.89576683895E+02 0.  0.
    9000005    2    3    3    0    0  0.12127361950E+02  0.39092523318E+02  0.44297000657E+02  0.61484290530E+02  0.11949704079E+02 0.  0.
         22    1    3    3    0    0 -0.12127361950E+02 -0.39092523318E+02  0.10403279767E+03  0.11179499666E+03  0.00000000000E+00 0. -1.
         22    1    4    4    0    0  0.29200518394E+01  0.54981445259E+01  0.16904372202E+01  0.64508816427E+01  0.00000000000E+00 0. -1.
         22    1    4    4    0    0  0.92073101106E+01  0.33594378792E+02  0.42606563437E+02  0.55033408888E+02  0.00000000000E+00 0. -1.
<mgrwt>
<rscale>  0 0.89576684E+02</rscale>
<asrwt>0</asrwt>
<pdfrwt beam="1">  1        2 0.24739159E-01 0.89576684E+02</pdfrwt>
<pdfrwt beam="2">  1       -2 0.19191916E-02 0.89576684E+02</pdfrwt>
<totfact> 0.15020432E+05</totfact>
</mgrwt>
</event>
<event>
 7    1  0.3891761E-009  0.1017790E+03  0.7818608E-02  0.1276599E+00
          2   -1    0    0  501    0  0.00000000000E+00  0.00000000000E+00  0.61625422870E+02  0.61625422923E+02  0.25500000000E-02 0. -1.
         -2   -1    0    0    0  501 -0.00000000000E+00 -0.00000000000E+00 -0.42023933166E+02  0.42023933244E+02  0.25500000000E-02 0.  1.
         23    2    1    2    0    0  0.00000000000E+00  0.00000000000E+00  0.19601489703E+02  0.10364935617E+03  0.10177902846E+03 0.  0.
    9000005    2    3    3    0    0 -0.33290820903E+02 -0.21325125480E+02 -0.22787819759E+02  0.45684769652E+02  0.21848834495E+01 0.  0.
         22    1    3    3    0    0  0.33290820903E+02  0.21325125480E+02  0.42389309463E+02  0.57964586515E+02  0.00000000000E+00 0. -1.
         22    1    4    4    0    0 -0.26908174325E+02 -0.18218434323E+02 -0.18854164728E+02  0.37569145882E+02  0.00000000000E+00 0. -1.
         22    1    4    4    0    0 -0.63826465773E+01 -0.31066911563E+01 -0.39336550311E+01  0.81156237699E+01  0.00000000000E+00 0. -1.
<mgrwt>
<rscale>  0 0.10177903E+03</rscale>
<asrwt>0</asrwt>
<pdfrwt beam="1">  1        2 0.94808343E-02 0.10177903E+03</pdfrwt>
<pdfrwt beam="2">  1       -2 0.64652205E-02 0.10177903E+03</pdfrwt>
<totfact> 0.78109566E+04</totfact>
</mgrwt>
</event>
<event>
 7    1  0.3891761E-009  0.9204799E+02  0.7818608E-02  0.1297967E+00
          2   -1    0    0  501    0  0.00000000000E+00  0.00000000000E+00  0.92891405110E+01  0.92891408610E+01  0.25500000000E-02 0.  1.
         -2   -1    0    0    0  501 -0.00000000000E+00 -0.00000000000E+00 -0.22803056030E+03  0.22803056032E+03  0.25500000000E-02 0. -1.
         23    2    1    2    0    0  0.88817841970E-15  0.00000000000E+00 -0.21874141979E+03  0.23731970118E+03  0.92047986587E+02 0.  0.
    9000005    2    3    3    0    0 -0.79408932172E+01  0.44188252622E+02 -0.11876255589E+03  0.12772301928E+03  0.13891202927E+02 0.  0.
         22    1    3    3    0    0  0.79408932172E+01 -0.44188252622E+02 -0.99978863906E+02  0.10959668190E+03  0.00000000000E+00 0.  1.
         22    1    4    4    0    0 -0.11917362559E+02  0.30642704318E+02 -0.82876337091E+02  0.89159890690E+02  0.00000000000E+00 0. -1.
         22    1    4    4    0    0  0.39764693421E+01  0.13545548305E+02 -0.35886218794E+02  0.38563128590E+02  0.00000000000E+00 0. -1.
<mgrwt>
<rscale>  0 0.92047987E+02</rscale>
<asrwt>0</asrwt>
<pdfrwt beam="1">  1        2 0.14290987E-02 0.92047987E+02</pdfrwt>
<pdfrwt beam="2">  1       -2 0.35081620E-01 0.92047987E+02</pdfrwt>
<totfact> 0.57322442E+04</totfact>
</mgrwt>
</event>
<event>
 7    1  0.3891761E-009  0.1136866E+03  0.7818608E-02  0.1253891E+00
         -2   -1    0    0    0  501 -0.00000000000E+00  0.00000000000E+00  0.14980082883E+03  0.14980082885E+03  0.25500000000E-02 0.  1.
          2   -1    0    0  501    0  0.00000000000E+00 -0.00000000000E+00 -0.21569699514E+02  0.21569699665E+02  0.25500000000E-02 0. -1.
         23    2    1    2    0    0  0.00000000000E+00  0.00000000000E+00  0.12823112932E+03  0.17137052852E+03  0.11368656701E+03 0.  0.
    9000005    2    3    3    0    0  0.25614748944E+02  0.50495378912E+02  0.60285560985E+02  0.82925636575E+02  0.60343751225E+01 0.  0.
         22    1    3    3    0    0 -0.25614748944E+02 -0.50495378912E+02  0.67945568334E+02  0.88444891945E+02  0.00000000000E+00 0.  1.
         22    1    4    4    0    0  0.23109983764E+02  0.40541144291E+02  0.50046648231E+02  0.68427499802E+02  0.00000000000E+00 0. -1.
         22    1    4    4    0    0  0.25047651800E+01  0.99542346209E+01  0.10238912754E+02  0.14498136773E+02  0.00000000000E+00 0. -1.
<mgrwt>
<rscale>  0 0.11368657E+03</rscale>
<asrwt>0</asrwt>
<pdfrwt beam="2">  1        2 0.33184154E-02 0.11368657E+03</pdfrwt>
<pdfrwt beam="1">  1       -2 0.23046281E-01 0.11368657E+03</pdfrwt>
<totfact> 0.39973657E+04</totfact>
</mgrwt>
</event>
<event>
 7    1  0.3891761E-009  0.9627589E+02  0.7818608E-02  0.1288328E+00
         -2   -1    0    0    0  501 -0.00000000000E+00  0.00000000000E+00  0.81949362600E+01  0.81949366568E+01  0.25500000000E-02 0.  1.
          2   -1    0    0  501    0  0.00000000000E+00 -0.00000000000E+00 -0.28276752685E+03  0.28276752686E+03  0.25500000000E-02 0. -1.
         23    2    1    2    0    0  0.00000000000E+00  0.00000000000E+00 -0.27457259059E+03  0.29096246352E+03  0.96275893521E+02 0.  0.
    9000005    2    3    3    0    0 -0.77409590760E+01 -0.41050330679E+02 -0.68785960293E+02  0.80978680085E+02  0.89992332157E+01 0.  0.
         22    1    3    3    0    0  0.77409590760E+01  0.41050330679E+02 -0.20578663029E+03  0.20998378343E+03  0.00000000000E+00 0. -1.
         22    1    4    4    0    0  0.12497182100E+01 -0.16539374917E+02 -0.28396577529E+02  0.32885837888E+02  0.00000000000E+00 0.  1.
         22    1    4    4    0    0 -0.89906772860E+01 -0.24510955763E+02 -0.40389382765E+02  0.48092842197E+02  0.00000000000E+00 0.  1.
<mgrwt>
<rscale>  0 0.96275894E+02</rscale>
<asrwt>0</asrwt>
<pdfrwt beam="2">  1        2 0.43502689E-01 0.96275894E+02</pdfrwt>
<pdfrwt beam="1">  1       -2 0.12607597E-02 0.96275894E+02</pdfrwt>
<totfact> 0.15188520E+05</totfact>
</mgrwt>
</event>
<event>
 7    1  0.3891761E-009  0.7884143E+02  0.7818608E-02  0.1332372E+00
         -2   -1    0    0    0  501 -0.00000000000E+00  0.00000000000E+00  0.38720942972E+03  0.38720942973E+03  0.25500000000E-02 0.  1.
          2   -1    0    0  501    0  0.00000000000E+00 -0.00000000000E+00 -0.40133128688E+01  0.40133136789E+01  0.25500000000E-02 0. -1.
         23    2    1    2    0    0  0.35527136788E-14 -0.35527136788E-14  0.38319611685E+03  0.39122274341E+03  0.78841429397E+02 0.  0.
    9000005    2    3    3    0    0 -0.31400012305E+02  0.21824090386E+02  0.16248085165E+03  0.16721943989E+03  0.10003111028E+02 0.  0.
         22    1    3    3    0    0  0.31400012305E+02 -0.21824090386E+02  0.22071526521E+03  0.22400330352E+03  0.00000000000E+00 0.  1.
         22    1    4    4    0    0 -0.23155447635E+02  0.13810531232E+02  0.12992783360E+03  0.13269569500E+03  0.00000000000E+00 0. -1.
         22    1    4    4    0    0 -0.82445646701E+01  0.80135591538E+01  0.32553018048E+02  0.34523744886E+02  0.00000000000E+00 0. -1.
<mgrwt>
<rscale>  0 0.78841429E+02</rscale>
<asrwt>0</asrwt>
<pdfrwt beam="2">  1        2 0.61743291E-03 0.78841429E+02</pdfrwt>
<pdfrwt beam="1">  1       -2 0.59570672E-01 0.78841429E+02</pdfrwt>
<totfact> 0.63411379E+04</totfact>
</mgrwt>
</event>
<event>
 7    1  0.3891761E-009  0.9092331E+02  0.7818608E-02  0.1300631E+00
         -2   -1    0    0    0  501 -0.00000000000E+00  0.00000000000E+00  0.24602709970E+03  0.24602709971E+03  0.25500000000E-02 0. -1.
          2   -1    0    0  501    0  0.00000000000E+00 -0.00000000000E+00 -0.84005465898E+01  0.84005469768E+01  0.25500000000E-02 0.  1.
         23    2    1    2    0    0  0.00000000000E+00  0.00000000000E+00  0.23762655311E+03  0.25442764669E+03  0.90923311957E+02 0.  0.
    9000005    2    3    3    0    0  0.38749051639E+02  0.18686220268E+02  0.86990822591E+02  0.97769461012E+02  0.11865936990E+02 0.  0.
         22    1    3    3    0    0 -0.38749051639E+02 -0.18686220268E+02  0.15063573052E+03  0.15665818568E+03  0.00000000000E+00 0.  1.
         22    1    4    4    0    0  0.30621258223E+02  0.16860158045E+02  0.59128589256E+02  0.68688546730E+02  0.00000000000E+00 0. -1.
         22    1    4    4    0    0  0.81277934164E+01  0.18260622230E+01  0.27862233335E+02  0.29080914282E+02  0.00000000000E+00 0. -1.
<mgrwt>
<rscale>  0 0.90923312E+02</rscale>
<asrwt>0</asrwt>
<pdfrwt beam="2">  1        2 0.12923919E-02 0.90923312E+02</pdfrwt>
<pdfrwt beam="1">  1       -2 0.37850320E-01 0.90923312E+02</pdfrwt>
<totfact> 0.57031602E+04</totfact>
</mgrwt>
</event>
<event>
 7    1  0.3891761E-009  0.9482187E+02  0.7818608E-02  0.1291578E+00
          2   -1    0    0  501    0  0.00000000000E+00  0.00000000000E+00  0.11567590551E+02  0.11567590832E+02  0.25500000000E-02 0. -1.
         -2   -1    0    0    0  501 -0.00000000000E+00 -0.00000000000E+00 -0.19431848122E+03  0.19431848123E+03  0.25500000000E-02 0.  1.
         23    2    1    2    0    0  0.00000000000E+00  0.00000000000E+00 -0.18275089066E+03  0.20588607206E+03  0.94821867895E+02 0.  0.
    9000005    2    3    3    0    0  0.39210041380E+02  0.24476074800E+02 -0.80631096747E+02  0.93792549091E+02  0.12615978746E+02 0.  0.
         22    1    3    3    0    0 -0.39210041380E+02 -0.24476074800E+02 -0.10211979392E+03  0.11209352297E+03  0.00000000000E+00 0.  1.
         22    1    4    4    0    0  0.36433277380E+02  0.23994262978E+02 -0.79639280757E+02  0.90804864385E+02  0.00000000000E+00 0.  1.
         22    1    4    4    0    0  0.27767639998E+01  0.48181182224E+00 -0.99181598974E+00  0.29876847056E+01  0.00000000000E+00 0.  1.
<mgrwt>
<rscale>  0 0.94821868E+02</rscale>
<asrwt>0</asrwt>
<pdfrwt beam="1">  1        2 0.17796295E-02 0.94821868E+02</pdfrwt>
<pdfrwt beam="2">  1       -2 0.29895149E-01 0.94821868E+02</pdfrwt>
<totfact> 0.57081978E+04</totfact>
</mgrwt>
</event>
<event>
 7    1  0.3891761E-009  0.8842233E+02  0.7818608E-02  0.1306718E+00
         -2   -1    0    0    0  501 -0.00000000000E+00  0.00000000000E+00  0.54467581500E+02  0.54467581560E+02  0.25500000000E-02 0.  1.
          2   -1    0    0  501    0  0.00000000000E+00 -0.00000000000E+00 -0.35886066187E+02  0.35886066278E+02  0.25500000000E-02 0. -1.
         23    2    1    2    0    0 -0.71054273576E-14  0.00000000000E+00  0.18581515313E+02  0.90353647838E+02  0.88422332961E+02 0.  0.
    9000005    2    3    3    0    0 -0.42630542227E+02  0.97120291928E+01  0.86287324916E+01  0.45512321725E+02  0.92319966832E+01 0.  0.
         22    1    3    3    0    0  0.42630542227E+02 -0.97120291928E+01  0.99527828213E+01  0.44841326113E+02  0.00000000000E+00 0. -1.
         22    1    4    4    0    0 -0.35080680106E+02  0.84905356925E+01  0.34118332804E+01  0.36254433099E+02  0.00000000000E+00 0.  1.
         22    1    4    4    0    0 -0.75498621219E+01  0.12214935002E+01  0.52168992112E+01  0.92578886260E+01  0.00000000000E+00 0.  1.
<mgrwt>
<rscale>  0 0.88422333E+02</rscale>
<asrwt>0</asrwt>
<pdfrwt beam="2">  1        2 0.55209333E-02 0.88422333E+02</pdfrwt>
<pdfrwt beam="1">  1       -2 0.83796280E-02 0.88422333E+02</pdfrwt>
<totfact> 0.10139630E+05</totfact>
</mgrwt>
</event>
<event>
 7    1  0.3891761E-009  0.9304180E+02  0.7818608E-02  0.1295648E+00
         -2   -1    0    0    0  501 -0.00000000000E+00  0.00000000000E+00  0.19980793237E+03  0.19980793239E+03  0.25500000000E-02 0.  1.
          2   -1    0    0  501    0  0.00000000000E+00 -0.00000000000E+00 -0.10831372215E+02  0.10831372515E+02  0.25500000000E-02 0. -1.
         23    2    1    2    0    0 -0.35527136788E-14 -0.35527136788E-14  0.18897656016E+03  0.21063930491E+03  0.93041799646E+02 0.  0.
    9000005    2    3    3    0    0 -0.19735006401E+02 -0.23702839995E+02  0.18534034665E+02  0.37428596234E+02  0.10300207458E+02 0.  0.
         22    1    3    3    0    0  0.19735006401E+02  0.23702839995E+02  0.17044252549E+03  0.17321070867E+03  0.00000000000E+00 0.  1.
         22    1    4    4    0    0 -0.12375515174E+02 -0.11618246426E+02  0.15437416378E+02  0.22944516780E+02  0.00000000000E+00 0.  1.
         22    1    4    4    0    0 -0.73594912270E+01 -0.12084593569E+02  0.30966182873E+01  0.14484079455E+02  0.00000000000E+00 0.  1.
<mgrwt>
<rscale>  0 0.93041800E+02</rscale>
<asrwt>0</asrwt>
<pdfrwt beam="2">  1        2 0.16663650E-02 0.93041800E+02</pdfrwt>
<pdfrwt beam="1">  1       -2 0.30739682E-01 0.93041800E+02</pdfrwt>
<totfact> 0.59200142E+04</totfact>
</mgrwt>
</event>
<event>
 7    1  0.3891761E-009  0.9519168E+02  0.7818608E-02  0.1290745E+00
         -2   -1    0    0    0  501 -0.00000000000E+00  0.00000000000E+00  0.32009390669E+01  0.32009400826E+01  0.25500000000E-02 0.  1.
          2   -1    0    0  501    0  0.00000000000E+00 -0.00000000000E+00 -0.70771842653E+03  0.70771842654E+03  0.25500000000E-02 0. -1.
         23    2    1    2    0    0  0.00000000000E+00  0.00000000000E+00 -0.70451748746E+03  0.71091936662E+03  0.95191678681E+02 0.  0.
    9000005    2    3    3    0    0 -0.41422097191E+02 -0.83941715306E+01 -0.51344920235E+03  0.51523252028E+03  0.69436527863E+01 0.  0.
         22    1    3    3    0    0  0.41422097191E+02  0.83941715306E+01 -0.19106828512E+03  0.19568684634E+03  0.00000000000E+00 0.  1.
         22    1    4    4    0    0 -0.41308675626E+02 -0.86151240265E+01 -0.51286082045E+03  0.51459386724E+03  0.00000000000E+00 0. -1.
         22    1    4    4    0    0 -0.11342156515E+00  0.22095249589E+00 -0.58838189722E+00  0.63865304654E+00  0.00000000000E+00 0. -1.
<mgrwt>
<rscale>  0 0.95191679E+02</rscale>
<asrwt>0</asrwt>
<pdfrwt beam="2">  1        2 0.10887963E+00 0.95191679E+02</pdfrwt>
<pdfrwt beam="1">  1       -2 0.49245281E-03 0.95191679E+02</pdfrwt>
<totfact> 0.21214457E+05</totfact>
</mgrwt>
</event>
<event>
 7    1  0.3891761E-009  0.9143810E+02  0.7818608E-02  0.1299406E+00
          2   -1    0    0  501    0  0.00000000000E+00  0.00000000000E+00  0.61410181463E+02  0.61410181516E+02  0.25500000000E-02 0.  1.
         -2   -1    0    0    0  501 -0.00000000000E+00 -0.00000000000E+00 -0.34037213882E+02  0.34037213977E+02  0.25500000000E-02 0. -1.
         23    2    1    2    0    0  0.00000000000E+00  0.17763568394E-14  0.27372967581E+02  0.95447395493E+02  0.91438099019E+02 0.  0.
    9000005    2    3    3    0    0  0.42842874006E+02 -0.11553550589E+02  0.10709317576E+02  0.48048306727E+02  0.14998463661E+02 0.  0.
         22    1    3    3    0    0 -0.42842874006E+02  0.11553550589E+02  0.16663650006E+02  0.47399088765E+02  0.00000000000E+00 0.  1.
         22    1    4    4    0    0  0.17601751887E+02 -0.12050863813E+02  0.23819777931E+01  0.21464361307E+02  0.00000000000E+00 0. -1.
         22    1    4    4    0    0  0.25241122119E+02  0.49731322414E+00  0.83273397825E+01  0.26583945420E+02  0.00000000000E+00 0. -1.
<mgrwt>
<rscale>  0 0.91438099E+02</rscale>
<asrwt>0</asrwt>
<pdfrwt beam="1">  1        2 0.94477201E-02 0.91438099E+02</pdfrwt>
<pdfrwt beam="2">  1       -2 0.52364945E-02 0.91438099E+02</pdfrwt>
<totfact> 0.10587604E+05</totfact>
</mgrwt>
</event>
<event>
 7    1  0.3891761E-009  0.9065423E+02  0.7818608E-02  0.1301275E+00
          2   -1    0    0  501    0  0.00000000000E+00  0.00000000000E+00  0.17441912479E+03  0.17441912481E+03  0.25500000000E-02 0. -1.
         -2   -1    0    0    0  501 -0.00000000000E+00 -0.00000000000E+00 -0.11779369341E+02  0.11779369617E+02  0.25500000000E-02 0.  1.
         23    2    1    2    0    0  0.00000000000E+00  0.00000000000E+00  0.16263975545E+03  0.18619849442E+03  0.90654229211E+02 0.  0.
    9000005    2    3    3    0    0  0.39248132838E+02  0.79572164367E+01  0.40555545399E+02  0.57713913373E+02  0.90780124249E+01 0.  0.
         22    1    3    3    0    0 -0.39248132838E+02 -0.79572164367E+01  0.12208421005E+03  0.12848458105E+03  0.00000000000E+00 0. -1.
         22    1    4    4    0    0  0.33358935994E+02  0.60521030387E+01  0.29040658508E+02  0.44640860301E+02  0.00000000000E+00 0.  1.
         22    1    4    4    0    0  0.58891968442E+01  0.19051133980E+01  0.11514886891E+02  0.13073053072E+02  0.00000000000E+00 0.  1.
<mgrwt>
<rscale>  0 0.90654229E+02</rscale>
<asrwt>0</asrwt>
<pdfrwt beam="1">  1        2 0.26833710E-01 0.90654229E+02</pdfrwt>
<pdfrwt beam="2">  1       -2 0.18122108E-02 0.90654229E+02</pdfrwt>
<totfact> 0.14960176E+05</totfact>
</mgrwt>
</event>
<event>
 7    1  0.3891761E-009  0.8915152E+02  0.7818608E-02  0.1304920E+00
         -2   -1    0    0    0  501 -0.00000000000E+00  0.00000000000E+00  0.19795211352E+02  0.19795211516E+02  0.25500000000E-02 0.  1.
          2   -1    0    0  501    0  0.00000000000E+00 -0.00000000000E+00 -0.10037773711E+03  0.10037773715E+03  0.25500000000E-02 0. -1.
         23    2    1    2    0    0 -0.35527136788E-14  0.35527136788E-14 -0.80582525763E+02  0.12017294866E+03  0.89151523441E+02 0.  0.
    9000005    2    3    3    0    0  0.23528254958E+02  0.20919392110E+02 -0.81496528535E+02  0.88676359185E+02  0.15185939792E+02 0.  0.
         22    1    3    3    0    0 -0.23528254958E+02 -0.20919392110E+02  0.91400277230E+00  0.31496589478E+02  0.00000000000E+00 0.  1.
         22    1    4    4    0    0 -0.14889571752E+01 -0.49480285998E+00 -0.78119445059E+01  0.79679545871E+01  0.00000000000E+00 0. -1.
         22    1    4    4    0    0  0.25017212134E+02  0.21414194970E+02 -0.73684584029E+02  0.80708404598E+02  0.00000000000E+00 0. -1.
<mgrwt>
<rscale>  0 0.89151523E+02</rscale>
<asrwt>0</asrwt>
<pdfrwt beam="2">  1        2 0.15442729E-01 0.89151523E+02</pdfrwt>
<pdfrwt beam="1">  1       -2 0.30454172E-02 0.89151523E+02</pdfrwt>
<totfact> 0.13063140E+05</totfact>
</mgrwt>
</event>
<event>
 7    1  0.3891761E-009  0.9555379E+02  0.7818608E-02  0.1289934E+00
          2   -1    0    0  501    0  0.00000000000E+00  0.00000000000E+00  0.45525295897E+02  0.45525295968E+02  0.25500000000E-02 0.  1.
         -2   -1    0    0    0  501 -0.00000000000E+00 -0.00000000000E+00 -0.50139855407E+02  0.50139855472E+02  0.25500000000E-02 0. -1.
         23    2    1    2    0    0 -0.35527136788E-14  0.44408920985E-15 -0.46145595103E+01  0.95665151441E+02  0.95553791346E+02 0.  0.
    9000005    2    3    3    0    0 -0.31486081405E+02  0.25331838474E+01 -0.37467588489E+02  0.50089808812E+02  0.10362355768E+02 0.  0.
         22    1    3    3    0    0  0.31486081405E+02 -0.25331838474E+01  0.32853028978E+02  0.45575342628E+02  0.00000000000E+00 0.  1.
         22    1    4    4    0    0 -0.43879892581E+01 -0.24265506311E+01 -0.10005246163E+02  0.11191405116E+02  0.00000000000E+00 0.  1.
         22    1    4    4    0    0 -0.27098092147E+02  0.49597344785E+01 -0.27462342326E+02  0.38898403696E+02  0.00000000000E+00 0.  1.
<mgrwt>
<rscale>  0 0.95553791E+02</rscale>
<asrwt>0</asrwt>
<pdfrwt beam="1">  1        2 0.70038917E-02 0.95553791E+02</pdfrwt>
<pdfrwt beam="2">  1       -2 0.77138239E-02 0.95553791E+02</pdfrwt>
<totfact> 0.86153515E+04</totfact>
</mgrwt>
</event>
<event>
 7    1  0.3891761E-009  0.9085253E+02  0.7818608E-02  0.1300800E+00
          2   -1    0    0  501    0  0.00000000000E+00  0.00000000000E+00  0.30690091342E+03  0.30690091343E+03  0.25500000000E-02 0. -1.
         -2   -1    0    0    0  501 -0.00000000000E+00 -0.00000000000E+00 -0.67238172738E+01  0.67238177574E+01  0.25500000000E-02 0.  1.
         23    2    1    2    0    0  0.00000000000E+00  0.00000000000E+00  0.30017709614E+03  0.31362473119E+03  0.90852534152E+02 0.  0.
    9000005    2    3    3    0    0  0.42568938747E+02 -0.21051545953E+01  0.19672546428E+03  0.20173734871E+03  0.13435153383E+02 0.  0.
         22    1    3    3    0    0 -0.42568938747E+02  0.21051545953E+01  0.10345163186E+03  0.11188738247E+03  0.00000000000E+00 0.  1.
         22    1    4    4    0    0  0.34192350228E+02 -0.20812998157E+01  0.12804693822E+03  0.13254986613E+03  0.00000000000E+00 0. -1.
         22    1    4    4    0    0  0.83765885190E+01 -0.23854779602E-01  0.68678526057E+02  0.69187482579E+02  0.00000000000E+00 0. -1.
<mgrwt>
<rscale>  0 0.90852534E+02</rscale>
<asrwt>0</asrwt>
<pdfrwt beam="1">  1        2 0.47215536E-01 0.90852534E+02</pdfrwt>
<pdfrwt beam="2">  1       -2 0.10344332E-02 0.90852534E+02</pdfrwt>
<totfact> 0.18291667E+05</totfact>
</mgrwt>
</event>
<event>
 7    1  0.3891761E-009  0.8728252E+02  0.7818608E-02  0.1309569E+00
         -2   -1    0    0    0  501 -0.00000000000E+00  0.00000000000E+00  0.27946451057E+03  0.27946451058E+03  0.25500000000E-02 0.  1.
          2   -1    0    0  501    0  0.00000000000E+00 -0.00000000000E+00 -0.68150318199E+01  0.68150322969E+01  0.25500000000E-02 0. -1.
         23    2    1    2    0    0  0.00000000000E+00 -0.44408920985E-15  0.27264947875E+03  0.28627954288E+03  0.87282520633E+02 0.  0.
    9000005    2    3    3    0    0 -0.16995519167E+02  0.29525260368E+01  0.26725559917E+03  0.26820583217E+03  0.14534374537E+02 0.  0.
         22    1    3    3    0    0  0.16995519167E+02 -0.29525260368E+01  0.53938795834E+01  0.18073710707E+02  0.00000000000E+00 0. -1.
         22    1    4    4    0    0  0.25163456375E+01  0.12722028287E+01  0.24551759624E+02  0.24713142172E+02  0.00000000000E+00 0.  1.
         22    1    4    4    0    0 -0.19511864805E+02  0.16803232080E+01  0.24270383954E+03  0.24349269000E+03  0.00000000000E+00 0.  1.
<mgrwt>
<rscale>  0 0.87282521E+02</rscale>
<asrwt>0</asrwt>
<pdfrwt beam="2">  1        2 0.10484665E-02 0.87282521E+02</pdfrwt>
<pdfrwt beam="1">  1       -2 0.42994538E-01 0.87282521E+02</pdfrwt>
<totfact> 0.59317441E+04</totfact>
</mgrwt>
</event>
<event>
 7    1  0.3891761E-009  0.9127420E+02  0.7818608E-02  0.1299795E+00
          2   -1    0    0  501    0  0.00000000000E+00  0.00000000000E+00  0.46088710837E+02  0.46088710908E+02  0.25500000000E-02 0.  1.
         -2   -1    0    0    0  501 -0.00000000000E+00 -0.00000000000E+00 -0.45189913512E+02  0.45189913584E+02  0.25500000000E-02 0. -1.
         23    2    1    2    0    0  0.71054273576E-14  0.44408920985E-15  0.89879732536E+00  0.91278624491E+02  0.91274199270E+02 0.  0.
    9000005    2    3    3    0    0 -0.43039257887E+02 -0.38036373415E+01 -0.13714576597E+02  0.45667265447E+02  0.55284849317E+01 0.  0.
         22    1    3    3    0    0  0.43039257887E+02  0.38036373415E+01  0.14613373923E+02  0.45611359045E+02  0.00000000000E+00 0.  1.
         22    1    4    4    0    0 -0.13444509383E+01  0.15671303771E+00  0.49311389465E+00  0.14405792636E+01  0.00000000000E+00 0.  1.
         22    1    4    4    0    0 -0.41694806949E+02 -0.39603503793E+01 -0.14207690492E+02  0.44226686183E+02  0.00000000000E+00 0.  1.
<mgrwt>
<rscale>  0 0.91274199E+02</rscale>
<asrwt>0</asrwt>
<pdfrwt beam="1">  1        2 0.70905709E-02 0.91274199E+02</pdfrwt>
<pdfrwt beam="2">  1       -2 0.69522944E-02 0.91274199E+02</pdfrwt>
<totfact> 0.98651925E+04</totfact>
</mgrwt>
</event>
<event>
 7    1  0.3891761E-009  0.8991451E+02  0.7818608E-02  0.1303059E+00
         -2   -1    0    0    0  501 -0.00000000000E+00  0.00000000000E+00  0.48695084268E+02  0.48695084335E+02  0.25500000000E-02 0.  1.
          2   -1    0    0  501    0  0.00000000000E+00 -0.00000000000E+00 -0.41506343262E+02  0.41506343340E+02  0.25500000000E-02 0. -1.
         23    2    1    2    0    0  0.00000000000E+00  0.35527136788E-14  0.71887410064E+01  0.90201427675E+02  0.89914512495E+02 0.  0.
    9000005    2    3    3    0    0 -0.31781523523E+02 -0.18522493334E+02  0.28887083595E+02  0.47493511923E+02  0.82475499022E+01 0.  0.
         22    1    3    3    0    0  0.31781523523E+02  0.18522493334E+02 -0.21698342589E+02  0.42707915752E+02  0.00000000000E+00 0. -1.
         22    1    4    4    0    0 -0.30880165201E+01 -0.45715466037E+01  0.64570171129E+01  0.84928178112E+01  0.00000000000E+00 0.  1.
         22    1    4    4    0    0 -0.28693507003E+02 -0.13950946730E+02  0.22430066482E+02  0.39000694112E+02  0.00000000000E+00 0.  1.
<mgrwt>
<rscale>  0 0.89914512E+02</rscale>
<asrwt>0</asrwt>
<pdfrwt beam="2">  1        2 0.63855913E-02 0.89914512E+02</pdfrwt>
<pdfrwt beam="1">  1       -2 0.74915514E-02 0.89914512E+02</pdfrwt>
<totfact> 0.10025415E+05</totfact>
</mgrwt>
</event>
<event>
 6    1  0.3891761E-009  0.2213425E+03  0.7818608E-02  0.1132886E+00
         -2   -1    0    0    0  501 -0.00000000000E+00  0.00000000000E+00  0.24350853711E+02  0.24350853844E+02  0.25500000000E-02 0. -1.
          2   -1    0    0  501    0  0.00000000000E+00 -0.00000000000E+00 -0.50298556463E+03  0.50298556464E+03  0.25500000000E-02 0.  1.
    9000005    2    1    2    0    0 -0.37528982288E+01  0.71085526732E+02 -0.44102396420E+03  0.44682676300E+03  0.92077567743E+01 0.  0.
         22    1    1    2    0    0  0.37528982288E+01 -0.71085526732E+02 -0.37610746723E+02  0.80509655477E+02  0.00000000000E+00 0. -1.
         22    1    3    3    0    0 -0.39136871315E+01  0.65002091789E+02 -0.41644318804E+03  0.42150387631E+03  0.00000000000E+00 0.  1.
         22    1    3    3    0    0  0.16078890274E+00  0.60834349430E+01 -0.24580776161E+02  0.25322886692E+02  0.00000000000E+00 0.  1.
<mgrwt>
<rscale>  0 0.22134252E+03</rscale>
<asrwt>0</asrwt>
<pdfrwt beam="2">  1        2 0.77382387E-01 0.22134252E+03</pdfrwt>
<pdfrwt beam="1">  1       -2 0.37462856E-02 0.22134252E+03</pdfrwt>
<totfact> 0.18369675E+04</totfact>
</mgrwt>
</event>
<event>
 7    1  0.3891761E-009  0.9163098E+02  0.7818608E-02  0.1298949E+00
          2   -1    0    0  501    0  0.00000000000E+00  0.00000000000E+00  0.15089803355E+04  0.15089803355E+04  0.25500000000E-02 0. -1.
         -2   -1    0    0    0  501 -0.00000000000E+00 -0.00000000000E+00 -0.13910434251E+01  0.13910457624E+01  0.25500000000E-02 0.  1.
         23    2    1    2    0    0  0.00000000000E+00  0.00000000000E+00  0.15075892920E+04  0.15103713812E+04  0.91630976006E+02 0.  0.
    9000005    2    3    3    0    0 -0.20417752968E+02 -0.12421587153E+02  0.13942685581E+04  0.13945578708E+04  0.15351298412E+02 0.  0.
         22    1    3    3    0    0  0.20417752968E+02  0.12421587153E+02  0.11332073392E+03  0.11581351044E+03  0.00000000000E+00 0.  1.
         22    1    4    4    0    0 -0.21173742952E+02 -0.78453975385E+01  0.96450594408E+03  0.96477022851E+03  0.00000000000E+00 0. -1.
         22    1    4    4    0    0  0.75598998392E+00 -0.45761896147E+01  0.42976261404E+03  0.42978764229E+03  0.00000000000E+00 0. -1.
<mgrwt>
<rscale>  0 0.91630976E+02</rscale>
<asrwt>0</asrwt>
<pdfrwt beam="1">  1        2 0.23215191E+00 0.91630976E+02</pdfrwt>
<pdfrwt beam="2">  1       -2 0.21400586E-03 0.91630976E+02</pdfrwt>
<totfact> 0.23236437E+05</totfact>
</mgrwt>
</event>
<event>
 7    1  0.3891761E-009  0.9336894E+02  0.7818608E-02  0.1294892E+00
          2   -1    0    0  501    0  0.00000000000E+00  0.00000000000E+00  0.82216527252E+02  0.82216527291E+02  0.25500000000E-02 0. -1.
         -2   -1    0    0    0  501 -0.00000000000E+00 -0.00000000000E+00 -0.26508537582E+02  0.26508537704E+02  0.25500000000E-02 0.  1.
         23    2    1    2    0    0  0.00000000000E+00  0.00000000000E+00  0.55707989670E+02  0.10872506500E+03  0.93368943687E+02 0.  0.
    9000005    2    3    3    0    0  0.44752954674E+02  0.64668155372E+01  0.18352453534E+02  0.50072846493E+02  0.11217430633E+02 0.  0.
         22    1    3    3    0    0 -0.44752954674E+02 -0.64668155372E+01  0.37355536136E+02  0.58652218502E+02  0.00000000000E+00 0. -1.
         22    1    4    4    0    0  0.12567042726E+02  0.70048816979E+01  0.61620385072E+01  0.15651506287E+02  0.00000000000E+00 0. -1.
         22    1    4    4    0    0  0.32185911948E+02 -0.53806616069E+00  0.12190415027E+02  0.34421340207E+02  0.00000000000E+00 0. -1.
<mgrwt>
<rscale>  0 0.93368944E+02</rscale>
<asrwt>0</asrwt>
<pdfrwt beam="1">  1        2 0.12648696E-01 0.93368944E+02</pdfrwt>
<pdfrwt beam="2">  1       -2 0.40782366E-02 0.93368944E+02</pdfrwt>
<totfact> 0.10835269E+05</totfact>
</mgrwt>
</event>
<event>
 7    1  0.3891761E-009  0.9002047E+02  0.7818608E-02  0.1302802E+00
          2   -1    0    0  501    0  0.00000000000E+00  0.00000000000E+00  0.34652724288E+03  0.34652724289E+03  0.25500000000E-02 0. -1.
         -2   -1    0    0    0  501 -0.00000000000E+00 -0.00000000000E+00 -0.58463543082E+01  0.58463548643E+01  0.25500000000E-02 0.  1.
         23    2    1    2    0    0  0.00000000000E+00  0.00000000000E+00  0.34068088858E+03  0.35237359776E+03  0.90020467428E+02 0.  0.
    9000005    2    3    3    0    0 -0.26592908388E+02 -0.23872385474E+02  0.27354651967E+03  0.27632034632E+03  0.15753152263E+02 0.  0.
         22    1    3    3    0    0  0.26592908388E+02  0.23872385474E+02  0.67134368910E+02  0.76053251434E+02  0.00000000000E+00 0.  1.
         22    1    4    4    0    0 -0.18204246930E+02 -0.11179806251E+02  0.20475811571E+03  0.20586954273E+03  0.00000000000E+00 0.  1.
         22    1    4    4    0    0 -0.83886614587E+01 -0.12692579223E+02  0.68788403958E+02  0.70450803597E+02  0.00000000000E+00 0.  1.
<mgrwt>
<rscale>  0 0.90020467E+02</rscale>
<asrwt>0</asrwt>
<pdfrwt beam="1">  1        2 0.53311871E-01 0.90020467E+02</pdfrwt>
<pdfrwt beam="2">  1       -2 0.89943938E-03 0.90020467E+02</pdfrwt>
<totfact> 0.19604270E+05</totfact>
</mgrwt>
</event>
<event>
 7    1  0.3891761E-009  0.9017026E+02  0.7818608E-02  0.1302440E+00
         -2   -1    0    0    0  501 -0.00000000000E+00  0.00000000000E+00  0.10005152153E+02  0.10005152478E+02  0.25500000000E-02 0.  1.
          2   -1    0    0  501    0  0.00000000000E+00 -0.00000000000E+00 -0.20316223544E+03  0.20316223545E+03  0.25500000000E-02 0. -1.
         23    2    1    2    0    0  0.00000000000E+00  0.00000000000E+00 -0.19315708328E+03  0.21316738793E+03  0.90170263692E+02 0.  0.
    9000005    2    3    3    0    0 -0.24162200287E+02 -0.36433976451E+02 -0.95164533155E+02  0.10586507461E+03  0.15488030512E+02 0.  0.
         22    1    3    3    0    0  0.24162200287E+02  0.36433976451E+02 -0.97992550128E+02  0.10730231332E+03  0.00000000000E+00 0.  1.
         22    1    4    4    0    0 -0.48034238426E+01 -0.48909880856E+00 -0.17109394077E+02  0.17777611312E+02  0.00000000000E+00 0.  1.
         22    1    4    4    0    0 -0.19358776444E+02 -0.35944877643E+02 -0.78055139078E+02  0.88087463300E+02  0.00000000000E+00 0.  1.
<mgrwt>
<rscale>  0 0.90170264E+02</rscale>
<asrwt>0</asrwt>
<pdfrwt beam="2">  1        2 0.31255725E-01 0.90170264E+02</pdfrwt>
<pdfrwt beam="1">  1       -2 0.15392544E-02 0.90170264E+02</pdfrwt>
<totfact> 0.16027253E+05</totfact>
</mgrwt>
</event>
<event>
 7    1  0.3891761E-009  0.9636107E+02  0.7818608E-02  0.1288140E+00
         -2   -1    0    0    0  501 -0.00000000000E+00  0.00000000000E+00  0.65979003917E+03  0.65979003917E+03  0.25500000000E-02 0.  1.
          2   -1    0    0  501    0  0.00000000000E+00 -0.00000000000E+00 -0.35183369356E+01  0.35183378597E+01  0.25500000000E-02 0. -1.
         23    2    1    2    0    0  0.00000000000E+00  0.00000000000E+00  0.65627170223E+03  0.66330837703E+03  0.96361070411E+02 0.  0.
    9000005    2    3    3    0    0 -0.20709491800E+02  0.26284691078E+02  0.56576871042E+03  0.56681713618E+03  0.82258211036E+01 0.  0.
         22    1    3    3    0    0  0.20709491800E+02 -0.26284691078E+02  0.90502991809E+02  0.96491240857E+02  0.00000000000E+00 0. -1.
         22    1    4    4    0    0  0.45427389123E+00  0.34572951809E+00  0.30165184078E+01  0.30700613955E+01  0.00000000000E+00 0. -1.
         22    1    4    4    0    0 -0.21163765692E+02  0.25938961560E+02  0.56275219202E+03  0.56374707478E+03  0.00000000000E+00 0. -1.
<mgrwt>
<rscale>  0 0.96361070E+02</rscale>
<asrwt>0</asrwt>
<pdfrwt beam="2">  1        2 0.54128278E-03 0.96361070E+02</pdfrwt>
<pdfrwt beam="1">  1       -2 0.10150614E+00 0.96361070E+02</pdfrwt>
<totfact> 0.24879716E+04</totfact>
</mgrwt>
</event>
<event>
 7    1  0.3891761E-009  0.9719528E+02  0.7818608E-02  0.1286307E+00
         -2   -1    0    0    0  501 -0.00000000000E+00  0.00000000000E+00  0.26875836160E+02  0.26875836281E+02  0.25500000000E-02 0. -1.
          2   -1    0    0  501    0  0.00000000000E+00 -0.00000000000E+00 -0.87875622535E+02  0.87875622572E+02  0.25500000000E-02 0.  1.
         23    2    1    2    0    0  0.00000000000E+00  0.00000000000E+00 -0.60999786375E+02  0.11475145885E+03  0.97195284716E+02 0.  0.
    9000005    2    3    3    0    0 -0.44000917917E+02 -0.17361258121E+02 -0.40121057930E+02  0.63046378227E+02  0.11298338686E+02 0.  0.
         22    1    3    3    0    0  0.44000917917E+02  0.17361258121E+02 -0.20878728445E+02  0.51705080626E+02  0.00000000000E+00 0. -1.
         22    1    4    4    0    0 -0.22587588462E+02 -0.59333356667E+01 -0.13309330430E+02  0.26880139530E+02  0.00000000000E+00 0. -1.
         22    1    4    4    0    0 -0.21413329455E+02 -0.11427922454E+02 -0.26811727500E+02  0.36166238697E+02  0.00000000000E+00 0. -1.
<mgrwt>
<rscale>  0 0.97195285E+02</rscale>
<asrwt>0</asrwt>
<pdfrwt beam="2">  1        2 0.13519326E-01 0.97195285E+02</pdfrwt>
<pdfrwt beam="1">  1       -2 0.41347441E-02 0.97195285E+02</pdfrwt>
<totfact> 0.98786275E+04</totfact>
</mgrwt>
</event>
<event>
 7    1  0.3891761E-009  0.9112853E+02  0.7818608E-02  0.1300142E+00
          2   -1    0    0  501    0  0.00000000000E+00  0.00000000000E+00  0.10809318226E+02  0.10809318527E+02  0.25500000000E-02 0.  1.
         -2   -1    0    0    0  501 -0.00000000000E+00 -0.00000000000E+00 -0.19206598118E+03  0.19206598120E+03  0.25500000000E-02 0. -1.
         23    2    1    2    0    0  0.00000000000E+00  0.35527136788E-14 -0.18125666296E+03  0.20287529973E+03  0.91128532155E+02 0.  0.
    9000005    2    3    3    0    0 -0.28070716144E+02  0.23561929135E+02 -0.15025082289E+03  0.15487017784E+03  0.81444824596E+01 0.  0.
         22    1    3    3    0    0  0.28070716144E+02 -0.23561929135E+02 -0.31005840064E+02  0.48005121888E+02  0.00000000000E+00 0.  1.
         22    1    4    4    0    0 -0.22129979812E+02  0.21910558882E+02 -0.11833095294E+03  0.12236021829E+03  0.00000000000E+00 0.  1.
         22    1    4    4    0    0 -0.59407363312E+01  0.16513702522E+01 -0.31919869955E+02  0.32509959548E+02  0.00000000000E+00 0.  1.
<mgrwt>
<rscale>  0 0.91128532E+02</rscale>
<asrwt>0</asrwt>
<pdfrwt beam="1">  1        2 0.16629722E-02 0.91128532E+02</pdfrwt>
<pdfrwt beam="2">  1       -2 0.29548610E-01 0.91128532E+02</pdfrwt>
<totfact> 0.63493138E+04</totfact>
</mgrwt>
</event>
<event>
 7    1  0.3891761E-009  0.9098838E+02  0.7818608E-02  0.1300476E+00
         -2   -1    0    0    0  501 -0.00000000000E+00  0.00000000000E+00  0.20024091637E+03  0.20024091639E+03  0.25500000000E-02 0.  1.
          2   -1    0    0  501    0  0.00000000000E+00 -0.00000000000E+00 -0.10336156150E+02  0.10336156465E+02  0.25500000000E-02 0. -1.
         23    2    1    2    0    0  0.00000000000E+00  0.00000000000E+00  0.18990476022E+03  0.21057707285E+03  0.90988381986E+02 0.  0.
    9000005    2    3    3    0    0  0.20635627501E+02 -0.20377621469E+02  0.17599417054E+03  0.17841216831E+03  0.39846150227E+01 0.  0.
         22    1    3    3    0    0 -0.20635627501E+02  0.20377621469E+02  0.13910589681E+02  0.32164904545E+02  0.00000000000E+00 0. -1.
         22    1    4    4    0    0  0.49333442419E+01 -0.73724421211E+01  0.55959408046E+02  0.56658151550E+02  0.00000000000E+00 0.  1.
         22    1    4    4    0    0  0.15702283259E+02 -0.13005179348E+02  0.12003476249E+03  0.12175401676E+03  0.00000000000E+00 0.  1.
<mgrwt>
<rscale>  0 0.90988382E+02</rscale>
<asrwt>0</asrwt>
<pdfrwt beam="2">  1        2 0.15901777E-02 0.90988382E+02</pdfrwt>
<pdfrwt beam="1">  1       -2 0.30806298E-01 0.90988382E+02</pdfrwt>
<totfact> 0.62616876E+04</totfact>
</mgrwt>
</event>
<event>
 7    1  0.3891761E-009  0.9920158E+02  0.7818608E-02  0.1281984E+00
         -2   -1    0    0    0  501 -0.00000000000E+00  0.00000000000E+00  0.38205248530E+01  0.38205257040E+01  0.25500000000E-02 0.  1.
          2   -1    0    0  501    0  0.00000000000E+00 -0.00000000000E+00 -0.64395286943E+03  0.64395286943E+03  0.25500000000E-02 0. -1.
         23    2    1    2    0    0 -0.17763568394E-14  0.71054273576E-14 -0.64013234457E+03  0.64777339514E+03  0.99201576985E+02 0.  0.
    9000005    2    3    3    0    0 -0.98326944243E+01  0.47576515168E+02 -0.34795290761E+03  0.35158252752E+03  0.13373147247E+02 0.  0.
         22    1    3    3    0    0  0.98326944243E+01 -0.47576515168E+02 -0.29217943697E+03  0.29619086762E+03  0.00000000000E+00 0. -1.
         22    1    4    4    0    0 -0.69958377485E+01  0.44436346988E+02 -0.28921889810E+03  0.29269626185E+03  0.00000000000E+00 0.  1.
         22    1    4    4    0    0 -0.28368566759E+01  0.31401681791E+01 -0.58734009507E+02  0.58886265671E+02  0.00000000000E+00 0.  1.
<mgrwt>
<rscale>  0 0.99201577E+02</rscale>
<asrwt>0</asrwt>
<pdfrwt beam="2">  1        2 0.99069586E-01 0.99201577E+02</pdfrwt>
<pdfrwt beam="1">  1       -2 0.58777363E-03 0.99201577E+02</pdfrwt>
<totfact> 0.18573626E+05</totfact>
</mgrwt>
</event>
<event>
 7    1  0.3891761E-009  0.9316899E+02  0.7818608E-02  0.1295354E+00
          2   -1    0    0  501    0  0.00000000000E+00  0.00000000000E+00  0.15429988372E+03  0.15429988374E+03  0.25500000000E-02 0.  1.
         -2   -1    0    0    0  501 -0.00000000000E+00 -0.00000000000E+00 -0.14064269214E+02  0.14064269445E+02  0.25500000000E-02 0. -1.
         23    2    1    2    0    0 -0.71054273576E-14  0.00000000000E+00  0.14023561451E+03  0.16836415319E+03  0.93168988953E+02 0.  0.
    9000005    2    3    3    0    0 -0.35661210098E+02 -0.26185552351E+02  0.53963521000E+02  0.71409116311E+02  0.15158998517E+02 0.  0.
         22    1    3    3    0    0  0.35661210098E+02  0.26185552351E+02  0.86272093509E+02  0.96955036878E+02  0.00000000000E+00 0.  1.
         22    1    4    4    0    0 -0.28217478252E+02 -0.12010005495E+02  0.33325726064E+02  0.45288743950E+02  0.00000000000E+00 0. -1.
         22    1    4    4    0    0 -0.74437318467E+01 -0.14175546856E+02  0.20637794936E+02  0.26120372361E+02  0.00000000000E+00 0. -1.
<mgrwt>
<rscale>  0 0.93168989E+02</rscale>
<asrwt>0</asrwt>
<pdfrwt beam="1">  1        2 0.23738444E-01 0.93168989E+02</pdfrwt>
<pdfrwt beam="2">  1       -2 0.21637337E-02 0.93168989E+02</pdfrwt>
<totfact> 0.13311111E+05</totfact>
</mgrwt>
</event>
<event>
 7    1  0.3891761E-009  0.9097127E+02  0.7818608E-02  0.1300517E+00
          2   -1    0    0  501    0  0.00000000000E+00  0.00000000000E+00  0.24703723435E+02  0.24703723567E+02  0.25500000000E-02 0.  1.
         -2   -1    0    0    0  501 -0.00000000000E+00 -0.00000000000E+00 -0.83750244424E+02  0.83750244462E+02  0.25500000000E-02 0. -1.
         23    2    1    2    0    0  0.00000000000E+00  0.00000000000E+00 -0.59046520989E+02  0.10845396803E+03  0.90971267664E+02 0.  0.
    9000005    2    3    3    0    0 -0.17834377685E+02 -0.31591515241E+02  0.22177981862E+01  0.37254209135E+02  0.81773227193E+01 0.  0.
         22    1    3    3    0    0  0.17834377685E+02  0.31591515241E+02 -0.61264319175E+02  0.71199758894E+02  0.00000000000E+00 0. -1.
         22    1    4    4    0    0 -0.37454713944E+01 -0.35273271633E+01 -0.20991343673E+01  0.55567038769E+01  0.00000000000E+00 0.  1.
         22    1    4    4    0    0 -0.14088906290E+02 -0.28064188078E+02  0.43169325535E+01  0.31697505258E+02  0.00000000000E+00 0.  1.
<mgrwt>
<rscale>  0 0.90971268E+02</rscale>
<asrwt>0</asrwt>
<pdfrwt beam="1">  1        2 0.38005729E-02 0.90971268E+02</pdfrwt>
<pdfrwt beam="2">  1       -2 0.12884653E-01 0.90971268E+02</pdfrwt>
<totfact> 0.84470747E+04</totfact>
</mgrwt>
</event>
<event>
 7    1  0.3891761E-009  0.9174221E+02  0.7818608E-02  0.1298687E+00
          2   -1    0    0  501    0  0.00000000000E+00  0.00000000000E+00  0.20465025225E+03  0.20465025227E+03  0.25500000000E-02 0. -1.
         -2   -1    0    0    0  501 -0.00000000000E+00 -0.00000000000E+00 -0.10281727067E+02  0.10281727383E+02  0.25500000000E-02 0.  1.
         23    2    1    2    0    0  0.17763568394E-14  0.00000000000E+00  0.19436852518E+03  0.21493197965E+03  0.91742205631E+02 0.  0.
    9000005    2    3    3    0    0  0.14662027349E+02  0.31668348850E+01  0.19872526464E+03  0.19931195827E+03  0.29192485492E+01 0.  0.
         22    1    3    3    0    0 -0.14662027349E+02 -0.31668348850E+01 -0.43567394609E+01  0.15620021380E+02  0.00000000000E+00 0.  1.
         22    1    4    4    0    0  0.94815616976E+01  0.74724139121E+00  0.11591377348E+03  0.11630331580E+03  0.00000000000E+00 0.  1.
         22    1    4    4    0    0  0.51804656515E+01  0.24195934938E+01  0.82811491159E+02  0.83008642472E+02  0.00000000000E+00 0.  1.
<mgrwt>
<rscale>  0 0.91742206E+02</rscale>
<asrwt>0</asrwt>
<pdfrwt beam="1">  1        2 0.31484654E-01 0.91742206E+02</pdfrwt>
<pdfrwt beam="2">  1       -2 0.15818042E-02 0.91742206E+02</pdfrwt>
<totfact> 0.15339699E+05</totfact>
</mgrwt>
</event>
<event>
 7    1  0.5179286E-009  0.9719749E+02  0.7818608E-02  0.1286302E+00
          2   -1    0    0  501    0  0.00000000000E+00  0.00000000000E+00  0.70407561717E+03  0.70407561718E+03  0.25500000000E-02 0. -1.
         -2   -1    0    0    0  501 -0.00000000000E+00 -0.00000000000E+00 -0.33545224042E+01  0.33545233734E+01  0.25500000000E-02 0.  1.
         23    2    1    2    0    0  0.00000000000E+00  0.00000000000E+00  0.70072109477E+03  0.70743014055E+03  0.97197485081E+02 0.  0.
    9000005    2    3    3    0    0  0.14217377102E+02  0.36608406553E+02  0.55163489670E+03  0.55325814667E+03  0.15849553931E+02 0.  0.
         22    1    3    3    0    0 -0.14217377102E+02 -0.36608406553E+02  0.14908619807E+03  0.15417199388E+03  0.00000000000E+00 0.  1.
         22    1    4    4    0    0  0.99689083104E+01  0.14673512432E+02  0.15866303141E+03  0.15965164777E+03  0.00000000000E+00 0. -1.
         22    1    4    4    0    0  0.42484687920E+01  0.21934894120E+02  0.39297186528E+03  0.39360649889E+03  0.00000000000E+00 0. -1.
<mgrwt>
<rscale>  0 0.97197485E+02</rscale>
<asrwt>0</asrwt>
<pdfrwt beam="1">  1        2 0.10831939E+00 0.97197485E+02</pdfrwt>
<pdfrwt beam="2">  1       -2 0.51608014E-03 0.97197485E+02</pdfrwt>
<totfact> 0.20049155E+05</totfact>
</mgrwt>
</event>
<event>
 7    1  0.3891761E-009  0.9240847E+02  0.7818608E-02  0.1297122E+00
         -2   -1    0    0    0  501 -0.00000000000E+00  0.00000000000E+00  0.45509881555E+03  0.45509881556E+03  0.25500000000E-02 0.  1.
          2   -1    0    0  501    0  0.00000000000E+00 -0.00000000000E+00 -0.46909176789E+01  0.46909183719E+01  0.25500000000E-02 0. -1.
         23    2    1    2    0    0  0.71054273576E-14  0.00000000000E+00  0.45040789788E+03  0.45978973393E+03  0.92408468021E+02 0.  0.
    9000005    2    3    3    0    0 -0.41459863763E+02 -0.19197976327E+02  0.25302556449E+03  0.25718847992E+03  0.60411352965E+01 0.  0.
         22    1    3    3    0    0  0.41459863763E+02  0.19197976327E+02  0.19738233338E+03  0.20260125402E+03  0.00000000000E+00 0. -1.
         22    1    4    4    0    0 -0.76763415027E+01 -0.41509843158E+01  0.36615213337E+02  0.37640812124E+02  0.00000000000E+00 0.  1.
         22    1    4    4    0    0 -0.33783522260E+02 -0.15046992011E+02  0.21641035116E+03  0.21954766779E+03  0.00000000000E+00 0.  1.
<mgrwt>
<rscale>  0 0.92408468E+02</rscale>
<asrwt>0</asrwt>
<pdfrwt beam="2">  1        2 0.72167966E-03 0.92408468E+02</pdfrwt>
<pdfrwt beam="1">  1       -2 0.70015206E-01 0.92408468E+02</pdfrwt>
<totfact> 0.37648506E+04</totfact>
</mgrwt>
</event>
<event>
 7    1  0.3891761E-009  0.1086167E+03  0.7818608E-02  0.1263153E+00
         -2   -1    0    0    0  501 -0.00000000000E+00  0.00000000000E+00  0.62441812237E+01  0.62441817444E+01  0.25500000000E-02 0.  1.
          2   -1    0    0  501    0  0.00000000000E+00 -0.00000000000E+00 -0.47234290977E+03  0.47234290978E+03  0.25500000000E-02 0. -1.
         23    2    1    2    0    0  0.00000000000E+00  0.00000000000E+00 -0.46609872855E+03  0.47858709152E+03  0.10861666271E+03 0.  0.
    9000005    2    3    3    0    0  0.13366085556E+02 -0.51634812589E+02 -0.27724185973E+03  0.28234305209E+03  0.31215639129E+01 0.  0.
         22    1    3    3    0    0 -0.13366085556E+02  0.51634812589E+02 -0.18885686882E+03  0.19624403943E+03  0.00000000000E+00 0. -1.
         22    1    4    4    0    0  0.77167587606E+01 -0.25939221407E+02 -0.14703357192E+03  0.14950338740E+03  0.00000000000E+00 0.  1.
         22    1    4    4    0    0  0.56493267958E+01 -0.25695591183E+02 -0.13020828781E+03  0.13283966469E+03  0.00000000000E+00 0.  1.
<mgrwt>
<rscale>  0 0.10861666E+03</rscale>
<asrwt>0</asrwt>
<pdfrwt beam="2">  1        2 0.72668112E-01 0.10861666E+03</pdfrwt>
<pdfrwt beam="1">  1       -2 0.96064368E-03 0.10861666E+03</pdfrwt>
<totfact> 0.13245969E+05</totfact>
</mgrwt>
</event>
<event>
 7    1  0.3891761E-009  0.9123313E+02  0.7818608E-02  0.1299893E+00
         -2   -1    0    0    0  501 -0.00000000000E+00  0.00000000000E+00  0.43181118740E+01  0.43181126269E+01  0.25500000000E-02 0.  1.
          2   -1    0    0  501    0  0.00000000000E+00 -0.00000000000E+00 -0.48189370736E+03  0.48189370737E+03  0.25500000000E-02 0. -1.
         23    2    1    2    0    0  0.00000000000E+00  0.00000000000E+00 -0.47757559549E+03  0.48621182000E+03  0.91233132676E+02 0.  0.
    9000005    2    3    3    0    0  0.29696576087E+02 -0.12570387972E+02 -0.40865653335E+03  0.41012148940E+03  0.12632202034E+02 0.  0.
         22    1    3    3    0    0 -0.29696576087E+02  0.12570387972E+02 -0.68919062138E+02  0.76090330602E+02  0.00000000000E+00 0.  1.
         22    1    4    4    0    0  0.76323172541E+01 -0.86711095066E+01 -0.17981427029E+03  0.18018493890E+03  0.00000000000E+00 0.  1.
         22    1    4    4    0    0  0.22064258833E+02 -0.38992784652E+01 -0.22884226306E+03  0.22993655049E+03  0.00000000000E+00 0.  1.
<mgrwt>
<rscale>  0 0.91233133E+02</rscale>
<asrwt>0</asrwt>
<pdfrwt beam="2">  1        2 0.74137451E-01 0.91233133E+02</pdfrwt>
<pdfrwt beam="1">  1       -2 0.66432534E-03 0.91233133E+02</pdfrwt>
<totfact> 0.21255471E+05</totfact>
</mgrwt>
</event>
<event>
 7    1  0.3891761E-009  0.9195841E+02  0.7818608E-02  0.1298177E+00
         -2   -1    0    0    0  501 -0.00000000000E+00  0.00000000000E+00  0.17661401427E+03  0.17661401429E+03  0.25500000000E-02 0.  1.
          2   -1    0    0  501    0  0.00000000000E+00 -0.00000000000E+00 -0.11970099840E+02  0.11970100111E+02  0.25500000000E-02 0. -1.
         23    2    1    2    0    0 -0.71054273576E-14 -0.55511151231E-16  0.16464391443E+03  0.18858411440E+03  0.91958412584E+02 0.  0.
    9000005    2    3    3    0    0  0.45675752726E+02  0.46140508436E+00  0.72251026746E+02  0.85516500784E+02  0.25246304200E+01 0.  0.
         22    1    3    3    0    0 -0.45675752726E+02 -0.46140508436E+00  0.92392887681E+02  0.10306761361E+03  0.00000000000E+00 0.  1.
         22    1    4    4    0    0  0.84275659897E+01 -0.67073254538E+00  0.12222405974E+02  0.14861391538E+02  0.00000000000E+00 0. -1.
         22    1    4    4    0    0  0.37248186736E+02  0.11321376297E+01  0.60028620772E+02  0.70655109246E+02  0.00000000000E+00 0. -1.
<mgrwt>
<rscale>  0 0.91958413E+02</rscale>
<asrwt>0</asrwt>
<pdfrwt beam="2">  1        2 0.18415540E-02 0.91958413E+02</pdfrwt>
<pdfrwt beam="1">  1       -2 0.27171385E-01 0.91958413E+02</pdfrwt>
<totfact> 0.64222964E+04</totfact>
</mgrwt>
</event>
<event>
 7    1  0.3918953E-009  0.9423041E+02  0.7818608E-02  0.1292919E+00
         -2   -1    0    0    0  501 -0.00000000000E+00  0.00000000000E+00  0.24408025981E+01  0.24408039302E+01  0.25500000000E-02 0. -1.
          2   -1    0    0  501    0  0.00000000000E+00 -0.00000000000E+00 -0.90947215736E+03  0.90947215736E+03  0.25500000000E-02 0.  1.
         23    2    1    2    0    0  0.00000000000E+00  0.71054273576E-14 -0.90703135476E+03  0.91191296129E+03  0.94230411515E+02 0.  0.
    9000005    2    3    3    0    0  0.69536834489E+01  0.37213753758E+02 -0.71847319654E+03  0.71959188545E+03  0.13248783890E+02 0.  0.
         22    1    3    3    0    0 -0.69536834489E+01 -0.37213753758E+02 -0.18855815822E+03  0.19232107584E+03  0.00000000000E+00 0. -1.
         22    1    4    4    0    0  0.10078771327E+02  0.19182791768E+02 -0.41924642971E+03  0.41980606232E+03  0.00000000000E+00 0.  1.
         22    1    4    4    0    0 -0.31250878778E+01  0.18030961989E+02 -0.29922676683E+03  0.29978582313E+03  0.00000000000E+00 0.  1.
<mgrwt>
<rscale>  0 0.94230412E+02</rscale>
<asrwt>0</asrwt>
<pdfrwt beam="2">  1        2 0.13991852E+00 0.94230412E+02</pdfrwt>
<pdfrwt beam="1">  1       -2 0.37550892E-03 0.94230412E+02</pdfrwt>
<totfact> 0.22756293E+05</totfact>
</mgrwt>
</event>
<event>
 7    1  0.3891761E-009  0.9208678E+02  0.7818608E-02  0.1297876E+00
          2   -1    0    0  501    0  0.00000000000E+00  0.00000000000E+00  0.67409989412E+02  0.67409989461E+02  0.25500000000E-02 0. -1.
         -2   -1    0    0    0  501 -0.00000000000E+00 -0.00000000000E+00 -0.31449249956E+02  0.31449250060E+02  0.25500000000E-02 0.  1.
         23    2    1    2    0    0  0.71054273576E-14  0.00000000000E+00  0.35960739456E+02  0.98859239520E+02  0.92086776772E+02 0.  0.
    9000005    2    3    3    0    0 -0.42379055639E+02 -0.61853882832E+01  0.75058842481E+00  0.43415591366E+02  0.70786160774E+01 0.  0.
         22    1    3    3    0    0  0.42379055639E+02  0.61853882832E+01  0.35210151031E+02  0.55443648155E+02  0.00000000000E+00 0. -1.
         22    1    4    4    0    0 -0.24319254540E+01  0.12909406233E+01  0.32684490394E+00  0.27726551711E+01  0.00000000000E+00 0. -1.
         22    1    4    4    0    0 -0.39947130185E+02 -0.74763289065E+01  0.42374352087E+00  0.40642936194E+02  0.00000000000E+00 0. -1.
<mgrwt>
<rscale>  0 0.92086777E+02</rscale>
<asrwt>0</asrwt>
<pdfrwt beam="1">  1        2 0.10370768E-01 0.92086777E+02</pdfrwt>
<pdfrwt beam="2">  1       -2 0.48383462E-02 0.92086777E+02</pdfrwt>
<totfact> 0.10646435E+05</totfact>
</mgrwt>
</event>
<event>
 7    1  0.3891761E-009  0.8986568E+02  0.7818608E-02  0.1303177E+00
         -2   -1    0    0    0  501 -0.00000000000E+00  0.00000000000E+00  0.11527940000E+01  0.11527968203E+01  0.25500000000E-02 0.  1.
          2   -1    0    0  501    0  0.00000000000E+00 -0.00000000000E+00 -0.17513604813E+04  0.17513604813E+04  0.25500000000E-02 0. -1.
         23    2    1    2    0    0  0.00000000000E+00  0.00000000000E+00 -0.17502076873E+04  0.17525132781E+04  0.89865684833E+02 0.  0.
    9000005    2    3    3    0    0  0.27936483750E+01  0.20311461185E+02 -0.16532795454E+04  0.16534404533E+04  0.10569646685E+02 0.  0.
         22    1    3    3    0    0 -0.27936483750E+01 -0.20311461185E+02 -0.96928141871E+02  0.99072824798E+02  0.00000000000E+00 0.  1.
         22    1    4    4    0    0 -0.30947753261E+01  0.13749682498E+02 -0.11081057126E+04  0.11081953355E+04  0.00000000000E+00 0. -1.
         22    1    4    4    0    0  0.58884237011E+01  0.65617786870E+01 -0.54517383281E+03  0.54524511777E+03  0.00000000000E+00 0. -1.
<mgrwt>
<rscale>  0 0.89865685E+02</rscale>
<asrwt>0</asrwt>
<pdfrwt beam="2">  1        2 0.26943795E+00 0.89865685E+02</pdfrwt>
<pdfrwt beam="1">  1       -2 0.17735454E-03 0.89865685E+02</pdfrwt>
<totfact> 0.22678347E+05</totfact>
</mgrwt>
</event>
<event>
 7    1  0.3891761E-009  0.9129228E+02  0.7818608E-02  0.1299752E+00
          2   -1    0    0  501    0  0.00000000000E+00  0.00000000000E+00  0.18781286170E+03  0.18781286172E+03  0.25500000000E-02 0. -1.
         -2   -1    0    0    0  501 -0.00000000000E+00 -0.00000000000E+00 -0.11093862724E+02  0.11093863017E+02  0.25500000000E-02 0.  1.
         23    2    1    2    0    0  0.00000000000E+00  0.00000000000E+00  0.17671899898E+03  0.19890672474E+03  0.91292280867E+02 0.  0.
    9000005    2    3    3    0    0 -0.94774965603E+01  0.40591280504E+02  0.12865549271E+03  0.13528616494E+03  0.35546625412E+01 0.  0.
         22    1    3    3    0    0  0.94774965603E+01 -0.40591280504E+02  0.48063506265E+02  0.63620559794E+02  0.00000000000E+00 0.  1.
         22    1    4    4    0    0 -0.73151850014E+01  0.30936493891E+02  0.10276379576E+03  0.10756847263E+03  0.00000000000E+00 0.  1.
         22    1    4    4    0    0 -0.21623115589E+01  0.96547866130E+01  0.25891696954E+02  0.27717692309E+02  0.00000000000E+00 0.  1.
<mgrwt>
<rscale>  0 0.91292281E+02</rscale>
<asrwt>0</asrwt>
<pdfrwt beam="1">  1        2 0.28894283E-01 0.91292281E+02</pdfrwt>
<pdfrwt beam="2">  1       -2 0.17067483E-02 0.91292281E+02</pdfrwt>
<totfact> 0.15070432E+05</totfact>
</mgrwt>
</event>
<event>
 7    1  0.3891761E-009  0.9173054E+02  0.7818608E-02  0.1298714E+00
          2   -1    0    0  501    0  0.00000000000E+00  0.00000000000E+00  0.11973295182E+02  0.11973295453E+02  0.25500000000E-02 0. -1.
         -2   -1    0    0    0  501 -0.00000000000E+00 -0.00000000000E+00 -0.17569289881E+03  0.17569289883E+03  0.25500000000E-02 0.  1.
         23    2    1    2    0    0  0.00000000000E+00  0.17763568394E-14 -0.16371960363E+03  0.18766619428E+03  0.91730539430E+02 0.  0.
    9000005    2    3    3    0    0 -0.41017735172E+02 -0.13745671311E+02 -0.11040116559E+03  0.11900576963E+03  0.10127080683E+02 0.  0.
         22    1    3    3    0    0  0.41017735172E+02  0.13745671311E+02 -0.53318438035E+02  0.68660424648E+02  0.00000000000E+00 0. -1.
         22    1    4    4    0    0 -0.45284480502E+01  0.14476338922E+01 -0.91125734248E+01  0.10278204126E+02  0.00000000000E+00 0.  1.
         22    1    4    4    0    0 -0.36489287122E+02 -0.15193305203E+02 -0.10128859217E+03  0.10872756551E+03  0.00000000000E+00 0.  1.
<mgrwt>
<rscale>  0 0.91730539E+02</rscale>
<asrwt>0</asrwt>
<pdfrwt beam="1">  1        2 0.18420456E-02 0.91730539E+02</pdfrwt>
<pdfrwt beam="2">  1       -2 0.27029675E-01 0.91730539E+02</pdfrwt>
<totfact> 0.64765526E+04</totfact>
</mgrwt>
</event>
<event>
 7    1  0.3891761E-009  0.8593938E+02  0.7818608E-02  0.1312994E+00
         -2   -1    0    0    0  501 -0.00000000000E+00  0.00000000000E+00  0.47393690813E+01  0.47393697673E+01  0.25500000000E-02 0.  1.
          2   -1    0    0  501    0  0.00000000000E+00 -0.00000000000E+00 -0.38958645429E+03  0.38958645430E+03  0.25500000000E-02 0. -1.
         23    2    1    2    0    0  0.00000000000E+00  0.17763568394E-14 -0.38484708521E+03  0.39432582406E+03  0.85939377071E+02 0.  0.
    9000005    2    3    3    0    0  0.56169602460E+01  0.15897748975E+02 -0.37334900011E+03  0.37391762410E+03  0.11858543946E+02 0.  0.
         22    1    3    3    0    0 -0.56169602460E+01 -0.15897748975E+02 -0.11498085097E+02  0.20408199964E+02  0.00000000000E+00 0.  1.
         22    1    4    4    0    0  0.76308913818E+01  0.80902598526E+01 -0.14480638940E+03  0.14523282418E+03  0.00000000000E+00 0. -1.
         22    1    4    4    0    0 -0.20139311358E+01  0.78074891225E+01 -0.22854261070E+03  0.22868479992E+03  0.00000000000E+00 0. -1.
<mgrwt>
<rscale>  0 0.85939377E+02</rscale>
<asrwt>0</asrwt>
<pdfrwt beam="2">  1        2 0.59936353E-01 0.85939377E+02</pdfrwt>
<pdfrwt beam="1">  1       -2 0.72913406E-03 0.85939377E+02</pdfrwt>
<totfact> 0.23125865E+05</totfact>
</mgrwt>
</event>
<event>
 7    1  0.3891761E-009  0.9276531E+02  0.7818608E-02  0.1296290E+00
         -2   -1    0    0    0  501 -0.00000000000E+00  0.00000000000E+00  0.23204623590E+02  0.23204623730E+02  0.25500000000E-02 0.  1.
          2   -1    0    0  501    0  0.00000000000E+00 -0.00000000000E+00 -0.92712154078E+02  0.92712154113E+02  0.25500000000E-02 0. -1.
         23    2    1    2    0    0  0.00000000000E+00  0.35527136788E-14 -0.69507530488E+02  0.11591677784E+03  0.92765309200E+02 0.  0.
    9000005    2    3    3    0    0  0.24756534508E+02  0.17693686457E+02  0.78415290255E+01  0.32797408567E+02  0.93929702410E+01 0.  0.
         22    1    3    3    0    0 -0.24756534508E+02 -0.17693686457E+02 -0.77349059513E+02  0.83119369276E+02  0.00000000000E+00 0. -1.
         22    1    4    4    0    0  0.14464490507E+00  0.69651617592E+00 -0.13333004007E+01  0.15112070972E+01  0.00000000000E+00 0. -1.
         22    1    4    4    0    0  0.24611889603E+02  0.16997170281E+02  0.91748294263E+01  0.31286201470E+02  0.00000000000E+00 0. -1.
<mgrwt>
<rscale>  0 0.92765309E+02</rscale>
<asrwt>0</asrwt>
<pdfrwt beam="2">  1        2 0.14263408E-01 0.92765309E+02</pdfrwt>
<pdfrwt beam="1">  1       -2 0.35699422E-02 0.92765309E+02</pdfrwt>
<totfact> 0.11431381E+05</totfact>
</mgrwt>
</event>
<event>
 6    1  0.3891761E-009  0.7435036E+03  0.7818608E-02  0.9645598E-01
          2   -1    0    0  501    0  0.00000000000E+00  0.00000000000E+00  0.26691534314E+03  0.26691534315E+03  0.25500000000E-02 0. -1.
         -2   -1    0    0    0  501 -0.00000000000E+00 -0.00000000000E+00 -0.51776493615E+03  0.51776493616E+03  0.25500000000E-02 0.  1.
    9000005    2    1    2    0    0 -0.23386278188E+03  0.26114541344E+03  0.46367903167E+01  0.35090381639E+03  0.14941914914E+02 0.  0.
         22    1    1    2    0    0  0.23386278188E+03 -0.26114541344E+03 -0.25548638333E+03  0.43377646291E+03  0.00000000000E+00 0.  1.
         22    1    3    3    0    0 -0.12408890307E+03  0.13078163155E+03 -0.29842846081E+01  0.18030750669E+03  0.00000000000E+00 0. -1.
         22    1    3    3    0    0 -0.10977387882E+03  0.13036378189E+03  0.76210749248E+01  0.17059630969E+03  0.00000000000E+00 0. -1.
<mgrwt>
<rscale>  0 0.74350361E+03</rscale>
<asrwt>0</asrwt>
<pdfrwt beam="1">  1        2 0.41063899E-01 0.74350361E+03</pdfrwt>
<pdfrwt beam="2">  1       -2 0.79656144E-01 0.74350361E+03</pdfrwt>
<totfact> 0.17616843E+02</totfact>
</mgrwt>
</event>
<event>
 7    1  0.3891761E-009  0.9082903E+02  0.7818608E-02  0.1300856E+00
          2   -1    0    0  501    0  0.00000000000E+00  0.00000000000E+00  0.38778004367E+03  0.38778004368E+03  0.25500000000E-02 0. -1.
         -2   -1    0    0    0  501 -0.00000000000E+00 -0.00000000000E+00 -0.53186798635E+01  0.53186804748E+01  0.25500000000E-02 0.  1.
         23    2    1    2    0    0  0.00000000000E+00  0.00000000000E+00  0.38246136380E+03  0.39309872415E+03  0.90829026892E+02 0.  0.
    9000005    2    3    3    0    0  0.22398483449E+02 -0.34366264603E+02  0.27295106606E+03  0.27615755298E+03  0.88304812472E+01 0.  0.
         22    1    3    3    0    0 -0.22398483449E+02  0.34366264603E+02  0.10951029774E+03  0.11694117117E+03  0.00000000000E+00 0. -1.
         22    1    4    4    0    0  0.13828007445E+02 -0.19317322790E+02  0.12908315486E+03  0.13125103283E+03  0.00000000000E+00 0.  1.
         22    1    4    4    0    0  0.85704760034E+01 -0.15048941814E+02  0.14386791120E+03  0.14490652015E+03  0.00000000000E+00 0.  1.
<mgrwt>
<rscale>  0 0.90829027E+02</rscale>
<asrwt>0</asrwt>
<pdfrwt beam="1">  1        2 0.59658457E-01 0.90829027E+02</pdfrwt>
<pdfrwt beam="2">  1       -2 0.81825865E-03 0.90829027E+02</pdfrwt>
<totfact> 0.19942720E+05</totfact>
</mgrwt>
</event>
<event>
 7    1  0.3891761E-009  0.8746232E+02  0.7818608E-02  0.1309116E+00
         -2   -1    0    0    0  501 -0.00000000000E+00  0.00000000000E+00  0.62328174533E+02  0.62328174585E+02  0.25500000000E-02 0.  1.
          2   -1    0    0  501    0  0.00000000000E+00 -0.00000000000E+00 -0.30682986411E+02  0.30682986517E+02  0.25500000000E-02 0. -1.
         23    2    1    2    0    0 -0.35527136788E-14  0.00000000000E+00  0.31645188121E+02  0.93011161102E+02  0.87462324222E+02 0.  0.
    9000005    2    3    3    0    0  0.30362331143E+02  0.26790218549E+02  0.31662179935E+02  0.52519344014E+02  0.10779651901E+02 0.  0.
         22    1    3    3    0    0 -0.30362331143E+02 -0.26790218549E+02 -0.16991813673E-01  0.40491817088E+02  0.00000000000E+00 0. -1.
         22    1    4    4    0    0  0.20748837367E+01  0.62984377204E+01  0.27612785315E+01  0.71833223071E+01  0.00000000000E+00 0. -1.
         22    1    4    4    0    0  0.28287447406E+02  0.20491780829E+02  0.28900901404E+02  0.45336021707E+02  0.00000000000E+00 0. -1.
<mgrwt>
<rscale>  0 0.87462324E+02</rscale>
<asrwt>0</asrwt>
<pdfrwt beam="2">  1        2 0.47204595E-02 0.87462324E+02</pdfrwt>
<pdfrwt beam="1">  1       -2 0.95889498E-02 0.87462324E+02</pdfrwt>
<totfact> 0.10059262E+05</totfact>
</mgrwt>
</event>
<event>
 7    1  0.3891761E-009  0.9009528E+02  0.7818608E-02  0.1302621E+00
          2   -1    0    0  501    0  0.00000000000E+00  0.00000000000E+00  0.34001635504E+04  0.34001635504E+04  0.25500000000E-02 0. -1.
         -2   -1    0    0    0  501 -0.00000000000E+00 -0.00000000000E+00 -0.59681846433E+00  0.59682391194E+00  0.25500000000E-02 0.  1.
         23    2    1    2    0    0 -0.17763568394E-14 -0.44408920985E-15  0.33995667319E+04  0.34007603743E+04  0.90095275198E+02 0.  0.
    9000005    2    3    3    0    0 -0.11736139219E+02  0.26507337377E+01  0.33376314858E+04  0.33376672839E+04  0.97056256471E+01 0.  0.
         22    1    3    3    0    0  0.11736139219E+02 -0.26507337377E+01  0.61935246082E+02  0.63093090433E+02  0.00000000000E+00 0.  1.
         22    1    4    4    0    0 -0.11028498817E+02  0.49037208142E+01  0.21816562888E+04  0.21816896747E+04  0.00000000000E+00 0. -1.
         22    1    4    4    0    0 -0.70764040145E+00 -0.22529870765E+01  0.11559751970E+04  0.11559776091E+04  0.00000000000E+00 0. -1.
<mgrwt>
<rscale>  0 0.90095275E+02</rscale>
<asrwt>0</asrwt>
<pdfrwt beam="1">  1        2 0.52310209E+00 0.90095275E+02</pdfrwt>
<pdfrwt beam="2">  1       -2 0.91818644E-04 0.90095275E+02</pdfrwt>
<totfact> 0.72297350E+04</totfact>
</mgrwt>
</event>
<event>
 7    1  0.3891761E-009  0.9218751E+02  0.7818608E-02  0.1297639E+00
         -2   -1    0    0    0  501 -0.00000000000E+00  0.00000000000E+00  0.48686525349E+02  0.48686525416E+02  0.25500000000E-02 0.  1.
          2   -1    0    0  501    0  0.00000000000E+00 -0.00000000000E+00 -0.43639059240E+02  0.43639059315E+02  0.25500000000E-02 0. -1.
         23    2    1    2    0    0  0.00000000000E+00  0.00000000000E+00  0.50474661086E+01  0.92325584731E+02  0.92187508274E+02 0.  0.
    9000005    2    3    3    0    0 -0.20261406292E+02 -0.23600369085E+02  0.35008181148E+02  0.49138243396E+02  0.14882614383E+02 0.  0.
         22    1    3    3    0    0  0.20261406292E+02  0.23600369085E+02 -0.29960715039E+02  0.43187341335E+02  0.00000000000E+00 0. -1.
         22    1    4    4    0    0 -0.16447461777E+02 -0.99427420636E+01  0.13939630228E+02  0.23742165225E+02  0.00000000000E+00 0. -1.
         22    1    4    4    0    0 -0.38139445145E+01 -0.13657627022E+02  0.21068550920E+02  0.25396078171E+02  0.00000000000E+00 0. -1.
<mgrwt>
<rscale>  0 0.92187508E+02</rscale>
<asrwt>0</asrwt>
<pdfrwt beam="2">  1        2 0.67137015E-02 0.92187508E+02</pdfrwt>
<pdfrwt beam="1">  1       -2 0.74902346E-02 0.92187508E+02</pdfrwt>
<totfact> 0.94509322E+04</totfact>
</mgrwt>
</event>
<event>
 7    1  0.3891761E-009  0.8618261E+02  0.7818608E-02  0.1312369E+00
          2   -1    0    0  501    0  0.00000000000E+00  0.00000000000E+00  0.16410839047E+02  0.16410839245E+02  0.25500000000E-02 0.  1.
         -2   -1    0    0    0  501 -0.00000000000E+00 -0.00000000000E+00 -0.11314842085E+03  0.11314842087E+03  0.25500000000E-02 0. -1.
         23    2    1    2    0    0  0.71054273576E-14  0.00000000000E+00 -0.96737581799E+02  0.12955926012E+03  0.86182609326E+02 0.  0.
    9000005    2    3    3    0    0  0.37515085013E+02  0.17755808951E+02 -0.37818384559E+02  0.57489001632E+02  0.12333075160E+02 0.  0.
         22    1    3    3    0    0 -0.37515085013E+02 -0.17755808951E+02 -0.58919197239E+02  0.72070258487E+02  0.00000000000E+00 0.  1.
         22    1    4    4    0    0  0.34280024437E+02  0.19608271285E+02 -0.33522953454E+02  0.51801474752E+02  0.00000000000E+00 0. -1.
         22    1    4    4    0    0  0.32350605765E+01 -0.18524623342E+01 -0.42954311054E+01  0.56875268803E+01  0.00000000000E+00 0. -1.
<mgrwt>
<rscale>  0 0.86182609E+02</rscale>
<asrwt>0</asrwt>
<pdfrwt beam="1">  1        2 0.25247446E-02 0.86182609E+02</pdfrwt>
<pdfrwt beam="2">  1       -2 0.17407449E-01 0.86182609E+02</pdfrwt>
<totfact> 0.88472089E+04</totfact>
</mgrwt>
</event>
<event>
 7    1  0.3891761E-009  0.9162078E+02  0.7818608E-02  0.1298974E+00
         -2   -1    0    0    0  501 -0.00000000000E+00  0.00000000000E+00  0.31172085840E+02  0.31172085944E+02  0.25500000000E-02 0.  1.
          2   -1    0    0  501    0  0.00000000000E+00 -0.00000000000E+00 -0.67322785263E+02  0.67322785311E+02  0.25500000000E-02 0. -1.
         23    2    1    2    0    0  0.55511151231E-16  0.00000000000E+00 -0.36150699423E+02  0.98494871255E+02  0.91620776000E+02 0.  0.
    9000005    2    3    3    0    0  0.29687138884E+00 -0.42238871099E+02 -0.13316779227E+01  0.43753893710E+02  0.11332232099E+02 0.  0.
         22    1    3    3    0    0 -0.29687138884E+00  0.42238871099E+02 -0.34819021500E+02  0.54740977545E+02  0.00000000000E+00 0. -1.
         22    1    4    4    0    0 -0.20997041834E+00 -0.28089757607E+02 -0.62285396470E+01  0.28772787076E+02  0.00000000000E+00 0. -1.
         22    1    4    4    0    0  0.50684180719E+00 -0.14149113492E+02  0.48968617243E+01  0.14981106634E+02  0.00000000000E+00 0. -1.
<mgrwt>
<rscale>  0 0.91620776E+02</rscale>
<asrwt>0</asrwt>
<pdfrwt beam="2">  1        2 0.10357352E-01 0.91620776E+02</pdfrwt>
<pdfrwt beam="1">  1       -2 0.47957055E-02 0.91620776E+02</pdfrwt>
<totfact> 0.10795407E+05</totfact>
</mgrwt>
</event>
<event>
 7    1  0.3891761E-009  0.9171257E+02  0.7818608E-02  0.1298757E+00
         -2   -1    0    0    0  501 -0.00000000000E+00  0.00000000000E+00  0.16632230912E+03  0.16632230914E+03  0.25500000000E-02 0.  1.
          2   -1    0    0  501    0  0.00000000000E+00 -0.00000000000E+00 -0.12642915402E+02  0.12642915659E+02  0.25500000000E-02 0. -1.
         23    2    1    2    0    0  0.00000000000E+00  0.00000000000E+00  0.15367939372E+03  0.17896522480E+03  0.91712570750E+02 0.  0.
    9000005    2    3    3    0    0  0.43344091542E+02  0.92622898028E+01  0.66861227267E+02  0.81487564230E+02  0.14328263275E+02 0.  0.
         22    1    3    3    0    0 -0.43344091542E+02 -0.92622898028E+01  0.86818166451E+02  0.97477660568E+02  0.00000000000E+00 0.  1.
         22    1    4    4    0    0  0.16004825577E+02  0.82716143367E+00  0.35990084066E+02  0.39397014974E+02  0.00000000000E+00 0.  1.
         22    1    4    4    0    0  0.27339265965E+02  0.84351283691E+01  0.30871143200E+02  0.42090549255E+02  0.00000000000E+00 0.  1.
<mgrwt>
<rscale>  0 0.91712571E+02</rscale>
<asrwt>0</asrwt>
<pdfrwt beam="2">  1        2 0.19450640E-02 0.91712571E+02</pdfrwt>
<pdfrwt beam="1">  1       -2 0.25588046E-01 0.91712571E+02</pdfrwt>
<totfact> 0.66209054E+04</totfact>
</mgrwt>
</event>
<event>
 7    1  0.3891761E-009  0.9441522E+02  0.7818608E-02  0.1292499E+00
          2   -1    0    0  501    0  0.00000000000E+00  0.00000000000E+00  0.90874872854E+03  0.90874872854E+03  0.25500000000E-02 0. -1.
         -2   -1    0    0    0  501 -0.00000000000E+00 -0.00000000000E+00 -0.24523365296E+01  0.24523378554E+01  0.25500000000E-02 0.  1.
         23    2    1    2    0    0  0.00000000000E+00  0.00000000000E+00  0.90629639201E+03  0.91120106640E+03  0.94415217181E+02 0.  0.
    9000005    2    3    3    0    0 -0.17556430196E+02 -0.24249732200E+02  0.80297604642E+03  0.80363075653E+03  0.12473329890E+02 0.  0.
         22    1    3    3    0    0  0.17556430196E+02  0.24249732200E+02  0.10332034558E+03  0.10757030987E+03  0.00000000000E+00 0.  1.
         22    1    4    4    0    0 -0.16401385889E+02 -0.25501676225E+02  0.72137439577E+03  0.72201132943E+03  0.00000000000E+00 0.  1.
         22    1    4    4    0    0 -0.11550443075E+01  0.12519440245E+01  0.81601650655E+02  0.81619427104E+02  0.00000000000E+00 0.  1.
<mgrwt>
<rscale>  0 0.94415217E+02</rscale>
<asrwt>0</asrwt>
<pdfrwt beam="1">  1        2 0.13980739E+00 0.94415217E+02</pdfrwt>
<pdfrwt beam="2">  1       -2 0.37728293E-03 0.94415217E+02</pdfrwt>
<totfact> 0.22636844E+05</totfact>
</mgrwt>
</event>
<event>
 7    1  0.3891761E-009  0.9219062E+02  0.7818608E-02  0.1297632E+00
          2   -1    0    0  501    0  0.00000000000E+00  0.00000000000E+00  0.91390958227E+01  0.91390961785E+01  0.25500000000E-02 0. -1.
         -2   -1    0    0    0  501 -0.00000000000E+00 -0.00000000000E+00 -0.23249320367E+03  0.23249320369E+03  0.25500000000E-02 0.  1.
         23    2    1    2    0    0  0.00000000000E+00  0.00000000000E+00 -0.22335410785E+03  0.24163229987E+03  0.92190622325E+02 0.  0.
    9000005    2    3    3    0    0 -0.20772521441E+02  0.35905944101E+02 -0.70590506885E+02  0.83336841154E+02  0.15533028114E+02 0.  0.
         22    1    3    3    0    0  0.20772521441E+02 -0.35905944101E+02 -0.15276360097E+03  0.15829545871E+03  0.00000000000E+00 0.  1.
         22    1    4    4    0    0 -0.31603390875E+01  0.44930408249E+00 -0.13435220245E+02  0.13809227362E+02  0.00000000000E+00 0.  1.
         22    1    4    4    0    0 -0.17612182354E+02  0.35456640019E+02 -0.57155286640E+02  0.69527613792E+02  0.00000000000E+00 0.  1.
<mgrwt>
<rscale>  0 0.92190622E+02</rscale>
<asrwt>0</asrwt>
<pdfrwt beam="1">  1        2 0.14060149E-02 0.92190622E+02</pdfrwt>
<pdfrwt beam="2">  1       -2 0.35768181E-01 0.92190622E+02</pdfrwt>
<totfact> 0.56573321E+04</totfact>
</mgrwt>
</event>
<event>
 7    1  0.3891761E-009  0.9179382E+02  0.7818608E-02  0.1298565E+00
          2   -1    0    0  501    0  0.00000000000E+00  0.00000000000E+00  0.36251940135E+02  0.36251940224E+02  0.25500000000E-02 0. -1.
         -2   -1    0    0    0  501 -0.00000000000E+00 -0.00000000000E+00 -0.58107961378E+02  0.58107961434E+02  0.25500000000E-02 0.  1.
         23    2    1    2    0    0 -0.17763568394E-14  0.17763568394E-14 -0.21856021244E+02  0.94359901659E+02  0.91793819925E+02 0.  0.
    9000005    2    3    3    0    0 -0.97528738274E+01  0.11374422022E+02 -0.54815057714E+02  0.58155010976E+02  0.12361987108E+02 0.  0.
         22    1    3    3    0    0  0.97528738274E+01 -0.11374422022E+02  0.32959036471E+02  0.36204890682E+02  0.00000000000E+00 0. -1.
         22    1    4    4    0    0 -0.10657283585E+02  0.13339743721E+02 -0.45663814433E+02  0.48751516946E+02  0.00000000000E+00 0.  1.
         22    1    4    4    0    0  0.90440975777E+00 -0.19653216993E+01 -0.91512432815E+01  0.94034940309E+01  0.00000000000E+00 0.  1.
<mgrwt>
<rscale>  0 0.91793820E+02</rscale>
<asrwt>0</asrwt>
<pdfrwt beam="1">  1        2 0.55772216E-02 0.91793820E+02</pdfrwt>
<pdfrwt beam="2">  1       -2 0.89396864E-02 0.91793820E+02</pdfrwt>
<totfact> 0.91169946E+04</totfact>
</mgrwt>
</event>
<event>
 7    1  0.3891761E-009  0.7750571E+02  0.7818608E-02  0.1336283E+00
          2   -1    0    0  501    0  0.00000000000E+00  0.00000000000E+00  0.34352556999E+02  0.34352557094E+02  0.25500000000E-02 0. -1.
         -2   -1    0    0    0  501 -0.00000000000E+00 -0.00000000000E+00 -0.43716796920E+02  0.43716796994E+02  0.25500000000E-02 0.  1.
         23    2    1    2    0    0  0.00000000000E+00  0.00000000000E+00 -0.93642399204E+01  0.78069354088E+02  0.77505709844E+02 0.  0.
    9000005    2    3    3    0    0 -0.10069254408E+02  0.33413746193E+02  0.10713210140E+02  0.37808053563E+02  0.98390916105E+01 0.  0.
         22    1    3    3    0    0  0.10069254408E+02 -0.33413746193E+02 -0.20077450061E+02  0.40261300525E+02  0.00000000000E+00 0.  1.
         22    1    4    4    0    0 -0.36620976105E+01  0.19591940294E+01  0.14232661325E+01  0.43903401506E+01  0.00000000000E+00 0. -1.
         22    1    4    4    0    0 -0.64071567977E+01  0.31454552164E+02  0.92899440077E+01  0.33417713413E+02  0.00000000000E+00 0. -1.
<mgrwt>
<rscale>  0 0.77505710E+02</rscale>
<asrwt>0</asrwt>
<pdfrwt beam="1">  1        2 0.52850088E-02 0.77505710E+02</pdfrwt>
<pdfrwt beam="2">  1       -2 0.67256611E-02 0.77505710E+02</pdfrwt>
<totfact> 0.14633489E+05</totfact>
</mgrwt>
</event>
<event>
 7    1  0.3891761E-009  0.9103163E+02  0.7818608E-02  0.1300373E+00
         -2   -1    0    0    0  501 -0.00000000000E+00  0.00000000000E+00  0.46259688971E+01  0.46259695999E+01  0.25500000000E-02 0.  1.
          2   -1    0    0  501    0  0.00000000000E+00 -0.00000000000E+00 -0.44783902033E+03  0.44783902034E+03  0.25500000000E-02 0. -1.
         23    2    1    2    0    0 -0.17763568394E-14  0.00000000000E+00 -0.44321305144E+03  0.45246498994E+03  0.91031632735E+02 0.  0.
    9000005    2    3    3    0    0  0.15549228796E+02 -0.41745398986E+02 -0.23079596077E+03  0.23542702723E+03  0.13215626644E+02 0.  0.
         22    1    3    3    0    0 -0.15549228796E+02  0.41745398986E+02 -0.21241709066E+03  0.21703796271E+03  0.00000000000E+00 0. -1.
         22    1    4    4    0    0  0.11567518457E+02 -0.17176638151E+02 -0.12776796313E+03  0.12943529961E+03  0.00000000000E+00 0. -1.
         22    1    4    4    0    0  0.39817103392E+01 -0.24568760834E+02 -0.10302799764E+03  0.10599172762E+03  0.00000000000E+00 0. -1.
<mgrwt>
<rscale>  0 0.91031633E+02</rscale>
<asrwt>0</asrwt>
<pdfrwt beam="2">  1        2 0.68898277E-01 0.91031633E+02</pdfrwt>
<pdfrwt beam="1">  1       -2 0.71168793E-03 0.91031633E+02</pdfrwt>
<totfact> 0.20857641E+05</totfact>
</mgrwt>
</event>
<event>
 7    1  0.3891761E-009  0.8977618E+02  0.7818608E-02  0.1303395E+00
          2   -1    0    0  501    0  0.00000000000E+00  0.00000000000E+00  0.30479052282E+02  0.30479052389E+02  0.25500000000E-02 0. -1.
         -2   -1    0    0    0  501 -0.00000000000E+00 -0.00000000000E+00 -0.66109027029E+02  0.66109027078E+02  0.25500000000E-02 0.  1.
         23    2    1    2    0    0  0.00000000000E+00  0.71054273576E-14 -0.35629974747E+02  0.96588079467E+02  0.89776177211E+02 0.  0.
    9000005    2    3    3    0    0 -0.19561410430E+02  0.39759906900E+02 -0.17127500363E+02  0.48568911074E+02  0.10103904172E+02 0.  0.
         22    1    3    3    0    0  0.19561410430E+02 -0.39759906900E+02 -0.18502474384E+02  0.48019168392E+02  0.00000000000E+00 0. -1.
         22    1    4    4    0    0 -0.78852606590E+01  0.23249142992E+02 -0.52113964982E+01  0.25096984659E+02  0.00000000000E+00 0.  1.
         22    1    4    4    0    0 -0.11676149771E+02  0.16510763909E+02 -0.11916103865E+02  0.23471926415E+02  0.00000000000E+00 0.  1.
<mgrwt>
<rscale>  0 0.89776177E+02</rscale>
<asrwt>0</asrwt>
<pdfrwt beam="1">  1        2 0.46890850E-02 0.89776177E+02</pdfrwt>
<pdfrwt beam="2">  1       -2 0.10170620E-01 0.89776177E+02</pdfrwt>
<totfact> 0.92999938E+04</totfact>
</mgrwt>
</event>
<event>
 7    1  0.3891761E-009  0.9261846E+02  0.7818608E-02  0.1296632E+00
          2   -1    0    0  501    0  0.00000000000E+00  0.00000000000E+00  0.14432187812E+02  0.14432188038E+02  0.25500000000E-02 0. -1.
         -2   -1    0    0    0  501 -0.00000000000E+00 -0.00000000000E+00 -0.14859456883E+03  0.14859456885E+03  0.25500000000E-02 0.  1.
         23    2    1    2    0    0  0.00000000000E+00  0.00000000000E+00 -0.13416238102E+03  0.16302675689E+03  0.92618459184E+02 0.  0.
    9000005    2    3    3    0    0  0.64979268506E+01  0.45389702862E+02 -0.56267287654E+02  0.72638185989E+02  0.28018252127E+01 0.  0.
         22    1    3    3    0    0 -0.64979268506E+01 -0.45389702862E+02 -0.77895093363E+02  0.90388570900E+02  0.00000000000E+00 0. -1.
         22    1    4    4    0    0  0.18193569093E+01  0.22537234733E+02 -0.27460303405E+02  0.35571129755E+02  0.00000000000E+00 0. -1.
         22    1    4    4    0    0  0.46785699413E+01  0.22852468130E+02 -0.28806984249E+02  0.37067056234E+02  0.00000000000E+00 0. -1.
<mgrwt>
<rscale>  0 0.92618459E+02</rscale>
<asrwt>0</asrwt>
<pdfrwt beam="1">  1        2 0.22203367E-02 0.92618459E+02</pdfrwt>
<pdfrwt beam="2">  1       -2 0.22860702E-01 0.92618459E+02</pdfrwt>
<totfact> 0.67364613E+04</totfact>
</mgrwt>
</event>
<event>
 7    1  0.3891761E-009  0.8953742E+02  0.7818608E-02  0.1303976E+00
         -2   -1    0    0    0  501 -0.00000000000E+00  0.00000000000E+00  0.62266677039E+03  0.62266677039E+03  0.25500000000E-02 0. -1.
          2   -1    0    0  501    0  0.00000000000E+00 -0.00000000000E+00 -0.32187958171E+01  0.32187968272E+01  0.25500000000E-02 0.  1.
         23    2    1    2    0    0  0.00000000000E+00  0.00000000000E+00  0.61944797457E+03  0.62588556722E+03  0.89537422650E+02 0.  0.
    9000005    2    3    3    0    0  0.26284833013E+02  0.33012236698E+02  0.39068935855E+03  0.39326741526E+03  0.15504347829E+02 0.  0.
         22    1    3    3    0    0 -0.26284833013E+02 -0.33012236698E+02  0.22875861602E+03  0.23261815196E+03  0.00000000000E+00 0.  1.
         22    1    4    4    0    0  0.22127777472E+02  0.21040948285E+02  0.22009095288E+03  0.22219898195E+03  0.00000000000E+00 0.  1.
         22    1    4    4    0    0  0.41570555407E+01  0.11971288413E+02  0.17059840567E+03  0.17106843331E+03  0.00000000000E+00 0.  1.
<mgrwt>
<rscale>  0 0.89537423E+02</rscale>
<asrwt>0</asrwt>
<pdfrwt beam="2">  1        2 0.49519917E-03 0.89537423E+02</pdfrwt>
<pdfrwt beam="1">  1       -2 0.95794939E-01 0.89537423E+02</pdfrwt>
<totfact> 0.31722909E+04</totfact>
</mgrwt>
</event>
<event>
 7    1  0.3891761E-009  0.8919088E+02  0.7818608E-02  0.1304823E+00
          2   -1    0    0  501    0  0.00000000000E+00  0.00000000000E+00  0.29544363066E+03  0.29544363067E+03  0.25500000000E-02 0.  1.
         -2   -1    0    0    0  501 -0.00000000000E+00 -0.00000000000E+00 -0.67314140551E+01  0.67314145381E+01  0.25500000000E-02 0. -1.
         23    2    1    2    0    0  0.00000000000E+00  0.00000000000E+00  0.28871221661E+03  0.30217504521E+03  0.89190884794E+02 0.  0.
    9000005    2    3    3    0    0  0.14099896225E+02  0.39920253658E+02  0.17933946134E+03  0.18489404368E+03  0.15189840967E+02 0.  0.
         22    1    3    3    0    0 -0.14099896225E+02 -0.39920253658E+02  0.10937275527E+03  0.11728100154E+03  0.00000000000E+00 0. -1.
         22    1    4    4    0    0 -0.14099838712E+01  0.15835488722E+02  0.76797470999E+02  0.78425775798E+02  0.00000000000E+00 0.  1.
         22    1    4    4    0    0  0.15509880097E+02  0.24084764937E+02  0.10254199034E+03  0.10646826788E+03  0.00000000000E+00 0.  1.
<mgrwt>
<rscale>  0 0.89190885E+02</rscale>
<asrwt>0</asrwt>
<pdfrwt beam="1">  1        2 0.45452854E-01 0.89190885E+02</pdfrwt>
<pdfrwt beam="2">  1       -2 0.10356025E-02 0.89190885E+02</pdfrwt>
<totfact> 0.18943346E+05</totfact>
</mgrwt>
</event>
<event>
 7    1  0.3891761E-009  0.9293362E+02  0.7818608E-02  0.1295899E+00
          2   -1    0    0  501    0  0.00000000000E+00  0.00000000000E+00  0.80743415818E+01  0.80743419845E+01  0.25500000000E-02 0.  1.
         -2   -1    0    0    0  501 -0.00000000000E+00 -0.00000000000E+00 -0.26741057621E+03  0.26741057622E+03  0.25500000000E-02 0. -1.
         23    2    1    2    0    0  0.00000000000E+00  0.71054273576E-14 -0.25933623463E+03  0.27548491820E+03  0.92933619149E+02 0.  0.
    9000005    2    3    3    0    0  0.17230150524E+02 -0.37861127579E+02 -0.77861674100E+02  0.89303933174E+02  0.13505891978E+02 0.  0.
         22    1    3    3    0    0 -0.17230150524E+02  0.37861127579E+02 -0.18147456053E+03  0.18618098503E+03  0.00000000000E+00 0. -1.
         22    1    4    4    0    0  0.11371501069E+02 -0.22898441556E+02 -0.33636543254E+02  0.42250049755E+02  0.00000000000E+00 0.  1.
         22    1    4    4    0    0  0.58586494543E+01 -0.14962686024E+02 -0.44225130846E+02  0.47053883419E+02  0.00000000000E+00 0.  1.
<mgrwt>
<rscale>  0 0.92933619E+02</rscale>
<asrwt>0</asrwt>
<pdfrwt beam="1">  1        2 0.12422066E-02 0.92933619E+02</pdfrwt>
<pdfrwt beam="2">  1       -2 0.41140082E-01 0.92933619E+02</pdfrwt>
<totfact> 0.51678816E+04</totfact>
</mgrwt>
</event>
<event>
 7    1  0.3891761E-009  0.9367720E+02  0.7818608E-02  0.1294183E+00
         -2   -1    0    0    0  501 -0.00000000000E+00  0.00000000000E+00  0.22056053045E+02  0.22056053192E+02  0.25500000000E-02 0.  1.
          2   -1    0    0  501    0  0.00000000000E+00 -0.00000000000E+00 -0.99467237365E+02  0.99467237397E+02  0.25500000000E-02 0. -1.
         23    2    1    2    0    0  0.00000000000E+00  0.00000000000E+00 -0.77411184320E+02  0.12152329059E+03  0.93677204793E+02 0.  0.
    9000005    2    3    3    0    0 -0.34716493345E+02  0.87316564060E+01 -0.76794259826E+02  0.85720255388E+02  0.13004887843E+02 0.  0.
         22    1    3    3    0    0  0.34716493345E+02 -0.87316564060E+01 -0.61692449391E+00  0.35803035201E+02  0.00000000000E+00 0.  1.
         22    1    4    4    0    0 -0.35495628906E+02  0.92521527293E+01 -0.71676950147E+02  0.80517868724E+02  0.00000000000E+00 0.  1.
         22    1    4    4    0    0  0.77913556110E+00 -0.52049632326E+00 -0.51173096794E+01  0.52023866638E+01  0.00000000000E+00 0.  1.
<mgrwt>
<rscale>  0 0.93677205E+02</rscale>
<asrwt>0</asrwt>
<pdfrwt beam="2">  1        2 0.15302652E-01 0.93677205E+02</pdfrwt>
<pdfrwt beam="1">  1       -2 0.33932390E-02 0.93677205E+02</pdfrwt>
<totfact> 0.11366027E+05</totfact>
</mgrwt>
</event>
<event>
 7    1  0.3891761E-009  0.8947066E+02  0.7818608E-02  0.1304139E+00
          2   -1    0    0  501    0  0.00000000000E+00  0.00000000000E+00  0.52356976031E+02  0.52356976093E+02  0.25500000000E-02 0. -1.
         -2   -1    0    0    0  501 -0.00000000000E+00 -0.00000000000E+00 -0.38223173673E+02  0.38223173758E+02  0.25500000000E-02 0.  1.
         23    2    1    2    0    0  0.00000000000E+00  0.00000000000E+00  0.14133802358E+02  0.90580149852E+02  0.89470660990E+02 0.  0.
    9000005    2    3    3    0    0  0.29349376581E+02  0.24748316104E+02 -0.15611672255E+02  0.42014129677E+02  0.68991105417E+01 0.  0.
         22    1    3    3    0    0 -0.29349376581E+02 -0.24748316104E+02  0.29745474613E+02  0.48566020175E+02  0.00000000000E+00 0. -1.
         22    1    4    4    0    0  0.99173208429E+01  0.11950243882E+02 -0.41387160166E+01  0.16071420342E+02  0.00000000000E+00 0.  1.
         22    1    4    4    0    0  0.19432055738E+02  0.12798072221E+02 -0.11472956238E+02  0.25942709335E+02  0.00000000000E+00 0.  1.
<mgrwt>
<rscale>  0 0.89470661E+02</rscale>
<asrwt>0</asrwt>
<pdfrwt beam="1">  1        2 0.80549193E-02 0.89470661E+02</pdfrwt>
<pdfrwt beam="2">  1       -2 0.58804883E-02 0.89470661E+02</pdfrwt>
<totfact> 0.10793504E+05</totfact>
</mgrwt>
</event>
<event>
 7    1  0.3891761E-009  0.8925119E+02  0.7818608E-02  0.1304675E+00
         -2   -1    0    0    0  501 -0.00000000000E+00  0.00000000000E+00  0.10141619603E+02  0.10141619924E+02  0.25500000000E-02 0.  1.
          2   -1    0    0  501    0  0.00000000000E+00 -0.00000000000E+00 -0.19636349099E+03  0.19636349100E+03  0.25500000000E-02 0. -1.
         23    2    1    2    0    0  0.00000000000E+00  0.00000000000E+00 -0.18622187138E+03  0.20650511093E+03  0.89251193031E+02 0.  0.
    9000005    2    3    3    0    0 -0.64708202665E+01  0.31905511876E+02 -0.22644276580E+02  0.39719431912E+02  0.22442830832E+01 0.  0.
         22    1    3    3    0    0  0.64708202665E+01 -0.31905511876E+02 -0.16357759480E+03  0.16678567901E+03  0.00000000000E+00 0. -1.
         22    1    4    4    0    0 -0.28510504492E+01  0.14424416051E+02 -0.88757485283E+01  0.17174725005E+02  0.00000000000E+00 0. -1.
         22    1    4    4    0    0 -0.36197698172E+01  0.17481095826E+02 -0.13768528052E+02  0.22544706907E+02  0.00000000000E+00 0. -1.
<mgrwt>
<rscale>  0 0.89251193E+02</rscale>
<asrwt>0</asrwt>
<pdfrwt beam="2">  1        2 0.30209765E-01 0.89251193E+02</pdfrwt>
<pdfrwt beam="1">  1       -2 0.15602493E-02 0.89251193E+02</pdfrwt>
<totfact> 0.16273394E+05</totfact>
</mgrwt>
</event>
<event>
 7    1  0.3891761E-009  0.9699828E+02  0.7818608E-02  0.1286738E+00
         -2   -1    0    0    0  501 -0.00000000000E+00  0.00000000000E+00  0.81073722839E+01  0.81073726849E+01  0.25500000000E-02 0.  1.
          2   -1    0    0  501    0  0.00000000000E+00 -0.00000000000E+00 -0.29012689292E+03  0.29012689293E+03  0.25500000000E-02 0. -1.
         23    2    1    2    0    0  0.00000000000E+00  0.00000000000E+00 -0.28201952064E+03  0.29823426562E+03  0.96998284355E+02 0.  0.
    9000005    2    3    3    0    0 -0.50169515516E+01  0.29480596548E+02 -0.25755944636E+03  0.25960046424E+03  0.12698710346E+02 0.  0.
         22    1    3    3    0    0  0.50169515516E+01 -0.29480596548E+02 -0.24460074273E+02  0.38633801381E+02  0.00000000000E+00 0.  1.
         22    1    4    4    0    0  0.12899316477E+01  0.84895953707E+01 -0.38434820396E+02  0.39382389111E+02  0.00000000000E+00 0. -1.
         22    1    4    4    0    0 -0.63068831993E+01  0.20991001178E+02 -0.21912462597E+03  0.22021807512E+03  0.00000000000E+00 0. -1.
<mgrwt>
<rscale>  0 0.96998284E+02</rscale>
<asrwt>0</asrwt>
<pdfrwt beam="2">  1        2 0.44634899E-01 0.96998284E+02</pdfrwt>
<pdfrwt beam="1">  1       -2 0.12472883E-02 0.96998284E+02</pdfrwt>
<totfact> 0.15030860E+05</totfact>
</mgrwt>
</event>
<event>
 7    1  0.3891761E-009  0.9183816E+02  0.7818608E-02  0.1298460E+00
          2   -1    0    0  501    0  0.00000000000E+00  0.00000000000E+00  0.27339209053E+02  0.27339209171E+02  0.25500000000E-02 0. -1.
         -2   -1    0    0    0  501 -0.00000000000E+00 -0.00000000000E+00 -0.77125933431E+02  0.77125933473E+02  0.25500000000E-02 0.  1.
         23    2    1    2    0    0  0.00000000000E+00  0.00000000000E+00 -0.49786724378E+02  0.10446514264E+03  0.91838162565E+02 0.  0.
    9000005    2    3    3    0    0  0.38145297195E+00 -0.14504048843E+02 -0.73914219377E+02  0.76311120656E+02  0.12229569509E+02 0.  0.
         22    1    3    3    0    0 -0.38145297195E+00  0.14504048843E+02  0.24127494999E+02  0.28154021989E+02  0.00000000000E+00 0. -1.
         22    1    4    4    0    0 -0.13943568653E+01 -0.39715494973E+01 -0.48328755747E+01  0.64089096419E+01  0.00000000000E+00 0.  1.
         22    1    4    4    0    0  0.17758098372E+01 -0.10532499345E+02 -0.69081343802E+02  0.69902211014E+02  0.00000000000E+00 0.  1.
<mgrwt>
<rscale>  0 0.91838163E+02</rscale>
<asrwt>0</asrwt>
<pdfrwt beam="1">  1        2 0.42060322E-02 0.91838163E+02</pdfrwt>
<pdfrwt beam="2">  1       -2 0.11865528E-01 0.91838163E+02</pdfrwt>
<totfact> 0.84428218E+04</totfact>
</mgrwt>
</event>
<event>
 7    1  0.3891761E-009  0.9101904E+02  0.7818608E-02  0.1300403E+00
          2   -1    0    0  501    0  0.00000000000E+00  0.00000000000E+00  0.25562872281E+04  0.25562872281E+04  0.25500000000E-02 0. -1.
         -2   -1    0    0    0  501 -0.00000000000E+00 -0.00000000000E+00 -0.81020281640E+00  0.81020682927E+00  0.25500000000E-02 0.  1.
         23    2    1    2    0    0  0.00000000000E+00  0.00000000000E+00  0.25554770253E+04  0.25570974350E+04  0.91019036339E+02 0.  0.
    9000005    2    3    3    0    0  0.58948507389E+01  0.82248392150E+01  0.25236594609E+04  0.25237094933E+04  0.12252941065E+02 0.  0.
         22    1    3    3    0    0 -0.58948507389E+01 -0.82248392150E+01  0.31817564399E+02  0.33387941680E+02  0.00000000000E+00 0.  1.
         22    1    4    4    0    0  0.66475853174E+01  0.26921369155E+01  0.21118680950E+04  0.21118802733E+04  0.00000000000E+00 0. -1.
         22    1    4    4    0    0 -0.75273457850E+00  0.55327022995E+01  0.41179136587E+03  0.41182921996E+03  0.00000000000E+00 0. -1.
<mgrwt>
<rscale>  0 0.91019036E+02</rscale>
<asrwt>0</asrwt>
<pdfrwt beam="1">  1        2 0.39326950E+00 0.91019036E+02</pdfrwt>
<pdfrwt beam="2">  1       -2 0.12464862E-03 0.91019036E+02</pdfrwt>
<totfact> 0.14372835E+05</totfact>
</mgrwt>
</event>
<event>
 7    1  0.3891761E-009  0.9017797E+02  0.7818608E-02  0.1302421E+00
         -2   -1    0    0    0  501 -0.00000000000E+00  0.00000000000E+00  0.64756309447E+01  0.64756314468E+01  0.25500000000E-02 0.  1.
          2   -1    0    0  501    0  0.00000000000E+00 -0.00000000000E+00 -0.31394878945E+03  0.31394878946E+03  0.25500000000E-02 0. -1.
         23    2    1    2    0    0  0.00000000000E+00  0.00000000000E+00 -0.30747315851E+03  0.32042442091E+03  0.90177970217E+02 0.  0.
    9000005    2    3    3    0    0  0.24577731944E+02 -0.56340111375E+01 -0.28645252662E+03  0.28759647620E+03  0.45690397861E+01 0.  0.
         22    1    3    3    0    0 -0.24577731944E+02  0.56340111375E+01 -0.21020631884E+02  0.32827944709E+02  0.00000000000E+00 0.  1.
         22    1    4    4    0    0  0.23606972963E+02 -0.61529150449E+01 -0.27878218673E+03  0.27984755703E+03  0.00000000000E+00 0. -1.
         22    1    4    4    0    0  0.97075898188E+00  0.51890390733E+00 -0.76703398895E+01  0.77489191689E+01  0.00000000000E+00 0. -1.
<mgrwt>
<rscale>  0 0.90177970E+02</rscale>
<asrwt>0</asrwt>
<pdfrwt beam="2">  1        2 0.48299802E-01 0.90177970E+02</pdfrwt>
<pdfrwt beam="1">  1       -2 0.99625120E-03 0.90177970E+02</pdfrwt>
<totfact> 0.18816148E+05</totfact>
</mgrwt>
</event>
<event>
 7    1  0.3891761E-009  0.9003644E+02  0.7818608E-02  0.1302763E+00
         -2   -1    0    0    0  501 -0.00000000000E+00  0.00000000000E+00  0.56802019079E+02  0.56802019136E+02  0.25500000000E-02 0.  1.
          2   -1    0    0  501    0  0.00000000000E+00 -0.00000000000E+00 -0.35679013531E+02  0.35679013622E+02  0.25500000000E-02 0. -1.
         23    2    1    2    0    0  0.00000000000E+00  0.00000000000E+00  0.21123005548E+02  0.92481032758E+02  0.90036437383E+02 0.  0.
    9000005    2    3    3    0    0 -0.17054081724E+02  0.87599274603E+01  0.52095081585E+02  0.56055114423E+02  0.77910394111E+01 0.  0.
         22    1    3    3    0    0  0.17054081724E+02 -0.87599274603E+01 -0.30972076036E+02  0.36425918335E+02  0.00000000000E+00 0. -1.
         22    1    4    4    0    0 -0.13294130588E+02  0.10097195806E+02  0.41331243035E+02  0.44575317408E+02  0.00000000000E+00 0. -1.
         22    1    4    4    0    0 -0.37599511364E+01 -0.13372683458E+01  0.10763838550E+02  0.11479797015E+02  0.00000000000E+00 0. -1.
<mgrwt>
<rscale>  0 0.90036437E+02</rscale>
<asrwt>0</asrwt>
<pdfrwt beam="2">  1        2 0.54890791E-02 0.90036437E+02</pdfrwt>
<pdfrwt beam="1">  1       -2 0.87387721E-02 0.90036437E+02</pdfrwt>
<totfact> 0.96063373E+04</totfact>
</mgrwt>
</event>
<event>
 7    1  0.4112937E-009  0.9133473E+02  0.7818608E-02  0.1299651E+00
          2   -1    0    0  501    0  0.00000000000E+00  0.00000000000E+00  0.89037235608E+02  0.89037235645E+02  0.25500000000E-02 0. -1.
         -2   -1    0    0    0  501 -0.00000000000E+00 -0.00000000000E+00 -0.23422875324E+02  0.23422875463E+02  0.25500000000E-02 0.  1.
         23    2    1    2    0    0  0.00000000000E+00 -0.35527136788E-14  0.65614360284E+02  0.11246011111E+03  0.91334726774E+02 0.  0.
    9000005    2    3    3    0    0 -0.30784038102E+02  0.31232714562E+02  0.41295811304E+02  0.62315008802E+02  0.15958597368E+02 0.  0.
         22    1    3    3    0    0  0.30784038102E+02 -0.31232714562E+02  0.24318548980E+02  0.50145102306E+02  0.00000000000E+00 0.  1.
         22    1    4    4    0    0 -0.46762879366E+01  0.15296317413E+02  0.12421898524E+02  0.20252124783E+02  0.00000000000E+00 0.  1.
         22    1    4    4    0    0 -0.26107750166E+02  0.15936397149E+02  0.28873912780E+02  0.42062884019E+02  0.00000000000E+00 0.  1.
<mgrwt>
<rscale>  0 0.91334727E+02</rscale>
<asrwt>0</asrwt>
<pdfrwt beam="1">  1        2 0.13698036E-01 0.91334727E+02</pdfrwt>
<pdfrwt beam="2">  1       -2 0.36035193E-02 0.91334727E+02</pdfrwt>
<totfact> 0.11791522E+05</totfact>
</mgrwt>
</event>
<event>
 7    1  0.3891761E-009  0.9390567E+02  0.7818608E-02  0.1293660E+00
          2   -1    0    0  501    0  0.00000000000E+00  0.00000000000E+00  0.21763806121E+03  0.21763806122E+03  0.25500000000E-02 0. -1.
         -2   -1    0    0    0  501 -0.00000000000E+00 -0.00000000000E+00 -0.10129518885E+02  0.10129519206E+02  0.25500000000E-02 0.  1.
         23    2    1    2    0    0  0.00000000000E+00  0.00000000000E+00  0.20750854232E+03  0.22776758043E+03  0.93905673723E+02 0.  0.
    9000005    2    3    3    0    0 -0.40073464145E+02 -0.46303085577E+01  0.16051377531E+03  0.16583349924E+03  0.10428572311E+02 0.  0.
         22    1    3    3    0    0  0.40073464145E+02  0.46303085577E+01  0.46994767013E+02  0.61934081188E+02  0.00000000000E+00 0.  1.
         22    1    4    4    0    0 -0.30741308456E+02 -0.29613324312E+00  0.13160815181E+03  0.13515110566E+03  0.00000000000E+00 0.  1.
         22    1    4    4    0    0 -0.93321556892E+01 -0.43341753145E+01  0.28905623502E+02  0.30682393575E+02  0.00000000000E+00 0.  1.
<mgrwt>
<rscale>  0 0.93905674E+02</rscale>
<asrwt>0</asrwt>
<pdfrwt beam="1">  1        2 0.33482779E-01 0.93905674E+02</pdfrwt>
<pdfrwt beam="2">  1       -2 0.15583875E-02 0.93905674E+02</pdfrwt>
<totfact> 0.14732964E+05</totfact>
</mgrwt>
</event>
<event>
 7    1  0.3891761E-009  0.9114120E+02  0.7818608E-02  0.1300111E+00
          2   -1    0    0  501    0  0.00000000000E+00  0.00000000000E+00  0.42245823959E+02  0.42245824036E+02  0.25500000000E-02 0. -1.
         -2   -1    0    0    0  501 -0.00000000000E+00 -0.00000000000E+00 -0.49157037171E+02  0.49157037237E+02  0.25500000000E-02 0.  1.
         23    2    1    2    0    0  0.00000000000E+00  0.00000000000E+00 -0.69112132119E+01  0.91402861272E+02  0.91141199140E+02 0.  0.
    9000005    2    3    3    0    0  0.11470944199E+02  0.30618270979E+02 -0.34752101687E+02  0.48458989187E+02  0.84560027656E+01 0.  0.
         22    1    3    3    0    0 -0.11470944199E+02 -0.30618270979E+02  0.27840888476E+02  0.42943872085E+02  0.00000000000E+00 0. -1.
         22    1    4    4    0    0  0.32693878484E+01  0.19995114960E+02 -0.19146554907E+02  0.27876227937E+02  0.00000000000E+00 0.  1.
         22    1    4    4    0    0  0.82015563503E+01  0.10623156019E+02 -0.15605546780E+02  0.20582761250E+02  0.00000000000E+00 0.  1.
<mgrwt>
<rscale>  0 0.91141199E+02</rscale>
<asrwt>0</asrwt>
<pdfrwt beam="1">  1        2 0.64993575E-02 0.91141199E+02</pdfrwt>
<pdfrwt beam="2">  1       -2 0.75626211E-02 0.91141199E+02</pdfrwt>
<totfact> 0.96855850E+04</totfact>
</mgrwt>
</event>
<event>
 7    1  0.3891761E-009  0.9045262E+02  0.7818608E-02  0.1301759E+00
         -2   -1    0    0    0  501 -0.00000000000E+00  0.00000000000E+00  0.19797866191E+01  0.19797882613E+01  0.25500000000E-02 0.  1.
          2   -1    0    0  501    0  0.00000000000E+00 -0.00000000000E+00 -0.10331507809E+04  0.10331507809E+04  0.25500000000E-02 0. -1.
         23    2    1    2    0    0  0.00000000000E+00  0.00000000000E+00 -0.10311709943E+04  0.10351305692E+04  0.90452616173E+02 0.  0.
    9000005    2    3    3    0    0 -0.21480411467E+02  0.15367395538E+02 -0.93201100058E+03  0.93251346887E+03  0.15469308259E+02 0.  0.
         22    1    3    3    0    0  0.21480411467E+02 -0.15367395538E+02 -0.99159993728E+02  0.10261710032E+03  0.00000000000E+00 0.  1.
         22    1    4    4    0    0 -0.22833700427E+02  0.16774245015E+02 -0.82913498627E+03  0.82961893579E+03  0.00000000000E+00 0.  1.
         22    1    4    4    0    0  0.13532889604E+01 -0.14068494767E+01 -0.10287601431E+03  0.10289453307E+03  0.00000000000E+00 0.  1.
<mgrwt>
<rscale>  0 0.90452616E+02</rscale>
<asrwt>0</asrwt>
<pdfrwt beam="2">  1        2 0.15894584E+00 0.90452616E+02</pdfrwt>
<pdfrwt beam="1">  1       -2 0.30458351E-03 0.90452616E+02</pdfrwt>
<totfact> 0.25557976E+05</totfact>
</mgrwt>
</event>
<event>
 7    1  0.3891761E-009  0.9021823E+02  0.7818608E-02  0.1302324E+00
         -2   -1    0    0    0  501 -0.00000000000E+00  0.00000000000E+00  0.48335512621E+02  0.48335512688E+02  0.25500000000E-02 0.  1.
          2   -1    0    0  501    0  0.00000000000E+00 -0.00000000000E+00 -0.42098075388E+02  0.42098075465E+02  0.25500000000E-02 0. -1.
         23    2    1    2    0    0 -0.71054273576E-14  0.00000000000E+00  0.62374372332E+01  0.90433588153E+02  0.90218225669E+02 0.  0.
    9000005    2    3    3    0    0 -0.35846849372E+02  0.24643554060E+02  0.15035446569E+02  0.46052214414E+02  0.15621883146E+01 0.  0.
         22    1    3    3    0    0  0.35846849372E+02 -0.24643554060E+02 -0.87980093355E+01  0.44381373738E+02  0.00000000000E+00 0. -1.
         22    1    4    4    0    0 -0.25135241171E+02  0.17864145071E+02  0.10101371761E+02  0.32449125401E+02  0.00000000000E+00 0. -1.
         22    1    4    4    0    0 -0.10711608201E+02  0.67794089889E+01  0.49340748077E+01  0.13603089013E+02  0.00000000000E+00 0. -1.
<mgrwt>
<rscale>  0 0.90218226E+02</rscale>
<asrwt>0</asrwt>
<pdfrwt beam="2">  1        2 0.64766271E-02 0.90218226E+02</pdfrwt>
<pdfrwt beam="1">  1       -2 0.74362326E-02 0.90218226E+02</pdfrwt>
<totfact> 0.99647049E+04</totfact>
</mgrwt>
</event>
<event>
 6    1  0.3891761E-009  0.1865509E+03  0.7818608E-02  0.1161610E+00
          2   -1    0    0  501    0  0.00000000000E+00  0.00000000000E+00  0.10143606010E+04  0.10143606010E+04  0.25500000000E-02 0. -1.
         -2   -1    0    0    0  501 -0.00000000000E+00 -0.00000000000E+00 -0.85771332279E+01  0.85771336070E+01  0.25500000000E-02 0.  1.
    9000005    2    1    2    0    0 -0.27818704253E+02 -0.78513569223E+02  0.73067574118E+03  0.73549639784E+03  0.11386466432E+02 0.  0.
         22    1    1    2    0    0  0.27818704253E+02  0.78513569223E+02  0.27510772663E+03  0.28744133681E+03  0.00000000000E+00 0.  1.
         22    1    3    3    0    0 -0.21974644166E+02 -0.56186140324E+02  0.48468880700E+03  0.48842912176E+03  0.00000000000E+00 0.  1.
         22    1    3    3    0    0 -0.58440600870E+01 -0.22327428900E+02  0.24598693419E+03  0.24706727608E+03  0.00000000000E+00 0.  1.
<mgrwt>
<rscale>  0 0.18655086E+03</rscale>
<asrwt>0</asrwt>
<pdfrwt beam="1">  1        2 0.15605537E+00 0.18655086E+03</pdfrwt>
<pdfrwt beam="2">  1       -2 0.13195599E-02 0.18655086E+03</pdfrwt>
<totfact> 0.35541955E+04</totfact>
</mgrwt>
</event>
<event>
 7    1  0.3891761E-009  0.9429748E+02  0.7818608E-02  0.1292766E+00
         -2   -1    0    0    0  501 -0.00000000000E+00  0.00000000000E+00  0.33865273874E+01  0.33865283474E+01  0.25500000000E-02 0.  1.
          2   -1    0    0  501    0  0.00000000000E+00 -0.00000000000E+00 -0.65642562763E+03  0.65642562764E+03  0.25500000000E-02 0. -1.
         23    2    1    2    0    0  0.00000000000E+00  0.00000000000E+00 -0.65303910024E+03  0.65981215598E+03  0.94297480011E+02 0.  0.
    9000005    2    3    3    0    0  0.75651354058E+01  0.40948799641E+02 -0.47224592567E+03  0.47428531846E+03  0.14011193294E+02 0.  0.
         22    1    3    3    0    0 -0.75651354058E+01 -0.40948799641E+02 -0.18079317458E+03  0.18552683752E+03  0.00000000000E+00 0.  1.
         22    1    4    4    0    0  0.14278230919E+01  0.79300085133E+00 -0.46555298322E+01  0.49337092689E+01  0.00000000000E+00 0. -1.
         22    1    4    4    0    0  0.61373123139E+01  0.40155798790E+02 -0.46759039583E+03  0.46935160920E+03  0.00000000000E+00 0. -1.
<mgrwt>
<rscale>  0 0.94297480E+02</rscale>
<asrwt>0</asrwt>
<pdfrwt beam="2">  1        2 0.10098846E+00 0.94297480E+02</pdfrwt>
<pdfrwt beam="1">  1       -2 0.52100481E-03 0.94297480E+02</pdfrwt>
<totfact> 0.21356811E+05</totfact>
</mgrwt>
</event>
<event>
 7    1  0.3891761E-009  0.8822462E+02  0.7818608E-02  0.1307209E+00
         -2   -1    0    0    0  501 -0.00000000000E+00  0.00000000000E+00  0.29014629024E+03  0.29014629025E+03  0.25500000000E-02 0. -1.
          2   -1    0    0  501    0  0.00000000000E+00 -0.00000000000E+00 -0.67066022125E+01  0.67066026973E+01  0.25500000000E-02 0.  1.
         23    2    1    2    0    0  0.00000000000E+00  0.71054273576E-14  0.28343968802E+03  0.29685289294E+03  0.88224618461E+02 0.  0.
    9000005    2    3    3    0    0 -0.20248370692E+02 -0.34631301615E+02  0.20076926401E+03  0.20496316243E+03  0.96060926152E+01 0.  0.
         22    1    3    3    0    0  0.20248370692E+02  0.34631301615E+02  0.82670424009E+02  0.91889730509E+02  0.00000000000E+00 0.  1.
         22    1    4    4    0    0 -0.63741661250E+01 -0.20386572444E+02  0.10569352275E+03  0.10783025123E+03  0.00000000000E+00 0.  1.
         22    1    4    4    0    0 -0.13874204567E+02 -0.14244729171E+02  0.95075741268E+02  0.97132911206E+02  0.00000000000E+00 0.  1.
<mgrwt>
<rscale>  0 0.88224618E+02</rscale>
<asrwt>0</asrwt>
<pdfrwt beam="2">  1        2 0.10317850E-02 0.88224618E+02</pdfrwt>
<pdfrwt beam="1">  1       -2 0.44637889E-01 0.88224618E+02</pdfrwt>
<totfact> 0.56544162E+04</totfact>
</mgrwt>
</event>
<event>
 7    1  0.3891761E-009  0.9182926E+02  0.7818608E-02  0.1298481E+00
         -2   -1    0    0    0  501 -0.00000000000E+00  0.00000000000E+00  0.44475947117E+02  0.44475947190E+02  0.25500000000E-02 0. -1.
          2   -1    0    0  501    0  0.00000000000E+00 -0.00000000000E+00 -0.47399854876E+02  0.47399854945E+02  0.25500000000E-02 0.  1.
         23    2    1    2    0    0  0.88817841970E-15  0.71054273576E-14 -0.29239077594E+01  0.91875802134E+02  0.91829264296E+02 0.  0.
    9000005    2    3    3    0    0 -0.77346919766E+01 -0.44035194128E+02  0.50296579863E+01  0.46464537122E+02  0.11607410074E+02 0.  0.
         22    1    3    3    0    0  0.77346919766E+01  0.44035194128E+02 -0.79535657457E+01  0.45411265012E+02  0.00000000000E+00 0. -1.
         22    1    4    4    0    0  0.14359250060E+01 -0.23836846371E+02  0.43390352561E+01  0.24271059979E+02  0.00000000000E+00 0. -1.
         22    1    4    4    0    0 -0.91706169826E+01 -0.20198347758E+02  0.69062273018E+00  0.22193477144E+02  0.00000000000E+00 0. -1.
<mgrwt>
<rscale>  0 0.91829264E+02</rscale>
<asrwt>0</asrwt>
<pdfrwt beam="2">  1        2 0.72922853E-02 0.91829264E+02</pdfrwt>
<pdfrwt beam="1">  1       -2 0.68424535E-02 0.91829264E+02</pdfrwt>
<totfact> 0.97661926E+04</totfact>
</mgrwt>
</event>
<event>
 7    1  0.3891761E-009  0.9059381E+02  0.7818608E-02  0.1301420E+00
         -2   -1    0    0    0  501 -0.00000000000E+00  0.00000000000E+00  0.10694967572E+03  0.10694967575E+03  0.25500000000E-02 0.  1.
          2   -1    0    0  501    0  0.00000000000E+00 -0.00000000000E+00 -0.19184813822E+02  0.19184813992E+02  0.25500000000E-02 0. -1.
         23    2    1    2    0    0  0.00000000000E+00  0.88817841970E-15  0.87764861901E+02  0.12613448975E+03  0.90593810599E+02 0.  0.
    9000005    2    3    3    0    0 -0.35300392043E+02 -0.66158780236E+01  0.80650651851E+02  0.89521657227E+02  0.14822683570E+02 0.  0.
         22    1    3    3    0    0  0.35300392043E+02  0.66158780236E+01  0.71142100503E+01  0.36612832519E+02  0.00000000000E+00 0. -1.
         22    1    4    4    0    0 -0.26738768827E+02 -0.10951562267E+02  0.54875820363E+02  0.62018175844E+02  0.00000000000E+00 0.  1.
         22    1    4    4    0    0 -0.85616232159E+01  0.43356842435E+01  0.25774831488E+02  0.27503481383E+02  0.00000000000E+00 0.  1.
<mgrwt>
<rscale>  0 0.90593811E+02</rscale>
<asrwt>0</asrwt>
<pdfrwt beam="2">  1        2 0.29515099E-02 0.90593811E+02</pdfrwt>
<pdfrwt beam="1">  1       -2 0.16453796E-01 0.90593811E+02</pdfrwt>
<totfact> 0.79462677E+04</totfact>
</mgrwt>
</event>
<event>
 7    1  0.3891761E-009  0.9533828E+02  0.7818608E-02  0.1290416E+00
          2   -1    0    0  501    0  0.00000000000E+00  0.00000000000E+00  0.88761220180E+01  0.88761223842E+01  0.25500000000E-02 0. -1.
         -2   -1    0    0    0  501 -0.00000000000E+00 -0.00000000000E+00 -0.25600672794E+03  0.25600672795E+03  0.25500000000E-02 0.  1.
         23    2    1    2    0    0  0.00000000000E+00  0.00000000000E+00 -0.24713060592E+03  0.26488285034E+03  0.95338282024E+02 0.  0.
    9000005    2    3    3    0    0  0.36129918258E+01  0.14416914409E+02 -0.24936718682E+03  0.24985276633E+03  0.46378713701E+01 0.  0.
         22    1    3    3    0    0 -0.36129918258E+01 -0.14416914409E+02  0.22365808993E+01  0.15030084002E+02  0.00000000000E+00 0. -1.
         22    1    4    4    0    0  0.32097031544E+01  0.39584461550E+01 -0.85237268714E+02  0.85389481016E+02  0.00000000000E+00 0.  1.
         22    1    4    4    0    0  0.40328867143E+00  0.10458468254E+02 -0.16412991811E+03  0.16446328532E+03  0.00000000000E+00 0.  1.
<mgrwt>
<rscale>  0 0.95338282E+02</rscale>
<asrwt>0</asrwt>
<pdfrwt beam="1">  1        2 0.13655575E-02 0.95338282E+02</pdfrwt>
<pdfrwt beam="2">  1       -2 0.39385645E-01 0.95338282E+02</pdfrwt>
<totfact> 0.49490948E+04</totfact>
</mgrwt>
</event>
<event>
 7    1  0.3891761E-009  0.9114092E+02  0.7818608E-02  0.1300112E+00
          2   -1    0    0  501    0  0.00000000000E+00  0.00000000000E+00  0.63584353671E+01  0.63584358784E+01  0.25500000000E-02 0. -1.
         -2   -1    0    0    0  501 -0.00000000000E+00 -0.00000000000E+00 -0.32660024372E+03  0.32660024373E+03  0.25500000000E-02 0.  1.
         23    2    1    2    0    0  0.00000000000E+00  0.00000000000E+00 -0.32024180835E+03  0.33295867961E+03  0.91140915671E+02 0.  0.
    9000005    2    3    3    0    0 -0.60525997107E+00 -0.44452969942E+02 -0.12783598027E+03  0.13548352786E+03  0.61086491568E+01 0.  0.
         22    1    3    3    0    0  0.60525997107E+00  0.44452969942E+02 -0.19240582809E+03  0.19747515175E+03  0.00000000000E+00 0.  1.
         22    1    4    4    0    0  0.77562607479E-01 -0.43727138739E+02 -0.12288084801E+03  0.13042918188E+03  0.00000000000E+00 0. -1.
         22    1    4    4    0    0 -0.68282257854E+00 -0.72583120324E+00 -0.49551322594E+01  0.50543459831E+01  0.00000000000E+00 0. -1.
<mgrwt>
<rscale>  0 0.91140916E+02</rscale>
<asrwt>0</asrwt>
<pdfrwt beam="1">  1        2 0.97822112E-03 0.91140916E+02</pdfrwt>
<pdfrwt beam="2">  1       -2 0.50246178E-01 0.91140916E+02</pdfrwt>
<totfact> 0.48606016E+04</totfact>
</mgrwt>
</event>
<event>
 7    1  0.3891761E-009  0.9085642E+02  0.7818608E-02  0.1300791E+00
          2   -1    0    0  501    0  0.00000000000E+00  0.00000000000E+00  0.34546323024E+02  0.34546323118E+02  0.25500000000E-02 0. -1.
         -2   -1    0    0    0  501 -0.00000000000E+00 -0.00000000000E+00 -0.59737826308E+02  0.59737826363E+02  0.25500000000E-02 0.  1.
         23    2    1    2    0    0  0.00000000000E+00 -0.35527136788E-14 -0.25191503284E+02  0.94284149481E+02  0.90856419727E+02 0.  0.
    9000005    2    3    3    0    0  0.32826804549E+02  0.31263659322E+02 -0.10022677689E+02  0.46481338256E+02  0.22461627147E+01 0.  0.
         22    1    3    3    0    0 -0.32826804549E+02 -0.31263659322E+02 -0.15168825595E+02  0.47802811225E+02  0.00000000000E+00 0.  1.
         22    1    4    4    0    0  0.27089091559E+02  0.24685116136E+02 -0.84658250080E+01  0.37614412573E+02  0.00000000000E+00 0.  1.
         22    1    4    4    0    0  0.57377129902E+01  0.65785431853E+01 -0.15568526808E+01  0.88669256831E+01  0.00000000000E+00 0.  1.
<mgrwt>
<rscale>  0 0.90856420E+02</rscale>
<asrwt>0</asrwt>
<pdfrwt beam="1">  1        2 0.53148189E-02 0.90856420E+02</pdfrwt>
<pdfrwt beam="2">  1       -2 0.91904348E-02 0.90856420E+02</pdfrwt>
<totfact> 0.92776009E+04</totfact>
</mgrwt>
</event>
<event>
 7    1  0.3891761E-009  0.9269776E+02  0.7818608E-02  0.1296447E+00
         -2   -1    0    0    0  501 -0.00000000000E+00  0.00000000000E+00  0.20369955392E+02  0.20369955551E+02  0.25500000000E-02 0.  1.
          2   -1    0    0  501    0  0.00000000000E+00 -0.00000000000E+00 -0.10546014947E+03  0.10546014950E+03  0.25500000000E-02 0. -1.
         23    2    1    2    0    0  0.00000000000E+00  0.00000000000E+00 -0.85090194081E+02  0.12583010505E+03  0.92697757304E+02 0.  0.
    9000005    2    3    3    0    0 -0.16877255146E+02  0.22644775163E+02 -0.92162298321E+02  0.96715808878E+02  0.79013208751E+01 0.  0.
         22    1    3    3    0    0  0.16877255146E+02 -0.22644775163E+02  0.70721042408E+01  0.29114296176E+02  0.00000000000E+00 0.  1.
         22    1    4    4    0    0 -0.70364226245E+01  0.39970427275E+01 -0.21401486602E+02  0.22880367626E+02  0.00000000000E+00 0. -1.
         22    1    4    4    0    0 -0.98408325217E+01  0.18647732435E+02 -0.70760811719E+02  0.73835441252E+02  0.00000000000E+00 0. -1.
<mgrwt>
<rscale>  0 0.92697757E+02</rscale>
<asrwt>0</asrwt>
<pdfrwt beam="2">  1        2 0.16224638E-01 0.92697757E+02</pdfrwt>
<pdfrwt beam="1">  1       -2 0.31338394E-02 0.92697757E+02</pdfrwt>
<totfact> 0.11914165E+05</totfact>
</mgrwt>
</event>
<event>
 7    1  0.3891761E-009  0.9449094E+02  0.7818608E-02  0.1292327E+00
         -2   -1    0    0    0  501 -0.00000000000E+00  0.00000000000E+00  0.30977171496E+01  0.30977181992E+01  0.25500000000E-02 0.  1.
          2   -1    0    0  501    0  0.00000000000E+00 -0.00000000000E+00 -0.72057394590E+03  0.72057394590E+03  0.25500000000E-02 0. -1.
         23    2    1    2    0    0  0.00000000000E+00  0.00000000000E+00 -0.71747622875E+03  0.72367166410E+03  0.94490944565E+02 0.  0.
    9000005    2    3    3    0    0 -0.19636282574E+02 -0.28923167266E+02 -0.59873734507E+03  0.59989341199E+03  0.12789220948E+02 0.  0.
         22    1    3    3    0    0  0.19636282574E+02  0.28923167266E+02 -0.11873888368E+03  0.12377825211E+03  0.00000000000E+00 0.  1.
         22    1    4    4    0    0 -0.12496166944E+02 -0.21746453722E+02 -0.32387527072E+03  0.32484496829E+03  0.00000000000E+00 0. -1.
         22    1    4    4    0    0 -0.71401156296E+01 -0.71767135438E+01 -0.27486207435E+03  0.27504844371E+03  0.00000000000E+00 0. -1.
<mgrwt>
<rscale>  0 0.94490945E+02</rscale>
<asrwt>0</asrwt>
<pdfrwt beam="2">  1        2 0.11085740E+00 0.94490945E+02</pdfrwt>
<pdfrwt beam="1">  1       -2 0.47657252E-03 0.94490945E+02</pdfrwt>
<totfact> 0.21721877E+05</totfact>
</mgrwt>
</event>
<event>
 7    1  0.3891761E-009  0.9186652E+02  0.7818608E-02  0.1298394E+00
          2   -1    0    0  501    0  0.00000000000E+00  0.00000000000E+00  0.61963261101E+02  0.61963261154E+02  0.25500000000E-02 0. -1.
         -2   -1    0    0    0  501 -0.00000000000E+00 -0.00000000000E+00 -0.34050246777E+02  0.34050246872E+02  0.25500000000E-02 0.  1.
         23    2    1    2    0    0  0.00000000000E+00  0.00000000000E+00  0.27913014324E+02  0.96013508026E+02  0.91866519227E+02 0.  0.
    9000005    2    3    3    0    0  0.22917202019E+02 -0.30017041131E+02  0.41047222639E+02  0.56029407002E+02  0.53102783350E+01 0.  0.
         22    1    3    3    0    0 -0.22917202019E+02  0.30017041131E+02 -0.13134208315E+02  0.39984101024E+02  0.00000000000E+00 0.  1.
         22    1    4    4    0    0  0.63474033961E+01 -0.91114291130E+01  0.15710919900E+02  0.19239040373E+02  0.00000000000E+00 0.  1.
         22    1    4    4    0    0  0.16569798623E+02 -0.20905612018E+02  0.25336302739E+02  0.36790366629E+02  0.00000000000E+00 0.  1.
<mgrwt>
<rscale>  0 0.91866519E+02</rscale>
<asrwt>0</asrwt>
<pdfrwt beam="1">  1        2 0.95328093E-02 0.91866519E+02</pdfrwt>
<pdfrwt beam="2">  1       -2 0.52384996E-02 0.91866519E+02</pdfrwt>
<totfact> 0.10474249E+05</totfact>
</mgrwt>
</event>
<event>
 7    1  0.3891761E-009  0.9150496E+02  0.7818608E-02  0.1299248E+00
         -2   -1    0    0    0  501 -0.00000000000E+00  0.00000000000E+00  0.13379549276E+02  0.13379549519E+02  0.25500000000E-02 0.  1.
          2   -1    0    0  501    0  0.00000000000E+00 -0.00000000000E+00 -0.15645439136E+03  0.15645439138E+03  0.25500000000E-02 0. -1.
         23    2    1    2    0    0  0.00000000000E+00  0.69388939039E-16 -0.14307484208E+03  0.16983394089E+03  0.91504956388E+02 0.  0.
    9000005    2    3    3    0    0  0.43085083592E+02  0.69610530387E-01 -0.43521117858E+02  0.61356877512E+02  0.37748436528E+01 0.  0.
         22    1    3    3    0    0 -0.43085083592E+02 -0.69610530387E-01 -0.99553724221E+02  0.10847706338E+03  0.00000000000E+00 0. -1.
         22    1    4    4    0    0  0.34232546639E+02  0.14428126804E+01 -0.33575167834E+02  0.47971250274E+02  0.00000000000E+00 0.  1.
         22    1    4    4    0    0  0.88525369537E+01 -0.13732021500E+01 -0.99459500244E+01  0.13385627238E+02  0.00000000000E+00 0.  1.
<mgrwt>
<rscale>  0 0.91504956E+02</rscale>
<asrwt>0</asrwt>
<pdfrwt beam="2">  1        2 0.24069905E-01 0.91504956E+02</pdfrwt>
<pdfrwt beam="1">  1       -2 0.20583923E-02 0.91504956E+02</pdfrwt>
<totfact> 0.14046173E+05</totfact>
</mgrwt>
</event>
<event>
 7    1  0.3891761E-009  0.9207943E+02  0.7818608E-02  0.1297893E+00
          2   -1    0    0  501    0  0.00000000000E+00  0.00000000000E+00  0.25611102668E+03  0.25611102670E+03  0.25500000000E-02 0.  1.
         -2   -1    0    0    0  501 -0.00000000000E+00 -0.00000000000E+00 -0.82763133965E+01  0.82763137894E+01  0.25500000000E-02 0. -1.
         23    2    1    2    0    0  0.35527136788E-14 -0.35527136788E-14  0.24783471329E+03  0.26438734048E+03  0.92079426035E+02 0.  0.
    9000005    2    3    3    0    0  0.17728213944E+02 -0.26674403915E+02  0.21805938324E+03  0.22065653128E+03  0.10658179315E+02 0.  0.
         22    1    3    3    0    0 -0.17728213944E+02  0.26674403915E+02  0.29775330048E+02  0.43730809201E+02  0.00000000000E+00 0. -1.
         22    1    4    4    0    0  0.24678565466E+00  0.80695238162E+00  0.22467907788E+01  0.24000300226E+01  0.00000000000E+00 0.  1.
         22    1    4    4    0    0  0.17481428289E+02 -0.27481356297E+02  0.21581259246E+03  0.21825650126E+03  0.00000000000E+00 0.  1.
<mgrwt>
<rscale>  0 0.92079426E+02</rscale>
<asrwt>0</asrwt>
<pdfrwt beam="1">  1        2 0.39401695E-01 0.92079426E+02</pdfrwt>
<pdfrwt beam="2">  1       -2 0.12732791E-02 0.92079426E+02</pdfrwt>
<totfact> 0.16495555E+05</totfact>
</mgrwt>
</event>
<event>
 7    1  0.3891761E-009  0.9291434E+02  0.7818608E-02  0.1295944E+00
          2   -1    0    0  501    0  0.00000000000E+00  0.00000000000E+00  0.38326238616E+03  0.38326238617E+03  0.25500000000E-02 0. -1.
         -2   -1    0    0    0  501 -0.00000000000E+00 -0.00000000000E+00 -0.56313084587E+01  0.56313090361E+01  0.25500000000E-02 0.  1.
         23    2    1    2    0    0  0.00000000000E+00  0.00000000000E+00  0.37763107770E+03  0.38889369521E+03  0.92914344017E+02 0.  0.
    9000005    2    3    3    0    0  0.31662284600E+02  0.26428937673E+02  0.27747075227E+03  0.28057435342E+03  0.55642091476E+01 0.  0.
         22    1    3    3    0    0 -0.31662284600E+02 -0.26428937673E+02  0.10016032544E+03  0.10831934178E+03  0.00000000000E+00 0.  1.
         22    1    4    4    0    0  0.12276956818E+02  0.13838359140E+02  0.12192163602E+03  0.12331710823E+03  0.00000000000E+00 0.  1.
         22    1    4    4    0    0  0.19385327782E+02  0.12590578532E+02  0.15554911625E+03  0.15725724520E+03  0.00000000000E+00 0.  1.
<mgrwt>
<rscale>  0 0.92914344E+02</rscale>
<asrwt>0</asrwt>
<pdfrwt beam="1">  1        2 0.58963450E-01 0.92914344E+02</pdfrwt>
<pdfrwt beam="2">  1       -2 0.86635510E-03 0.92914344E+02</pdfrwt>
<totfact> 0.18695045E+05</totfact>
</mgrwt>
</event>
<event>
 7    1  0.3891761E-009  0.9212322E+02  0.7818608E-02  0.1297790E+00
          2   -1    0    0  501    0  0.00000000000E+00  0.00000000000E+00  0.14846040679E+03  0.14846040681E+03  0.25500000000E-02 0. -1.
         -2   -1    0    0    0  501 -0.00000000000E+00 -0.00000000000E+00 -0.14291162378E+02  0.14291162606E+02  0.25500000000E-02 0.  1.
         23    2    1    2    0    0 -0.71054273576E-14 -0.35527136788E-14  0.13416924441E+03  0.16275156942E+03  0.92123217496E+02 0.  0.
    9000005    2    3    3    0    0  0.37072932984E+02  0.23726610010E+02  0.43315261987E+02  0.61797121745E+02  0.23060685818E+01 0.  0.
         22    1    3    3    0    0 -0.37072932984E+02 -0.23726610010E+02  0.90853982421E+02  0.10095444767E+03  0.00000000000E+00 0.  1.
         22    1    4    4    0    0  0.18818023568E+00  0.34832186065E+00  0.52599541428E+00  0.65833965060E+00  0.00000000000E+00 0.  1.
         22    1    4    4    0    0  0.36884752748E+02  0.23378288150E+02  0.42789266573E+02  0.61138782094E+02  0.00000000000E+00 0.  1.
<mgrwt>
<rscale>  0 0.92123217E+02</rscale>
<asrwt>0</asrwt>
<pdfrwt beam="1">  1        2 0.22840064E-01 0.92123217E+02</pdfrwt>
<pdfrwt beam="2">  1       -2 0.21986403E-02 0.92123217E+02</pdfrwt>
<totfact> 0.13546301E+05</totfact>
</mgrwt>
</event>
<event>
 7    1  0.3891761E-009  0.9216078E+02  0.7818608E-02  0.1297702E+00
         -2   -1    0    0    0  501 -0.00000000000E+00  0.00000000000E+00  0.22246025288E+03  0.22246025290E+03  0.25500000000E-02 0.  1.
          2   -1    0    0  501    0  0.00000000000E+00 -0.00000000000E+00 -0.95450858425E+01  0.95450861832E+01  0.25500000000E-02 0. -1.
         23    2    1    2    0    0  0.35527136788E-14  0.35527136788E-14  0.21291516704E+03  0.23200533908E+03  0.92160778024E+02 0.  0.
    9000005    2    3    3    0    0 -0.27221592555E+02 -0.19416135144E+02  0.18548837807E+03  0.18875918135E+03  0.10299938797E+02 0.  0.
         22    1    3    3    0    0  0.27221592555E+02  0.19416135144E+02  0.27426788965E+02  0.43246157726E+02  0.00000000000E+00 0. -1.
         22    1    4    4    0    0 -0.26151749388E+02 -0.18255899309E+02  0.15590745094E+03  0.15913618418E+03  0.00000000000E+00 0.  1.
         22    1    4    4    0    0 -0.10698431674E+01 -0.11602358353E+01  0.29580927133E+02  0.29622997176E+02  0.00000000000E+00 0.  1.
<mgrwt>
<rscale>  0 0.92160778E+02</rscale>
<asrwt>0</asrwt>
<pdfrwt beam="2">  1        2 0.14684749E-02 0.92160778E+02</pdfrwt>
<pdfrwt beam="1">  1       -2 0.34224652E-01 0.92160778E+02</pdfrwt>
<totfact> 0.57806797E+04</totfact>
</mgrwt>
</event>
<event>
 7    1  0.3891761E-009  0.9641540E+02  0.7818608E-02  0.1288020E+00
          2   -1    0    0  501    0  0.00000000000E+00  0.00000000000E+00  0.28485425752E+02  0.28485425866E+02  0.25500000000E-02 0. -1.
         -2   -1    0    0    0  501 -0.00000000000E+00 -0.00000000000E+00 -0.81584966756E+02  0.81584966795E+02  0.25500000000E-02 0.  1.
         23    2    1    2    0    0  0.00000000000E+00  0.71054273576E-14 -0.53099541004E+02  0.11007039266E+03  0.96415403779E+02 0.  0.
    9000005    2    3    3    0    0  0.12205816856E+02 -0.46113139671E+02 -0.24473137852E+02  0.54438795769E+02  0.94469250513E+01 0.  0.
         22    1    3    3    0    0 -0.12205816856E+02  0.46113139671E+02 -0.28626403151E+02  0.55631596893E+02  0.00000000000E+00 0. -1.
         22    1    4    4    0    0  0.11059491097E+02 -0.30223193436E+02 -0.12565426680E+02  0.34549149229E+02  0.00000000000E+00 0.  1.
         22    1    4    4    0    0  0.11463257590E+01 -0.15889946236E+02 -0.11907711172E+02  0.19889646540E+02  0.00000000000E+00 0.  1.
<mgrwt>
<rscale>  0 0.96415404E+02</rscale>
<asrwt>0</asrwt>
<pdfrwt beam="1">  1        2 0.43823732E-02 0.96415404E+02</pdfrwt>
<pdfrwt beam="2">  1       -2 0.12551533E-01 0.96415404E+02</pdfrwt>
<totfact> 0.73756680E+04</totfact>
</mgrwt>
</event>
<event>
 7    1  0.3891761E-009  0.9053919E+02  0.7818608E-02  0.1301551E+00
          2   -1    0    0  501    0  0.00000000000E+00  0.00000000000E+00  0.30371243717E+03  0.30371243719E+03  0.25500000000E-02 0. -1.
         -2   -1    0    0    0  501 -0.00000000000E+00 -0.00000000000E+00 -0.67476203325E+01  0.67476208144E+01  0.25500000000E-02 0.  1.
         23    2    1    2    0    0  0.00000000000E+00  0.00000000000E+00  0.29696481684E+03  0.31046005800E+03  0.90539191355E+02 0.  0.
    9000005    2    3    3    0    0  0.42738626370E+01  0.41940422204E+02  0.20300263957E+03  0.20747386634E+03  0.76202770104E+01 0.  0.
         22    1    3    3    0    0 -0.42738626370E+01 -0.41940422204E+02  0.93962177267E+02  0.10298619166E+03  0.00000000000E+00 0.  1.
         22    1    4    4    0    0  0.37466558782E+01  0.95621508741E+01  0.57661424334E+02  0.58568865584E+02  0.00000000000E+00 0. -1.
         22    1    4    4    0    0  0.52720675882E+00  0.32378271330E+02  0.14534121524E+03  0.14890500075E+03  0.00000000000E+00 0. -1.
<mgrwt>
<rscale>  0 0.90539191E+02</rscale>
<asrwt>0</asrwt>
<pdfrwt beam="1">  1        2 0.46724996E-01 0.90539191E+02</pdfrwt>
<pdfrwt beam="2">  1       -2 0.10380954E-02 0.90539191E+02</pdfrwt>
<totfact> 0.18389268E+05</totfact>
</mgrwt>
</event>
<event>
 7    1  0.3891761E-009  0.9110814E+02  0.7818608E-02  0.1300190E+00
         -2   -1    0    0    0  501 -0.00000000000E+00  0.00000000000E+00  0.47744644158E+01  0.47744650968E+01  0.25500000000E-02 0.  1.
          2   -1    0    0  501    0  0.00000000000E+00 -0.00000000000E+00 -0.43464000380E+03  0.43464000380E+03  0.25500000000E-02 0. -1.
         23    2    1    2    0    0  0.00000000000E+00  0.00000000000E+00 -0.42986553938E+03  0.43941446890E+03  0.91108141965E+02 0.  0.
    9000005    2    3    3    0    0 -0.83059478178E+01  0.43634934637E+02 -0.23062897972E+03  0.23528656048E+03  0.14037199397E+02 0.  0.
         22    1    3    3    0    0  0.83059478178E+01 -0.43634934637E+02 -0.19923655966E+03  0.20412790842E+03  0.00000000000E+00 0. -1.
         22    1    4    4    0    0 -0.88735714916E+01  0.17621891846E+02 -0.12198948130E+03  0.12357469357E+03  0.00000000000E+00 0.  1.
         22    1    4    4    0    0  0.56762367379E+00  0.26013042791E+02 -0.10863949842E+03  0.11171186691E+03  0.00000000000E+00 0.  1.
<mgrwt>
<rscale>  0 0.91108142E+02</rscale>
<asrwt>0</asrwt>
<pdfrwt beam="2">  1        2 0.66867662E-01 0.91108142E+02</pdfrwt>
<pdfrwt beam="1">  1       -2 0.73453338E-03 0.91108142E+02</pdfrwt>
<totfact> 0.20597199E+05</totfact>
</mgrwt>
</event>
<event>
 7    1  0.3891761E-009  0.9020535E+02  0.7818608E-02  0.1302355E+00
          2   -1    0    0  501    0  0.00000000000E+00  0.00000000000E+00  0.10091283407E+03  0.10091283410E+03  0.25500000000E-02 0. -1.
         -2   -1    0    0    0  501 -0.00000000000E+00 -0.00000000000E+00 -0.20158501008E+02  0.20158501170E+02  0.25500000000E-02 0.  1.
         23    2    1    2    0    0  0.00000000000E+00 -0.17763568394E-14  0.80754333058E+02  0.12107133527E+03  0.90205354142E+02 0.  0.
    9000005    2    3    3    0    0  0.36314659481E+02  0.14516349315E+02  0.69061238128E+02  0.80252131948E+02  0.11894165787E+02 0.  0.
         22    1    3    3    0    0 -0.36314659481E+02 -0.14516349315E+02  0.11693094930E+02  0.40819203320E+02  0.00000000000E+00 0. -1.
         22    1    4    4    0    0  0.14343970986E+02  0.93802055657E+01  0.39549120106E+02  0.43103023806E+02  0.00000000000E+00 0. -1.
         22    1    4    4    0    0  0.21970688496E+02  0.51361437490E+01  0.29512118022E+02  0.37149108141E+02  0.00000000000E+00 0. -1.
<mgrwt>
<rscale>  0 0.90205354E+02</rscale>
<asrwt>0</asrwt>
<pdfrwt beam="1">  1        2 0.15525051E-01 0.90205354E+02</pdfrwt>
<pdfrwt beam="2">  1       -2 0.31013079E-02 0.90205354E+02</pdfrwt>
<totfact> 0.12669162E+05</totfact>
</mgrwt>
</event>
<event>
 7    1  0.3891761E-009  0.9913719E+02  0.7818608E-02  0.1282121E+00
          2   -1    0    0  501    0  0.00000000000E+00  0.00000000000E+00  0.21920571072E+02  0.21920571221E+02  0.25500000000E-02 0. -1.
         -2   -1    0    0    0  501 -0.00000000000E+00 -0.00000000000E+00 -0.11208857646E+03  0.11208857649E+03  0.25500000000E-02 0.  1.
         23    2    1    2    0    0 -0.11102230246E-15 -0.35527136788E-14 -0.90168005388E+02  0.13400914771E+03  0.99137190168E+02 0.  0.
    9000005    2    3    3    0    0 -0.61174407514E+00 -0.21544971398E+02  0.12187324575E+02  0.29409082723E+02  0.15868309393E+02 0.  0.
         22    1    3    3    0    0  0.61174407514E+00  0.21544971398E+02 -0.10235532996E+03  0.10460006499E+03  0.00000000000E+00 0.  1.
         22    1    4    4    0    0  0.15614900630E+01  0.71900232457E-01  0.68651431190E+01  0.70408529956E+01  0.00000000000E+00 0.  1.
         22    1    4    4    0    0 -0.21732341381E+01 -0.21616871630E+02  0.53221814562E+01  0.22368229728E+02  0.00000000000E+00 0.  1.
<mgrwt>
<rscale>  0 0.99137190E+02</rscale>
<asrwt>0</asrwt>
<pdfrwt beam="1">  1        2 0.33723956E-02 0.99137190E+02</pdfrwt>
<pdfrwt beam="2">  1       -2 0.17244396E-01 0.99137190E+02</pdfrwt>
<totfact> 0.62507514E+04</totfact>
</mgrwt>
</event>
<event>
 7    1  0.3891761E-009  0.9155626E+02  0.7818608E-02  0.1299126E+00
         -2   -1    0    0    0  501 -0.00000000000E+00  0.00000000000E+00  0.78310576903E+01  0.78310581055E+01  0.25500000000E-02 0. -1.
          2   -1    0    0  501    0  0.00000000000E+00 -0.00000000000E+00 -0.26760589018E+03  0.26760589019E+03  0.25500000000E-02 0.  1.
         23    2    1    2    0    0  0.00000000000E+00  0.00000000000E+00 -0.25977483249E+03  0.27543694829E+03  0.91556260804E+02 0.  0.
    9000005    2    3    3    0    0  0.90885717999E+01  0.42090760528E+02 -0.98921888976E+02  0.10891997110E+03  0.14959469441E+02 0.  0.
         22    1    3    3    0    0 -0.90885717999E+01 -0.42090760528E+02 -0.16085294351E+03  0.16651697720E+03  0.00000000000E+00 0. -1.
         22    1    4    4    0    0  0.74712471697E+01  0.20155173785E+02 -0.65262064346E+02  0.68710898752E+02  0.00000000000E+00 0.  1.
         22    1    4    4    0    0  0.16173246302E+01  0.21935586743E+02 -0.33659824630E+02  0.40209072345E+02  0.00000000000E+00 0.  1.
<mgrwt>
<rscale>  0 0.91556261E+02</rscale>
<asrwt>0</asrwt>
<pdfrwt beam="2">  1        2 0.41170130E-01 0.91556261E+02</pdfrwt>
<pdfrwt beam="1">  1       -2 0.12047783E-02 0.91556261E+02</pdfrwt>
<totfact> 0.17026028E+05</totfact>
</mgrwt>
</event>
<event>
 7    1  0.3891761E-009  0.9519951E+02  0.7818608E-02  0.1290727E+00
         -2   -1    0    0    0  501 -0.00000000000E+00  0.00000000000E+00  0.67823820990E+01  0.67823825783E+01  0.25500000000E-02 0.  1.
          2   -1    0    0  501    0  0.00000000000E+00 -0.00000000000E+00 -0.33406204364E+03  0.33406204365E+03  0.25500000000E-02 0. -1.
         23    2    1    2    0    0  0.88817841970E-15  0.00000000000E+00 -0.32727966154E+03  0.34084442623E+03  0.95199506471E+02 0.  0.
    9000005    2    3    3    0    0  0.63354759576E+01 -0.23412656879E+02 -0.31007696951E+03  0.31110853258E+03  0.72457757798E+01 0.  0.
         22    1    3    3    0    0 -0.63354759576E+01  0.23412656879E+02 -0.17202692027E+02  0.29735893643E+02  0.00000000000E+00 0.  1.
         22    1    4    4    0    0 -0.48550243044E+00 -0.11823042059E+00 -0.23550446628E+02  0.23555747227E+02  0.00000000000E+00 0.  1.
         22    1    4    4    0    0  0.68209783880E+01 -0.23294426459E+02 -0.28652652288E+03  0.28755278536E+03  0.00000000000E+00 0.  1.
<mgrwt>
<rscale>  0 0.95199506E+02</rscale>
<asrwt>0</asrwt>
<pdfrwt beam="2">  1        2 0.51394148E-01 0.95199506E+02</pdfrwt>
<pdfrwt beam="1">  1       -2 0.10434437E-02 0.95199506E+02</pdfrwt>
<totfact> 0.16660731E+05</totfact>
</mgrwt>
</event>
<event>
 7    1  0.3891761E-009  0.9116249E+02  0.7818608E-02  0.1300061E+00
         -2   -1    0    0    0  501 -0.00000000000E+00  0.00000000000E+00  0.64965355755E+02  0.64965355805E+02  0.25500000000E-02 0.  1.
          2   -1    0    0  501    0  0.00000000000E+00 -0.00000000000E+00 -0.31980892276E+02  0.31980892377E+02  0.25500000000E-02 0. -1.
         23    2    1    2    0    0  0.00000000000E+00  0.00000000000E+00  0.32984463480E+02  0.96946248183E+02  0.91162493415E+02 0.  0.
    9000005    2    3    3    0    0 -0.31015152130E+02 -0.25251155477E+02  0.38590072776E+02  0.56560813058E+02  0.10505776617E+02 0.  0.
         22    1    3    3    0    0  0.31015152130E+02  0.25251155477E+02 -0.56056092966E+01  0.40385435125E+02  0.00000000000E+00 0. -1.
         22    1    4    4    0    0 -0.19243586173E+02 -0.91338635815E+01  0.21801581655E+02  0.30480354909E+02  0.00000000000E+00 0. -1.
         22    1    4    4    0    0 -0.11771565957E+02 -0.16117291896E+02  0.16788491121E+02  0.26080458149E+02  0.00000000000E+00 0. -1.
<mgrwt>
<rscale>  0 0.91162493E+02</rscale>
<asrwt>0</asrwt>
<pdfrwt beam="2">  1        2 0.49201373E-02 0.91162493E+02</pdfrwt>
<pdfrwt beam="1">  1       -2 0.99946701E-02 0.91162493E+02</pdfrwt>
<totfact> 0.90022652E+04</totfact>
</mgrwt>
</event>
<event>
 7    1  0.3891761E-009  0.9072594E+02  0.7818608E-02  0.1301103E+00
          2   -1    0    0  501    0  0.00000000000E+00  0.00000000000E+00  0.46139800040E+01  0.46139807086E+01  0.25500000000E-02 0. -1.
         -2   -1    0    0    0  501 -0.00000000000E+00 -0.00000000000E+00 -0.44599211236E+03  0.44599211237E+03  0.25500000000E-02 0.  1.
         23    2    1    2    0    0  0.00000000000E+00  0.17763568394E-14 -0.44137813236E+03  0.45060609308E+03  0.90725935625E+02 0.  0.
    9000005    2    3    3    0    0  0.42460291954E+02  0.11270864820E+02 -0.26482480026E+03  0.26866932422E+03  0.11005551275E+02 0.  0.
         22    1    3    3    0    0 -0.42460291954E+02 -0.11270864820E+02 -0.17655333210E+03  0.18193676886E+03  0.00000000000E+00 0. -1.
         22    1    4    4    0    0  0.30156920672E+02  0.93136136346E+01 -0.21532281859E+03  0.21762375667E+03  0.00000000000E+00 0.  1.
         22    1    4    4    0    0  0.12303371282E+02  0.19572511853E+01 -0.49501981670E+02  0.51045567549E+02  0.00000000000E+00 0.  1.
<mgrwt>
<rscale>  0 0.90725936E+02</rscale>
<asrwt>0</asrwt>
<pdfrwt beam="1">  1        2 0.70984348E-03 0.90725936E+02</pdfrwt>
<pdfrwt beam="2">  1       -2 0.68614137E-01 0.90725936E+02</pdfrwt>
<totfact> 0.40069795E+04</totfact>
</mgrwt>
</event>
<event>
 7    1  0.3891761E-009  0.9142499E+02  0.7818608E-02  0.1299437E+00
          2   -1    0    0  501    0  0.00000000000E+00  0.00000000000E+00  0.75669438180E+01  0.75669442477E+01  0.25500000000E-02 0. -1.
         -2   -1    0    0    0  501 -0.00000000000E+00 -0.00000000000E+00 -0.27615273700E+03  0.27615273701E+03  0.25500000000E-02 0.  1.
         23    2    1    2    0    0  0.00000000000E+00  0.00000000000E+00 -0.26858579318E+03  0.28371968126E+03  0.91424992397E+02 0.  0.
    9000005    2    3    3    0    0 -0.32998990175E+02 -0.23392900703E+02 -0.74843366400E+02  0.85799775511E+02  0.11131524061E+02 0.  0.
         22    1    3    3    0    0  0.32998990175E+02  0.23392900703E+02 -0.19374242678E+03  0.19791990575E+03  0.00000000000E+00 0.  1.
         22    1    4    4    0    0 -0.10676117308E+02 -0.43054455087E+01 -0.13183427794E+02  0.17501974466E+02  0.00000000000E+00 0. -1.
         22    1    4    4    0    0 -0.22322872867E+02 -0.19087455194E+02 -0.61659938605E+02  0.68297801046E+02  0.00000000000E+00 0. -1.
<mgrwt>
<rscale>  0 0.91424992E+02</rscale>
<asrwt>0</asrwt>
<pdfrwt beam="1">  1        2 0.11641454E-02 0.91424992E+02</pdfrwt>
<pdfrwt beam="2">  1       -2 0.42485029E-01 0.91424992E+02</pdfrwt>
<totfact> 0.52994912E+04</totfact>
</mgrwt>
</event>
<event>
 7    1  0.3891761E-009  0.9012615E+02  0.7818608E-02  0.1302546E+00
          2   -1    0    0  501    0  0.00000000000E+00  0.00000000000E+00  0.25674482377E+02  0.25674482504E+02  0.25500000000E-02 0.  1.
         -2   -1    0    0    0  501 -0.00000000000E+00 -0.00000000000E+00 -0.79093352725E+02  0.79093352766E+02  0.25500000000E-02 0. -1.
         23    2    1    2    0    0  0.00000000000E+00  0.00000000000E+00 -0.53418870348E+02  0.10476783527E+03  0.90126153795E+02 0.  0.
    9000005    2    3    3    0    0 -0.27028285790E+02 -0.35629664200E+02 -0.27756494930E+02  0.53206621981E+02  0.77794863656E+01 0.  0.
         22    1    3    3    0    0  0.27028285790E+02  0.35629664200E+02 -0.25662375418E+02  0.51561213289E+02  0.00000000000E+00 0.  1.
         22    1    4    4    0    0 -0.22230028586E+02 -0.23499696661E+02 -0.19850353177E+02  0.37953213768E+02  0.00000000000E+00 0. -1.
         22    1    4    4    0    0 -0.47982572042E+01 -0.12129967539E+02 -0.79061417523E+01  0.15253408213E+02  0.00000000000E+00 0. -1.
<mgrwt>
<rscale>  0 0.90126154E+02</rscale>
<asrwt>0</asrwt>
<pdfrwt beam="1">  1        2 0.39499204E-02 0.90126154E+02</pdfrwt>
<pdfrwt beam="2">  1       -2 0.12168208E-01 0.90126154E+02</pdfrwt>
<totfact> 0.87808598E+04</totfact>
</mgrwt>
</event>
<event>
 7    1  0.3891761E-009  0.8898248E+02  0.7818608E-02  0.1305335E+00
         -2   -1    0    0    0  501 -0.00000000000E+00  0.00000000000E+00  0.31758889692E+03  0.31758889693E+03  0.25500000000E-02 0.  1.
          2   -1    0    0  501    0  0.00000000000E+00 -0.00000000000E+00 -0.62328066207E+01  0.62328071424E+01  0.25500000000E-02 0. -1.
         23    2    1    2    0    0  0.00000000000E+00  0.71054273576E-14  0.31135609030E+03  0.32382170408E+03  0.88982476152E+02 0.  0.
    9000005    2    3    3    0    0 -0.78128574755E+00  0.41029766242E+02  0.11249040257E+03  0.12076601250E+03  0.15693533024E+02 0.  0.
         22    1    3    3    0    0  0.78128574755E+00 -0.41029766242E+02  0.19886568773E+03  0.20305569158E+03  0.00000000000E+00 0. -1.
         22    1    4    4    0    0 -0.22824406293E+01  0.31446847142E+02  0.64362610268E+02  0.71670491354E+02  0.00000000000E+00 0.  1.
         22    1    4    4    0    0  0.15011548818E+01  0.95829190998E+01  0.48127792301E+02  0.49095521143E+02  0.00000000000E+00 0.  1.
<mgrwt>
<rscale>  0 0.88982476E+02</rscale>
<asrwt>0</asrwt>
<pdfrwt beam="2">  1        2 0.95889331E-03 0.88982476E+02</pdfrwt>
<pdfrwt beam="1">  1       -2 0.48859833E-01 0.88982476E+02</pdfrwt>
<totfact> 0.52558298E+04</totfact>
</mgrwt>
</event>
<event>
 7    1  0.3891761E-009  0.8896297E+02  0.7818608E-02  0.1305383E+00
         -2   -1    0    0    0  501 -0.00000000000E+00  0.00000000000E+00  0.24634340506E+02  0.24634340638E+02  0.25500000000E-02 0.  1.
          2   -1    0    0  501    0  0.00000000000E+00 -0.00000000000E+00 -0.80318880970E+02  0.80318881010E+02  0.25500000000E-02 0. -1.
         23    2    1    2    0    0 -0.35527136788E-14  0.00000000000E+00 -0.55684540464E+02  0.10495322165E+03  0.88962973689E+02 0.  0.
    9000005    2    3    3    0    0 -0.19865410860E+02  0.10069437966E+01 -0.74528426554E+02  0.77553576989E+02  0.80263599895E+01 0.  0.
         22    1    3    3    0    0  0.19865410860E+02 -0.10069437966E+01  0.18843886090E+02  0.27399644659E+02  0.00000000000E+00 0.  1.
         22    1    4    4    0    0 -0.42079295300E+01 -0.29086532848E+01 -0.13818549995E+02  0.14734967215E+02  0.00000000000E+00 0. -1.
         22    1    4    4    0    0 -0.15657481330E+02  0.39155970814E+01 -0.60709876559E+02  0.62818609774E+02  0.00000000000E+00 0. -1.
<mgrwt>
<rscale>  0 0.88962974E+02</rscale>
<asrwt>0</asrwt>
<pdfrwt beam="2">  1        2 0.12356751E-01 0.88962974E+02</pdfrwt>
<pdfrwt beam="1">  1       -2 0.37898986E-02 0.88962974E+02</pdfrwt>
<totfact> 0.12309174E+05</totfact>
</mgrwt>
</event>
<event>
 7    1  0.3891761E-009  0.8915934E+02  0.7818608E-02  0.1304900E+00
          2   -1    0    0  501    0  0.00000000000E+00  0.00000000000E+00  0.29367598098E+01  0.29367609169E+01  0.25500000000E-02 0. -1.
         -2   -1    0    0    0  501 -0.00000000000E+00 -0.00000000000E+00 -0.67671400917E+03  0.67671400917E+03  0.25500000000E-02 0.  1.
         23    2    1    2    0    0  0.00000000000E+00  0.00000000000E+00 -0.67377724936E+03  0.67965077009E+03  0.89159337877E+02 0.  0.
    9000005    2    3    3    0    0 -0.31764516552E+01 -0.42821478714E+02 -0.42168696440E+03  0.42392967074E+03  0.72595386228E+01 0.  0.
         22    1    3    3    0    0  0.31764516552E+01  0.42821478714E+02 -0.25209028495E+03  0.25572109935E+03  0.00000000000E+00 0. -1.
         22    1    4    4    0    0 -0.34743992700E+01 -0.18356455360E+02 -0.15471100348E+03  0.15583493030E+03  0.00000000000E+00 0. -1.
         22    1    4    4    0    0  0.29794761480E+00 -0.24465023354E+02 -0.26697596093E+03  0.26809474044E+03  0.00000000000E+00 0. -1.
<mgrwt>
<rscale>  0 0.89159338E+02</rscale>
<asrwt>0</asrwt>
<pdfrwt beam="1">  1        2 0.45180982E-03 0.89159338E+02</pdfrwt>
<pdfrwt beam="2">  1       -2 0.10410972E+00 0.89159338E+02</pdfrwt>
<totfact> 0.29737345E+04</totfact>
</mgrwt>
</event>
<event>
 7    1  0.3891761E-009  0.9450294E+02  0.7818608E-02  0.1292300E+00
         -2   -1    0    0    0  501 -0.00000000000E+00  0.00000000000E+00  0.33870914744E+02  0.33870914840E+02  0.25500000000E-02 0.  1.
          2   -1    0    0  501    0  0.00000000000E+00 -0.00000000000E+00 -0.65917960978E+02  0.65917961028E+02  0.25500000000E-02 0. -1.
         23    2    1    2    0    0 -0.88817841970E-15  0.00000000000E+00 -0.32047046234E+02  0.99788875868E+02  0.94502944794E+02 0.  0.
    9000005    2    3    3    0    0  0.53684713855E+01  0.29176346612E+02  0.21271397322E+02  0.38773008179E+02  0.13068822921E+02 0.  0.
         22    1    3    3    0    0 -0.53684713855E+01 -0.29176346612E+02 -0.53318443556E+02  0.61015867689E+02  0.00000000000E+00 0. -1.
         22    1    4    4    0    0 -0.26940084770E+01  0.14526681860E+02  0.14595133633E+02  0.20767765727E+02  0.00000000000E+00 0.  1.
         22    1    4    4    0    0  0.80624798625E+01  0.14649664752E+02  0.66762636886E+01  0.18005242451E+02  0.00000000000E+00 0.  1.
<mgrwt>
<rscale>  0 0.94502945E+02</rscale>
<asrwt>0</asrwt>
<pdfrwt beam="2">  1        2 0.10141225E-01 0.94502945E+02</pdfrwt>
<pdfrwt beam="1">  1       -2 0.52109100E-02 0.94502945E+02</pdfrwt>
<totfact> 0.98357588E+04</totfact>
</mgrwt>
</event>
<event>
 7    1  0.3891761E-009  0.9251810E+02  0.7818608E-02  0.1296866E+00
          2   -1    0    0  501    0  0.00000000000E+00  0.00000000000E+00  0.86216519815E+03  0.86216519816E+03  0.25500000000E-02 0.  1.
         -2   -1    0    0    0  501 -0.00000000000E+00 -0.00000000000E+00 -0.24820058177E+01  0.24820071276E+01  0.25500000000E-02 0. -1.
         23    2    1    2    0    0  0.00000000000E+00 -0.88817841970E-15  0.85968319233E+03  0.86464720528E+03  0.92518097809E+02 0.  0.
    9000005    2    3    3    0    0  0.15042168874E+02  0.73897154425E+01  0.83250010442E+03  0.83271297589E+03  0.85791378601E+01 0.  0.
         22    1    3    3    0    0 -0.15042168874E+02 -0.73897154425E+01  0.27183087909E+02  0.31934229395E+02  0.00000000000E+00 0. -1.
         22    1    4    4    0    0  0.15365868237E+02  0.53767172465E+01  0.65965314728E+03  0.65985399424E+03  0.00000000000E+00 0. -1.
         22    1    4    4    0    0 -0.32369936281E+00  0.20129981960E+01  0.17284695714E+03  0.17285898165E+03  0.00000000000E+00 0. -1.
<mgrwt>
<rscale>  0 0.92518098E+02</rscale>
<asrwt>0</asrwt>
<pdfrwt beam="1">  1        2 0.13264079E+00 0.92518098E+02</pdfrwt>
<pdfrwt beam="2">  1       -2 0.38184717E-03 0.92518098E+02</pdfrwt>
<totfact> 0.23730078E+05</totfact>
</mgrwt>
</event>
<event>
 7    1  0.3891761E-009  0.9633515E+02  0.7818608E-02  0.1288197E+00
          2   -1    0    0  501    0  0.00000000000E+00  0.00000000000E+00  0.24344143859E+03  0.24344143860E+03  0.25500000000E-02 0. -1.
         -2   -1    0    0    0  501 -0.00000000000E+00 -0.00000000000E+00 -0.95304868585E+01  0.95304871996E+01  0.25500000000E-02 0.  1.
         23    2    1    2    0    0 -0.17763568394E-14  0.00000000000E+00  0.23391095173E+03  0.25297192580E+03  0.96335154043E+02 0.  0.
    9000005    2    3    3    0    0  0.15013629207E+02 -0.44982931610E+02  0.13182718462E+03  0.14041097029E+03  0.93787405822E+01 0.  0.
         22    1    3    3    0    0 -0.15013629207E+02  0.44982931610E+02  0.10208376711E+03  0.11256095551E+03  0.00000000000E+00 0.  1.
         22    1    4    4    0    0  0.87421044345E+01 -0.18364282675E+02  0.67877882118E+02  0.70859566390E+02  0.00000000000E+00 0. -1.
         22    1    4    4    0    0  0.62715247729E+01 -0.26618648934E+02  0.63949302501E+02  0.69551403900E+02  0.00000000000E+00 0. -1.
<mgrwt>
<rscale>  0 0.96335154E+02</rscale>
<asrwt>0</asrwt>
<pdfrwt beam="1">  1        2 0.37452533E-01 0.96335154E+02</pdfrwt>
<pdfrwt beam="2">  1       -2 0.14662286E-02 0.96335154E+02</pdfrwt>
<totfact> 0.14334744E+05</totfact>
</mgrwt>
</event>
<event>
 7    1  0.3891761E-009  0.1015841E+03  0.7818608E-02  0.1277000E+00
         -2   -1    0    0    0  501 -0.00000000000E+00  0.00000000000E+00  0.99037305452E+02  0.99037305484E+02  0.25500000000E-02 0.  1.
          2   -1    0    0  501    0  0.00000000000E+00 -0.00000000000E+00 -0.26049087247E+02  0.26049087372E+02  0.25500000000E-02 0. -1.
         23    2    1    2    0    0  0.00000000000E+00  0.00000000000E+00  0.72988218205E+02  0.12508639286E+03  0.10158408183E+03 0.  0.
    9000005    2    3    3    0    0  0.48179173278E+02  0.10023473789E+02  0.50488989493E+02  0.70976153001E+02  0.81715035520E+01 0.  0.
         22    1    3    3    0    0 -0.48179173278E+02 -0.10023473789E+02  0.22499228712E+02  0.54110239855E+02  0.00000000000E+00 0.  1.
         22    1    4    4    0    0  0.35164300471E+02  0.65449439233E+01  0.41469372099E+02  0.54763794070E+02  0.00000000000E+00 0.  1.
         22    1    4    4    0    0  0.13014872807E+02  0.34785298656E+01  0.90196173934E+01  0.16212358931E+02  0.00000000000E+00 0.  1.
<mgrwt>
<rscale>  0 0.10158408E+03</rscale>
<asrwt>0</asrwt>
<pdfrwt beam="2">  1        2 0.40075520E-02 0.10158408E+03</pdfrwt>
<pdfrwt beam="1">  1       -2 0.15236508E-01 0.10158408E+03</pdfrwt>
<totfact> 0.61186807E+04</totfact>
</mgrwt>
</event>
<event>
 7    1  0.3891761E-009  0.8965812E+02  0.7818608E-02  0.1303682E+00
         -2   -1    0    0    0  501 -0.00000000000E+00  0.00000000000E+00  0.92712832348E+01  0.92712835855E+01  0.25500000000E-02 0. -1.
          2   -1    0    0  501    0  0.00000000000E+00 -0.00000000000E+00 -0.21676012142E+03  0.21676012143E+03  0.25500000000E-02 0.  1.
         23    2    1    2    0    0  0.00000000000E+00  0.00000000000E+00 -0.20748883818E+03  0.22603140502E+03  0.89658117781E+02 0.  0.
    9000005    2    3    3    0    0 -0.24058738991E+02 -0.18134598052E+02 -0.27201437013E+02  0.43244005045E+02  0.14914396684E+02 0.  0.
         22    1    3    3    0    0  0.24058738991E+02  0.18134598052E+02 -0.18028740117E+03  0.18278739997E+03  0.00000000000E+00 0.  1.
         22    1    4    4    0    0  0.11571737581E+01 -0.19272911867E+01  0.63604645550E+00  0.23362485994E+01  0.00000000000E+00 0. -1.
         22    1    4    4    0    0 -0.25215912749E+02 -0.16207306865E+02 -0.27837483468E+02  0.40907756446E+02  0.00000000000E+00 0. -1.
<mgrwt>
<rscale>  0 0.89658118E+02</rscale>
<asrwt>0</asrwt>
<pdfrwt beam="2">  1        2 0.33347707E-01 0.89658118E+02</pdfrwt>
<pdfrwt beam="1">  1       -2 0.14263515E-02 0.89658118E+02</pdfrwt>
<totfact> 0.16661478E+05</totfact>
</mgrwt>
</event>
<event>
 7    1  0.3891761E-009  0.8916430E+02  0.7818608E-02  0.1304888E+00
          2   -1    0    0  501    0  0.00000000000E+00  0.00000000000E+00  0.21753358312E+01  0.21753373258E+01  0.25500000000E-02 0. -1.
         -2   -1    0    0    0  501 -0.00000000000E+00 -0.00000000000E+00 -0.91368292158E+03  0.91368292159E+03  0.25500000000E-02 0.  1.
         23    2    1    2    0    0 -0.88817841970E-15  0.00000000000E+00 -0.91150758575E+03  0.91585825891E+03  0.89164295180E+02 0.  0.
    9000005    2    3    3    0    0 -0.64787505863E+01 -0.37096934322E+02 -0.69903160752E+03  0.70007086801E+03  0.59895896665E+01 0.  0.
         22    1    3    3    0    0  0.64787505863E+01  0.37096934322E+02 -0.21247597823E+03  0.21578739090E+03  0.00000000000E+00 0. -1.
         22    1    4    4    0    0 -0.31282007801E+01 -0.10050337102E+02 -0.15493658566E+03  0.15529372329E+03  0.00000000000E+00 0.  1.
         22    1    4    4    0    0 -0.33505498062E+01 -0.27046597219E+02 -0.54409502186E+03  0.54477714473E+03  0.00000000000E+00 0.  1.
<mgrwt>
<rscale>  0 0.89164295E+02</rscale>
<asrwt>0</asrwt>
<pdfrwt beam="1">  1        2 0.33466790E-03 0.89164295E+02</pdfrwt>
<pdfrwt beam="2">  1       -2 0.14056630E+00 0.89164295E+02</pdfrwt>
<totfact> 0.21943104E+04</totfact>
</mgrwt>
</event>
<event>
 7    1  0.3891761E-009  0.8930007E+02  0.7818608E-02  0.1304556E+00
         -2   -1    0    0    0  501 -0.00000000000E+00  0.00000000000E+00  0.37100891241E+01  0.37100900004E+01  0.25500000000E-02 0.  1.
          2   -1    0    0  501    0  0.00000000000E+00 -0.00000000000E+00 -0.53735239814E+03  0.53735239815E+03  0.25500000000E-02 0. -1.
         23    2    1    2    0    0  0.00000000000E+00  0.00000000000E+00 -0.53364230902E+03  0.54106248815E+03  0.89300067791E+02 0.  0.
    9000005    2    3    3    0    0 -0.43212939819E+02  0.45190164562E+01 -0.27617642242E+03  0.27995625988E+03  0.14639380768E+02 0.  0.
         22    1    3    3    0    0  0.43212939819E+02 -0.45190164562E+01 -0.25746588660E+03  0.26110622827E+03  0.00000000000E+00 0. -1.
         22    1    4    4    0    0 -0.76974042986E+01  0.67270244255E+01 -0.66751592117E+02  0.67529830006E+02  0.00000000000E+00 0.  1.
         22    1    4    4    0    0 -0.35515535520E+02 -0.22080079693E+01 -0.20942483030E+03  0.21242642988E+03  0.00000000000E+00 0.  1.
<mgrwt>
<rscale>  0 0.89300068E+02</rscale>
<asrwt>0</asrwt>
<pdfrwt beam="2">  1        2 0.82669538E-01 0.89300068E+02</pdfrwt>
<pdfrwt beam="1">  1       -2 0.57078344E-03 0.89300068E+02</pdfrwt>
<totfact> 0.23293560E+05</totfact>
</mgrwt>
</event>
<event>
 7    1  0.3891761E-009  0.9473373E+02  0.7818608E-02  0.1291777E+00
          2   -1    0    0  501    0  0.00000000000E+00  0.00000000000E+00  0.30690949771E+01  0.30690960364E+01  0.25500000000E-02 0. -1.
         -2   -1    0    0    0  501 -0.00000000000E+00 -0.00000000000E+00 -0.73103626311E+03  0.73103626311E+03  0.25500000000E-02 0.  1.
         23    2    1    2    0    0  0.00000000000E+00  0.00000000000E+00 -0.72796716813E+03  0.73410535915E+03  0.94733734512E+02 0.  0.
    9000005    2    3    3    0    0 -0.39356480138E+02  0.63165443568E+01 -0.56087611783E+03  0.56232570276E+03  0.62725721104E+01 0.  0.
         22    1    3    3    0    0  0.39356480138E+02 -0.63165443568E+01 -0.16709105030E+03  0.17177965640E+03  0.00000000000E+00 0. -1.
         22    1    4    4    0    0 -0.28013429853E+02  0.23194007977E+01 -0.41818111331E+03  0.41912477307E+03  0.00000000000E+00 0.  1.
         22    1    4    4    0    0 -0.11343050286E+02  0.39971435591E+01 -0.14269500453E+03  0.14320092969E+03  0.00000000000E+00 0.  1.
<mgrwt>
<rscale>  0 0.94733735E+02</rscale>
<asrwt>0</asrwt>
<pdfrwt beam="1">  1        2 0.47216912E-03 0.94733735E+02</pdfrwt>
<pdfrwt beam="2">  1       -2 0.11246698E+00 0.94733735E+02</pdfrwt>
<totfact> 0.23607425E+04</totfact>
</mgrwt>
</event>
<event>
 7    1  0.3891761E-009  0.8775303E+02  0.7818608E-02  0.1308386E+00
          2   -1    0    0  501    0  0.00000000000E+00  0.00000000000E+00  0.21791996471E+03  0.21791996473E+03  0.25500000000E-02 0.  1.
         -2   -1    0    0    0  501 -0.00000000000E+00 -0.00000000000E+00 -0.88342004233E+01  0.88342007913E+01  0.25500000000E-02 0. -1.
         23    2    1    2    0    0  0.00000000000E+00  0.71054273576E-14  0.20908576429E+03  0.22675416552E+03  0.87753032721E+02 0.  0.
    9000005    2    3    3    0    0  0.14592186171E+02 -0.39953773531E+02  0.10931853684E+03  0.11829801959E+03  0.15318062072E+02 0.  0.
         22    1    3    3    0    0 -0.14592186171E+02  0.39953773531E+02  0.99767227447E+02  0.10845614593E+03  0.00000000000E+00 0. -1.
         22    1    4    4    0    0  0.82516162980E+01 -0.32453682945E+02  0.67603350985E+02  0.75442320832E+02  0.00000000000E+00 0. -1.
         22    1    4    4    0    0  0.63405698731E+01 -0.75000905859E+01  0.41715185858E+02  0.42855698760E+02  0.00000000000E+00 0. -1.
<mgrwt>
<rscale>  0 0.87753033E+02</rscale>
<asrwt>0</asrwt>
<pdfrwt beam="1">  1        2 0.33526144E-01 0.87753033E+02</pdfrwt>
<pdfrwt beam="2">  1       -2 0.13591080E-02 0.87753033E+02</pdfrwt>
<totfact> 0.17681554E+05</totfact>
</mgrwt>
</event>
<event>
 7    1  0.3891761E-009  0.9283555E+02  0.7818608E-02  0.1296127E+00
         -2   -1    0    0    0  501 -0.00000000000E+00  0.00000000000E+00  0.51613126337E+01  0.51613132636E+01  0.25500000000E-02 0.  1.
          2   -1    0    0  501    0  0.00000000000E+00 -0.00000000000E+00 -0.41745384134E+03  0.41745384135E+03  0.25500000000E-02 0. -1.
         23    2    1    2    0    0  0.35527136788E-14  0.00000000000E+00 -0.41229252871E+03  0.42261515462E+03  0.92835551812E+02 0.  0.
    9000005    2    3    3    0    0 -0.31778500042E+02 -0.21083018268E+02 -0.32606994616E+03  0.32833524972E+03  0.52971407664E+01 0.  0.
         22    1    3    3    0    0  0.31778500042E+02  0.21083018268E+02 -0.86222582554E+02  0.94279904893E+02  0.00000000000E+00 0.  1.
         22    1    4    4    0    0 -0.39333496534E+01 -0.10508269163E+01 -0.43761233683E+02  0.43950211037E+02  0.00000000000E+00 0. -1.
         22    1    4    4    0    0 -0.27845150388E+02 -0.20032191352E+02 -0.28230871247E+03  0.28438503869E+03  0.00000000000E+00 0. -1.
<mgrwt>
<rscale>  0 0.92835552E+02</rscale>
<asrwt>0</asrwt>
<pdfrwt beam="2">  1        2 0.64223641E-01 0.92835552E+02</pdfrwt>
<pdfrwt beam="1">  1       -2 0.79404847E-03 0.92835552E+02</pdfrwt>
<totfact> 0.19319631E+05</totfact>
</mgrwt>
</event>
<event>
 7    1  0.3891761E-009  0.9075129E+02  0.7818608E-02  0.1301042E+00
          2   -1    0    0  501    0  0.00000000000E+00  0.00000000000E+00  0.56066356201E+02  0.56066356259E+02  0.25500000000E-02 0. -1.
         -2   -1    0    0    0  501 -0.00000000000E+00 -0.00000000000E+00 -0.36723434837E+02  0.36723434925E+02  0.25500000000E-02 0.  1.
         23    2    1    2    0    0  0.00000000000E+00  0.00000000000E+00  0.19342921364E+02  0.92789791184E+02  0.90751290576E+02 0.  0.
    9000005    2    3    3    0    0 -0.24657696003E+02 -0.24457259748E+02  0.38964508501E+02  0.52900366416E+02  0.86055980439E+01 0.  0.
         22    1    3    3    0    0  0.24657696003E+02  0.24457259748E+02 -0.19621587137E+02  0.39889424768E+02  0.00000000000E+00 0.  1.
         22    1    4    4    0    0 -0.24773420569E+01 -0.73802668111E+01  0.87346490260E+01  0.11700412620E+02  0.00000000000E+00 0. -1.
         22    1    4    4    0    0 -0.22180353946E+02 -0.17076992937E+02  0.30229859475E+02  0.41199953796E+02  0.00000000000E+00 0. -1.
<mgrwt>
<rscale>  0 0.90751291E+02</rscale>
<asrwt>0</asrwt>
<pdfrwt beam="1">  1        2 0.86255933E-02 0.90751291E+02</pdfrwt>
<pdfrwt beam="2">  1       -2 0.56497592E-02 0.90751291E+02</pdfrwt>
<totfact> 0.10555675E+05</totfact>
</mgrwt>
</event>
<event>
 7    1  0.3891761E-009  0.9272877E+02  0.7818608E-02  0.1296375E+00
         -2   -1    0    0    0  501 -0.00000000000E+00  0.00000000000E+00  0.29982269722E+02  0.29982269830E+02  0.25500000000E-02 0.  1.
          2   -1    0    0  501    0  0.00000000000E+00 -0.00000000000E+00 -0.71697577645E+02  0.71697577690E+02  0.25500000000E-02 0. -1.
         23    2    1    2    0    0  0.71054273576E-14 -0.17763568394E-14 -0.41715307923E+02  0.10167984752E+03  0.92728768334E+02 0.  0.
    9000005    2    3    3    0    0 -0.36619884962E+02  0.10404633058E+02  0.75293419802E+01  0.39435908798E+02  0.70162346303E+01 0.  0.
         22    1    3    3    0    0  0.36619884962E+02 -0.10404633058E+02 -0.49244649903E+02  0.62243938723E+02  0.00000000000E+00 0. -1.
         22    1    4    4    0    0 -0.32593681915E+02  0.10819011471E+02  0.82630515951E+01  0.35322473465E+02  0.00000000000E+00 0. -1.
         22    1    4    4    0    0 -0.40262030463E+01 -0.41437841353E+00 -0.73370961487E+00  0.41134353330E+01  0.00000000000E+00 0. -1.
<mgrwt>
<rscale>  0 0.92728768E+02</rscale>
<asrwt>0</asrwt>
<pdfrwt beam="2">  1        2 0.11030397E-01 0.92728768E+02</pdfrwt>
<pdfrwt beam="1">  1       -2 0.46126569E-02 0.92728768E+02</pdfrwt>
<totfact> 0.10621660E+05</totfact>
</mgrwt>
</event>
<event>
 7    1  0.3891761E-009  0.8907061E+02  0.7818608E-02  0.1305118E+00
          2   -1    0    0  501    0  0.00000000000E+00  0.00000000000E+00  0.32893288871E+02  0.32893288970E+02  0.25500000000E-02 0.  1.
         -2   -1    0    0    0  501 -0.00000000000E+00 -0.00000000000E+00 -0.60297817119E+02  0.60297817173E+02  0.25500000000E-02 0. -1.
         23    2    1    2    0    0 -0.17763568394E-14 -0.55511151231E-16 -0.27404528248E+02  0.93191106143E+02  0.89070612974E+02 0.  0.
    9000005    2    3    3    0    0  0.15970098377E+02  0.24742818604E+00  0.29252598347E+02  0.34325706655E+02  0.82118429364E+01 0.  0.
         22    1    3    3    0    0 -0.15970098377E+02 -0.24742818604E+00 -0.56657126595E+02  0.58865399488E+02  0.00000000000E+00 0. -1.
         22    1    4    4    0    0  0.72730327656E+01  0.42864028718E+00  0.21401775149E+02  0.22607890605E+02  0.00000000000E+00 0. -1.
         22    1    4    4    0    0  0.86970656117E+01 -0.18121210114E+00  0.78508231984E+01  0.11717816050E+02  0.00000000000E+00 0. -1.
<mgrwt>
<rscale>  0 0.89070613E+02</rscale>
<asrwt>0</asrwt>
<pdfrwt beam="1">  1        2 0.50605060E-02 0.89070613E+02</pdfrwt>
<pdfrwt beam="2">  1       -2 0.92765872E-02 0.89070613E+02</pdfrwt>
<totfact> 0.97082537E+04</totfact>
</mgrwt>
</event>
<event>
 7    1  0.3891761E-009  0.9175286E+02  0.7818608E-02  0.1298662E+00
         -2   -1    0    0    0  501 -0.00000000000E+00  0.00000000000E+00  0.32464052987E+01  0.32464063002E+01  0.25500000000E-02 0.  1.
          2   -1    0    0  501    0  0.00000000000E+00 -0.00000000000E+00 -0.64830054952E+03  0.64830054952E+03  0.25500000000E-02 0. -1.
         23    2    1    2    0    0  0.00000000000E+00 -0.17763568394E-14 -0.64505414422E+03  0.65154695582E+03  0.91752856456E+02 0.  0.
    9000005    2    3    3    0    0  0.74907326961E+01 -0.13901830193E+02 -0.62815069867E+03  0.62841476115E+03  0.90796382824E+01 0.  0.
         22    1    3    3    0    0 -0.74907326961E+01  0.13901830193E+02 -0.16903445552E+02  0.23132194677E+02  0.00000000000E+00 0.  1.
         22    1    4    4    0    0  0.73940435435E+01 -0.46605623318E+01 -0.35568334694E+03  0.35579071940E+03  0.00000000000E+00 0.  1.
         22    1    4    4    0    0  0.96689152534E-01 -0.92412678612E+01 -0.27246735172E+03  0.27262404174E+03  0.00000000000E+00 0.  1.
<mgrwt>
<rscale>  0 0.91752856E+02</rscale>
<asrwt>0</asrwt>
<pdfrwt beam="2">  1        2 0.99738443E-01 0.91752856E+02</pdfrwt>
<pdfrwt beam="1">  1       -2 0.49944756E-03 0.91752856E+02</pdfrwt>
<totfact> 0.22885850E+05</totfact>
</mgrwt>
</event>
<event>
 7    1  0.3891761E-009  0.9320101E+02  0.7818608E-02  0.1295280E+00
          2   -1    0    0  501    0  0.00000000000E+00  0.00000000000E+00  0.57002243627E+02  0.57002243684E+02  0.25500000000E-02 0. -1.
         -2   -1    0    0    0  501 -0.00000000000E+00 -0.00000000000E+00 -0.38096868181E+02  0.38096868266E+02  0.25500000000E-02 0.  1.
         23    2    1    2    0    0  0.00000000000E+00  0.00000000000E+00  0.18905375446E+02  0.95099111951E+02  0.93201007897E+02 0.  0.
    9000005    2    3    3    0    0 -0.36019508401E+02  0.13400939856E+02  0.35254233693E+02  0.53334589441E+02  0.11168136064E+02 0.  0.
         22    1    3    3    0    0  0.36019508401E+02 -0.13400939856E+02 -0.16348858247E+02  0.41764522509E+02  0.00000000000E+00 0.  1.
         22    1    4    4    0    0 -0.21497955467E+02  0.13452108658E+02  0.24529197412E+02  0.35281763594E+02  0.00000000000E+00 0.  1.
         22    1    4    4    0    0 -0.14521552933E+02 -0.51168802054E-01  0.10725036281E+02  0.18052825847E+02  0.00000000000E+00 0.  1.
<mgrwt>
<rscale>  0 0.93201008E+02</rscale>
<asrwt>0</asrwt>
<pdfrwt beam="1">  1        2 0.87695760E-02 0.93201008E+02</pdfrwt>
<pdfrwt beam="2">  1       -2 0.58610566E-02 0.93201008E+02</pdfrwt>
<totfact> 0.98308015E+04</totfact>
</mgrwt>
</event>
<event>
 7    1  0.4061293E-009  0.9506829E+02  0.7818608E-02  0.1291022E+00
         -2   -1    0    0    0  501 -0.00000000000E+00  0.00000000000E+00  0.99682588375E+01  0.99682591637E+01  0.25500000000E-02 0.  1.
          2   -1    0    0  501    0  0.00000000000E+00 -0.00000000000E+00 -0.22666897310E+03  0.22666897311E+03  0.25500000000E-02 0. -1.
         23    2    1    2    0    0  0.00000000000E+00 -0.35527136788E-14 -0.21670071426E+03  0.23663723227E+03  0.95068291971E+02 0.  0.
    9000005    2    3    3    0    0 -0.10560516767E+02 -0.31687683107E+02 -0.19138496416E+03  0.19472636282E+03  0.13210529793E+02 0.  0.
         22    1    3    3    0    0  0.10560516767E+02  0.31687683107E+02 -0.25315750103E+02  0.41910869454E+02  0.00000000000E+00 0.  1.
         22    1    4    4    0    0 -0.22742378044E+01 -0.14454797166E+01 -0.41974525290E+02  0.42060936064E+02  0.00000000000E+00 0.  1.
         22    1    4    4    0    0 -0.82862789627E+01 -0.30242203391E+02 -0.14941043887E+03  0.15266542676E+03  0.00000000000E+00 0.  1.
<mgrwt>
<rscale>  0 0.95068292E+02</rscale>
<asrwt>0</asrwt>
<pdfrwt beam="2">  1        2 0.34872146E-01 0.95068292E+02</pdfrwt>
<pdfrwt beam="1">  1       -2 0.15335785E-02 0.95068292E+02</pdfrwt>
<totfact> 0.14467180E+05</totfact>
</mgrwt>
</event>
<event>
 7    1  0.3891761E-009  0.9110555E+02  0.7818608E-02  0.1300196E+00
         -2   -1    0    0    0  501 -0.00000000000E+00  0.00000000000E+00  0.49876703887E+01  0.49876710405E+01  0.25500000000E-02 0.  1.
          2   -1    0    0  501    0  0.00000000000E+00 -0.00000000000E+00 -0.41603694225E+03  0.41603694226E+03  0.25500000000E-02 0. -1.
         23    2    1    2    0    0  0.00000000000E+00  0.00000000000E+00 -0.41104927186E+03  0.42102461330E+03  0.91105549257E+02 0.  0.
    9000005    2    3    3    0    0  0.53782042631E+01  0.44168519316E+02 -0.20377927876E+03  0.20903255396E+03  0.13741578734E+02 0.  0.
         22    1    3    3    0    0 -0.53782042631E+01 -0.44168519316E+02 -0.20726999311E+03  0.21199205934E+03  0.00000000000E+00 0. -1.
         22    1    4    4    0    0  0.16920300378E+01  0.13320624964E+02 -0.36471977112E+02  0.38865243207E+02  0.00000000000E+00 0. -1.
         22    1    4    4    0    0  0.36861742253E+01  0.30847894352E+02 -0.16730730164E+03  0.17016731075E+03  0.00000000000E+00 0. -1.
<mgrwt>
<rscale>  0 0.91105549E+02</rscale>
<asrwt>0</asrwt>
<pdfrwt beam="2">  1        2 0.64005656E-01 0.91105549E+02</pdfrwt>
<pdfrwt beam="1">  1       -2 0.76733428E-03 0.91105549E+02</pdfrwt>
<totfact> 0.20285395E+05</totfact>
</mgrwt>
</event>
<event>
 7    1  0.3891761E-009  0.9359342E+02  0.7818608E-02  0.1294376E+00
          2   -1    0    0  501    0  0.00000000000E+00  0.00000000000E+00  0.14385645450E+03  0.14385645452E+03  0.25500000000E-02 0.  1.
         -2   -1    0    0    0  501 -0.00000000000E+00 -0.00000000000E+00 -0.15223037091E+02  0.15223037304E+02  0.25500000000E-02 0. -1.
         23    2    1    2    0    0  0.00000000000E+00  0.00000000000E+00  0.12863341741E+03  0.15907949182E+03  0.93593422019E+02 0.  0.
    9000005    2    3    3    0    0 -0.23148848016E+02  0.33973672473E+02  0.10197249435E+03  0.11008067139E+03  0.54115638989E+01 0.  0.
         22    1    3    3    0    0  0.23148848016E+02 -0.33973672473E+02  0.26660923058E+02  0.48998820435E+02  0.00000000000E+00 0.  1.
         22    1    4    4    0    0 -0.66089564077E+00  0.87650743419E+00  0.60169754287E+01  0.61162931290E+01  0.00000000000E+00 0. -1.
         22    1    4    4    0    0 -0.22487952375E+02  0.33097165039E+02  0.95955518920E+02  0.10396437826E+03  0.00000000000E+00 0. -1.
<mgrwt>
<rscale>  0 0.93593422E+02</rscale>
<asrwt>0</asrwt>
<pdfrwt beam="1">  1        2 0.22131763E-01 0.93593422E+02</pdfrwt>
<pdfrwt beam="2">  1       -2 0.23420056E-02 0.93593422E+02</pdfrwt>
<totfact> 0.12836226E+05</totfact>
</mgrwt>
</event>
<event>
 7    1  0.3891761E-009  0.9328656E+02  0.7818608E-02  0.1295082E+00
          2   -1    0    0  501    0  0.00000000000E+00  0.00000000000E+00  0.13618529771E+03  0.13618529773E+03  0.25500000000E-02 0. -1.
         -2   -1    0    0    0  501 -0.00000000000E+00 -0.00000000000E+00 -0.15975260096E+02  0.15975260299E+02  0.25500000000E-02 0.  1.
         23    2    1    2    0    0  0.00000000000E+00  0.00000000000E+00  0.12021003761E+03  0.15216055803E+03  0.93286560005E+02 0.  0.
    9000005    2    3    3    0    0 -0.48749561177E+01 -0.45577720585E+02  0.70087355369E+02  0.84238712604E+02  0.91010717861E+01 0.  0.
         22    1    3    3    0    0  0.48749561177E+01  0.45577720585E+02  0.50122682241E+02  0.67921845425E+02  0.00000000000E+00 0.  1.
         22    1    4    4    0    0 -0.57778639438E+01 -0.31507762500E+02  0.54534073175E+02  0.63246248478E+02  0.00000000000E+00 0.  1.
         22    1    4    4    0    0  0.90290782605E+00 -0.14069958086E+02  0.15553282194E+02  0.20992464126E+02  0.00000000000E+00 0.  1.
<mgrwt>
<rscale>  0 0.93286560E+02</rscale>
<asrwt>0</asrwt>
<pdfrwt beam="1">  1        2 0.20951584E-01 0.93286560E+02</pdfrwt>
<pdfrwt beam="2">  1       -2 0.24577324E-02 0.93286560E+02</pdfrwt>
<totfact> 0.12715155E+05</totfact>
</mgrwt>
</event>
<event>
 7    1  0.3891761E-009  0.8981949E+02  0.7818608E-02  0.1303289E+00
          2   -1    0    0  501    0  0.00000000000E+00  0.00000000000E+00  0.12525276438E+03  0.12525276441E+03  0.25500000000E-02 0. -1.
         -2   -1    0    0    0  501 -0.00000000000E+00 -0.00000000000E+00 -0.16102519231E+02  0.16102519433E+02  0.25500000000E-02 0.  1.
         23    2    1    2    0    0  0.00000000000E+00 -0.71054273576E-14  0.10915024515E+03  0.14135528384E+03  0.89819487045E+02 0.  0.
    9000005    2    3    3    0    0 -0.23627181922E+02 -0.37877059248E+02  0.55591386059E+02  0.71631064733E+02  0.69059313603E+01 0.  0.
         22    1    3    3    0    0  0.23627181922E+02  0.37877059248E+02  0.53558859090E+02  0.69724219105E+02  0.00000000000E+00 0.  1.
         22    1    4    4    0    0 -0.33741452171E+00 -0.39249785486E+01  0.38603165092E+01  0.55155551595E+01  0.00000000000E+00 0.  1.
         22    1    4    4    0    0 -0.23289767400E+02 -0.33952080700E+02  0.51731069550E+02  0.66115509574E+02  0.00000000000E+00 0.  1.
<mgrwt>
<rscale>  0 0.89819487E+02</rscale>
<asrwt>0</asrwt>
<pdfrwt beam="1">  1        2 0.19269656E-01 0.89819487E+02</pdfrwt>
<pdfrwt beam="2">  1       -2 0.24773106E-02 0.89819487E+02</pdfrwt>
<totfact> 0.13716537E+05</totfact>
</mgrwt>
</event>
<event>
 7    1  0.3891761E-009  0.9218215E+02  0.7818608E-02  0.1297652E+00
          2   -1    0    0  501    0  0.00000000000E+00  0.00000000000E+00  0.33453760221E+03  0.33453760222E+03  0.25500000000E-02 0. -1.
         -2   -1    0    0    0  501 -0.00000000000E+00 -0.00000000000E+00 -0.63502190420E+01  0.63502195540E+01  0.25500000000E-02 0.  1.
         23    2    1    2    0    0 -0.71054273576E-14  0.00000000000E+00  0.32818738317E+03  0.34088782177E+03  0.92182148830E+02 0.  0.
    9000005    2    3    3    0    0  0.35129377053E+02  0.29729882237E+02  0.17284192325E+03  0.17886883848E+03  0.13386250367E+01 0.  0.
         22    1    3    3    0    0 -0.35129377053E+02 -0.29729882237E+02  0.15534545992E+03  0.16201898329E+03  0.00000000000E+00 0.  1.
         22    1    4    4    0    0  0.22315540436E+02  0.19118517724E+02  0.11274204677E+03  0.11650866995E+03  0.00000000000E+00 0.  1.
         22    1    4    4    0    0  0.12813836617E+02  0.10611364512E+02  0.60099876481E+02  0.62360168527E+02  0.00000000000E+00 0.  1.
<mgrwt>
<rscale>  0 0.92182149E+02</rscale>
<asrwt>0</asrwt>
<pdfrwt beam="1">  1        2 0.51467335E-01 0.92182149E+02</pdfrwt>
<pdfrwt beam="2">  1       -2 0.97695660E-03 0.92182149E+02</pdfrwt>
<totfact> 0.18167692E+05</totfact>
</mgrwt>
</event>
<event>
 7    1  0.3891761E-009  0.9159887E+02  0.7818608E-02  0.1299025E+00
          2   -1    0    0  501    0  0.00000000000E+00  0.00000000000E+00  0.15345449038E+03  0.15345449040E+03  0.25500000000E-02 0. -1.
         -2   -1    0    0    0  501 -0.00000000000E+00 -0.00000000000E+00 -0.13669123545E+02  0.13669123782E+02  0.25500000000E-02 0.  1.
         23    2    1    2    0    0  0.00000000000E+00  0.22204460493E-15  0.13978536684E+03  0.16712361418E+03  0.91598873555E+02 0.  0.
    9000005    2    3    3    0    0  0.15333484725E+02  0.14588172344E+00  0.14833856528E+03  0.14956530450E+03  0.11415486317E+02 0.  0.
         22    1    3    3    0    0 -0.15333484725E+02 -0.14588172344E+00 -0.85531984399E+01  0.17558309681E+02  0.00000000000E+00 0.  1.
         22    1    4    4    0    0  0.12267037219E+02  0.45492895465E+01  0.85145999921E+02  0.86145328022E+02  0.00000000000E+00 0. -1.
         22    1    4    4    0    0  0.30664475058E+01 -0.44034078230E+01  0.63192565355E+02  0.63419976482E+02  0.00000000000E+00 0. -1.
<mgrwt>
<rscale>  0 0.91598874E+02</rscale>
<asrwt>0</asrwt>
<pdfrwt beam="1">  1        2 0.23608385E-01 0.91598874E+02</pdfrwt>
<pdfrwt beam="2">  1       -2 0.21029419E-02 0.91598874E+02</pdfrwt>
<totfact> 0.13914374E+05</totfact>
</mgrwt>
</event>
<event>
 7    1  0.3891761E-009  0.9027952E+02  0.7818608E-02  0.1302176E+00
         -2   -1    0    0    0  501 -0.00000000000E+00  0.00000000000E+00  0.43904069132E+01  0.43904076538E+01  0.25500000000E-02 0.  1.
          2   -1    0    0  501    0  0.00000000000E+00 -0.00000000000E+00 -0.46410223067E+03  0.46410223068E+03  0.25500000000E-02 0. -1.
         23    2    1    2    0    0  0.00000000000E+00 -0.17763568394E-14 -0.45971182376E+03  0.46849263833E+03  0.90279517436E+02 0.  0.
    9000005    2    3    3    0    0 -0.67419779356E+01 -0.14882819671E+02 -0.44818863807E+03  0.44849922951E+03  0.33986749571E+01 0.  0.
         22    1    3    3    0    0  0.67419779356E+01  0.14882819671E+02 -0.11523185692E+02  0.19993408822E+02  0.00000000000E+00 0.  1.
         22    1    4    4    0    0 -0.65676348727E+01 -0.11073735386E+02 -0.34725511979E+03  0.34749371169E+03  0.00000000000E+00 0.  1.
         22    1    4    4    0    0 -0.17434306294E+00 -0.38090842852E+01 -0.10093351828E+03  0.10100551782E+03  0.00000000000E+00 0.  1.
<mgrwt>
<rscale>  0 0.90279517E+02</rscale>
<asrwt>0</asrwt>
<pdfrwt beam="2">  1        2 0.71400305E-01 0.90279517E+02</pdfrwt>
<pdfrwt beam="1">  1       -2 0.67544764E-03 0.90279517E+02</pdfrwt>
<totfact> 0.21581357E+05</totfact>
</mgrwt>
</event>
<event>
 7    1  0.3891761E-009  0.9148860E+02  0.7818608E-02  0.1299286E+00
         -2   -1    0    0    0  501 -0.00000000000E+00  0.00000000000E+00  0.34194540877E+03  0.34194540878E+03  0.25500000000E-02 0. -1.
          2   -1    0    0  501    0  0.00000000000E+00 -0.00000000000E+00 -0.61195180342E+01  0.61195185655E+01  0.25500000000E-02 0.  1.
         23    2    1    2    0    0  0.00000000000E+00  0.00000000000E+00  0.33582589074E+03  0.34806492735E+03  0.91488604533E+02 0.  0.
    9000005    2    3    3    0    0  0.34673877044E+02  0.16687760753E+02  0.25962530814E+03  0.26269931427E+03  0.11174523771E+02 0.  0.
         22    1    3    3    0    0 -0.34673877044E+02 -0.16687760753E+02  0.76200582597E+02  0.85365613079E+02  0.00000000000E+00 0.  1.
         22    1    4    4    0    0  0.21307733359E+02  0.41527504563E+01  0.14641665902E+03  0.14801723844E+03  0.00000000000E+00 0.  1.
         22    1    4    4    0    0  0.13366143684E+02  0.12535010297E+02  0.11320864912E+03  0.11468207583E+03  0.00000000000E+00 0.  1.
<mgrwt>
<rscale>  0 0.91488605E+02</rscale>
<asrwt>0</asrwt>
<pdfrwt beam="2">  1        2 0.94146401E-03 0.91488605E+02</pdfrwt>
<pdfrwt beam="1">  1       -2 0.52607005E-01 0.91488605E+02</pdfrwt>
<totfact> 0.46815362E+04</totfact>
</mgrwt>
</event>
<event>
 7    1  0.3891761E-009  0.9287605E+02  0.7818608E-02  0.1296033E+00
          2   -1    0    0  501    0  0.00000000000E+00  0.00000000000E+00  0.22089150126E+03  0.22089150127E+03  0.25500000000E-02 0. -1.
         -2   -1    0    0    0  501 -0.00000000000E+00 -0.00000000000E+00 -0.97626674256E+01  0.97626677587E+01  0.25500000000E-02 0.  1.
         23    2    1    2    0    0 -0.17763568394E-14  0.00000000000E+00  0.21112883383E+03  0.23065416903E+03  0.92876052974E+02 0.  0.
    9000005    2    3    3    0    0  0.12473541566E+02  0.43323703102E+02  0.81117546546E+02  0.93047965277E+02  0.67331266866E+01 0.  0.
         22    1    3    3    0    0 -0.12473541566E+02 -0.43323703102E+02  0.13001128728E+03  0.13760620375E+03  0.00000000000E+00 0. -1.
         22    1    4    4    0    0  0.46428880300E+01  0.75256315696E+01  0.18271821314E+02  0.20299039236E+02  0.00000000000E+00 0.  1.
         22    1    4    4    0    0  0.78306535361E+01  0.35798071532E+02  0.62845725232E+02  0.72748926041E+02  0.00000000000E+00 0.  1.
<mgrwt>
<rscale>  0 0.92876053E+02</rscale>
<asrwt>0</asrwt>
<pdfrwt beam="1">  1        2 0.33983309E-01 0.92876053E+02</pdfrwt>
<pdfrwt beam="2">  1       -2 0.15019488E-02 0.92876053E+02</pdfrwt>
<totfact> 0.15260412E+05</totfact>
</mgrwt>
</event>
<event>
 7    1  0.3891761E-009  0.9150974E+02  0.7818608E-02  0.1299236E+00
          2   -1    0    0  501    0  0.00000000000E+00  0.00000000000E+00  0.14316025970E+03  0.14316025972E+03  0.25500000000E-02 0. -1.
         -2   -1    0    0    0  501 -0.00000000000E+00 -0.00000000000E+00 -0.14623528778E+02  0.14623529001E+02  0.25500000000E-02 0.  1.
         23    2    1    2    0    0 -0.17763568394E-14  0.00000000000E+00  0.12853673092E+03  0.15778378872E+03  0.91509741491E+02 0.  0.
    9000005    2    3    3    0    0 -0.11525381617E+02 -0.28372618260E+02  0.12251629231E+03  0.12657344477E+03  0.85296630452E+01 0.  0.
         22    1    3    3    0    0  0.11525381617E+02  0.28372618260E+02  0.60204386092E+01  0.31210343949E+02  0.00000000000E+00 0.  1.
         22    1    4    4    0    0 -0.31679827203E+01 -0.36006520828E+01  0.10449021474E+02  0.11497080486E+02  0.00000000000E+00 0. -1.
         22    1    4    4    0    0 -0.83573988968E+01 -0.24771966178E+02  0.11206727084E+03  0.11507636429E+03  0.00000000000E+00 0. -1.
<mgrwt>
<rscale>  0 0.91509741E+02</rscale>
<asrwt>0</asrwt>
<pdfrwt beam="1">  1        2 0.22024656E-01 0.91509741E+02</pdfrwt>
<pdfrwt beam="2">  1       -2 0.22497736E-02 0.91509741E+02</pdfrwt>
<totfact> 0.13626186E+05</totfact>
</mgrwt>
</event>
<event>
 7    1  0.3891761E-009  0.8964382E+02  0.7818608E-02  0.1303717E+00
         -2   -1    0    0    0  501 -0.00000000000E+00  0.00000000000E+00  0.68535736467E+01  0.68535741210E+01  0.25500000000E-02 0.  1.
          2   -1    0    0  501    0  0.00000000000E+00 -0.00000000000E+00 -0.29313224087E+03  0.29313224088E+03  0.25500000000E-02 0. -1.
         23    2    1    2    0    0  0.35527136788E-14  0.00000000000E+00 -0.28627866722E+03  0.29998581500E+03  0.89643816827E+02 0.  0.
    9000005    2    3    3    0    0  0.27850608842E+02  0.34341549791E+02 -0.15533273522E+03  0.16177642471E+03  0.93997078812E+01 0.  0.
         22    1    3    3    0    0 -0.27850608842E+02 -0.34341549791E+02 -0.13094593201E+03  0.13820939029E+03  0.00000000000E+00 0.  1.
         22    1    4    4    0    0  0.11521693087E+02  0.20808504558E+02 -0.74295980652E+02  0.78010486568E+02  0.00000000000E+00 0.  1.
         22    1    4    4    0    0  0.16328915755E+02  0.13533045233E+02 -0.81036754564E+02  0.83765938145E+02  0.00000000000E+00 0.  1.
<mgrwt>
<rscale>  0 0.89643817E+02</rscale>
<asrwt>0</asrwt>
<pdfrwt beam="2">  1        2 0.45097258E-01 0.89643817E+02</pdfrwt>
<pdfrwt beam="1">  1       -2 0.10543962E-02 0.89643817E+02</pdfrwt>
<totfact> 0.18635158E+05</totfact>
</mgrwt>
</event>
<event>
 7    1  0.3891761E-009  0.9464973E+02  0.7818608E-02  0.1291967E+00
          2   -1    0    0  501    0  0.00000000000E+00  0.00000000000E+00  0.22979033437E+03  0.22979033438E+03  0.25500000000E-02 0. -1.
         -2   -1    0    0    0  501 -0.00000000000E+00 -0.00000000000E+00 -0.97464627534E+01  0.97464630869E+01  0.25500000000E-02 0.  1.
         23    2    1    2    0    0  0.00000000000E+00  0.00000000000E+00  0.22004387161E+03  0.23953679747E+03  0.94649732734E+02 0.  0.
    9000005    2    3    3    0    0 -0.14220924945E+01  0.38971341931E+02  0.17780769136E+03  0.18205042725E+03  0.24484922873E+01 0.  0.
         22    1    3    3    0    0  0.14220924945E+01 -0.38971341931E+02  0.42236180252E+02  0.57486370221E+02  0.00000000000E+00 0.  1.
         22    1    4    4    0    0 -0.89732069057E+00  0.10578581488E+02  0.52995269971E+02  0.54048221155E+02  0.00000000000E+00 0. -1.
         22    1    4    4    0    0 -0.52477180395E+00  0.28392760442E+02  0.12481242139E+03  0.12800220609E+03  0.00000000000E+00 0. -1.
<mgrwt>
<rscale>  0 0.94649733E+02</rscale>
<asrwt>0</asrwt>
<pdfrwt beam="1">  1        2 0.35352354E-01 0.94649733E+02</pdfrwt>
<pdfrwt beam="2">  1       -2 0.14994560E-02 0.94649733E+02</pdfrwt>
<totfact> 0.14714725E+05</totfact>
</mgrwt>
</event>
<event>
 7    1  0.3891761E-009  0.8916611E+02  0.7818608E-02  0.1304884E+00
          2   -1    0    0  501    0  0.00000000000E+00  0.00000000000E+00  0.41084785917E+01  0.41084793831E+01  0.25500000000E-02 0. -1.
         -2   -1    0    0    0  501 -0.00000000000E+00 -0.00000000000E+00 -0.48379185157E+03  0.48379185158E+03  0.25500000000E-02 0.  1.
         23    2    1    2    0    0  0.00000000000E+00  0.00000000000E+00 -0.47968337298E+03  0.48790033096E+03  0.89166107007E+02 0.  0.
    9000005    2    3    3    0    0 -0.18052973363E+02 -0.36819275038E+02 -0.32299851991E+03  0.32593826120E+03  0.15037865037E+02 0.  0.
         22    1    3    3    0    0  0.18052973363E+02  0.36819275038E+02 -0.15668485307E+03  0.16196206976E+03  0.00000000000E+00 0. -1.
         22    1    4    4    0    0 -0.80432139172E+00 -0.32912361323E+01 -0.79544569397E+01  0.86459558977E+01  0.00000000000E+00 0.  1.
         22    1    4    4    0    0 -0.17248651971E+02 -0.33528038906E+02 -0.31504406297E+03  0.31729230530E+03  0.00000000000E+00 0.  1.
<mgrwt>
<rscale>  0 0.89166107E+02</rscale>
<asrwt>0</asrwt>
<pdfrwt beam="1">  1        2 0.63207408E-03 0.89166107E+02</pdfrwt>
<pdfrwt beam="2">  1       -2 0.74429470E-01 0.89166107E+02</pdfrwt>
<totfact> 0.39448594E+04</totfact>
</mgrwt>
</event>
<event>
 7    1  0.3891761E-009  0.8829902E+02  0.7818608E-02  0.1307024E+00
         -2   -1    0    0    0  501 -0.00000000000E+00  0.00000000000E+00  0.61984533570E+01  0.61984538815E+01  0.25500000000E-02 0.  1.
          2   -1    0    0  501    0  0.00000000000E+00 -0.00000000000E+00 -0.31446219563E+03  0.31446219564E+03  0.25500000000E-02 0. -1.
         23    2    1    2    0    0  0.00000000000E+00  0.00000000000E+00 -0.30826374227E+03  0.32066064952E+03  0.88299022371E+02 0.  0.
    9000005    2    3    3    0    0 -0.12616530782E+02 -0.10438960253E+02 -0.30297052833E+03  0.30345115058E+03  0.48281475554E+01 0.  0.
         22    1    3    3    0    0  0.12616530782E+02  0.10438960253E+02 -0.52932139422E+01  0.17209498946E+02  0.00000000000E+00 0.  1.
         22    1    4    4    0    0 -0.31616673667E+01 -0.15137553629E+01 -0.10216849868E+03  0.10222861497E+03  0.00000000000E+00 0. -1.
         22    1    4    4    0    0 -0.94548634151E+01 -0.89252048898E+01 -0.20080202966E+03  0.20122253561E+03  0.00000000000E+00 0. -1.
<mgrwt>
<rscale>  0 0.88299022E+02</rscale>
<asrwt>0</asrwt>
<pdfrwt beam="2">  1        2 0.48378787E-01 0.88299022E+02</pdfrwt>
<pdfrwt beam="1">  1       -2 0.95360850E-03 0.88299022E+02</pdfrwt>
<totfact> 0.19911315E+05</totfact>
</mgrwt>
</event>
<event>
 7    1  0.3891761E-009  0.9052259E+02  0.7818608E-02  0.1301591E+00
          2   -1    0    0  501    0  0.00000000000E+00  0.00000000000E+00  0.10774261109E+03  0.10774261112E+03  0.25500000000E-02 0. -1.
         -2   -1    0    0    0  501 -0.00000000000E+00 -0.00000000000E+00 -0.19013690820E+02  0.19013690991E+02  0.25500000000E-02 0.  1.
         23    2    1    2    0    0  0.00000000000E+00  0.00000000000E+00  0.88728920275E+02  0.12675630212E+03  0.90522587418E+02 0.  0.
    9000005    2    3    3    0    0  0.22608638014E+02 -0.18819013739E+02  0.91621632416E+02  0.97198332387E+02  0.13699872304E+02 0.  0.
         22    1    3    3    0    0 -0.22608638014E+02  0.18819013739E+02 -0.28927121418E+01  0.29557969729E+02  0.00000000000E+00 0.  1.
         22    1    4    4    0    0  0.13055632757E+02 -0.93859751507E+01  0.29055076204E+02  0.33207582408E+02  0.00000000000E+00 0.  1.
         22    1    4    4    0    0  0.95530052569E+01 -0.94330385881E+01  0.62566556213E+02  0.63990749978E+02  0.00000000000E+00 0.  1.
<mgrwt>
<rscale>  0 0.90522587E+02</rscale>
<asrwt>0</asrwt>
<pdfrwt beam="1">  1        2 0.16575786E-01 0.90522587E+02</pdfrwt>
<pdfrwt beam="2">  1       -2 0.29251832E-02 0.90522587E+02</pdfrwt>
<totfact> 0.12802731E+05</totfact>
</mgrwt>
</event>
<event>
 7    1  0.3891761E-009  0.9117320E+02  0.7818608E-02  0.1300035E+00
          2   -1    0    0  501    0  0.00000000000E+00  0.00000000000E+00  0.29606632189E+02  0.29606632298E+02  0.25500000000E-02 0. -1.
         -2   -1    0    0    0  501 -0.00000000000E+00 -0.00000000000E+00 -0.70191634593E+02  0.70191634640E+02  0.25500000000E-02 0.  1.
         23    2    1    2    0    0  0.00000000000E+00  0.22204460493E-15 -0.40585002405E+02  0.99798266938E+02  0.91173195971E+02 0.  0.
    9000005    2    3    3    0    0 -0.30219030300E+02  0.19631994221E+01 -0.56585725095E+02  0.65548200210E+02  0.13325851642E+02 0.  0.
         22    1    3    3    0    0  0.30219030300E+02 -0.19631994221E+01  0.16000722690E+02  0.34250066728E+02  0.00000000000E+00 0. -1.
         22    1    4    4    0    0 -0.12383826484E+02  0.26704895105E+01 -0.11704035146E+02  0.17247466809E+02  0.00000000000E+00 0. -1.
         22    1    4    4    0    0 -0.17835203816E+02 -0.70729008842E+00 -0.44881689949E+02  0.48300733401E+02  0.00000000000E+00 0. -1.
<mgrwt>
<rscale>  0 0.91173196E+02</rscale>
<asrwt>0</asrwt>
<pdfrwt beam="1">  1        2 0.45548665E-02 0.91173196E+02</pdfrwt>
<pdfrwt beam="2">  1       -2 0.10798713E-01 0.91173196E+02</pdfrwt>
<totfact> 0.88164883E+04</totfact>
</mgrwt>
</event>
<event>
 7    1  0.3891761E-009  0.9015714E+02  0.7818608E-02  0.1302472E+00
         -2   -1    0    0    0  501 -0.00000000000E+00  0.00000000000E+00  0.29274929422E+01  0.29274940528E+01  0.25500000000E-02 0.  1.
          2   -1    0    0  501    0  0.00000000000E+00 -0.00000000000E+00 -0.69413564044E+03  0.69413564045E+03  0.25500000000E-02 0. -1.
         23    2    1    2    0    0 -0.17763568394E-14  0.17763568394E-14 -0.69120814750E+03  0.69706313450E+03  0.90157142302E+02 0.  0.
    9000005    2    3    3    0    0 -0.10174602004E+02  0.12970148691E+02 -0.66994717411E+03  0.67016004411E+03  0.36771377308E+01 0.  0.
         22    1    3    3    0    0  0.10174602004E+02 -0.12970148691E+02 -0.21260973393E+02  0.26903090391E+02  0.00000000000E+00 0.  1.
         22    1    4    4    0    0 -0.46511385541E+01  0.50329514539E+01 -0.34881432655E+03  0.34888163910E+03  0.00000000000E+00 0. -1.
         22    1    4    4    0    0 -0.55234634494E+01  0.79371972373E+01 -0.32113284755E+03  0.32127840501E+03  0.00000000000E+00 0. -1.
<mgrwt>
<rscale>  0 0.90157142E+02</rscale>
<asrwt>0</asrwt>
<pdfrwt beam="2">  1        2 0.10678997E+00 0.90157142E+02</pdfrwt>
<pdfrwt beam="1">  1       -2 0.45038417E-03 0.90157142E+02</pdfrwt>
<totfact> 0.24379711E+05</totfact>
</mgrwt>
</event>
<event>
 7    1  0.3891761E-009  0.1006454E+03  0.7818608E-02  0.1278945E+00
          2   -1    0    0  501    0  0.00000000000E+00  0.00000000000E+00  0.11274403418E+02  0.11274403706E+02  0.25500000000E-02 0.  1.
         -2   -1    0    0    0  501 -0.00000000000E+00 -0.00000000000E+00 -0.22461252978E+03  0.22461252980E+03  0.25500000000E-02 0. -1.
         23    2    1    2    0    0  0.00000000000E+00  0.00000000000E+00 -0.21333812636E+03  0.23588693350E+03  0.10064536371E+03 0.  0.
    9000005    2    3    3    0    0 -0.26029708716E+02 -0.41904561713E+02 -0.11214463732E+03  0.12330958119E+03  0.13974802549E+02 0.  0.
         22    1    3    3    0    0  0.26029708716E+02  0.41904561713E+02 -0.10119348905E+03  0.11257735231E+03  0.00000000000E+00 0.  1.
         22    1    4    4    0    0 -0.26337652342E+02 -0.42336453402E+02 -0.11219648458E+03  0.12277661980E+03  0.00000000000E+00 0.  1.
         22    1    4    4    0    0  0.30794362649E+00  0.43189168937E+00  0.51847259323E-01  0.53296139330E+00  0.00000000000E+00 0.  1.
<mgrwt>
<rscale>  0 0.10064536E+03</rscale>
<asrwt>0</asrwt>
<pdfrwt beam="1">  1        2 0.17345238E-02 0.10064536E+03</pdfrwt>
<pdfrwt beam="2">  1       -2 0.34555771E-01 0.10064536E+03</pdfrwt>
<totfact> 0.45906856E+04</totfact>
</mgrwt>
</event>
<event>
 7    1  0.3891761E-009  0.9147166E+02  0.7818608E-02  0.1299326E+00
         -2   -1    0    0    0  501 -0.00000000000E+00  0.00000000000E+00  0.39482333917E+01  0.39482342152E+01  0.25500000000E-02 0.  1.
          2   -1    0    0  501    0  0.00000000000E+00 -0.00000000000E+00 -0.52979797281E+03  0.52979797282E+03  0.25500000000E-02 0. -1.
         23    2    1    2    0    0  0.00000000000E+00  0.00000000000E+00 -0.52584973942E+03  0.53374620703E+03  0.91471662683E+02 0.  0.
    9000005    2    3    3    0    0 -0.37591692466E+02  0.23870094350E+02 -0.28893796303E+03  0.29268582759E+03  0.14033190770E+02 0.  0.
         22    1    3    3    0    0  0.37591692466E+02 -0.23870094350E+02 -0.23691177639E+03  0.24106037945E+03  0.00000000000E+00 0.  1.
         22    1    4    4    0    0 -0.22255316315E+02  0.10287098711E+02 -0.19530075283E+03  0.19683370534E+03  0.00000000000E+00 0.  1.
         22    1    4    4    0    0 -0.15336376151E+02  0.13582995639E+02 -0.93637210203E+02  0.95852122244E+02  0.00000000000E+00 0.  1.
<mgrwt>
<rscale>  0 0.91471663E+02</rscale>
<asrwt>0</asrwt>
<pdfrwt beam="2">  1        2 0.81507324E-01 0.91471663E+02</pdfrwt>
<pdfrwt beam="1">  1       -2 0.60742101E-03 0.91471663E+02</pdfrwt>
<totfact> 0.21764892E+05</totfact>
</mgrwt>
</event>
<event>
 7    1  0.3891761E-009  0.9182919E+02  0.7818608E-02  0.1298482E+00
         -2   -1    0    0    0  501 -0.00000000000E+00  0.00000000000E+00  0.14262682046E+02  0.14262682274E+02  0.25500000000E-02 0. -1.
          2   -1    0    0  501    0  0.00000000000E+00 -0.00000000000E+00 -0.14780880141E+03  0.14780880143E+03  0.25500000000E-02 0.  1.
         23    2    1    2    0    0 -0.17763568394E-14  0.00000000000E+00 -0.13354611936E+03  0.16207148371E+03  0.91829188354E+02 0.  0.
    9000005    2    3    3    0    0  0.15379326533E+02 -0.38694988135E+02 -0.38354727333E+02  0.58171402339E+02  0.13379131135E+02 0.  0.
         22    1    3    3    0    0 -0.15379326533E+02  0.38694988135E+02 -0.95191392032E+02  0.10390008137E+03  0.00000000000E+00 0.  1.
         22    1    4    4    0    0  0.32996439089E+01 -0.25959544891E+02 -0.22222126083E+02  0.34330868158E+02  0.00000000000E+00 0. -1.
         22    1    4    4    0    0  0.12079682624E+02 -0.12735443244E+02 -0.16132601250E+02  0.23840534180E+02  0.00000000000E+00 0. -1.
<mgrwt>
<rscale>  0 0.91829188E+02</rscale>
<asrwt>0</asrwt>
<pdfrwt beam="2">  1        2 0.22739815E-01 0.91829188E+02</pdfrwt>
<pdfrwt beam="1">  1       -2 0.21942589E-02 0.91829188E+02</pdfrwt>
<totfact> 0.13644214E+05</totfact>
</mgrwt>
</event>
<event>
 7    1  0.3891761E-009  0.9059813E+02  0.7818608E-02  0.1301410E+00
          2   -1    0    0  501    0  0.00000000000E+00  0.00000000000E+00  0.20364037393E+03  0.20364037394E+03  0.25500000000E-02 0.  1.
         -2   -1    0    0    0  501 -0.00000000000E+00 -0.00000000000E+00 -0.10076613044E+02  0.10076613367E+02  0.25500000000E-02 0. -1.
         23    2    1    2    0    0  0.00000000000E+00 -0.17763568394E-14  0.19356376088E+03  0.21371698731E+03  0.90598129879E+02 0.  0.
    9000005    2    3    3    0    0 -0.34631837367E+02 -0.15601290601E+02  0.15173643930E+03  0.15721663989E+03  0.15822781632E+02 0.  0.
         22    1    3    3    0    0  0.34631837367E+02  0.15601290601E+02  0.41827321582E+02  0.56500347420E+02  0.00000000000E+00 0. -1.
         22    1    4    4    0    0 -0.12273359469E+02 -0.77771736198E+01  0.31784847374E+02  0.34948480722E+02  0.00000000000E+00 0.  1.
         22    1    4    4    0    0 -0.22358477898E+02 -0.78241169815E+01  0.11995159193E+03  0.12226815917E+03  0.00000000000E+00 0.  1.
<mgrwt>
<rscale>  0 0.90598130E+02</rscale>
<asrwt>0</asrwt>
<pdfrwt beam="1">  1        2 0.31329287E-01 0.90598130E+02</pdfrwt>
<pdfrwt beam="2">  1       -2 0.15502483E-02 0.90598130E+02</pdfrwt>
<totfact> 0.15838200E+05</totfact>
</mgrwt>
</event>
<event>
 7    1  0.3891761E-009  0.9171015E+02  0.7818608E-02  0.1298762E+00
          2   -1    0    0  501    0  0.00000000000E+00  0.00000000000E+00  0.49481415928E+03  0.49481415929E+03  0.25500000000E-02 0. -1.
         -2   -1    0    0    0  501 -0.00000000000E+00 -0.00000000000E+00 -0.42494492701E+01  0.42494500352E+01  0.25500000000E-02 0.  1.
         23    2    1    2    0    0  0.00000000000E+00  0.00000000000E+00  0.49056471001E+03  0.49906360933E+03  0.91710149069E+02 0.  0.
    9000005    2    3    3    0    0  0.42545860182E+02  0.13376596564E+02  0.27596238793E+03  0.27987592674E+03  0.13645924718E+02 0.  0.
         22    1    3    3    0    0 -0.42545860182E+02 -0.13376596564E+02  0.21460232208E+03  0.21918768259E+03  0.00000000000E+00 0.  1.
         22    1    4    4    0    0  0.10178156228E+02 -0.26559629141E+01  0.62650476703E+02  0.63527405380E+02  0.00000000000E+00 0.  1.
         22    1    4    4    0    0  0.32367703954E+02  0.16032559478E+02  0.21331191123E+03  0.21634852136E+03  0.00000000000E+00 0.  1.
<mgrwt>
<rscale>  0 0.91710149E+02</rscale>
<asrwt>0</asrwt>
<pdfrwt beam="1">  1        2 0.76125254E-01 0.91710149E+02</pdfrwt>
<pdfrwt beam="2">  1       -2 0.65376149E-03 0.91710149E+02</pdfrwt>
<totfact> 0.21147348E+05</totfact>
</mgrwt>
</event>
<event>
 7    1  0.3891761E-009  0.9314507E+02  0.7818608E-02  0.1295409E+00
         -2   -1    0    0    0  501 -0.00000000000E+00  0.00000000000E+00  0.17407663905E+03  0.17407663906E+03  0.25500000000E-02 0.  1.
          2   -1    0    0  501    0  0.00000000000E+00 -0.00000000000E+00 -0.12460035125E+02  0.12460035386E+02  0.25500000000E-02 0. -1.
         23    2    1    2    0    0 -0.35527136788E-14  0.00000000000E+00  0.16161660392E+03  0.18653667445E+03  0.93145071003E+02 0.  0.
    9000005    2    3    3    0    0 -0.28287028552E+02  0.10509541939E+02  0.15105460870E+03  0.15456540299E+03  0.12742155786E+02 0.  0.
         22    1    3    3    0    0  0.28287028552E+02 -0.10509541939E+02  0.10561995220E+02  0.31971271465E+02  0.00000000000E+00 0. -1.
         22    1    4    4    0    0  0.20433846424E+00  0.22500285871E+01  0.23427282805E+02  0.23535971671E+02  0.00000000000E+00 0. -1.
         22    1    4    4    0    0 -0.28491367017E+02  0.82595133518E+01  0.12762732590E+03  0.13102943131E+03  0.00000000000E+00 0. -1.
<mgrwt>
<rscale>  0 0.93145071E+02</rscale>
<asrwt>0</asrwt>
<pdfrwt beam="2">  1        2 0.19169286E-02 0.93145071E+02</pdfrwt>
<pdfrwt beam="1">  1       -2 0.26781021E-01 0.93145071E+02</pdfrwt>
<totfact> 0.62520070E+04</totfact>
</mgrwt>
</event>
<event>
 7    1  0.3891761E-009  0.9127519E+02  0.7818608E-02  0.1299793E+00
          2   -1    0    0  501    0  0.00000000000E+00  0.00000000000E+00  0.11977879792E+03  0.11977879795E+03  0.25500000000E-02 0. -1.
         -2   -1    0    0    0  501 -0.00000000000E+00 -0.00000000000E+00 -0.17388636456E+02  0.17388636643E+02  0.25500000000E-02 0.  1.
         23    2    1    2    0    0  0.00000000000E+00  0.00000000000E+00  0.10239016147E+03  0.13716743459E+03  0.91275188018E+02 0.  0.
    9000005    2    3    3    0    0 -0.35681772038E+02 -0.22417139299E+02  0.75533344983E+02  0.87197387748E+02  0.11062605283E+02 0.  0.
         22    1    3    3    0    0  0.35681772038E+02  0.22417139299E+02  0.26856816483E+02  0.49970046845E+02  0.00000000000E+00 0. -1.
         22    1    4    4    0    0 -0.14140835082E+02 -0.63991550294E+01  0.38043812132E+02  0.41088247023E+02  0.00000000000E+00 0. -1.
         22    1    4    4    0    0 -0.21540936956E+02 -0.16017984269E+02  0.37489532851E+02  0.46109140725E+02  0.00000000000E+00 0. -1.
<mgrwt>
<rscale>  0 0.91275188E+02</rscale>
<asrwt>0</asrwt>
<pdfrwt beam="1">  1        2 0.18427507E-01 0.91275188E+02</pdfrwt>
<pdfrwt beam="2">  1       -2 0.26751749E-02 0.91275188E+02</pdfrwt>
<totfact> 0.12940507E+05</totfact>
</mgrwt>
</event>
<event>
 7    1  0.3891761E-009  0.9044177E+02  0.7818608E-02  0.1301785E+00
         -2   -1    0    0    0  501 -0.00000000000E+00  0.00000000000E+00  0.10845948456E+01  0.10845978432E+01  0.25500000000E-02 0. -1.
          2   -1    0    0  501    0  0.00000000000E+00 -0.00000000000E+00 -0.18854280640E+04  0.18854280640E+04  0.25500000000E-02 0.  1.
         23    2    1    2    0    0  0.00000000000E+00 -0.17763568394E-14 -0.18843434691E+04  0.18865126618E+04  0.90441768870E+02 0.  0.
    9000005    2    3    3    0    0 -0.18605986385E+02 -0.11062478716E+02 -0.17670761351E+04  0.17672642287E+04  0.14008059639E+02 0.  0.
         22    1    3    3    0    0  0.18605986385E+02  0.11062478716E+02 -0.11726733404E+03  0.11924843310E+03  0.00000000000E+00 0. -1.
         22    1    4    4    0    0 -0.14234887940E+02 -0.14315611619E+02 -0.13086271128E+04  0.13087828274E+04  0.00000000000E+00 0.  1.
         22    1    4    4    0    0 -0.43710984446E+01  0.32531329023E+01 -0.45844902226E+03  0.45848140135E+03  0.00000000000E+00 0.  1.
<mgrwt>
<rscale>  0 0.90441769E+02</rscale>
<asrwt>0</asrwt>
<pdfrwt beam="2">  1        2 0.29006323E+00 0.90441769E+02</pdfrwt>
<pdfrwt beam="1">  1       -2 0.16686249E-03 0.90441769E+02</pdfrwt>
<totfact> 0.21154715E+05</totfact>
</mgrwt>
</event>
<event>
 7    1  0.3891761E-009  0.1109309E+03  0.7818608E-02  0.1258856E+00
          2   -1    0    0  501    0  0.00000000000E+00  0.00000000000E+00  0.57699738134E+02  0.57699738190E+02  0.25500000000E-02 0.  1.
         -2   -1    0    0    0  501 -0.00000000000E+00 -0.00000000000E+00 -0.53317692037E+02  0.53317692098E+02  0.25500000000E-02 0. -1.
         23    2    1    2    0    0  0.35527136788E-14  0.00000000000E+00  0.43820460970E+01  0.11101743029E+03  0.11093091318E+03 0.  0.
    9000005    2    3    3    0    0 -0.25697801389E+02  0.45785109844E+02  0.17150799706E+02  0.56983234186E+02  0.14010202288E+02 0.  0.
         22    1    3    3    0    0  0.25697801389E+02 -0.45785109844E+02 -0.12768753609E+02  0.54034196102E+02  0.00000000000E+00 0. -1.
         22    1    4    4    0    0 -0.16406303297E+02  0.37883467295E+02  0.17358582883E+02  0.44784420079E+02  0.00000000000E+00 0.  1.
         22    1    4    4    0    0 -0.92914980919E+01  0.79016425489E+01 -0.20778317703E+00  0.12198814107E+02  0.00000000000E+00 0.  1.
<mgrwt>
<rscale>  0 0.11093091E+03</rscale>
<asrwt>0</asrwt>
<pdfrwt beam="1">  1        2 0.88768828E-02 0.11093091E+03</pdfrwt>
<pdfrwt beam="2">  1       -2 0.82027218E-02 0.11093091E+03</pdfrwt>
<totfact> 0.59638726E+04</totfact>
</mgrwt>
</event>
<event>
 7    1  0.3891761E-009  0.9129907E+02  0.7818608E-02  0.1299736E+00
         -2   -1    0    0    0  501 -0.00000000000E+00  0.00000000000E+00  0.35203323567E+01  0.35203332803E+01  0.25500000000E-02 0.  1.
          2   -1    0    0  501    0  0.00000000000E+00 -0.00000000000E+00 -0.59195536009E+03  0.59195536009E+03  0.25500000000E-02 0. -1.
         23    2    1    2    0    0  0.00000000000E+00  0.00000000000E+00 -0.58843502773E+03  0.59547569337E+03  0.91299066468E+02 0.  0.
    9000005    2    3    3    0    0  0.13223726354E+02  0.90972929549E+01 -0.57235705139E+03  0.57275722069E+03  0.14163753084E+02 0.  0.
         22    1    3    3    0    0 -0.13223726354E+02 -0.90972929549E+01 -0.16077976345E+02  0.22718472685E+02  0.00000000000E+00 0.  1.
         22    1    4    4    0    0  0.70365216889E+01  0.10317511607E+02 -0.22750565979E+03  0.22784817076E+03  0.00000000000E+00 0. -1.
         22    1    4    4    0    0  0.61872046655E+01 -0.12202186518E+01 -0.34485139159E+03  0.34490904992E+03  0.00000000000E+00 0. -1.
<mgrwt>
<rscale>  0 0.91299066E+02</rscale>
<asrwt>0</asrwt>
<pdfrwt beam="2">  1        2 0.91069976E-01 0.91299066E+02</pdfrwt>
<pdfrwt beam="1">  1       -2 0.54159014E-03 0.91299066E+02</pdfrwt>
<totfact> 0.22617183E+05</totfact>
</mgrwt>
</event>
<event>
 7    1  0.3891761E-009  0.9251313E+02  0.7818608E-02  0.1296877E+00
          2   -1    0    0  501    0  0.00000000000E+00  0.00000000000E+00  0.12344550645E+03  0.12344550648E+03  0.25500000000E-02 0. -1.
         -2   -1    0    0    0  501 -0.00000000000E+00 -0.00000000000E+00 -0.17332909679E+02  0.17332909866E+02  0.25500000000E-02 0.  1.
         23    2    1    2    0    0 -0.17763568394E-14  0.00000000000E+00  0.10611259678E+03  0.14077841635E+03  0.92513130499E+02 0.  0.
    9000005    2    3    3    0    0 -0.15086581946E+02  0.13953274144E+02  0.11573694519E+03  0.11808641563E+03  0.11272189693E+02 0.  0.
         22    1    3    3    0    0  0.15086581946E+02 -0.13953274144E+02 -0.96243484134E+01  0.22692000717E+02  0.00000000000E+00 0.  1.
         22    1    4    4    0    0 -0.68826205015E+01  0.10352949054E+01  0.21049073262E+02  0.22169929763E+02  0.00000000000E+00 0. -1.
         22    1    4    4    0    0 -0.82039614449E+01  0.12917979238E+02  0.94687871926E+02  0.95916485866E+02  0.00000000000E+00 0. -1.
<mgrwt>
<rscale>  0 0.92513130E+02</rscale>
<asrwt>0</asrwt>
<pdfrwt beam="1">  1        2 0.18991616E-01 0.92513130E+02</pdfrwt>
<pdfrwt beam="2">  1       -2 0.26666016E-02 0.92513130E+02</pdfrwt>
<totfact> 0.12593761E+05</totfact>
</mgrwt>
</event>
<event>
 7    1  0.3891761E-009  0.9090115E+02  0.7818608E-02  0.1300684E+00
         -2   -1    0    0    0  501 -0.00000000000E+00  0.00000000000E+00  0.45696051949E+01  0.45696059064E+01  0.25500000000E-02 0.  1.
          2   -1    0    0  501    0  0.00000000000E+00 -0.00000000000E+00 -0.45206416635E+03  0.45206416636E+03  0.25500000000E-02 0. -1.
         23    2    1    2    0    0  0.00000000000E+00  0.00000000000E+00 -0.44749456116E+03  0.45663377227E+03  0.90901153504E+02 0.  0.
    9000005    2    3    3    0    0 -0.34899056370E+02 -0.20501102511E+02 -0.32461417840E+03  0.32725901505E+03  0.92660007206E+01 0.  0.
         22    1    3    3    0    0  0.34899056370E+02  0.20501102511E+02 -0.12288038275E+03  0.12937475722E+03  0.00000000000E+00 0.  1.
         22    1    4    4    0    0 -0.13652250561E+02 -0.13229473448E+02 -0.15724163775E+03  0.15838666470E+03  0.00000000000E+00 0. -1.
         22    1    4    4    0    0 -0.21246805809E+02 -0.72716290629E+01 -0.16737254065E+03  0.16887235034E+03  0.00000000000E+00 0. -1.
<mgrwt>
<rscale>  0 0.90901154E+02</rscale>
<asrwt>0</asrwt>
<pdfrwt beam="2">  1        2 0.69548298E-01 0.90901154E+02</pdfrwt>
<pdfrwt beam="1">  1       -2 0.70301660E-03 0.90901154E+02</pdfrwt>
<totfact> 0.21004507E+05</totfact>
</mgrwt>
</event>
<event>
 7    1  0.4262929E-009  0.8985579E+02  0.7818608E-02  0.1303201E+00
          2   -1    0    0  501    0  0.00000000000E+00  0.00000000000E+00  0.20404150936E+03  0.20404150938E+03  0.25500000000E-02 0.  1.
         -2   -1    0    0    0  501 -0.00000000000E+00 -0.00000000000E+00 -0.98926727646E+01  0.98926730932E+01  0.25500000000E-02 0. -1.
         23    2    1    2    0    0  0.00000000000E+00  0.00000000000E+00  0.19414883660E+03  0.21393418247E+03  0.89855793789E+02 0.  0.
    9000005    2    3    3    0    0 -0.33353265554E+02  0.14108052300E+02  0.42358627321E+02  0.57883725583E+02  0.15645923303E+02 0.  0.
         22    1    3    3    0    0  0.33353265554E+02 -0.14108052300E+02  0.15179020928E+03  0.15605045689E+03  0.00000000000E+00 0. -1.
         22    1    4    4    0    0 -0.13759581870E+02  0.12666055536E+02  0.13897611330E+02  0.23300185767E+02  0.00000000000E+00 0.  1.
         22    1    4    4    0    0 -0.19593683684E+02  0.14419967639E+01  0.28461015991E+02  0.34583539816E+02  0.00000000000E+00 0.  1.
<mgrwt>
<rscale>  0 0.89855794E+02</rscale>
<asrwt>0</asrwt>
<pdfrwt beam="1">  1        2 0.31391000E-01 0.89855794E+02</pdfrwt>
<pdfrwt beam="2">  1       -2 0.15219498E-02 0.89855794E+02</pdfrwt>
<totfact> 0.16203594E+05</totfact>
</mgrwt>
</event>
<event>
 7    1  0.3891761E-009  0.9182267E+02  0.7818608E-02  0.1298497E+00
         -2   -1    0    0    0  501 -0.00000000000E+00  0.00000000000E+00  0.93674435469E+01  0.93674438940E+01  0.25500000000E-02 0.  1.
          2   -1    0    0  501    0  0.00000000000E+00 -0.00000000000E+00 -0.22501875435E+03  0.22501875437E+03  0.25500000000E-02 0. -1.
         23    2    1    2    0    0  0.00000000000E+00  0.00000000000E+00 -0.21565131081E+03  0.23438619826E+03  0.91822666500E+02 0.  0.
    9000005    2    3    3    0    0  0.35165607761E+02  0.26656500778E+02 -0.14002591530E+03  0.14682827772E+03  0.20241496585E+01 0.  0.
         22    1    3    3    0    0 -0.35165607761E+02 -0.26656500778E+02 -0.75625395511E+02  0.87557920539E+02  0.00000000000E+00 0.  1.
         22    1    4    4    0    0  0.28272955010E+02  0.22328948082E+02 -0.11313507440E+03  0.11873283862E+03  0.00000000000E+00 0.  1.
         22    1    4    4    0    0  0.68926527503E+01  0.43275526959E+01 -0.26890840898E+02  0.28095439105E+02  0.00000000000E+00 0.  1.
<mgrwt>
<rscale>  0 0.91822666E+02</rscale>
<asrwt>0</asrwt>
<pdfrwt beam="2">  1        2 0.34618266E-01 0.91822666E+02</pdfrwt>
<pdfrwt beam="1">  1       -2 0.14411454E-02 0.91822666E+02</pdfrwt>
<totfact> 0.15843566E+05</totfact>
</mgrwt>
</event>
<event>
 7    1  0.3891761E-009  0.9079610E+02  0.7818608E-02  0.1300935E+00
          2   -1    0    0  501    0  0.00000000000E+00  0.00000000000E+00  0.13589242035E+03  0.13589242037E+03  0.25500000000E-02 0. -1.
         -2   -1    0    0    0  501 -0.00000000000E+00 -0.00000000000E+00 -0.15166282422E+02  0.15166282637E+02  0.25500000000E-02 0.  1.
         23    2    1    2    0    0 -0.35527136788E-14  0.00000000000E+00  0.12072613793E+03  0.15105870301E+03  0.90796097803E+02 0.  0.
    9000005    2    3    3    0    0 -0.27687003466E+02 -0.35840225747E+02  0.61284662307E+02  0.76329987201E+02  0.44005874096E+01 0.  0.
         22    1    3    3    0    0  0.27687003466E+02  0.35840225747E+02  0.59441475621E+02  0.74728715809E+02  0.00000000000E+00 0.  1.
         22    1    4    4    0    0 -0.16058491543E+02 -0.21760258787E+02  0.40012788117E+02  0.48295002081E+02  0.00000000000E+00 0.  1.
         22    1    4    4    0    0 -0.11628511923E+02 -0.14079966960E+02  0.21271874190E+02  0.28034985120E+02  0.00000000000E+00 0.  1.
<mgrwt>
<rscale>  0 0.90796098E+02</rscale>
<asrwt>0</asrwt>
<pdfrwt beam="1">  1        2 0.20906527E-01 0.90796098E+02</pdfrwt>
<pdfrwt beam="2">  1       -2 0.23332742E-02 0.90796098E+02</pdfrwt>
<totfact> 0.13679367E+05</totfact>
</mgrwt>
</event>
<event>
 7    1  0.3891761E-009  0.9356422E+02  0.7818608E-02  0.1294443E+00
         -2   -1    0    0    0  501 -0.00000000000E+00  0.00000000000E+00  0.87626627856E+01  0.87626631566E+01  0.25500000000E-02 0. -1.
          2   -1    0    0  501    0  0.00000000000E+00 -0.00000000000E+00 -0.24976034434E+03  0.24976034435E+03  0.25500000000E-02 0.  1.
         23    2    1    2    0    0  0.00000000000E+00 -0.88817841970E-15 -0.24099768155E+03  0.25852300751E+03  0.93564218039E+02 0.  0.
    9000005    2    3    3    0    0  0.14072286341E+02 -0.65113856684E+01 -0.24228622851E+03  0.24296383853E+03  0.94012191786E+01 0.  0.
         22    1    3    3    0    0 -0.14072286341E+02  0.65113856684E+01  0.12885469516E+01  0.15559168982E+02  0.00000000000E+00 0. -1.
         22    1    4    4    0    0  0.40099568992E+01  0.75460495165E+00 -0.25664402902E+02  0.25986741990E+02  0.00000000000E+00 0. -1.
         22    1    4    4    0    0  0.10062329442E+02 -0.72659906200E+01 -0.21662182560E+03  0.21697709654E+03  0.00000000000E+00 0. -1.
<mgrwt>
<rscale>  0 0.93564218E+02</rscale>
<asrwt>0</asrwt>
<pdfrwt beam="2">  1        2 0.38424663E-01 0.93564218E+02</pdfrwt>
<pdfrwt beam="1">  1       -2 0.13481022E-02 0.93564218E+02</pdfrwt>
<totfact> 0.15655506E+05</totfact>
</mgrwt>
</event>
<event>
 7    1  0.3891761E-009  0.9401578E+02  0.7818608E-02  0.1293408E+00
         -2   -1    0    0    0  501 -0.00000000000E+00  0.00000000000E+00  0.93758470687E+02  0.93758470722E+02  0.25500000000E-02 0.  1.
          2   -1    0    0  501    0  0.00000000000E+00 -0.00000000000E+00 -0.23568449713E+02  0.23568449851E+02  0.25500000000E-02 0. -1.
         23    2    1    2    0    0  0.71054273576E-14  0.17763568394E-14  0.70190020974E+02  0.11732692057E+03  0.94015781903E+02 0.  0.
    9000005    2    3    3    0    0  0.39464707797E+02  0.12216858275E+02  0.60560633136E+02  0.74907115084E+02  0.15387358989E+02 0.  0.
         22    1    3    3    0    0 -0.39464707797E+02 -0.12216858275E+02  0.96293878380E+01  0.42419805489E+02  0.00000000000E+00 0. -1.
         22    1    4    4    0    0  0.78858727423E+01 -0.28868182505E+01  0.17521711664E+02  0.19430159241E+02  0.00000000000E+00 0.  1.
         22    1    4    4    0    0  0.31578835055E+02  0.15103676526E+02  0.43038921473E+02  0.55476955842E+02  0.00000000000E+00 0.  1.
<mgrwt>
<rscale>  0 0.94015782E+02</rscale>
<asrwt>0</asrwt>
<pdfrwt beam="2">  1        2 0.36259153E-02 0.94015782E+02</pdfrwt>
<pdfrwt beam="1">  1       -2 0.14424380E-01 0.94015782E+02</pdfrwt>
<totfact> 0.75378469E+04</totfact>
</mgrwt>
</event>
<event>
 7    1  0.3891761E-009  0.9148494E+02  0.7818608E-02  0.1299295E+00
         -2   -1    0    0    0  501 -0.00000000000E+00  0.00000000000E+00  0.15717062638E+01  0.15717083324E+01  0.25500000000E-02 0.  1.
          2   -1    0    0  501    0  0.00000000000E+00 -0.00000000000E+00 -0.13312741849E+04  0.13312741849E+04  0.25500000000E-02 0. -1.
         23    2    1    2    0    0  0.00000000000E+00  0.00000000000E+00 -0.13297024786E+04  0.13328458932E+04  0.91484935489E+02 0.  0.
    9000005    2    3    3    0    0 -0.22383442861E+02 -0.13475950909E+02 -0.12084281031E+04  0.12087890759E+04  0.13781504564E+02 0.  0.
         22    1    3    3    0    0  0.22383442861E+02  0.13475950909E+02 -0.12127437551E+03  0.12405681731E+03  0.00000000000E+00 0.  1.
         22    1    4    4    0    0 -0.24091602073E+02 -0.13798997809E+02 -0.11216011968E+04  0.11219447679E+04  0.00000000000E+00 0. -1.
         22    1    4    4    0    0  0.17081592116E+01  0.32304690013E+00 -0.86826906319E+02  0.86844307978E+02  0.00000000000E+00 0. -1.
<mgrwt>
<rscale>  0 0.91484935E+02</rscale>
<asrwt>0</asrwt>
<pdfrwt beam="2">  1        2 0.20481051E+00 0.91484935E+02</pdfrwt>
<pdfrwt beam="1">  1       -2 0.24180219E-03 0.91484935E+02</pdfrwt>
<totfact> 0.24232094E+05</totfact>
</mgrwt>
</event>
<event>
 7    1  0.3891761E-009  0.1023877E+03  0.7818608E-02  0.1275354E+00
          2   -1    0    0  501    0  0.00000000000E+00  0.00000000000E+00  0.31309313479E+03  0.31309313480E+03  0.25500000000E-02 0. -1.
         -2   -1    0    0    0  501 -0.00000000000E+00 -0.00000000000E+00 -0.83707039676E+01  0.83707043560E+01  0.25500000000E-02 0.  1.
         23    2    1    2    0    0  0.00000000000E+00  0.00000000000E+00  0.30472243082E+03  0.32146383915E+03  0.10238769476E+03 0.  0.
    9000005    2    3    3    0    0 -0.13144366959E+02 -0.43731184333E+02  0.22077316120E+03  0.22589883125E+03  0.14293438638E+02 0.  0.
         22    1    3    3    0    0  0.13144366959E+02  0.43731184333E+02  0.83949269619E+02  0.95565007903E+02  0.00000000000E+00 0.  1.
         22    1    4    4    0    0 -0.71215328320E+00  0.90373519645E+00  0.23652527706E+01  0.26302700000E+01  0.00000000000E+00 0.  1.
         22    1    4    4    0    0 -0.12432213676E+02 -0.44634919529E+02  0.21840790843E+03  0.22326856125E+03  0.00000000000E+00 0.  1.
<mgrwt>
<rscale>  0 0.10238769E+03</rscale>
<asrwt>0</asrwt>
<pdfrwt beam="1">  1        2 0.48168174E-01 0.10238769E+03</pdfrwt>
<pdfrwt beam="2">  1       -2 0.12878007E-02 0.10238769E+03</pdfrwt>
<totfact> 0.13371112E+05</totfact>
</mgrwt>
</event>
<event>
 7    1  0.3891761E-009  0.8947165E+02  0.7818608E-02  0.1304136E+00
          2   -1    0    0  501    0  0.00000000000E+00  0.00000000000E+00  0.10259277737E+02  0.10259278054E+02  0.25500000000E-02 0.  1.
         -2   -1    0    0    0  501 -0.00000000000E+00 -0.00000000000E+00 -0.19507164373E+03  0.19507164375E+03  0.25500000000E-02 0. -1.
         23    2    1    2    0    0  0.00000000000E+00  0.00000000000E+00 -0.18481236599E+03  0.20533092180E+03  0.89471653743E+02 0.  0.
    9000005    2    3    3    0    0 -0.41190456955E+01 -0.33331067399E+02 -0.30101106896E+02  0.47016360617E+02  0.13286645097E+02 0.  0.
         22    1    3    3    0    0  0.41190456955E+01  0.33331067399E+02 -0.15471125910E+03  0.15831456118E+03  0.00000000000E+00 0. -1.
         22    1    4    4    0    0  0.90021718594E+00 -0.16626862100E+02 -0.69820610632E+01  0.18055805465E+02  0.00000000000E+00 0.  1.
         22    1    4    4    0    0 -0.50192628814E+01 -0.16704205298E+02 -0.23119045833E+02  0.28960555153E+02  0.00000000000E+00 0.  1.
<mgrwt>
<rscale>  0 0.89471654E+02</rscale>
<asrwt>0</asrwt>
<pdfrwt beam="1">  1        2 0.15783506E-02 0.89471654E+02</pdfrwt>
<pdfrwt beam="2">  1       -2 0.30011019E-01 0.89471654E+02</pdfrwt>
<totfact> 0.66096772E+04</totfact>
</mgrwt>
</event>
<event>
 7    1  0.3891761E-009  0.9236281E+02  0.7818608E-02  0.1297229E+00
         -2   -1    0    0    0  501 -0.00000000000E+00  0.00000000000E+00  0.52642887869E+01  0.52642894045E+01  0.25500000000E-02 0.  1.
          2   -1    0    0  501    0  0.00000000000E+00 -0.00000000000E+00 -0.40513010000E+03  0.40513010001E+03  0.25500000000E-02 0. -1.
         23    2    1    2    0    0  0.00000000000E+00  0.35527136788E-14 -0.39986581122E+03  0.41039438942E+03  0.92362805740E+02 0.  0.
    9000005    2    3    3    0    0  0.40604147223E+02  0.20447717618E+02 -0.19702712047E+03  0.20252341888E+03  0.11368512085E+02 0.  0.
         22    1    3    3    0    0 -0.40604147223E+02 -0.20447717618E+02 -0.20283869074E+03  0.20787097053E+03  0.00000000000E+00 0.  1.
         22    1    4    4    0    0  0.52170077060E+01  0.84092939873E+00 -0.40900059346E+02  0.41240019231E+02  0.00000000000E+00 0. -1.
         22    1    4    4    0    0  0.35387139517E+02  0.19606788219E+02 -0.15612706113E+03  0.16128339965E+03  0.00000000000E+00 0. -1.
<mgrwt>
<rscale>  0 0.92362806E+02</rscale>
<asrwt>0</asrwt>
<pdfrwt beam="2">  1        2 0.62327683E-01 0.92362806E+02</pdfrwt>
<pdfrwt beam="1">  1       -2 0.80989095E-03 0.92362806E+02</pdfrwt>
<totfact> 0.19376434E+05</totfact>
</mgrwt>
</event>
<event>
 7    1  0.3891761E-009  0.9231630E+02  0.7818608E-02  0.1297337E+00
         -2   -1    0    0    0  501 -0.00000000000E+00  0.00000000000E+00  0.24187439596E+03  0.24187439597E+03  0.25500000000E-02 0.  1.
          2   -1    0    0  501    0  0.00000000000E+00 -0.00000000000E+00 -0.88085991595E+01  0.88085995286E+01  0.25500000000E-02 0. -1.
         23    2    1    2    0    0  0.11102230246E-15  0.71054273576E-14  0.23306579680E+03  0.25068299550E+03  0.92316296478E+02 0.  0.
    9000005    2    3    3    0    0  0.92812628283E+00  0.44335849778E+02  0.88082372147E+02  0.99069267831E+02  0.94702983909E+01 0.  0.
         22    1    3    3    0    0 -0.92812628283E+00 -0.44335849778E+02  0.14498342465E+03  0.15161372767E+03  0.00000000000E+00 0.  1.
         22    1    4    4    0    0  0.17239547585E+00  0.44529684760E+02  0.87013353449E+02  0.97745824584E+02  0.00000000000E+00 0. -1.
         22    1    4    4    0    0  0.75573080698E+00 -0.19383498234E+00  0.10690186975E+01  0.13234432472E+01  0.00000000000E+00 0. -1.
<mgrwt>
<rscale>  0 0.92316296E+02</rscale>
<asrwt>0</asrwt>
<pdfrwt beam="2">  1        2 0.13551693E-02 0.92316296E+02</pdfrwt>
<pdfrwt beam="1">  1       -2 0.37211440E-01 0.92316296E+02</pdfrwt>
<totfact> 0.55309007E+04</totfact>
</mgrwt>
</event>
<event>
 7    1  0.3891761E-009  0.8252280E+02  0.7818608E-02  0.1322041E+00
         -2   -1    0    0    0  501 -0.00000000000E+00  0.00000000000E+00  0.68435827835E+01  0.68435832586E+01  0.25500000000E-02 0.  1.
          2   -1    0    0  501    0  0.00000000000E+00 -0.00000000000E+00 -0.24877364974E+03  0.24877364976E+03  0.25500000000E-02 0. -1.
         23    2    1    2    0    0  0.00000000000E+00  0.00000000000E+00 -0.24193006696E+03  0.25561723302E+03  0.82522799971E+02 0.  0.
    9000005    2    3    3    0    0 -0.32081475925E+02 -0.13122313189E+02 -0.60624787980E+02  0.71028445742E+02  0.12971468149E+02 0.  0.
         22    1    3    3    0    0  0.32081475925E+02  0.13122313189E+02 -0.18130527898E+03  0.18458878727E+03  0.00000000000E+00 0. -1.
         22    1    4    4    0    0 -0.50243090568E+01 -0.43695184152E+01 -0.42842777513E+01  0.79177906343E+01  0.00000000000E+00 0. -1.
         22    1    4    4    0    0 -0.27057166868E+02 -0.87527947736E+01 -0.56340510229E+02  0.63110655108E+02  0.00000000000E+00 0. -1.
<mgrwt>
<rscale>  0 0.82522800E+02</rscale>
<asrwt>0</asrwt>
<pdfrwt beam="2">  1        2 0.38272862E-01 0.82522800E+02</pdfrwt>
<pdfrwt beam="1">  1       -2 0.10528591E-02 0.82522800E+02</pdfrwt>
<totfact> 0.21849848E+05</totfact>
</mgrwt>
</event>
<event>
 7    1  0.3891761E-009  0.9005729E+02  0.7818608E-02  0.1302713E+00
          2   -1    0    0  501    0  0.00000000000E+00  0.00000000000E+00  0.64338720594E+03  0.64338720594E+03  0.25500000000E-02 0. -1.
         -2   -1    0    0    0  501 -0.00000000000E+00 -0.00000000000E+00 -0.31514128978E+01  0.31514139294E+01  0.25500000000E-02 0.  1.
         23    2    1    2    0    0  0.00000000000E+00  0.00000000000E+00  0.64023579304E+03  0.64653861987E+03  0.90057294523E+02 0.  0.
    9000005    2    3    3    0    0 -0.18294264097E+02  0.21259270358E+02  0.57076077243E+03  0.57161589192E+03  0.13792457198E+02 0.  0.
         22    1    3    3    0    0  0.18294264097E+02 -0.21259270358E+02  0.69475020608E+02  0.74922727950E+02  0.00000000000E+00 0.  1.
         22    1    4    4    0    0 -0.29537389811E+01  0.16341989346E+01  0.19311203074E+02  0.19604023676E+02  0.00000000000E+00 0.  1.
         22    1    4    4    0    0 -0.15340525116E+02  0.19625071424E+02  0.55144956936E+03  0.55201186825E+03  0.00000000000E+00 0.  1.
<mgrwt>
<rscale>  0 0.90057295E+02</rscale>
<asrwt>0</asrwt>
<pdfrwt beam="1">  1        2 0.98982716E-01 0.90057295E+02</pdfrwt>
<pdfrwt beam="2">  1       -2 0.48483250E-03 0.90057295E+02</pdfrwt>
<totfact> 0.23992701E+05</totfact>
</mgrwt>
</event>
<event>
 7    1  0.5416328E-009  0.9118917E+02  0.7818608E-02  0.1299997E+00
          2   -1    0    0  501    0  0.00000000000E+00  0.00000000000E+00  0.85132470192E+03  0.85132470193E+03  0.25500000000E-02 0. -1.
         -2   -1    0    0    0  501 -0.00000000000E+00 -0.00000000000E+00 -0.24419184679E+01  0.24419197994E+01  0.25500000000E-02 0.  1.
         23    2    1    2    0    0 -0.88817841970E-15  0.00000000000E+00  0.84888278345E+03  0.85376662173E+03  0.91189167818E+02 0.  0.
    9000005    2    3    3    0    0 -0.69359221582E+01  0.10131178799E+02  0.83502033653E+03  0.83524865114E+03  0.15185486600E+02 0.  0.
         22    1    3    3    0    0  0.69359221582E+01 -0.10131178799E+02  0.13862446920E+02  0.18517970587E+02  0.00000000000E+00 0.  1.
         22    1    4    4    0    0 -0.44113637718E+01  0.19652104117E+01  0.66175421008E+03  0.66177183133E+03  0.00000000000E+00 0. -1.
         22    1    4    4    0    0 -0.25245583863E+01  0.81659683873E+01  0.17326612646E+03  0.17347681981E+03  0.00000000000E+00 0. -1.
<mgrwt>
<rscale>  0 0.91189168E+02</rscale>
<asrwt>0</asrwt>
<pdfrwt beam="1">  1        2 0.13097304E+00 0.91189168E+02</pdfrwt>
<pdfrwt beam="2">  1       -2 0.37567984E-03 0.91189168E+02</pdfrwt>
<totfact> 0.24608999E+05</totfact>
</mgrwt>
</event>
<event>
 7    1  0.3891761E-009  0.8332088E+02  0.7818608E-02  0.1319883E+00
         -2   -1    0    0    0  501 -0.00000000000E+00  0.00000000000E+00  0.19099571006E+03  0.19099571007E+03  0.25500000000E-02 0.  1.
          2   -1    0    0  501    0  0.00000000000E+00 -0.00000000000E+00 -0.90870747024E+01  0.90870750602E+01  0.25500000000E-02 0. -1.
         23    2    1    2    0    0  0.00000000000E+00  0.00000000000E+00  0.18190863535E+03  0.20008278513E+03  0.83320881479E+02 0.  0.
    9000005    2    3    3    0    0 -0.70619877767E+01  0.38272520645E+02  0.55805748773E+02  0.68110835417E+02  0.31854037749E+01 0.  0.
         22    1    3    3    0    0  0.70619877767E+01 -0.38272520645E+02  0.12610288658E+03  0.13197194972E+03  0.00000000000E+00 0.  1.
         22    1    4    4    0    0  0.16903315369E+00  0.13735295927E+00  0.48348995590E+00  0.53028349015E+00  0.00000000000E+00 0.  1.
         22    1    4    4    0    0 -0.72310209304E+01  0.38135167686E+02  0.55322258817E+02  0.67580551927E+02  0.00000000000E+00 0.  1.
<mgrwt>
<rscale>  0 0.83320881E+02</rscale>
<asrwt>0</asrwt>
<pdfrwt beam="2">  1        2 0.13980116E-02 0.83320881E+02</pdfrwt>
<pdfrwt beam="1">  1       -2 0.29383953E-01 0.83320881E+02</pdfrwt>
<totfact> 0.79941366E+04</totfact>
</mgrwt>
</event>
<event>
 7    1  0.3891761E-009  0.8768641E+02  0.7818608E-02  0.1308553E+00
          2   -1    0    0  501    0  0.00000000000E+00  0.00000000000E+00  0.13094867629E+02  0.13094867878E+02  0.25500000000E-02 0. -1.
         -2   -1    0    0    0  501 -0.00000000000E+00 -0.00000000000E+00 -0.14679238237E+03  0.14679238240E+03  0.25500000000E-02 0.  1.
         23    2    1    2    0    0  0.00000000000E+00 -0.35527136788E-14 -0.13369751474E+03  0.15988725027E+03  0.87686414861E+02 0.  0.
    9000005    2    3    3    0    0  0.23906545823E+02  0.31216289727E+02 -0.34752136638E+02  0.53415810318E+02  0.99778812142E+01 0.  0.
         22    1    3    3    0    0 -0.23906545823E+02 -0.31216289727E+02 -0.98945378107E+02  0.10647143996E+03  0.00000000000E+00 0.  1.
         22    1    4    4    0    0  0.24254960761E+02  0.27796305134E+02 -0.29992767917E+02  0.47544756050E+02  0.00000000000E+00 0. -1.
         22    1    4    4    0    0 -0.34841493804E+00  0.34199845936E+01 -0.47593687209E+01  0.58710542674E+01  0.00000000000E+00 0. -1.
<mgrwt>
<rscale>  0 0.87686415E+02</rscale>
<asrwt>0</asrwt>
<pdfrwt beam="1">  1        2 0.20145951E-02 0.87686415E+02</pdfrwt>
<pdfrwt beam="2">  1       -2 0.22583442E-01 0.87686415E+02</pdfrwt>
<totfact> 0.77704178E+04</totfact>
</mgrwt>
</event>
<event>
 7    1  0.3891761E-009  0.9258108E+02  0.7818608E-02  0.1296719E+00
         -2   -1    0    0    0  501 -0.00000000000E+00  0.00000000000E+00  0.64264086798E+01  0.64264091857E+01  0.25500000000E-02 0. -1.
          2   -1    0    0  501    0  0.00000000000E+00 -0.00000000000E+00 -0.33343878562E+03  0.33343878563E+03  0.25500000000E-02 0.  1.
         23    2    1    2    0    0  0.00000000000E+00  0.00000000000E+00 -0.32701237694E+03  0.33986519482E+03  0.92581077845E+02 0.  0.
    9000005    2    3    3    0    0 -0.41808790496E+02 -0.11299090137E+02 -0.11625574630E+03  0.12470478544E+03  0.12658616234E+02 0.  0.
         22    1    3    3    0    0  0.41808790496E+02  0.11299090137E+02 -0.21075663065E+03  0.21516040937E+03  0.00000000000E+00 0. -1.
         22    1    4    4    0    0 -0.39175626146E+01  0.77335263633E+00 -0.22686648875E+02  0.23035394686E+02  0.00000000000E+00 0. -1.
         22    1    4    4    0    0 -0.37891227882E+02 -0.12072442773E+02 -0.93569097421E+02  0.10166939076E+03  0.00000000000E+00 0. -1.
<mgrwt>
<rscale>  0 0.92581078E+02</rscale>
<asrwt>0</asrwt>
<pdfrwt beam="2">  1        2 0.51298261E-01 0.92581078E+02</pdfrwt>
<pdfrwt beam="1">  1       -2 0.98867856E-03 0.92581078E+02</pdfrwt>
<totfact> 0.17937749E+05</totfact>
</mgrwt>
</event>
<event>
 7    1  0.3891761E-009  0.8792939E+02  0.7818608E-02  0.1307945E+00
          2   -1    0    0  501    0  0.00000000000E+00  0.00000000000E+00  0.14563312660E+03  0.14563312663E+03  0.25500000000E-02 0.  1.
         -2   -1    0    0    0  501 -0.00000000000E+00 -0.00000000000E+00 -0.13272353963E+02  0.13272354208E+02  0.25500000000E-02 0. -1.
         23    2    1    2    0    0  0.00000000000E+00  0.17763568394E-14  0.13236077264E+03  0.15890548083E+03  0.87929390451E+02 0.  0.
    9000005    2    3    3    0    0  0.35967045708E+02  0.14292436786E+02  0.10116787628E+03  0.10919734358E+03  0.13828178728E+02 0.  0.
         22    1    3    3    0    0 -0.35967045708E+02 -0.14292436786E+02  0.31192896360E+02  0.49708137257E+02  0.00000000000E+00 0. -1.
         22    1    4    4    0    0  0.22903124475E+02  0.99295610274E+01  0.81120740141E+02  0.84874753455E+02  0.00000000000E+00 0.  1.
         22    1    4    4    0    0  0.13063921233E+02  0.43628757587E+01  0.20047136138E+02  0.24322590122E+02  0.00000000000E+00 0.  1.
<mgrwt>
<rscale>  0 0.87929390E+02</rscale>
<asrwt>0</asrwt>
<pdfrwt beam="1">  1        2 0.22405095E-01 0.87929390E+02</pdfrwt>
<pdfrwt beam="2">  1       -2 0.20419008E-02 0.87929390E+02</pdfrwt>
<totfact> 0.15270195E+05</totfact>
</mgrwt>
</event>
<event>
 7    1  0.3891761E-009  0.8990228E+02  0.7818608E-02  0.1303089E+00
          2   -1    0    0  501    0  0.00000000000E+00  0.00000000000E+00  0.33890945807E+03  0.33890945808E+03  0.25500000000E-02 0. -1.
         -2   -1    0    0    0  501 -0.00000000000E+00 -0.00000000000E+00 -0.59620786491E+01  0.59620791945E+01  0.25500000000E-02 0.  1.
         23    2    1    2    0    0  0.00000000000E+00  0.00000000000E+00  0.33294737942E+03  0.34487153727E+03  0.89902278940E+02 0.  0.
    9000005    2    3    3    0    0 -0.22955561909E+02  0.38216904335E+02  0.17154623132E+03  0.17742656062E+03  0.80365000251E+01 0.  0.
         22    1    3    3    0    0  0.22955561909E+02 -0.38216904335E+02  0.16140114810E+03  0.16744497665E+03  0.00000000000E+00 0.  1.
         22    1    4    4    0    0 -0.15112954337E+02  0.17403142834E+02  0.85609303326E+02  0.88657901990E+02  0.00000000000E+00 0. -1.
         22    1    4    4    0    0 -0.78426075726E+01  0.20813761501E+02  0.85936927999E+02  0.88768658631E+02  0.00000000000E+00 0. -1.
<mgrwt>
<rscale>  0 0.89902279E+02</rscale>
<asrwt>0</asrwt>
<pdfrwt beam="1">  1        2 0.52139908E-01 0.89902279E+02</pdfrwt>
<pdfrwt beam="2">  1       -2 0.91724306E-03 0.89902279E+02</pdfrwt>
<totfact> 0.19513135E+05</totfact>
</mgrwt>
</event>
<event>
 7    1  0.3891761E-009  0.8835511E+02  0.7818608E-02  0.1306885E+00
         -2   -1    0    0    0  501 -0.00000000000E+00  0.00000000000E+00  0.77093674459E+01  0.77093678677E+01  0.25500000000E-02 0.  1.
          2   -1    0    0  501    0  0.00000000000E+00 -0.00000000000E+00 -0.25315385937E+03  0.25315385939E+03  0.25500000000E-02 0. -1.
         23    2    1    2    0    0  0.00000000000E+00  0.00000000000E+00 -0.24544449193E+03  0.26086322725E+03  0.88355105771E+02 0.  0.
    9000005    2    3    3    0    0 -0.79347473650E+01 -0.40738257266E+02 -0.16513870441E+03  0.17046640579E+03  0.80893751403E+01 0.  0.
         22    1    3    3    0    0  0.79347473650E+01  0.40738257266E+02 -0.80305787522E+02  0.90396821461E+02  0.00000000000E+00 0.  1.
         22    1    4    4    0    0 -0.18340777337E+01 -0.22449947915E+02 -0.10161717463E+03  0.10408368835E+03  0.00000000000E+00 0.  1.
         22    1    4    4    0    0 -0.61006696314E+01 -0.18288309352E+02 -0.63521529779E+02  0.66382717438E+02  0.00000000000E+00 0.  1.
<mgrwt>
<rscale>  0 0.88355106E+02</rscale>
<asrwt>0</asrwt>
<pdfrwt beam="2">  1        2 0.38946741E-01 0.88355106E+02</pdfrwt>
<pdfrwt beam="1">  1       -2 0.11860568E-02 0.88355106E+02</pdfrwt>
<totfact> 0.18341289E+05</totfact>
</mgrwt>
</event>
<event>
 7    1  0.3891761E-009  0.9931571E+02  0.7818608E-02  0.1281742E+00
          2   -1    0    0  501    0  0.00000000000E+00  0.00000000000E+00  0.81217655504E+02  0.81217655544E+02  0.25500000000E-02 0. -1.
         -2   -1    0    0    0  501 -0.00000000000E+00 -0.00000000000E+00 -0.30361657116E+02  0.30361657223E+02  0.25500000000E-02 0.  1.
         23    2    1    2    0    0  0.00000000000E+00  0.17763568394E-14  0.50855998388E+02  0.11157931277E+03  0.99315711071E+02 0.  0.
    9000005    2    3    3    0    0 -0.45312253679E+02  0.86799396686E+01  0.96233828425E+01  0.49703063117E+02  0.15787441202E+02 0.  0.
         22    1    3    3    0    0  0.45312253679E+02 -0.86799396686E+01  0.41232615545E+02  0.61876249651E+02  0.00000000000E+00 0. -1.
         22    1    4    4    0    0 -0.17127809028E+02 -0.14739803325E+01 -0.25255710442E+01  0.17375642988E+02  0.00000000000E+00 0. -1.
         22    1    4    4    0    0 -0.28184444651E+02  0.10153920001E+02  0.12148953887E+02  0.32327420129E+02  0.00000000000E+00 0. -1.
<mgrwt>
<rscale>  0 0.99315711E+02</rscale>
<asrwt>0</asrwt>
<pdfrwt beam="1">  1        2 0.12495024E-01 0.99315711E+02</pdfrwt>
<pdfrwt beam="2">  1       -2 0.46710242E-02 0.99315711E+02</pdfrwt>
<totfact> 0.90803253E+04</totfact>
</mgrwt>
</event>
<event>
 7    1  0.3891761E-009  0.9064870E+02  0.7818608E-02  0.1301288E+00
         -2   -1    0    0    0  501 -0.00000000000E+00  0.00000000000E+00  0.15237473390E+01  0.15237494728E+01  0.25500000000E-02 0.  1.
          2   -1    0    0  501    0  0.00000000000E+00 -0.00000000000E+00 -0.13481863542E+04  0.13481863542E+04  0.25500000000E-02 0. -1.
         23    2    1    2    0    0  0.00000000000E+00  0.00000000000E+00 -0.13466626068E+04  0.13497101036E+04  0.90648702391E+02 0.  0.
    9000005    2    3    3    0    0  0.71279614916E+01 -0.96382610305E+01 -0.13237532775E+04  0.13238539384E+04  0.11081814216E+02 0.  0.
         22    1    3    3    0    0 -0.71279614916E+01  0.96382610305E+01 -0.22909329291E+02  0.25856165209E+02  0.00000000000E+00 0.  1.
         22    1    4    4    0    0  0.24651541707E+01  0.23741833311E+01 -0.25403978735E+03  0.25406284122E+03  0.00000000000E+00 0. -1.
         22    1    4    4    0    0  0.46628073208E+01 -0.12012444362E+02 -0.10697134902E+04  0.10697910972E+04  0.00000000000E+00 0. -1.
<mgrwt>
<rscale>  0 0.90648702E+02</rscale>
<asrwt>0</asrwt>
<pdfrwt beam="2">  1        2 0.20741233E+00 0.90648702E+02</pdfrwt>
<pdfrwt beam="1">  1       -2 0.23442391E-03 0.90648702E+02</pdfrwt>
<totfact> 0.24753458E+05</totfact>
</mgrwt>
</event>
<event>
 7    1  0.3891761E-009  0.9206199E+02  0.7818608E-02  0.1297934E+00
         -2   -1    0    0    0  501 -0.00000000000E+00  0.00000000000E+00  0.46391804057E+01  0.46391811065E+01  0.25500000000E-02 0. -1.
          2   -1    0    0  501    0  0.00000000000E+00 -0.00000000000E+00 -0.45672988270E+03  0.45672988271E+03  0.25500000000E-02 0.  1.
         23    2    1    2    0    0  0.22204460493E-15  0.00000000000E+00 -0.45209070230E+03  0.46136906382E+03  0.92061989678E+02 0.  0.
    9000005    2    3    3    0    0 -0.36323176003E+00  0.39616511274E+02 -0.33716856379E+03  0.33980962230E+03  0.14776301851E+02 0.  0.
         22    1    3    3    0    0  0.36323176003E+00 -0.39616511274E+02 -0.11492213850E+03  0.12155944151E+03  0.00000000000E+00 0. -1.
         22    1    4    4    0    0  0.20194855826E+01  0.15549094150E+02 -0.19210238113E+03  0.19274121896E+03  0.00000000000E+00 0.  1.
         22    1    4    4    0    0 -0.23827173427E+01  0.24067417123E+02 -0.14506618267E+03  0.14706840335E+03  0.00000000000E+00 0.  1.
<mgrwt>
<rscale>  0 0.92061990E+02</rscale>
<asrwt>0</asrwt>
<pdfrwt beam="2">  1        2 0.70266100E-01 0.92061990E+02</pdfrwt>
<pdfrwt beam="1">  1       -2 0.71372048E-03 0.92061990E+02</pdfrwt>
<totfact> 0.20380761E+05</totfact>
</mgrwt>
</event>
<event>
 7    1  0.3891761E-009  0.9068031E+02  0.7818608E-02  0.1301213E+00
         -2   -1    0    0    0  501 -0.00000000000E+00  0.00000000000E+00  0.18278589728E+01  0.18278607515E+01  0.25500000000E-02 0.  1.
          2   -1    0    0  501    0  0.00000000000E+00 -0.00000000000E+00 -0.11246646924E+04  0.11246646924E+04  0.25500000000E-02 0. -1.
         23    2    1    2    0    0  0.00000000000E+00  0.00000000000E+00 -0.11228368335E+04  0.11264925532E+04  0.90680305534E+02 0.  0.
    9000005    2    3    3    0    0  0.13801380113E+02 -0.20184035805E+02 -0.10357123511E+04  0.10360019525E+04  0.14484027148E+01 0.  0.
         22    1    3    3    0    0 -0.13801380113E+02  0.20184035805E+02 -0.87124482304E+02  0.90490600678E+02  0.00000000000E+00 0.  1.
         22    1    4    4    0    0  0.57391381273E+01 -0.81976381257E+01 -0.45393532886E+03  0.45404561639E+03  0.00000000000E+00 0. -1.
         22    1    4    4    0    0  0.80622419859E+01 -0.11986397679E+02 -0.58177702229E+03  0.58195633611E+03  0.00000000000E+00 0. -1.
<mgrwt>
<rscale>  0 0.90680306E+02</rscale>
<asrwt>0</asrwt>
<pdfrwt beam="2">  1        2 0.17302478E+00 0.90680306E+02</pdfrwt>
<pdfrwt beam="1">  1       -2 0.28121011E-03 0.90680306E+02</pdfrwt>
<totfact> 0.25358517E+05</totfact>
</mgrwt>
</event>
<event>
 7    1  0.3891761E-009  0.9171766E+02  0.7818608E-02  0.1298745E+00
         -2   -1    0    0    0  501 -0.00000000000E+00  0.00000000000E+00  0.35418939001E+02  0.35418939093E+02  0.25500000000E-02 0.  1.
          2   -1    0    0  501    0  0.00000000000E+00 -0.00000000000E+00 -0.59375928676E+02  0.59375928731E+02  0.25500000000E-02 0. -1.
         23    2    1    2    0    0  0.00000000000E+00  0.22204460493E-15 -0.23956989675E+02  0.94794867824E+02  0.91717662484E+02 0.  0.
    9000005    2    3    3    0    0  0.38893702393E+02 -0.17772098263E+01 -0.35866786892E+02  0.54079737585E+02  0.11059523258E+02 0.  0.
         22    1    3    3    0    0 -0.38893702393E+02  0.17772098263E+01  0.11909797217E+02  0.40715130239E+02  0.00000000000E+00 0.  1.
         22    1    4    4    0    0  0.32577051955E+02 -0.50653779688E+01 -0.26414285722E+02  0.42244962519E+02  0.00000000000E+00 0.  1.
         22    1    4    4    0    0  0.63166504386E+01  0.32881681424E+01 -0.94525011699E+01  0.11834775066E+02  0.00000000000E+00 0.  1.
<mgrwt>
<rscale>  0 0.91717662E+02</rscale>
<asrwt>0</asrwt>
<pdfrwt beam="2">  1        2 0.91347582E-02 0.91717662E+02</pdfrwt>
<pdfrwt beam="1">  1       -2 0.54490676E-02 0.91717662E+02</pdfrwt>
<totfact> 0.10401900E+05</totfact>
</mgrwt>
</event>
<event>
 7    1  0.3891761E-009  0.9017263E+02  0.7818608E-02  0.1302434E+00
         -2   -1    0    0    0  501 -0.00000000000E+00  0.00000000000E+00  0.67117493942E+01  0.67117498786E+01  0.25500000000E-02 0.  1.
          2   -1    0    0  501    0  0.00000000000E+00 -0.00000000000E+00 -0.30286822471E+03  0.30286822472E+03  0.25500000000E-02 0. -1.
         23    2    1    2    0    0  0.35527136788E-14  0.00000000000E+00 -0.29615647531E+03  0.30957997460E+03  0.90172627783E+02 0.  0.
    9000005    2    3    3    0    0 -0.30269680989E+02  0.18873210620E+02 -0.23959773009E+03  0.24271187063E+03  0.15150188656E+02 0.  0.
         22    1    3    3    0    0  0.30269680989E+02 -0.18873210620E+02 -0.56558745224E+02  0.66868103963E+02  0.00000000000E+00 0.  1.
         22    1    4    4    0    0 -0.10685720017E+02  0.13110420492E+02 -0.14187738841E+03  0.14288198305E+03  0.00000000000E+00 0. -1.
         22    1    4    4    0    0 -0.19583960972E+02  0.57627901276E+01 -0.97720341679E+02  0.99829887585E+02  0.00000000000E+00 0. -1.
<mgrwt>
<rscale>  0 0.90172628E+02</rscale>
<asrwt>0</asrwt>
<pdfrwt beam="2">  1        2 0.46595101E-01 0.90172628E+02</pdfrwt>
<pdfrwt beam="1">  1       -2 0.10325771E-02 0.90172628E+02</pdfrwt>
<totfact> 0.18569805E+05</totfact>
</mgrwt>
</event>
<event>
 7    1  0.4353374E-009  0.8853711E+02  0.7818608E-02  0.1306433E+00
         -2   -1    0    0    0  501 -0.00000000000E+00  0.00000000000E+00  0.23312663482E+01  0.23312677428E+01  0.25500000000E-02 0.  1.
          2   -1    0    0  501    0  0.00000000000E+00 -0.00000000000E+00 -0.84061794207E+03  0.84061794207E+03  0.25500000000E-02 0. -1.
         23    2    1    2    0    0 -0.35527136788E-14  0.00000000000E+00 -0.83828667572E+03  0.84294920981E+03  0.88537108818E+02 0.  0.
    9000005    2    3    3    0    0 -0.24183519681E+02 -0.90673472774E+01 -0.75889504265E+03  0.75946214008E+03  0.13928282409E+02 0.  0.
         22    1    3    3    0    0  0.24183519681E+02  0.90673472774E+01 -0.79391633073E+02  0.83487069735E+02  0.00000000000E+00 0.  1.
         22    1    4    4    0    0 -0.28512160541E+01 -0.66645225277E+01 -0.26786246869E+03  0.26796053333E+03  0.00000000000E+00 0. -1.
         22    1    4    4    0    0 -0.21332303627E+02 -0.24028247498E+01 -0.49103257396E+03  0.49150160675E+03  0.00000000000E+00 0. -1.
<mgrwt>
<rscale>  0 0.88537109E+02</rscale>
<asrwt>0</asrwt>
<pdfrwt beam="2">  1        2 0.12932560E+00 0.88537109E+02</pdfrwt>
<pdfrwt beam="1">  1       -2 0.35865714E-03 0.88537109E+02</pdfrwt>
<totfact> 0.26546138E+05</totfact>
</mgrwt>
</event>
<event>
 7    1  0.3891761E-009  0.9114908E+02  0.7818608E-02  0.1300093E+00
         -2   -1    0    0    0  501 -0.00000000000E+00  0.00000000000E+00  0.26852865977E+02  0.26852866098E+02  0.25500000000E-02 0.  1.
          2   -1    0    0  501    0  0.00000000000E+00 -0.00000000000E+00 -0.77348861783E+02  0.77348861825E+02  0.25500000000E-02 0. -1.
         23    2    1    2    0    0  0.00000000000E+00 -0.17763568394E-14 -0.50495995806E+02  0.10420172792E+03  0.91149078490E+02 0.  0.
    9000005    2    3    3    0    0 -0.33020727205E+02  0.80592327061E+01  0.81429496816E+01  0.36423814227E+02  0.10250217384E+02 0.  0.
         22    1    3    3    0    0  0.33020727205E+02 -0.80592327061E+01 -0.58638945488E+02  0.67777913695E+02  0.00000000000E+00 0. -1.
         22    1    4    4    0    0 -0.44749395048E+01  0.81212137145E-01  0.48535394409E+01  0.66021605620E+01  0.00000000000E+00 0.  1.
         22    1    4    4    0    0 -0.28545787700E+02  0.79780205690E+01  0.32894102407E+01  0.29821653665E+02  0.00000000000E+00 0.  1.
<mgrwt>
<rscale>  0 0.91149078E+02</rscale>
<asrwt>0</asrwt>
<pdfrwt beam="2">  1        2 0.11899825E-01 0.91149078E+02</pdfrwt>
<pdfrwt beam="1">  1       -2 0.41312102E-02 0.91149078E+02</pdfrwt>
<totfact> 0.11385517E+05</totfact>
</mgrwt>
</event>
<event>
 7    1  0.3891761E-009  0.8781426E+02  0.7818608E-02  0.1308233E+00
         -2   -1    0    0    0  501 -0.00000000000E+00  0.00000000000E+00  0.57531910011E+01  0.57531915662E+01  0.25500000000E-02 0.  1.
          2   -1    0    0  501    0  0.00000000000E+00 -0.00000000000E+00 -0.33508984214E+03  0.33508984215E+03  0.25500000000E-02 0. -1.
         23    2    1    2    0    0  0.00000000000E+00  0.00000000000E+00 -0.32933665114E+03  0.34084303371E+03  0.87814257665E+02 0.  0.
    9000005    2    3    3    0    0 -0.20900763291E+01  0.28787003750E+02 -0.29170820215E+03  0.29341983077E+03  0.12979286809E+02 0.  0.
         22    1    3    3    0    0  0.20900763291E+01 -0.28787003750E+02 -0.37628448990E+02  0.47423202943E+02  0.00000000000E+00 0.  1.
         22    1    4    4    0    0 -0.36666511782E+01  0.27124253441E+01 -0.75809184111E+02  0.75946257167E+02  0.00000000000E+00 0. -1.
         22    1    4    4    0    0  0.15765748491E+01  0.26074578406E+02 -0.21589901804E+03  0.21747357360E+03  0.00000000000E+00 0. -1.
<mgrwt>
<rscale>  0 0.87814258E+02</rscale>
<asrwt>0</asrwt>
<pdfrwt beam="2">  1        2 0.51552268E-01 0.87814258E+02</pdfrwt>
<pdfrwt beam="1">  1       -2 0.88510661E-03 0.87814258E+02</pdfrwt>
<totfact> 0.20682392E+05</totfact>
</mgrwt>
</event>
<event>
 7    1  0.3891761E-009  0.9101688E+02  0.7818608E-02  0.1300408E+00
         -2   -1    0    0    0  501 -0.00000000000E+00  0.00000000000E+00  0.17051197188E+01  0.17051216256E+01  0.25500000000E-02 0.  1.
          2   -1    0    0  501    0  0.00000000000E+00 -0.00000000000E+00 -0.12145874267E+04  0.12145874267E+04  0.25500000000E-02 0. -1.
         23    2    1    2    0    0  0.88817841970E-15  0.00000000000E+00 -0.12128823070E+04  0.12162925483E+04  0.91016880473E+02 0.  0.
    9000005    2    3    3    0    0 -0.76191132226E+01 -0.32317828071E+02 -0.10151420427E+04  0.10157839325E+04  0.14182305873E+02 0.  0.
         22    1    3    3    0    0  0.76191132226E+01  0.32317828071E+02 -0.19774026426E+03  0.20050861579E+03  0.00000000000E+00 0.  1.
         22    1    4    4    0    0 -0.13630591265E+01  0.13150130068E+01 -0.55749997705E+02  0.55782160531E+02  0.00000000000E+00 0.  1.
         22    1    4    4    0    0 -0.62560540961E+01 -0.33632841077E+02 -0.95939204502E+03  0.96000177201E+03  0.00000000000E+00 0.  1.
<mgrwt>
<rscale>  0 0.91016880E+02</rscale>
<asrwt>0</asrwt>
<pdfrwt beam="2">  1        2 0.18685891E+00 0.91016880E+02</pdfrwt>
<pdfrwt beam="1">  1       -2 0.26232723E-03 0.91016880E+02</pdfrwt>
<totfact> 0.24948669E+05</totfact>
</mgrwt>
</event>
<event>
 7    1  0.3891761E-009  0.9166079E+02  0.7818608E-02  0.1298879E+00
         -2   -1    0    0    0  501 -0.00000000000E+00  0.00000000000E+00  0.43227331367E+01  0.43227338888E+01  0.25500000000E-02 0.  1.
          2   -1    0    0  501    0  0.00000000000E+00 -0.00000000000E+00 -0.48590204338E+03  0.48590204338E+03  0.25500000000E-02 0. -1.
         23    2    1    2    0    0  0.00000000000E+00  0.00000000000E+00 -0.48157931024E+03  0.49022477727E+03  0.91660788783E+02 0.  0.
    9000005    2    3    3    0    0 -0.28840900041E+02  0.23892127295E+02 -0.37768730509E+03  0.37978846080E+03  0.13745663628E+02 0.  0.
         22    1    3    3    0    0  0.28840900041E+02 -0.23892127295E+02 -0.10389200515E+03  0.11043631647E+03  0.00000000000E+00 0.  1.
         22    1    4    4    0    0 -0.79880453845E+01  0.14430119674E+02 -0.18853912469E+03  0.18925918408E+03  0.00000000000E+00 0.  1.
         22    1    4    4    0    0 -0.20852854657E+02  0.94620076208E+01 -0.18914818041E+03  0.19052927672E+03  0.00000000000E+00 0.  1.
<mgrwt>
<rscale>  0 0.91660789E+02</rscale>
<asrwt>0</asrwt>
<pdfrwt beam="2">  1        2 0.74754117E-01 0.91660789E+02</pdfrwt>
<pdfrwt beam="1">  1       -2 0.66503631E-03 0.91660789E+02</pdfrwt>
<totfact> 0.21051355E+05</totfact>
</mgrwt>
</event>
<event>
 7    1  0.3891761E-009  0.9328083E+02  0.7818608E-02  0.1295096E+00
         -2   -1    0    0    0  501 -0.00000000000E+00  0.00000000000E+00  0.39473081955E+02  0.39473082038E+02  0.25500000000E-02 0.  1.
          2   -1    0    0  501    0  0.00000000000E+00 -0.00000000000E+00 -0.55109163171E+02  0.55109163230E+02  0.25500000000E-02 0. -1.
         23    2    1    2    0    0 -0.35527136788E-14  0.35527136788E-14 -0.15636081215E+02  0.94582245268E+02  0.93280834495E+02 0.  0.
    9000005    2    3    3    0    0 -0.29361275506E+02  0.21987343533E+02  0.19910012776E+02  0.43503359483E+02  0.12272159655E+02 0.  0.
         22    1    3    3    0    0  0.29361275506E+02 -0.21987343533E+02 -0.35546093991E+02  0.51078885785E+02  0.00000000000E+00 0. -1.
         22    1    4    4    0    0 -0.13709227735E+02  0.17803950762E+02  0.12002477207E+02  0.25475145670E+02  0.00000000000E+00 0.  1.
         22    1    4    4    0    0 -0.15652047771E+02  0.41833927714E+01  0.79075355688E+01  0.18028213813E+02  0.00000000000E+00 0.  1.
<mgrwt>
<rscale>  0 0.93280834E+02</rscale>
<asrwt>0</asrwt>
<pdfrwt beam="2">  1        2 0.84783328E-02 0.93280834E+02</pdfrwt>
<pdfrwt beam="1">  1       -2 0.60727819E-02 0.93280834E+02</pdfrwt>
<totfact> 0.97182253E+04</totfact>
</mgrwt>
</event>
<event>
 7    1  0.3891761E-009  0.9217156E+02  0.7818608E-02  0.1297677E+00
          2   -1    0    0  501    0  0.00000000000E+00  0.00000000000E+00  0.94734650379E+02  0.94734650413E+02  0.25500000000E-02 0. -1.
         -2   -1    0    0    0  501 -0.00000000000E+00 -0.00000000000E+00 -0.22419455745E+02  0.22419455890E+02  0.25500000000E-02 0.  1.
         23    2    1    2    0    0 -0.17763568394E-14  0.00000000000E+00  0.72315194635E+02  0.11715410630E+03  0.92171564208E+02 0.  0.
    9000005    2    3    3    0    0  0.14546743835E+02 -0.10644985203E+02  0.89837925808E+02  0.92015101272E+02  0.84262970713E+01 0.  0.
         22    1    3    3    0    0 -0.14546743835E+02  0.10644985203E+02 -0.17522731173E+02  0.25139005031E+02  0.00000000000E+00 0.  1.
         22    1    4    4    0    0  0.10607511352E+02 -0.28894645090E+01  0.43499817259E+02  0.44867609741E+02  0.00000000000E+00 0. -1.
         22    1    4    4    0    0  0.39392324834E+01 -0.77555206945E+01  0.46338108549E+02  0.47147491531E+02  0.00000000000E+00 0. -1.
<mgrwt>
<rscale>  0 0.92171564E+02</rscale>
<asrwt>0</asrwt>
<pdfrwt beam="1">  1        2 0.14574562E-01 0.92171564E+02</pdfrwt>
<pdfrwt beam="2">  1       -2 0.34491470E-02 0.92171564E+02</pdfrwt>
<totfact> 0.11712155E+05</totfact>
</mgrwt>
</event>
<event>
 7    1  0.3891761E-009  0.8842900E+02  0.7818608E-02  0.1306701E+00
         -2   -1    0    0    0  501 -0.00000000000E+00  0.00000000000E+00  0.32467732822E+03  0.32467732823E+03  0.25500000000E-02 0.  1.
          2   -1    0    0  501    0  0.00000000000E+00 -0.00000000000E+00 -0.60211221358E+01  0.60211226758E+01  0.25500000000E-02 0. -1.
         23    2    1    2    0    0  0.00000000000E+00  0.71054273576E-14  0.31865620608E+03  0.33069845090E+03  0.88428998386E+02 0.  0.
    9000005    2    3    3    0    0  0.55192440211E+01 -0.42650643949E+02  0.19226992439E+03  0.19719552328E+03  0.82952452214E+01 0.  0.
         22    1    3    3    0    0 -0.55192440211E+01  0.42650643949E+02  0.12638628169E+03  0.13350292762E+03  0.00000000000E+00 0.  1.
         22    1    4    4    0    0  0.30562916326E+01 -0.12192836478E+02  0.72944148982E+02  0.74019288369E+02  0.00000000000E+00 0.  1.
         22    1    4    4    0    0  0.24629523885E+01 -0.30457807471E+02  0.11932577541E+03  0.12317623491E+03  0.00000000000E+00 0.  1.
<mgrwt>
<rscale>  0 0.88428998E+02</rscale>
<asrwt>0</asrwt>
<pdfrwt beam="2">  1        2 0.92632635E-03 0.88428998E+02</pdfrwt>
<pdfrwt beam="1">  1       -2 0.49950368E-01 0.88428998E+02</pdfrwt>
<totfact> 0.52721223E+04</totfact>
</mgrwt>
</event>
<event>
 7    1  0.3891761E-009  0.8993001E+02  0.7818608E-02  0.1303021E+00
          2   -1    0    0  501    0  0.00000000000E+00  0.00000000000E+00  0.39958177461E+01  0.39958185597E+01  0.25500000000E-02 0. -1.
         -2   -1    0    0    0  501 -0.00000000000E+00 -0.00000000000E+00 -0.50599187632E+03  0.50599187633E+03  0.25500000000E-02 0.  1.
         23    2    1    2    0    0  0.00000000000E+00  0.00000000000E+00 -0.50199605857E+03  0.50998769489E+03  0.89930006736E+02 0.  0.
    9000005    2    3    3    0    0 -0.39565640423E+02  0.19441782819E+02 -0.29184594792E+03  0.29526347215E+03  0.79396377851E+01 0.  0.
         22    1    3    3    0    0  0.39565640423E+02 -0.19441782819E+02 -0.21015011065E+03  0.21472422273E+03  0.00000000000E+00 0. -1.
         22    1    4    4    0    0 -0.11744937252E+02  0.99401782254E+01 -0.10298884690E+03  0.10413190328E+03  0.00000000000E+00 0.  1.
         22    1    4    4    0    0 -0.27820703171E+02  0.95016045936E+01 -0.18885710102E+03  0.19113156888E+03  0.00000000000E+00 0.  1.
<mgrwt>
<rscale>  0 0.89930007E+02</rscale>
<asrwt>0</asrwt>
<pdfrwt beam="1">  1        2 0.61474165E-03 0.89930007E+02</pdfrwt>
<pdfrwt beam="2">  1       -2 0.77844853E-01 0.89930007E+02</pdfrwt>
<totfact> 0.37273514E+04</totfact>
</mgrwt>
</event>
<event>
 7    1  0.3891761E-009  0.8499558E+02  0.7818608E-02  0.1315444E+00
          2   -1    0    0  501    0  0.00000000000E+00  0.00000000000E+00  0.35959384880E+02  0.35959384970E+02  0.25500000000E-02 0. -1.
         -2   -1    0    0    0  501 -0.00000000000E+00 -0.00000000000E+00 -0.50225054332E+02  0.50225054397E+02  0.25500000000E-02 0.  1.
         23    2    1    2    0    0  0.00000000000E+00  0.71054273576E-14 -0.14265669452E+02  0.86184439367E+02  0.84995577909E+02 0.  0.
    9000005    2    3    3    0    0 -0.16420320418E+02 -0.37694985066E+02 -0.60271295871E+01  0.44251011641E+02  0.15208120147E+02 0.  0.
         22    1    3    3    0    0  0.16420320418E+02  0.37694985066E+02 -0.82385398650E+01  0.41933427726E+02  0.00000000000E+00 0.  1.
         22    1    4    4    0    0  0.27465482446E+01 -0.72295356945E+01 -0.22827759992E+01  0.80635463588E+01  0.00000000000E+00 0. -1.
         22    1    4    4    0    0 -0.19166868662E+02 -0.30465449372E+02 -0.37443535879E+01  0.36187465282E+02  0.00000000000E+00 0. -1.
<mgrwt>
<rscale>  0 0.84995578E+02</rscale>
<asrwt>0</asrwt>
<pdfrwt beam="1">  1        2 0.55322131E-02 0.84995578E+02</pdfrwt>
<pdfrwt beam="2">  1       -2 0.77269314E-02 0.84995578E+02</pdfrwt>
<totfact> 0.11370649E+05</totfact>
</mgrwt>
</event>
<event>
 7    1  0.3891761E-009  0.9109982E+02  0.7818608E-02  0.1300210E+00
          2   -1    0    0  501    0  0.00000000000E+00  0.00000000000E+00  0.21638968723E+03  0.21638968724E+03  0.25500000000E-02 0. -1.
         -2   -1    0    0    0  501 -0.00000000000E+00 -0.00000000000E+00 -0.95882317685E+01  0.95882321076E+01  0.25500000000E-02 0.  1.
         23    2    1    2    0    0  0.00000000000E+00  0.00000000000E+00  0.20680145546E+03  0.22597791935E+03  0.91099824664E+02 0.  0.
    9000005    2    3    3    0    0  0.26970170876E+02  0.25438767722E+02  0.16802478819E+03  0.17232951821E+03  0.95190535135E+01 0.  0.
         22    1    3    3    0    0 -0.26970170876E+02 -0.25438767722E+02  0.38776667262E+02  0.53648401134E+02  0.00000000000E+00 0.  1.
         22    1    4    4    0    0  0.13072886132E+01  0.86855278185E+00  0.19818968153E+01  0.25281025374E+01  0.00000000000E+00 0. -1.
         22    1    4    4    0    0  0.25662882262E+02  0.24570214940E+02  0.16604289138E+03  0.16980141568E+03  0.00000000000E+00 0. -1.
<mgrwt>
<rscale>  0 0.91099825E+02</rscale>
<asrwt>0</asrwt>
<pdfrwt beam="1">  1        2 0.33290720E-01 0.91099825E+02</pdfrwt>
<pdfrwt beam="2">  1       -2 0.14751127E-02 0.91099825E+02</pdfrwt>
<totfact> 0.15953589E+05</totfact>
</mgrwt>
</event>
<event>
 7    1  0.3891761E-009  0.9193932E+02  0.7818608E-02  0.1298222E+00
         -2   -1    0    0    0  501 -0.00000000000E+00  0.00000000000E+00  0.17703395550E+02  0.17703395734E+02  0.25500000000E-02 0.  1.
          2   -1    0    0  501    0  0.00000000000E+00 -0.00000000000E+00 -0.11936748472E+03  0.11936748475E+03  0.25500000000E-02 0. -1.
         23    2    1    2    0    0  0.00000000000E+00  0.00000000000E+00 -0.10166408917E+03  0.13707088048E+03  0.91939323737E+02 0.  0.
    9000005    2    3    3    0    0  0.29608940086E+02 -0.14343387338E+02 -0.73690865464E+01  0.37201117223E+02  0.15722518652E+02 0.  0.
         22    1    3    3    0    0 -0.29608940086E+02  0.14343387338E+02 -0.94295002625E+02  0.99869763259E+02  0.00000000000E+00 0. -1.
         22    1    4    4    0    0  0.10999826218E+02 -0.89514275536E+01  0.40026282594E+01  0.14735849655E+02  0.00000000000E+00 0.  1.
         22    1    4    4    0    0  0.18609113868E+02 -0.53919597844E+01 -0.11371714806E+02  0.22465267568E+02  0.00000000000E+00 0.  1.
<mgrwt>
<rscale>  0 0.91939324E+02</rscale>
<asrwt>0</asrwt>
<pdfrwt beam="2">  1        2 0.18364228E-01 0.91939324E+02</pdfrwt>
<pdfrwt beam="1">  1       -2 0.27235994E-02 0.91939324E+02</pdfrwt>
<totfact> 0.12672150E+05</totfact>
</mgrwt>
</event>
<event>
 7    1  0.3891761E-009  0.9021340E+02  0.7818608E-02  0.1302336E+00
          2   -1    0    0  501    0  0.00000000000E+00  0.00000000000E+00  0.43604747650E+03  0.43604747651E+03  0.25500000000E-02 0. -1.
         -2   -1    0    0    0  501 -0.00000000000E+00 -0.00000000000E+00 -0.46660385471E+01  0.46660392439E+01  0.25500000000E-02 0.  1.
         23    2    1    2    0    0  0.35527136788E-14 -0.71054273576E-14  0.43138143796E+03  0.44071351576E+03  0.90213402307E+02 0.  0.
    9000005    2    3    3    0    0  0.28357250769E+02 -0.34773098717E+02  0.23758110472E+03  0.24178671709E+03  0.16532314749E+01 0.  0.
         22    1    3    3    0    0 -0.28357250769E+02  0.34773098717E+02  0.19380033324E+03  0.19892679867E+03  0.00000000000E+00 0.  1.
         22    1    4    4    0    0  0.76072629118E+01 -0.82634102866E+01  0.58131579951E+02  0.59206714030E+02  0.00000000000E+00 0. -1.
         22    1    4    4    0    0  0.20749987857E+02 -0.26509688431E+02  0.17944952477E+03  0.18258000306E+03  0.00000000000E+00 0. -1.
<mgrwt>
<rscale>  0 0.90213402E+02</rscale>
<asrwt>0</asrwt>
<pdfrwt beam="1">  1        2 0.67084214E-01 0.90213402E+02</pdfrwt>
<pdfrwt beam="2">  1       -2 0.71785228E-03 0.90213402E+02</pdfrwt>
<totfact> 0.21166501E+05</totfact>
</mgrwt>
</event>
<event>
 7    1  0.3891761E-009  0.9132608E+02  0.7818608E-02  0.1299672E+00
         -2   -1    0    0    0  501 -0.00000000000E+00  0.00000000000E+00  0.32323471671E+02  0.32323471772E+02  0.25500000000E-02 0.  1.
          2   -1    0    0  501    0  0.00000000000E+00 -0.00000000000E+00 -0.64507715040E+02  0.64507715090E+02  0.25500000000E-02 0. -1.
         23    2    1    2    0    0  0.00000000000E+00  0.00000000000E+00 -0.32184243369E+02  0.96831186862E+02  0.91326081860E+02 0.  0.
    9000005    2    3    3    0    0  0.21367062030E+02  0.21498725383E+02  0.18004755015E+02  0.38199437002E+02  0.14706435706E+02 0.  0.
         22    1    3    3    0    0 -0.21367062030E+02 -0.21498725383E+02 -0.50188998384E+02  0.58631749860E+02  0.00000000000E+00 0. -1.
         22    1    4    4    0    0  0.19263852036E+02  0.22529488392E+02  0.19443808943E+02  0.35450466128E+02  0.00000000000E+00 0. -1.
         22    1    4    4    0    0  0.21032099941E+01 -0.10307630086E+01 -0.14390539277E+01  0.27489708740E+01  0.00000000000E+00 0. -1.
<mgrwt>
<rscale>  0 0.91326082E+02</rscale>
<asrwt>0</asrwt>
<pdfrwt beam="2">  1        2 0.99242639E-02 0.91326082E+02</pdfrwt>
<pdfrwt beam="1">  1       -2 0.49728418E-02 0.91326082E+02</pdfrwt>
<totfact> 0.10766926E+05</totfact>
</mgrwt>
</event>
<event>
 7    1  0.3891761E-009  0.1170420E+03  0.7818608E-02  0.1248058E+00
         -2   -1    0    0    0  501 -0.00000000000E+00  0.00000000000E+00  0.17579516854E+03  0.17579516856E+03  0.25500000000E-02 0.  1.
          2   -1    0    0  501    0  0.00000000000E+00 -0.00000000000E+00 -0.19481238366E+02  0.19481238533E+02  0.25500000000E-02 0. -1.
         23    2    1    2    0    0  0.00000000000E+00  0.88817841970E-15  0.15631393018E+03  0.19527640710E+03  0.11704200272E+03 0.  0.
    9000005    2    3    3    0    0 -0.32410175001E+02 -0.58994801253E+01  0.36177552035E+00  0.35882875697E+02  0.14220639135E+02 0.  0.
         22    1    3    3    0    0  0.32410175001E+02  0.58994801253E+01  0.15595215466E+03  0.15939353140E+03  0.00000000000E+00 0.  1.
         22    1    4    4    0    0 -0.12152238462E+02 -0.11655945340E+01  0.69665542983E+01  0.14055902285E+02  0.00000000000E+00 0. -1.
         22    1    4    4    0    0 -0.20257936539E+02 -0.47338855913E+01 -0.66047787779E+01  0.21826973412E+02  0.00000000000E+00 0. -1.
<mgrwt>
<rscale>  0 0.11704200E+03</rscale>
<asrwt>0</asrwt>
<pdfrwt beam="2">  1        2 0.29971137E-02 0.11704200E+03</pdfrwt>
<pdfrwt beam="1">  1       -2 0.27045410E-01 0.11704200E+03</pdfrwt>
<totfact> 0.34797579E+04</totfact>
</mgrwt>
</event>
<event>
 7    1  0.3891761E-009  0.9343870E+02  0.7818608E-02  0.1294732E+00
         -2   -1    0    0    0  501 -0.00000000000E+00  0.00000000000E+00  0.28259513356E+01  0.28259524861E+01  0.25500000000E-02 0. -1.
          2   -1    0    0  501    0  0.00000000000E+00 -0.00000000000E+00 -0.77237613560E+03  0.77237613560E+03  0.25500000000E-02 0.  1.
         23    2    1    2    0    0  0.00000000000E+00  0.35527136788E-14 -0.76955018426E+03  0.77520208809E+03  0.93438703320E+02 0.  0.
    9000005    2    3    3    0    0 -0.31539942370E+02 -0.30094475271E+02 -0.50828874330E+03  0.51032855988E+03  0.13317171890E+02 0.  0.
         22    1    3    3    0    0  0.31539942370E+02  0.30094475271E+02 -0.26126144097E+03  0.26487352821E+03  0.00000000000E+00 0. -1.
         22    1    4    4    0    0 -0.26067489196E+02 -0.20450201910E+02 -0.31918046942E+03  0.32089546087E+03  0.00000000000E+00 0. -1.
         22    1    4    4    0    0 -0.54724531745E+01 -0.96442733616E+01 -0.18910827388E+03  0.18943309901E+03  0.00000000000E+00 0. -1.
<mgrwt>
<rscale>  0 0.93438703E+02</rscale>
<asrwt>0</asrwt>
<pdfrwt beam="2">  1        2 0.11882693E+00 0.93438703E+02</pdfrwt>
<pdfrwt beam="1">  1       -2 0.43476245E-03 0.93438703E+02</pdfrwt>
<totfact> 0.22700103E+05</totfact>
</mgrwt>
</event>
<event>
 7    1  0.3891761E-009  0.9087793E+02  0.7818608E-02  0.1300739E+00
          2   -1    0    0  501    0  0.00000000000E+00  0.00000000000E+00  0.44084597298E+01  0.44084604673E+01  0.25500000000E-02 0. -1.
         -2   -1    0    0    0  501 -0.00000000000E+00 -0.00000000000E+00 -0.46834932473E+03  0.46834932474E+03  0.25500000000E-02 0.  1.
         23    2    1    2    0    0  0.00000000000E+00 -0.35527136788E-14 -0.46394086500E+03  0.47275778521E+03  0.90877925010E+02 0.  0.
    9000005    2    3    3    0    0 -0.21864478606E+02  0.31708645529E+02 -0.35435327122E+03  0.35659869457E+03  0.10625183307E+02 0.  0.
         22    1    3    3    0    0  0.21864478606E+02 -0.31708645529E+02 -0.10958759378E+03  0.11615909064E+03  0.00000000000E+00 0. -1.
         22    1    4    4    0    0 -0.17991177345E+02  0.18646381772E+02 -0.20656434579E+03  0.20818309001E+03  0.00000000000E+00 0.  1.
         22    1    4    4    0    0 -0.38733012605E+01  0.13062263757E+02 -0.14778892543E+03  0.14841560456E+03  0.00000000000E+00 0.  1.
<mgrwt>
<rscale>  0 0.90877925E+02</rscale>
<asrwt>0</asrwt>
<pdfrwt beam="1">  1        2 0.67822500E-03 0.90877925E+02</pdfrwt>
<pdfrwt beam="2">  1       -2 0.72053703E-01 0.90877925E+02</pdfrwt>
<totfact> 0.38486391E+04</totfact>
</mgrwt>
</event>
<event>
 7    1  0.5240282E-009  0.9101339E+02  0.7818608E-02  0.1300416E+00
          2   -1    0    0  501    0  0.00000000000E+00  0.00000000000E+00  0.65033160707E+03  0.65033160708E+03  0.25500000000E-02 0. -1.
         -2   -1    0    0    0  501 -0.00000000000E+00 -0.00000000000E+00 -0.31843121423E+01  0.31843131633E+01  0.25500000000E-02 0.  1.
         23    2    1    2    0    0  0.35527136788E-14 -0.88817841970E-15  0.64714729493E+03  0.65351592024E+03  0.91013387327E+02 0.  0.
    9000005    2    3    3    0    0 -0.17952780507E+02  0.74451891951E+01  0.61784774312E+03  0.61835632829E+03  0.15842407765E+02 0.  0.
         22    1    3    3    0    0  0.17952780507E+02 -0.74451891951E+01  0.29299551810E+02  0.35159591954E+02  0.00000000000E+00 0.  1.
         22    1    4    4    0    0 -0.19711236289E+02  0.88790244760E+01  0.59581161329E+03  0.59620369710E+03  0.00000000000E+00 0. -1.
         22    1    4    4    0    0  0.17584557815E+01 -0.14338352809E+01  0.22036129835E+02  0.22152631186E+02  0.00000000000E+00 0. -1.
<mgrwt>
<rscale>  0 0.91013387E+02</rscale>
<asrwt>0</asrwt>
<pdfrwt beam="1">  1        2 0.10005117E+00 0.91013387E+02</pdfrwt>
<pdfrwt beam="2">  1       -2 0.48989348E-03 0.91013387E+02</pdfrwt>
<totfact> 0.23399150E+05</totfact>
</mgrwt>
</event>
<event>
 7    1  0.3891761E-009  0.9149861E+02  0.7818608E-02  0.1299263E+00
         -2   -1    0    0    0  501 -0.00000000000E+00  0.00000000000E+00  0.96554028203E+02  0.96554028237E+02  0.25500000000E-02 0. -1.
          2   -1    0    0  501    0  0.00000000000E+00 -0.00000000000E+00 -0.21676972238E+02  0.21676972388E+02  0.25500000000E-02 0.  1.
         23    2    1    2    0    0  0.00000000000E+00 -0.44408920985E-15  0.74877055966E+02  0.11823100062E+03  0.91498612004E+02 0.  0.
    9000005    2    3    3    0    0  0.19592555595E+02 -0.29829881987E+01  0.90447170286E+02  0.93027927136E+02  0.89854416169E+01 0.  0.
         22    1    3    3    0    0 -0.19592555595E+02  0.29829881987E+01 -0.15570114320E+02  0.25203073489E+02  0.00000000000E+00 0.  1.
         22    1    4    4    0    0  0.26961260196E+01  0.21398938370E+01  0.25203712381E+02  0.25437675974E+02  0.00000000000E+00 0.  1.
         22    1    4    4    0    0  0.16896429576E+02 -0.51228820357E+01  0.65243457905E+02  0.67590251162E+02  0.00000000000E+00 0.  1.
<mgrwt>
<rscale>  0 0.91498612E+02</rscale>
<asrwt>0</asrwt>
<pdfrwt beam="2">  1        2 0.33349188E-02 0.91498612E+02</pdfrwt>
<pdfrwt beam="1">  1       -2 0.14854466E-01 0.91498612E+02</pdfrwt>
<totfact> 0.79936733E+04</totfact>
</mgrwt>
</event>
<event>
 7    1  0.3891761E-009  0.9145141E+02  0.7818608E-02  0.1299374E+00
         -2   -1    0    0    0  501 -0.00000000000E+00  0.00000000000E+00  0.16614533452E+02  0.16614533647E+02  0.25500000000E-02 0.  1.
          2   -1    0    0  501    0  0.00000000000E+00 -0.00000000000E+00 -0.12584405588E+03  0.12584405591E+03  0.25500000000E-02 0. -1.
         23    2    1    2    0    0  0.35527136788E-14  0.00000000000E+00 -0.10922952243E+03  0.14245858956E+03  0.91451414247E+02 0.  0.
    9000005    2    3    3    0    0 -0.22086131887E+02  0.17269333176E+02 -0.11085714845E+03  0.11437520912E+03  0.25207162079E+01 0.  0.
         22    1    3    3    0    0  0.22086131887E+02 -0.17269333176E+02  0.16276260156E+01  0.28083380433E+02  0.00000000000E+00 0.  1.
         22    1    4    4    0    0 -0.19393143843E+02  0.15934944374E+02 -0.10084072681E+03  0.10391760517E+03  0.00000000000E+00 0. -1.
         22    1    4    4    0    0 -0.26929880441E+01  0.13343888023E+01 -0.10016421641E+02  0.10457603959E+02  0.00000000000E+00 0. -1.
<mgrwt>
<rscale>  0 0.91451414E+02</rscale>
<asrwt>0</asrwt>
<pdfrwt beam="2">  1        2 0.19360623E-01 0.91451414E+02</pdfrwt>
<pdfrwt beam="1">  1       -2 0.25560822E-02 0.91451414E+02</pdfrwt>
<totfact> 0.13079435E+05</totfact>
</mgrwt>
</event>
<event>
 7    1  0.3891761E-009  0.9271306E+02  0.7818608E-02  0.1296412E+00
          2   -1    0    0  501    0  0.00000000000E+00  0.00000000000E+00  0.10428354365E+03  0.10428354368E+03  0.25500000000E-02 0. -1.
         -2   -1    0    0    0  501 -0.00000000000E+00 -0.00000000000E+00 -0.20606588135E+02  0.20606588293E+02  0.25500000000E-02 0.  1.
         23    2    1    2    0    0  0.17763568394E-14  0.71054273576E-14  0.83676955519E+02  0.12489013198E+03  0.92713063699E+02 0.  0.
    9000005    2    3    3    0    0  0.98425604675E+01  0.34897757177E+02  0.33070485725E+01  0.36719550744E+02  0.47601873973E+01 0.  0.
         22    1    3    3    0    0 -0.98425604675E+01 -0.34897757177E+02  0.80369906946E+02  0.88170581233E+02  0.00000000000E+00 0. -1.
         22    1    4    4    0    0  0.83529437180E+01  0.25436627512E+02  0.65308785772E+00  0.26780967340E+02  0.00000000000E+00 0.  1.
         22    1    4    4    0    0  0.14896167495E+01  0.94611296647E+01  0.26539607148E+01  0.99385834035E+01  0.00000000000E+00 0.  1.
<mgrwt>
<rscale>  0 0.92713064E+02</rscale>
<asrwt>0</asrwt>
<pdfrwt beam="1">  1        2 0.16043622E-01 0.92713064E+02</pdfrwt>
<pdfrwt beam="2">  1       -2 0.31702443E-02 0.92713064E+02</pdfrwt>
<totfact> 0.11867346E+05</totfact>
</mgrwt>
</event>
<event>
 7    1  0.3891761E-009  0.9044138E+02  0.7818608E-02  0.1301786E+00
          2   -1    0    0  501    0  0.00000000000E+00  0.00000000000E+00  0.11564568365E+02  0.11564568646E+02  0.25500000000E-02 0. -1.
         -2   -1    0    0    0  501 -0.00000000000E+00 -0.00000000000E+00 -0.17682551791E+03  0.17682551792E+03  0.25500000000E-02 0.  1.
         23    2    1    2    0    0 -0.22204460493E-15 -0.71054273576E-14 -0.16526094954E+03  0.18839008657E+03  0.90441380324E+02 0.  0.
    9000005    2    3    3    0    0 -0.10923607933E+00  0.41498626846E+02 -0.11462916375E+03  0.12292463236E+03  0.15762997685E+02 0.  0.
         22    1    3    3    0    0  0.10923607933E+00 -0.41498626846E+02 -0.50631785785E+02  0.65465454206E+02  0.00000000000E+00 0. -1.
         22    1    4    4    0    0 -0.38185921165E+01  0.48349878199E+01 -0.29908198730E+02  0.30536193349E+02  0.00000000000E+00 0.  1.
         22    1    4    4    0    0  0.37093560372E+01  0.36663639026E+02 -0.84720965024E+02  0.92388439014E+02  0.00000000000E+00 0.  1.
<mgrwt>
<rscale>  0 0.90441380E+02</rscale>
<asrwt>0</asrwt>
<pdfrwt beam="1">  1        2 0.17791645E-02 0.90441380E+02</pdfrwt>
<pdfrwt beam="2">  1       -2 0.27203924E-01 0.90441380E+02</pdfrwt>
<totfact> 0.66968353E+04</totfact>
</mgrwt>
</event>
<event>
 7    1  0.3891761E-009  0.9147435E+02  0.7818608E-02  0.1299320E+00
          2   -1    0    0  501    0  0.00000000000E+00  0.00000000000E+00  0.84766568951E+02  0.84766568989E+02  0.25500000000E-02 0. -1.
         -2   -1    0    0    0  501 -0.00000000000E+00 -0.00000000000E+00 -0.24678230713E+02  0.24678230845E+02  0.25500000000E-02 0.  1.
         23    2    1    2    0    0  0.00000000000E+00  0.00000000000E+00  0.60088338238E+02  0.10944479983E+03  0.91474345139E+02 0.  0.
    9000005    2    3    3    0    0  0.18976641868E+02  0.10284202904E+02 -0.17514782809E+02  0.28895919257E+02  0.78948569909E+01 0.  0.
         22    1    3    3    0    0 -0.18976641868E+02 -0.10284202904E+02  0.77603121047E+02  0.80548880577E+02  0.00000000000E+00 0. -1.
         22    1    4    4    0    0  0.78475503032E+01  0.96495197412E+00 -0.32633368382E+01  0.85536276160E+01  0.00000000000E+00 0. -1.
         22    1    4    4    0    0  0.11129091565E+02  0.93192509302E+01 -0.14251445971E+02  0.20342291641E+02  0.00000000000E+00 0. -1.
<mgrwt>
<rscale>  0 0.91474345E+02</rscale>
<asrwt>0</asrwt>
<pdfrwt beam="1">  1        2 0.13041011E-01 0.91474345E+02</pdfrwt>
<pdfrwt beam="2">  1       -2 0.37966509E-02 0.91474345E+02</pdfrwt>
<totfact> 0.11573709E+05</totfact>
</mgrwt>
</event>
<event>
 7    1  0.3891761E-009  0.9362778E+02  0.7818608E-02  0.1294297E+00
          2   -1    0    0  501    0  0.00000000000E+00  0.00000000000E+00  0.71762723923E+03  0.71762723924E+03  0.25500000000E-02 0.  1.
         -2   -1    0    0    0  501 -0.00000000000E+00 -0.00000000000E+00 -0.30538694583E+01  0.30538705229E+01  0.25500000000E-02 0. -1.
         23    2    1    2    0    0  0.00000000000E+00  0.00000000000E+00  0.71457336977E+03  0.72068110976E+03  0.93627779929E+02 0.  0.
    9000005    2    3    3    0    0 -0.15804283832E+02  0.17121495390E+02  0.66826075109E+03  0.66883730934E+03  0.15099468075E+02 0.  0.
         22    1    3    3    0    0  0.15804283832E+02 -0.17121495390E+02  0.46312618688E+02  0.51843800416E+02  0.00000000000E+00 0. -1.
         22    1    4    4    0    0 -0.97751042923E+01  0.52532222039E+00  0.28898646326E+03  0.28915221696E+03  0.00000000000E+00 0. -1.
         22    1    4    4    0    0 -0.60291795397E+01  0.16596173170E+02  0.37927428783E+03  0.37968509238E+03  0.00000000000E+00 0. -1.
<mgrwt>
<rscale>  0 0.93627780E+02</rscale>
<asrwt>0</asrwt>
<pdfrwt beam="1">  1        2 0.11040433E+00 0.93627780E+02</pdfrwt>
<pdfrwt beam="2">  1       -2 0.46982557E-03 0.93627780E+02</pdfrwt>
<totfact> 0.22235452E+05</totfact>
</mgrwt>
</event>
<event>
 7    1  0.3891761E-009  0.9182377E+02  0.7818608E-02  0.1298494E+00
         -2   -1    0    0    0  501 -0.00000000000E+00  0.00000000000E+00  0.55027944053E+02  0.55027944112E+02  0.25500000000E-02 0.  1.
          2   -1    0    0  501    0  0.00000000000E+00 -0.00000000000E+00 -0.38306012309E+02  0.38306012394E+02  0.25500000000E-02 0. -1.
         23    2    1    2    0    0  0.00000000000E+00 -0.71054273576E-14  0.16721931744E+02  0.93333956506E+02  0.91823768360E+02 0.  0.
    9000005    2    3    3    0    0  0.20419478796E+02 -0.37964884423E+02 -0.67615411336E+01  0.44244639319E+02  0.73199799451E+01 0.  0.
         22    1    3    3    0    0 -0.20419478796E+02  0.37964884423E+02  0.23483472877E+02  0.49089317188E+02  0.00000000000E+00 0.  1.
         22    1    4    4    0    0  0.47277251505E+01 -0.12305334820E+02  0.88057537701E+00  0.13211663905E+02  0.00000000000E+00 0. -1.
         22    1    4    4    0    0  0.15691753646E+02 -0.25659549602E+02 -0.76421165106E+01  0.31032975414E+02  0.00000000000E+00 0. -1.
<mgrwt>
<rscale>  0 0.91823768E+02</rscale>
<asrwt>0</asrwt>
<pdfrwt beam="2">  1        2 0.58932327E-02 0.91823768E+02</pdfrwt>
<pdfrwt beam="1">  1       -2 0.84658375E-02 0.91823768E+02</pdfrwt>
<totfact> 0.92403687E+04</totfact>
</mgrwt>
</event>
<event>
 7    1  0.3891761E-009  0.9159944E+02  0.7818608E-02  0.1299024E+00
         -2   -1    0    0    0  501 -0.00000000000E+00  0.00000000000E+00  0.68795402638E+02  0.68795402685E+02  0.25500000000E-02 0.  1.
          2   -1    0    0  501    0  0.00000000000E+00 -0.00000000000E+00 -0.30490619880E+02  0.30490619987E+02  0.25500000000E-02 0. -1.
         23    2    1    2    0    0  0.00000000000E+00  0.00000000000E+00  0.38304782757E+02  0.99286022672E+02  0.91599442771E+02 0.  0.
    9000005    2    3    3    0    0  0.94788605516E+01  0.30449100782E+02 -0.13979525036E+02  0.38043509846E+02  0.15325957893E+02 0.  0.
         22    1    3    3    0    0 -0.94788605516E+01 -0.30449100782E+02  0.52284307794E+02  0.61242512826E+02  0.00000000000E+00 0.  1.
         22    1    4    4    0    0  0.12056155122E+02  0.14242817082E+02 -0.49164024050E+01  0.19297142984E+02  0.00000000000E+00 0. -1.
         22    1    4    4    0    0 -0.25772945701E+01  0.16206283700E+02 -0.90631226314E+01  0.18746366861E+02  0.00000000000E+00 0. -1.
<mgrwt>
<rscale>  0 0.91599443E+02</rscale>
<asrwt>0</asrwt>
<pdfrwt beam="2">  1        2 0.46908647E-02 0.91599443E+02</pdfrwt>
<pdfrwt beam="1">  1       -2 0.10583908E-01 0.91599443E+02</pdfrwt>
<totfact> 0.87638408E+04</totfact>
</mgrwt>
</event>
<event>
 7    1  0.3891761E-009  0.9158207E+02  0.7818608E-02  0.1299065E+00
         -2   -1    0    0    0  501 -0.00000000000E+00  0.00000000000E+00  0.77139275849E+02  0.77139275891E+02  0.25500000000E-02 0.  1.
          2   -1    0    0  501    0  0.00000000000E+00 -0.00000000000E+00 -0.27182245904E+02  0.27182246023E+02  0.25500000000E-02 0. -1.
         23    2    1    2    0    0  0.00000000000E+00  0.71054273576E-14  0.49957029945E+02  0.10432152191E+03  0.91582067533E+02 0.  0.
    9000005    2    3    3    0    0 -0.78321077071E+01 -0.42068522582E+02  0.43008467327E+02  0.60969647378E+02  0.60388025421E+01 0.  0.
         22    1    3    3    0    0  0.78321077071E+01  0.42068522582E+02  0.69485626187E+01  0.43351874537E+02  0.00000000000E+00 0. -1.
         22    1    4    4    0    0 -0.75801677559E+01 -0.33343913095E+02  0.36951288035E+02  0.50345537747E+02  0.00000000000E+00 0. -1.
         22    1    4    4    0    0 -0.25193995124E+00 -0.87246094879E+01  0.60571792922E+01  0.10624109630E+02  0.00000000000E+00 0. -1.
<mgrwt>
<rscale>  0 0.91582068E+02</rscale>
<asrwt>0</asrwt>
<pdfrwt beam="2">  1        2 0.41818840E-02 0.91582068E+02</pdfrwt>
<pdfrwt beam="1">  1       -2 0.11867581E-01 0.91582068E+02</pdfrwt>
<totfact> 0.85004523E+04</totfact>
</mgrwt>
</event>
<event>
 7    1  0.4496629E-009  0.9098229E+02  0.7818608E-02  0.1300490E+00
         -2   -1    0    0    0  501 -0.00000000000E+00  0.00000000000E+00  0.75843963164E+01  0.75843967451E+01  0.25500000000E-02 0.  1.
          2   -1    0    0  501    0  0.00000000000E+00 -0.00000000000E+00 -0.27285551047E+03  0.27285551048E+03  0.25500000000E-02 0. -1.
         23    2    1    2    0    0  0.00000000000E+00 -0.35527136788E-14 -0.26527111415E+03  0.28043990722E+03  0.90982292569E+02 0.  0.
    9000005    2    3    3    0    0  0.23623504698E+02  0.30373763902E+02 -0.20319033794E+03  0.20740116214E+03  0.15757319548E+02 0.  0.
         22    1    3    3    0    0 -0.23623504698E+02 -0.30373763902E+02 -0.62080776213E+02  0.73038745081E+02  0.00000000000E+00 0.  1.
         22    1    4    4    0    0  0.19673912232E+02  0.17227100316E+02 -0.15873848631E+03  0.16087803717E+03  0.00000000000E+00 0.  1.
         22    1    4    4    0    0  0.39495924658E+01  0.13146663586E+02 -0.44451851623E+02  0.46523124968E+02  0.00000000000E+00 0.  1.
<mgrwt>
<rscale>  0 0.90982293E+02</rscale>
<asrwt>0</asrwt>
<pdfrwt beam="2">  1        2 0.41977763E-01 0.90982293E+02</pdfrwt>
<pdfrwt beam="1">  1       -2 0.11668304E-02 0.90982293E+02</pdfrwt>
<totfact> 0.17440929E+05</totfact>
</mgrwt>
</event>
<event>
 7    1  0.3891761E-009  0.9309913E+02  0.7818608E-02  0.1295516E+00
          2   -1    0    0  501    0  0.00000000000E+00  0.00000000000E+00  0.20002312465E+03  0.20002312467E+03  0.25500000000E-02 0.  1.
         -2   -1    0    0    0  501 -0.00000000000E+00 -0.00000000000E+00 -0.10833056299E+02  0.10833056599E+02  0.25500000000E-02 0. -1.
         23    2    1    2    0    0  0.35527136788E-14  0.35527136788E-14  0.18919006836E+03  0.21085618127E+03  0.93099125748E+02 0.  0.
    9000005    2    3    3    0    0 -0.25186361231E+02 -0.20479303398E+02  0.16982114372E+03  0.17305525666E+03  0.74260584170E+01 0.  0.
         22    1    3    3    0    0  0.25186361231E+02  0.20479303398E+02  0.19368924635E+02  0.37800924608E+02  0.00000000000E+00 0. -1.
         22    1    4    4    0    0 -0.17618334173E+01 -0.47052688531E+01  0.22919322870E+02  0.23463566924E+02  0.00000000000E+00 0. -1.
         22    1    4    4    0    0 -0.23424527813E+02 -0.15774034545E+02  0.14690182085E+03  0.14959168974E+03  0.00000000000E+00 0. -1.
<mgrwt>
<rscale>  0 0.93099126E+02</rscale>
<asrwt>0</asrwt>
<pdfrwt beam="1">  1        2 0.30772786E-01 0.93099126E+02</pdfrwt>
<pdfrwt beam="2">  1       -2 0.16666242E-02 0.93099126E+02</pdfrwt>
<totfact> 0.14622004E+05</totfact>
</mgrwt>
</event>
<event>
 7    1  0.3891761E-009  0.9317365E+02  0.7818608E-02  0.1295343E+00
          2   -1    0    0  501    0  0.00000000000E+00  0.00000000000E+00  0.11133713341E+03  0.11133713344E+03  0.25500000000E-02 0. -1.
         -2   -1    0    0    0  501 -0.00000000000E+00 -0.00000000000E+00 -0.19493334949E+02  0.19493335116E+02  0.25500000000E-02 0.  1.
         23    2    1    2    0    0  0.17763568394E-14 -0.71054273576E-14  0.91843798465E+02  0.13083046856E+03  0.93173645345E+02 0.  0.
    9000005    2    3    3    0    0 -0.11641994673E+02  0.44517178478E+02  0.44829148966E+02  0.65045268953E+02  0.10194076541E+02 0.  0.
         22    1    3    3    0    0  0.11641994673E+02 -0.44517178478E+02  0.47014649499E+02  0.65785199606E+02  0.00000000000E+00 0. -1.
         22    1    4    4    0    0 -0.54238996551E+01  0.22434395304E+02  0.15469625584E+02  0.27785429560E+02  0.00000000000E+00 0.  1.
         22    1    4    4    0    0 -0.62180950174E+01  0.22082783174E+02  0.29359523383E+02  0.37259839394E+02  0.00000000000E+00 0.  1.
<mgrwt>
<rscale>  0 0.93173645E+02</rscale>
<asrwt>0</asrwt>
<pdfrwt beam="1">  1        2 0.17128790E-01 0.93173645E+02</pdfrwt>
<pdfrwt beam="2">  1       -2 0.29989746E-02 0.93173645E+02</pdfrwt>
<totfact> 0.11948693E+05</totfact>
</mgrwt>
</event>
<event>
 7    1  0.3891761E-009  0.9211816E+02  0.7818608E-02  0.1297802E+00
          2   -1    0    0  501    0  0.00000000000E+00  0.00000000000E+00  0.47875597805E+01  0.47875604596E+01  0.25500000000E-02 0. -1.
         -2   -1    0    0    0  501 -0.00000000000E+00 -0.00000000000E+00 -0.44311478299E+03  0.44311478300E+03  0.25500000000E-02 0.  1.
         23    2    1    2    0    0  0.00000000000E+00  0.00000000000E+00 -0.43832722321E+03  0.44790234346E+03  0.92118156015E+02 0.  0.
    9000005    2    3    3    0    0  0.34731683239E+02 -0.13105488489E+02 -0.35055805250E+03  0.35260559128E+03  0.78556462019E+01 0.  0.
         22    1    3    3    0    0 -0.34731683239E+02  0.13105488489E+02 -0.87769170706E+02  0.95296752177E+02  0.00000000000E+00 0. -1.
         22    1    4    4    0    0  0.16625303898E+02 -0.93467945064E+01 -0.20278968223E+03  0.20368460549E+03  0.00000000000E+00 0.  1.
         22    1    4    4    0    0  0.18106379342E+02 -0.37586939826E+01 -0.14776837028E+03  0.14892098579E+03  0.00000000000E+00 0.  1.
<mgrwt>
<rscale>  0 0.92118156E+02</rscale>
<asrwt>0</asrwt>
<pdfrwt beam="1">  1        2 0.73654806E-03 0.92118156E+02</pdfrwt>
<pdfrwt beam="2">  1       -2 0.68171473E-01 0.92118156E+02</pdfrwt>
<totfact> 0.38701447E+04</totfact>
</mgrwt>
</event>
<event>
 7    1  0.3891761E-009  0.9805329E+02  0.7818608E-02  0.1284444E+00
         -2   -1    0    0    0  501 -0.00000000000E+00  0.00000000000E+00  0.33859074804E+02  0.33859074900E+02  0.25500000000E-02 0.  1.
          2   -1    0    0  501    0  0.00000000000E+00 -0.00000000000E+00 -0.70988708026E+02  0.70988708072E+02  0.25500000000E-02 0. -1.
         23    2    1    2    0    0  0.00000000000E+00  0.00000000000E+00 -0.37129633222E+02  0.10484778297E+03  0.98053291280E+02 0.  0.
    9000005    2    3    3    0    0  0.10552461768E+02 -0.27048503077E+02  0.21877999644E+02  0.39083988187E+02  0.14350445851E+02 0.  0.
         22    1    3    3    0    0 -0.10552461768E+02  0.27048503077E+02 -0.59007632866E+02  0.65763794785E+02  0.00000000000E+00 0. -1.
         22    1    4    4    0    0  0.65159545409E+01 -0.27077844410E+02  0.16541358957E+02  0.32392651599E+02  0.00000000000E+00 0.  1.
         22    1    4    4    0    0  0.40365072270E+01  0.29341333775E-01  0.53366406866E+01  0.66913365874E+01  0.00000000000E+00 0.  1.
<mgrwt>
<rscale>  0 0.98053291E+02</rscale>
<asrwt>0</asrwt>
<pdfrwt beam="2">  1        2 0.10921340E-01 0.98053291E+02</pdfrwt>
<pdfrwt beam="1">  1       -2 0.52090884E-02 0.98053291E+02</pdfrwt>
<totfact> 0.90495061E+04</totfact>
</mgrwt>
</event>
<event>
 7    1  0.3891761E-009  0.9234766E+02  0.7818608E-02  0.1297264E+00
          2   -1    0    0  501    0  0.00000000000E+00  0.00000000000E+00  0.45434520972E+03  0.45434520972E+03  0.25500000000E-02 0. -1.
         -2   -1    0    0    0  501 -0.00000000000E+00 -0.00000000000E+00 -0.46925165245E+01  0.46925172174E+01  0.25500000000E-02 0.  1.
         23    2    1    2    0    0  0.00000000000E+00  0.00000000000E+00  0.44965269319E+03  0.45903772694E+03  0.92347659745E+02 0.  0.
    9000005    2    3    3    0    0 -0.31671451390E+02  0.21366708899E+02  0.35324333049E+03  0.35533438900E+03  0.46968492033E+01 0.  0.
         22    1    3    3    0    0  0.31671451390E+02 -0.21366708899E+02  0.96409362707E+02  0.10370333794E+03  0.00000000000E+00 0. -1.
         22    1    4    4    0    0 -0.29181455095E+02  0.21026880948E+02  0.32792193464E+03  0.32988859069E+03  0.00000000000E+00 0.  1.
         22    1    4    4    0    0 -0.24899962948E+01  0.33982795114E+00  0.25321395841E+02  0.25445798316E+02  0.00000000000E+00 0.  1.
<mgrwt>
<rscale>  0 0.92347660E+02</rscale>
<asrwt>0</asrwt>
<pdfrwt beam="1">  1        2 0.69899269E-01 0.92347660E+02</pdfrwt>
<pdfrwt beam="2">  1       -2 0.72192561E-03 0.92347660E+02</pdfrwt>
<totfact> 0.20177765E+05</totfact>
</mgrwt>
</event>
<event>
 7    1  0.3891761E-009  0.9339484E+02  0.7818608E-02  0.1294833E+00
          2   -1    0    0  501    0  0.00000000000E+00  0.00000000000E+00  0.11742912783E+04  0.11742912783E+04  0.25500000000E-02 0.  1.
         -2   -1    0    0    0  501 -0.00000000000E+00 -0.00000000000E+00 -0.18569907183E+01  0.18569924692E+01  0.25500000000E-02 0. -1.
         23    2    1    2    0    0  0.00000000000E+00  0.00000000000E+00  0.11724342876E+04  0.11761482708E+04  0.93394840021E+02 0.  0.
    9000005    2    3    3    0    0  0.18341130847E+02  0.22699422571E+02  0.10411669618E+04  0.10416760741E+04  0.14447840560E+02 0.  0.
         22    1    3    3    0    0 -0.18341130847E+02 -0.22699422571E+02  0.13126732577E+03  0.13447219668E+03  0.00000000000E+00 0. -1.
         22    1    4    4    0    0  0.16517239915E+02  0.24200194247E+02  0.87088560530E+03  0.87137833697E+03  0.00000000000E+00 0. -1.
         22    1    4    4    0    0  0.18238909319E+01 -0.15007716761E+01  0.17028135651E+03  0.17029773712E+03  0.00000000000E+00 0. -1.
<mgrwt>
<rscale>  0 0.93394840E+02</rscale>
<asrwt>0</asrwt>
<pdfrwt beam="1">  1        2 0.18066016E+00 0.93394840E+02</pdfrwt>
<pdfrwt beam="2">  1       -2 0.28569107E-03 0.93394840E+02</pdfrwt>
<totfact> 0.23392336E+05</totfact>
</mgrwt>
</event>
<event>
 7    1  0.3891761E-009  0.9091216E+02  0.7818608E-02  0.1300658E+00
         -2   -1    0    0    0  501 -0.00000000000E+00  0.00000000000E+00  0.60242080965E+02  0.60242081019E+02  0.25500000000E-02 0.  1.
          2   -1    0    0  501    0  0.00000000000E+00 -0.00000000000E+00 -0.34299200232E+02  0.34299200327E+02  0.25500000000E-02 0. -1.
         23    2    1    2    0    0  0.00000000000E+00  0.00000000000E+00  0.25942880733E+02  0.94541281346E+02  0.90912159901E+02 0.  0.
    9000005    2    3    3    0    0 -0.24835079650E+02  0.25384671315E+02  0.41645243070E+02  0.55711822143E+02  0.10407599971E+02 0.  0.
         22    1    3    3    0    0  0.24835079650E+02 -0.25384671315E+02 -0.15702362337E+02  0.38829459203E+02  0.00000000000E+00 0. -1.
         22    1    4    4    0    0 -0.11367773983E+02  0.96970654639E+01  0.25187318064E+02  0.29285838816E+02  0.00000000000E+00 0.  1.
         22    1    4    4    0    0 -0.13467305668E+02  0.15687605851E+02  0.16457925006E+02  0.26425983327E+02  0.00000000000E+00 0.  1.
<mgrwt>
<rscale>  0 0.90912160E+02</rscale>
<asrwt>0</asrwt>
<pdfrwt beam="2">  1        2 0.52768001E-02 0.90912160E+02</pdfrwt>
<pdfrwt beam="1">  1       -2 0.92680124E-02 0.90912160E+02</pdfrwt>
<totfact> 0.92436317E+04</totfact>
</mgrwt>
</event>
<event>
 7    1  0.3891761E-009  0.9024911E+02  0.7818608E-02  0.1302250E+00
          2   -1    0    0  501    0  0.00000000000E+00  0.00000000000E+00  0.39160023063E+02  0.39160023146E+02  0.25500000000E-02 0.  1.
         -2   -1    0    0    0  501 -0.00000000000E+00 -0.00000000000E+00 -0.51997552973E+02  0.51997553036E+02  0.25500000000E-02 0. -1.
         23    2    1    2    0    0 -0.35527136788E-14  0.35527136788E-14 -0.12837529910E+02  0.91157576182E+02  0.90249108146E+02 0.  0.
    9000005    2    3    3    0    0  0.23429328159E+02 -0.28124320292E+02 -0.32476984271E+02  0.49617005923E+02  0.81964601816E+01 0.  0.
         22    1    3    3    0    0 -0.23429328159E+02  0.28124320292E+02  0.19639454361E+02  0.41540570259E+02  0.00000000000E+00 0.  1.
         22    1    4    4    0    0  0.22343863117E+02 -0.24731445045E+02 -0.26181437453E+02  0.42383490419E+02  0.00000000000E+00 0.  1.
         22    1    4    4    0    0  0.10854650418E+01 -0.33928752476E+01 -0.62955468183E+01  0.72335155038E+01  0.00000000000E+00 0.  1.
<mgrwt>
<rscale>  0 0.90249108E+02</rscale>
<asrwt>0</asrwt>
<pdfrwt beam="1">  1        2 0.60246190E-02 0.90249108E+02</pdfrwt>
<pdfrwt beam="2">  1       -2 0.79996235E-02 0.90249108E+02</pdfrwt>
<totfact> 0.97717595E+04</totfact>
</mgrwt>
</event>
<event>
 7    1  0.3891761E-009  0.9459855E+02  0.7818608E-02  0.1292083E+00
          2   -1    0    0  501    0  0.00000000000E+00  0.00000000000E+00  0.69989097366E+01  0.69989102012E+01  0.25500000000E-02 0. -1.
         -2   -1    0    0    0  501 -0.00000000000E+00 -0.00000000000E+00 -0.31965282037E+03  0.31965282038E+03  0.25500000000E-02 0.  1.
         23    2    1    2    0    0  0.00000000000E+00  0.00000000000E+00 -0.31265391064E+03  0.32665173058E+03  0.94598547861E+02 0.  0.
    9000005    2    3    3    0    0  0.27006435640E+00 -0.36690216037E+02 -0.25834400017E+03  0.26110929194E+03  0.94971064207E+01 0.  0.
         22    1    3    3    0    0 -0.27006435640E+00  0.36690216037E+02 -0.54309910471E+02  0.65542438640E+02  0.00000000000E+00 0. -1.
         22    1    4    4    0    0  0.53261509656E-01 -0.18545555819E+02 -0.97783107314E+02  0.99526260622E+02  0.00000000000E+00 0. -1.
         22    1    4    4    0    0  0.21680284674E+00 -0.18144660217E+02 -0.16056089285E+03  0.16158303132E+03  0.00000000000E+00 0. -1.
<mgrwt>
<rscale>  0 0.94598548E+02</rscale>
<asrwt>0</asrwt>
<pdfrwt beam="1">  1        2 0.10767556E-02 0.94598548E+02</pdfrwt>
<pdfrwt beam="2">  1       -2 0.49177346E-01 0.94598548E+02</pdfrwt>
<totfact> 0.44715038E+04</totfact>
</mgrwt>
</event>
<event>
 7    1  0.3891761E-009  0.8959555E+02  0.7818608E-02  0.1303834E+00
         -2   -1    0    0    0  501 -0.00000000000E+00  0.00000000000E+00  0.32747873314E+01  0.32747883242E+01  0.25500000000E-02 0.  1.
          2   -1    0    0  501    0  0.00000000000E+00 -0.00000000000E+00 -0.61281544255E+03  0.61281544256E+03  0.25500000000E-02 0. -1.
         23    2    1    2    0    0  0.00000000000E+00  0.00000000000E+00 -0.60954065522E+03  0.61609023088E+03  0.89595547996E+02 0.  0.
    9000005    2    3    3    0    0 -0.14180045242E+02  0.80091223282E+01 -0.59109255617E+03  0.59148226302E+03  0.13987057902E+02 0.  0.
         22    1    3    3    0    0  0.14180045242E+02 -0.80091223282E+01 -0.18448099052E+02  0.24607967859E+02  0.00000000000E+00 0.  1.
         22    1    4    4    0    0  0.13489338133E+01  0.30926177068E+01 -0.37882142972E+02  0.38032100426E+02  0.00000000000E+00 0.  1.
         22    1    4    4    0    0 -0.15528979055E+02  0.49165046214E+01 -0.55321041320E+03  0.55345016259E+03  0.00000000000E+00 0.  1.
<mgrwt>
<rscale>  0 0.89595548E+02</rscale>
<asrwt>0</asrwt>
<pdfrwt beam="2">  1        2 0.94279208E-01 0.89595548E+02</pdfrwt>
<pdfrwt beam="1">  1       -2 0.50381400E-03 0.89595548E+02</pdfrwt>
<totfact> 0.24002875E+05</totfact>
</mgrwt>
</event>
<event>
 7    1  0.3891761E-009  0.9079839E+02  0.7818608E-02  0.1300930E+00
         -2   -1    0    0    0  501 -0.00000000000E+00  0.00000000000E+00  0.26552138753E+02  0.26552138876E+02  0.25500000000E-02 0. -1.
          2   -1    0    0  501    0  0.00000000000E+00 -0.00000000000E+00 -0.77624138200E+02  0.77624138242E+02  0.25500000000E-02 0.  1.
         23    2    1    2    0    0  0.00000000000E+00  0.00000000000E+00 -0.51071999447E+02  0.10417627712E+03  0.90798389780E+02 0.  0.
    9000005    2    3    3    0    0  0.34959060169E+02 -0.14237853385E+02 -0.53885202791E+02  0.66324375317E+02  0.83937670028E+01 0.  0.
         22    1    3    3    0    0 -0.34959060169E+02  0.14237853385E+02  0.28132033436E+01  0.37851901801E+02  0.00000000000E+00 0. -1.
         22    1    4    4    0    0  0.24717612600E+02 -0.80130587558E+01 -0.42376688156E+02  0.49708683168E+02  0.00000000000E+00 0. -1.
         22    1    4    4    0    0  0.10241447569E+02 -0.62247946290E+01 -0.11508514635E+02  0.16615692148E+02  0.00000000000E+00 0. -1.
<mgrwt>
<rscale>  0 0.90798390E+02</rscale>
<asrwt>0</asrwt>
<pdfrwt beam="2">  1        2 0.11942175E-01 0.90798390E+02</pdfrwt>
<pdfrwt beam="1">  1       -2 0.40849445E-02 0.90798390E+02</pdfrwt>
<totfact> 0.11519842E+05</totfact>
</mgrwt>
</event>
<event>
 7    1  0.3891761E-009  0.9165830E+02  0.7818608E-02  0.1298885E+00
          2   -1    0    0  501    0  0.00000000000E+00  0.00000000000E+00  0.94043985302E+02  0.94043985336E+02  0.25500000000E-02 0.  1.
         -2   -1    0    0    0  501 -0.00000000000E+00 -0.00000000000E+00 -0.22333285072E+02  0.22333285218E+02  0.25500000000E-02 0. -1.
         23    2    1    2    0    0  0.00000000000E+00 -0.35527136788E-14  0.71710700230E+02  0.11637727055E+03  0.91658303356E+02 0.  0.
    9000005    2    3    3    0    0  0.47216829968E+01 -0.21191211686E+02 -0.14288841760E+02  0.27679565028E+02  0.95197467546E+01 0.  0.
         22    1    3    3    0    0 -0.47216829968E+01  0.21191211686E+02  0.85999541990E+02  0.88697705525E+02  0.00000000000E+00 0.  1.
         22    1    4    4    0    0 -0.22723039199E+01 -0.98920534218E+01 -0.82659709758E+01  0.13089780830E+02  0.00000000000E+00 0.  1.
         22    1    4    4    0    0  0.69939869167E+01 -0.11299158264E+02 -0.60228707843E+01  0.14589784198E+02  0.00000000000E+00 0.  1.
<mgrwt>
<rscale>  0 0.91658303E+02</rscale>
<asrwt>0</asrwt>
<pdfrwt beam="1">  1        2 0.14468305E-01 0.91658303E+02</pdfrwt>
<pdfrwt beam="2">  1       -2 0.34358900E-02 0.91658303E+02</pdfrwt>
<totfact> 0.11868281E+05</totfact>
</mgrwt>
</event>
<event>
 7    1  0.3891761E-009  0.9140552E+02  0.7818608E-02  0.1299483E+00
          2   -1    0    0  501    0  0.00000000000E+00  0.00000000000E+00  0.58650591594E+02  0.58650591650E+02  0.25500000000E-02 0. -1.
         -2   -1    0    0    0  501 -0.00000000000E+00 -0.00000000000E+00 -0.35613319307E+02  0.35613319398E+02  0.25500000000E-02 0.  1.
         23    2    1    2    0    0  0.35527136788E-14 -0.35527136788E-14  0.23037272288E+02  0.94263911048E+02  0.91405519591E+02 0.  0.
    9000005    2    3    3    0    0 -0.29370984691E+02  0.29093433559E+02  0.28805358722E+02  0.52522403659E+02  0.14824694835E+02 0.  0.
         22    1    3    3    0    0  0.29370984691E+02 -0.29093433559E+02 -0.57680864347E+01  0.41741507389E+02  0.00000000000E+00 0.  1.
         22    1    4    4    0    0  0.11661317138E+01  0.10858400600E+01  0.38135140626E+01  0.41330135876E+01  0.00000000000E+00 0.  1.
         22    1    4    4    0    0 -0.30537116405E+02  0.28007593499E+02  0.24991844660E+02  0.48389390071E+02  0.00000000000E+00 0.  1.
<mgrwt>
<rscale>  0 0.91405520E+02</rscale>
<asrwt>0</asrwt>
<pdfrwt beam="1">  1        2 0.90231679E-02 0.91405520E+02</pdfrwt>
<pdfrwt beam="2">  1       -2 0.54789723E-02 0.91405520E+02</pdfrwt>
<totfact> 0.10468113E+05</totfact>
</mgrwt>
</event>
<event>
 7    1  0.3891761E-009  0.9959792E+02  0.7818608E-02  0.1281144E+00
          2   -1    0    0  501    0  0.00000000000E+00  0.00000000000E+00  0.14230995801E+04  0.14230995801E+04  0.25500000000E-02 0. -1.
         -2   -1    0    0    0  501 -0.00000000000E+00 -0.00000000000E+00 -0.17426294066E+01  0.17426312723E+01  0.25500000000E-02 0.  1.
         23    2    1    2    0    0  0.35527136788E-14  0.00000000000E+00  0.14213569507E+04  0.14248422113E+04  0.99597921816E+02 0.  0.
    9000005    2    3    3    0    0 -0.29270976014E+02  0.17179044402E+02  0.12305778038E+04  0.12310676194E+04  0.73377611104E+01 0.  0.
         22    1    3    3    0    0  0.29270976014E+02 -0.17179044402E+02  0.19077914683E+03  0.19377459191E+03  0.00000000000E+00 0.  1.
         22    1    4    4    0    0 -0.60343767823E+01  0.19894924909E+01  0.15223633546E+03  0.15236887352E+03  0.00000000000E+00 0. -1.
         22    1    4    4    0    0 -0.23236599231E+02  0.15189551911E+02  0.10783414684E+04  0.10786987459E+04  0.00000000000E+00 0. -1.
<mgrwt>
<rscale>  0 0.99597922E+02</rscale>
<asrwt>0</asrwt>
<pdfrwt beam="1">  1        2 0.21893846E+00 0.99597922E+02</pdfrwt>
<pdfrwt beam="2">  1       -2 0.26809690E-03 0.99597922E+02</pdfrwt>
<totfact> 0.19017691E+05</totfact>
</mgrwt>
</event>
<event>
 7    1  0.3891761E-009  0.9200562E+02  0.7818608E-02  0.1298066E+00
         -2   -1    0    0    0  501 -0.00000000000E+00  0.00000000000E+00  0.37300639841E+01  0.37300648557E+01  0.25500000000E-02 0.  1.
          2   -1    0    0  501    0  0.00000000000E+00 -0.00000000000E+00 -0.56735173257E+03  0.56735173258E+03  0.25500000000E-02 0. -1.
         23    2    1    2    0    0  0.00000000000E+00  0.00000000000E+00 -0.56362166859E+03  0.57108179744E+03  0.92005619709E+02 0.  0.
    9000005    2    3    3    0    0  0.21425558182E+02  0.23901412247E+01 -0.53355571738E+03  0.53408546328E+03  0.10040479314E+02 0.  0.
         22    1    3    3    0    0 -0.21425558182E+02 -0.23901412247E+01 -0.30065951214E+02  0.36996334154E+02  0.00000000000E+00 0.  1.
         22    1    4    4    0    0  0.20501176236E+02  0.36919153751E+01 -0.41801278413E+03  0.41853149960E+03  0.00000000000E+00 0. -1.
         22    1    4    4    0    0  0.92438194549E+00 -0.13017741505E+01 -0.11554293325E+03  0.11555396368E+03  0.00000000000E+00 0. -1.
<mgrwt>
<rscale>  0 0.92005620E+02</rscale>
<asrwt>0</asrwt>
<pdfrwt beam="2">  1        2 0.87284813E-01 0.92005620E+02</pdfrwt>
<pdfrwt beam="1">  1       -2 0.57385652E-03 0.92005620E+02</pdfrwt>
<totfact> 0.21886818E+05</totfact>
</mgrwt>
</event>
<event>
 7    1  0.3891761E-009  0.8559643E+02  0.7818608E-02  0.1313880E+00
         -2   -1    0    0    0  501 -0.00000000000E+00  0.00000000000E+00  0.16262770298E+02  0.16262770498E+02  0.25500000000E-02 0.  1.
          2   -1    0    0  501    0  0.00000000000E+00 -0.00000000000E+00 -0.11263070927E+03  0.11263070930E+03  0.25500000000E-02 0. -1.
         23    2    1    2    0    0  0.00000000000E+00  0.00000000000E+00 -0.96367938970E+02  0.12889347979E+03  0.85596433758E+02 0.  0.
    9000005    2    3    3    0    0 -0.32164563457E+02  0.22623564445E+02 -0.70088268638E+02  0.81596483237E+02  0.14115093530E+02 0.  0.
         22    1    3    3    0    0  0.32164563457E+02 -0.22623564445E+02 -0.26279670332E+02  0.47296996557E+02  0.00000000000E+00 0.  1.
         22    1    4    4    0    0 -0.29227273446E+02  0.13724578503E+02 -0.51626729876E+02  0.60892666273E+02  0.00000000000E+00 0. -1.
         22    1    4    4    0    0 -0.29372900114E+01  0.88989859419E+01 -0.18461538762E+02  0.20703816964E+02  0.00000000000E+00 0. -1.
<mgrwt>
<rscale>  0 0.85596434E+02</rscale>
<asrwt>0</asrwt>
<pdfrwt beam="2">  1        2 0.17327801E-01 0.85596434E+02</pdfrwt>
<pdfrwt beam="1">  1       -2 0.25019647E-02 0.85596434E+02</pdfrwt>
<totfact> 0.15119118E+05</totfact>
</mgrwt>
</event>
<event>
 7    1  0.3891761E-009  0.8969380E+02  0.7818608E-02  0.1303595E+00
          2   -1    0    0  501    0  0.00000000000E+00  0.00000000000E+00  0.13019420890E+04  0.13019420890E+04  0.25500000000E-02 0. -1.
         -2   -1    0    0    0  501 -0.00000000000E+00 -0.00000000000E+00 -0.15448023969E+01  0.15448045015E+01  0.25500000000E-02 0.  1.
         23    2    1    2    0    0  0.00000000000E+00  0.11102230246E-15  0.13003972866E+04  0.13034868936E+04  0.89693804314E+02 0.  0.
    9000005    2    3    3    0    0  0.12844747573E+02 -0.69031194128E+00  0.12741749815E+04  0.12742794740E+04  0.10041426878E+02 0.  0.
         22    1    3    3    0    0 -0.12844747573E+02  0.69031194128E+00  0.26222305175E+02  0.29207419597E+02  0.00000000000E+00 0.  1.
         22    1    4    4    0    0  0.12839383171E+01  0.12400363123E+01  0.59971762693E+03  0.59972028333E+03  0.00000000000E+00 0.  1.
         22    1    4    4    0    0  0.11560809256E+02 -0.19303482536E+01  0.67445735454E+03  0.67455919062E+03  0.00000000000E+00 0.  1.
<mgrwt>
<rscale>  0 0.89693804E+02</rscale>
<asrwt>0</asrwt>
<pdfrwt beam="1">  1        2 0.20029910E+00 0.89693804E+02</pdfrwt>
<pdfrwt beam="2">  1       -2 0.23766169E-03 0.89693804E+02</pdfrwt>
<totfact> 0.25645507E+05</totfact>
</mgrwt>
</event>
<event>
 7    1  0.3891761E-009  0.9352304E+02  0.7818608E-02  0.1294538E+00
          2   -1    0    0  501    0  0.00000000000E+00  0.00000000000E+00  0.58217626315E+02  0.58217626371E+02  0.25500000000E-02 0. -1.
         -2   -1    0    0    0  501 -0.00000000000E+00 -0.00000000000E+00 -0.37559754915E+02  0.37559755002E+02  0.25500000000E-02 0.  1.
         23    2    1    2    0    0 -0.22204460493E-15  0.00000000000E+00  0.20657871400E+02  0.95777381373E+02  0.93523040647E+02 0.  0.
    9000005    2    3    3    0    0 -0.76698450195E+00 -0.28032851555E+02  0.47239161358E+02  0.57138100745E+02  0.15709715447E+02 0.  0.
         22    1    3    3    0    0  0.76698450195E+00  0.28032851555E+02 -0.26581289958E+02  0.38639280627E+02  0.00000000000E+00 0.  1.
         22    1    4    4    0    0 -0.26740372610E+01  0.11389935032E+01  0.45064281937E+01  0.53624319612E+01  0.00000000000E+00 0. -1.
         22    1    4    4    0    0  0.19070527590E+01 -0.29171845058E+02  0.42732733165E+02  0.51775668784E+02  0.00000000000E+00 0. -1.
<mgrwt>
<rscale>  0 0.93523041E+02</rscale>
<asrwt>0</asrwt>
<pdfrwt beam="1">  1        2 0.89565579E-02 0.93523041E+02</pdfrwt>
<pdfrwt beam="2">  1       -2 0.57784238E-02 0.93523041E+02</pdfrwt>
<totfact> 0.97905611E+04</totfact>
</mgrwt>
</event>
<event>
 7    1  0.3891761E-009  0.9106004E+02  0.7818608E-02  0.1300305E+00
         -2   -1    0    0    0  501 -0.00000000000E+00  0.00000000000E+00  0.68929584097E+01  0.68929588814E+01  0.25500000000E-02 0.  1.
          2   -1    0    0  501    0  0.00000000000E+00 -0.00000000000E+00 -0.30073919997E+03  0.30073919998E+03  0.25500000000E-02 0. -1.
         23    2    1    2    0    0 -0.22204460493E-15  0.00000000000E+00 -0.29384624156E+03  0.30763215886E+03  0.91060043306E+02 0.  0.
    9000005    2    3    3    0    0  0.16234590894E+01  0.43895731085E+02 -0.11849689085E+03  0.12686472368E+03  0.11120887868E+02 0.  0.
         22    1    3    3    0    0 -0.16234590894E+01 -0.43895731085E+02 -0.17534935070E+03  0.18076743517E+03  0.00000000000E+00 0.  1.
         22    1    4    4    0    0  0.39267433210E+01  0.31731302244E+02 -0.96023386486E+02  0.10120664804E+03  0.00000000000E+00 0. -1.
         22    1    4    4    0    0 -0.23032842315E+01  0.12164428841E+02 -0.22473504365E+02  0.25658075644E+02  0.00000000000E+00 0. -1.
<mgrwt>
<rscale>  0 0.91060043E+02</rscale>
<asrwt>0</asrwt>
<pdfrwt beam="2">  1        2 0.46267559E-01 0.91060043E+02</pdfrwt>
<pdfrwt beam="1">  1       -2 0.10604554E-02 0.91060043E+02</pdfrwt>
<totfact> 0.18044127E+05</totfact>
</mgrwt>
</event>
<event>
 7    1  0.3891761E-009  0.9151283E+02  0.7818608E-02  0.1299229E+00
          2   -1    0    0  501    0  0.00000000000E+00  0.00000000000E+00  0.19788002291E+03  0.19788002293E+03  0.25500000000E-02 0. -1.
         -2   -1    0    0    0  501 -0.00000000000E+00 -0.00000000000E+00 -0.10580397729E+02  0.10580398036E+02  0.25500000000E-02 0.  1.
         23    2    1    2    0    0  0.00000000000E+00  0.00000000000E+00  0.18729962518E+03  0.20846042096E+03  0.91512827052E+02 0.  0.
    9000005    2    3    3    0    0 -0.60019661270E+01 -0.33400735224E+02  0.16269011820E+03  0.16654072935E+03  0.10775307955E+02 0.  0.
         22    1    3    3    0    0  0.60019661270E+01  0.33400735224E+02  0.24609506976E+02  0.41919691608E+02  0.00000000000E+00 0.  1.
         22    1    4    4    0    0 -0.28112306463E+01 -0.18346498536E+02  0.63254540449E+02  0.65921422266E+02  0.00000000000E+00 0.  1.
         22    1    4    4    0    0 -0.31907354806E+01 -0.15054236689E+02  0.99435577755E+02  0.10061930709E+03  0.00000000000E+00 0.  1.
<mgrwt>
<rscale>  0 0.91512827E+02</rscale>
<asrwt>0</asrwt>
<pdfrwt beam="1">  1        2 0.30443081E-01 0.91512827E+02</pdfrwt>
<pdfrwt beam="2">  1       -2 0.16277535E-02 0.91512827E+02</pdfrwt>
<totfact> 0.15256487E+05</totfact>
</mgrwt>
</event>
<event>
 7    1  0.3891761E-009  0.8520376E+02  0.7818608E-02  0.1314901E+00
         -2   -1    0    0    0  501 -0.00000000000E+00  0.00000000000E+00  0.14431611000E+02  0.14431611225E+02  0.25500000000E-02 0.  1.
          2   -1    0    0  501    0  0.00000000000E+00 -0.00000000000E+00 -0.12576005116E+03  0.12576005119E+03  0.25500000000E-02 0. -1.
         23    2    1    2    0    0  0.00000000000E+00 -0.17763568394E-14 -0.11132844016E+03  0.14019166241E+03  0.85203759431E+02 0.  0.
    9000005    2    3    3    0    0  0.35576071821E+02 -0.14500392570E+02 -0.32663947488E+02  0.52647269797E+02  0.15128888945E+02 0.  0.
         22    1    3    3    0    0 -0.35576071821E+02  0.14500392570E+02 -0.78664492672E+02  0.87544392614E+02  0.00000000000E+00 0. -1.
         22    1    4    4    0    0  0.91814723866E+00 -0.30228575800E+01 -0.79644018123E+01  0.85681012207E+01  0.00000000000E+00 0.  1.
         22    1    4    4    0    0  0.34657924582E+02 -0.11477534990E+02 -0.24699545675E+02  0.44079168576E+02  0.00000000000E+00 0.  1.
<mgrwt>
<rscale>  0 0.85203759E+02</rscale>
<asrwt>0</asrwt>
<pdfrwt beam="2">  1        2 0.19347699E-01 0.85203759E+02</pdfrwt>
<pdfrwt beam="1">  1       -2 0.22202479E-02 0.85203759E+02</pdfrwt>
<totfact> 0.15847486E+05</totfact>
</mgrwt>
</event>
<event>
 7    1  0.3891761E-009  0.8884234E+02  0.7818608E-02  0.1305680E+00
         -2   -1    0    0    0  501 -0.00000000000E+00  0.00000000000E+00  0.31497541373E+03  0.31497541374E+03  0.25500000000E-02 0.  1.
          2   -1    0    0  501    0  0.00000000000E+00 -0.00000000000E+00 -0.62647433526E+01  0.62647438715E+01  0.25500000000E-02 0. -1.
         23    2    1    2    0    0  0.00000000000E+00  0.00000000000E+00  0.30871067038E+03  0.32124015761E+03  0.88842337079E+02 0.  0.
    9000005    2    3    3    0    0  0.19480955928E+02  0.19142183871E+02  0.27989901376E+03  0.28154075706E+03  0.13259303672E+02 0.  0.
         22    1    3    3    0    0 -0.19480955928E+02 -0.19142183871E+02  0.28811656614E+02  0.39699400550E+02  0.00000000000E+00 0. -1.
         22    1    4    4    0    0  0.91344953064E+01  0.12903867418E+02  0.10055487403E+03  0.10179013455E+03  0.00000000000E+00 0. -1.
         22    1    4    4    0    0  0.10346460621E+02  0.62383164531E+01  0.17934413973E+03  0.17975062252E+03  0.00000000000E+00 0. -1.
<mgrwt>
<rscale>  0 0.88842337E+02</rscale>
<asrwt>0</asrwt>
<pdfrwt beam="2">  1        2 0.96380648E-03 0.88842337E+02</pdfrwt>
<pdfrwt beam="1">  1       -2 0.48457767E-01 0.88842337E+02</pdfrwt>
<totfact> 0.53025822E+04</totfact>
</mgrwt>
</event>
<event>
 7    1  0.3891761E-009  0.1040591E+03  0.7818608E-02  0.1271985E+00
          2   -1    0    0  501    0  0.00000000000E+00  0.00000000000E+00  0.18853824214E+02  0.18853824387E+02  0.25500000000E-02 0. -1.
         -2   -1    0    0    0  501 -0.00000000000E+00 -0.00000000000E+00 -0.14358217439E+03  0.14358217441E+03  0.25500000000E-02 0.  1.
         23    2    1    2    0    0  0.35527136788E-14  0.00000000000E+00 -0.12472835018E+03  0.16243599880E+03  0.10405908114E+03 0.  0.
    9000005    2    3    3    0    0 -0.19020966115E+02 -0.32124433890E+02 -0.11828284733E+03  0.12455036944E+03  0.11321932306E+02 0.  0.
         22    1    3    3    0    0  0.19020966115E+02  0.32124433890E+02 -0.64455028445E+01  0.37885629355E+02  0.00000000000E+00 0.  1.
         22    1    4    4    0    0 -0.16236427333E+02 -0.26689050744E+02 -0.10938326506E+03  0.11375687090E+03  0.00000000000E+00 0.  1.
         22    1    4    4    0    0 -0.27845387825E+01 -0.54353831463E+01 -0.88995822696E+01  0.10793498541E+02  0.00000000000E+00 0.  1.
<mgrwt>
<rscale>  0 0.10405908E+03</rscale>
<asrwt>0</asrwt>
<pdfrwt beam="1">  1        2 0.29005884E-02 0.10405908E+03</pdfrwt>
<pdfrwt beam="2">  1       -2 0.22089565E-01 0.10405908E+03</pdfrwt>
<totfact> 0.50803284E+04</totfact>
</mgrwt>
</event>
<event>
 7    1  0.3891761E-009  0.1197569E+03  0.7818608E-02  0.1243499E+00
         -2   -1    0    0    0  501 -0.00000000000E+00  0.00000000000E+00  0.22127716462E+02  0.22127716609E+02  0.25500000000E-02 0. -1.
          2   -1    0    0  501    0  0.00000000000E+00 -0.00000000000E+00 -0.16203347662E+03  0.16203347664E+03  0.25500000000E-02 0.  1.
         23    2    1    2    0    0  0.35527136788E-14  0.00000000000E+00 -0.13990576016E+03  0.18416119325E+03  0.11975693455E+03 0.  0.
    9000005    2    3    3    0    0 -0.27227419740E+02 -0.36679419122E+01 -0.15125384926E+03  0.15443636676E+03  0.14767473601E+02 0.  0.
         22    1    3    3    0    0  0.27227419740E+02  0.36679419122E+01  0.11348089106E+02  0.29724826491E+02  0.00000000000E+00 0. -1.
         22    1    4    4    0    0 -0.10093784850E+02 -0.40787531563E+01 -0.28799769712E+02  0.30788755339E+02  0.00000000000E+00 0. -1.
         22    1    4    4    0    0 -0.17133634890E+02  0.41081124409E+00 -0.12245407955E+03  0.12364761142E+03  0.00000000000E+00 0. -1.
<mgrwt>
<rscale>  0 0.11975693E+03</rscale>
<asrwt>0</asrwt>
<pdfrwt beam="2">  1        2 0.24928226E-01 0.11975693E+03</pdfrwt>
<pdfrwt beam="1">  1       -2 0.34042642E-02 0.11975693E+03</pdfrwt>
<totfact> 0.67663528E+04</totfact>
</mgrwt>
</event>
<event>
 7    1  0.3891761E-009  0.8960787E+02  0.7818608E-02  0.1303804E+00
         -2   -1    0    0    0  501 -0.00000000000E+00  0.00000000000E+00  0.68414059377E+01  0.68414064129E+01  0.25500000000E-02 0. -1.
          2   -1    0    0  501    0  0.00000000000E+00 -0.00000000000E+00 -0.29341815552E+03  0.29341815553E+03  0.25500000000E-02 0.  1.
         23    2    1    2    0    0  0.00000000000E+00  0.00000000000E+00 -0.28657674958E+03  0.30025956195E+03  0.89607874306E+02 0.  0.
    9000005    2    3    3    0    0 -0.26494919435E+02  0.26254546747E+02 -0.22309353593E+03  0.22662940239E+03  0.14102420775E+02 0.  0.
         22    1    3    3    0    0  0.26494919435E+02 -0.26254546747E+02 -0.63483213650E+02  0.73630159555E+02  0.00000000000E+00 0.  1.
         22    1    4    4    0    0 -0.32231670950E+01  0.17438697936E+01 -0.57782392322E+02  0.57898486599E+02  0.00000000000E+00 0.  1.
         22    1    4    4    0    0 -0.23271752340E+02  0.24510676953E+02 -0.16531114361E+03  0.16873091579E+03  0.00000000000E+00 0.  1.
<mgrwt>
<rscale>  0 0.89607874E+02</rscale>
<asrwt>0</asrwt>
<pdfrwt beam="2">  1        2 0.45141245E-01 0.89607874E+02</pdfrwt>
<pdfrwt beam="1">  1       -2 0.10525243E-02 0.89607874E+02</pdfrwt>
<totfact> 0.18661832E+05</totfact>
</mgrwt>
</event>
<event>
 7    1  0.3891761E-009  0.1063774E+03  0.7818608E-02  0.1267429E+00
         -2   -1    0    0    0  501 -0.00000000000E+00  0.00000000000E+00  0.20665426396E+01  0.20665442129E+01  0.25500000000E-02 0.  1.
          2   -1    0    0  501    0  0.00000000000E+00 -0.00000000000E+00 -0.13689707442E+04  0.13689707442E+04  0.25500000000E-02 0. -1.
         23    2    1    2    0    0  0.22204460493E-15  0.00000000000E+00 -0.13669042015E+04  0.13710372884E+04  0.10637739413E+03 0.  0.
    9000005    2    3    3    0    0  0.68279499273E+00 -0.12390526746E+02 -0.13498667140E+04  0.13499596381E+04  0.98431424147E+01 0.  0.
         22    1    3    3    0    0 -0.68279499273E+00  0.12390526746E+02 -0.17037487529E+02  0.21077650328E+02  0.00000000000E+00 0.  1.
         22    1    4    4    0    0  0.25272866772E+01 -0.99063252517E+01 -0.60409340926E+03  0.60417991490E+03  0.00000000000E+00 0.  1.
         22    1    4    4    0    0 -0.18444916845E+01 -0.24842014946E+01 -0.74577330475E+03  0.74577972317E+03  0.00000000000E+00 0.  1.
<mgrwt>
<rscale>  0 0.10637739E+03</rscale>
<asrwt>0</asrwt>
<pdfrwt beam="2">  1        2 0.21061016E+00 0.10637739E+03</pdfrwt>
<pdfrwt beam="1">  1       -2 0.31793085E-03 0.10637739E+03</pdfrwt>
<totfact> 0.16131429E+05</totfact>
</mgrwt>
</event>
<event>
 7    1  0.3891761E-009  0.8976884E+02  0.7818608E-02  0.1303412E+00
          2   -1    0    0  501    0  0.00000000000E+00  0.00000000000E+00  0.49986908409E+02  0.49986908474E+02  0.25500000000E-02 0. -1.
         -2   -1    0    0    0  501 -0.00000000000E+00 -0.00000000000E+00 -0.40302774339E+02  0.40302774420E+02  0.25500000000E-02 0.  1.
         23    2    1    2    0    0  0.00000000000E+00  0.00000000000E+00  0.96841340697E+01  0.90289682894E+02  0.89768838605E+02 0.  0.
    9000005    2    3    3    0    0  0.38469617128E+02  0.18195935329E+02 -0.74658745743E+01  0.44408027508E+02  0.10263046307E+02 0.  0.
         22    1    3    3    0    0 -0.38469617128E+02 -0.18195935329E+02  0.17150008644E+02  0.45881655386E+02  0.00000000000E+00 0.  1.
         22    1    4    4    0    0  0.22180327797E+02  0.11691458716E+02  0.64997789660E+00  0.25081459674E+02  0.00000000000E+00 0.  1.
         22    1    4    4    0    0  0.16289289331E+02  0.65044766125E+01 -0.81158524709E+01  0.19326567834E+02  0.00000000000E+00 0.  1.
<mgrwt>
<rscale>  0 0.89768839E+02</rscale>
<asrwt>0</asrwt>
<pdfrwt beam="1">  1        2 0.76902936E-02 0.89768839E+02</pdfrwt>
<pdfrwt beam="2">  1       -2 0.62004268E-02 0.89768839E+02</pdfrwt>
<totfact> 0.10564712E+05</totfact>
</mgrwt>
</event>
<event>
 7    1  0.3891761E-009  0.9006554E+02  0.7818608E-02  0.1302693E+00
         -2   -1    0    0    0  501 -0.00000000000E+00  0.00000000000E+00  0.94988790746E+00  0.94989133023E+00  0.25500000000E-02 0.  1.
          2   -1    0    0  501    0  0.00000000000E+00 -0.00000000000E+00 -0.21349328186E+04  0.21349328186E+04  0.25500000000E-02 0. -1.
         23    2    1    2    0    0  0.00000000000E+00  0.00000000000E+00 -0.21339829307E+04  0.21358827100E+04  0.90065543347E+02 0.  0.
    9000005    2    3    3    0    0  0.12948306566E+02  0.86315526304E+01 -0.20688008553E+04  0.20688687912E+04  0.62397282043E+01 0.  0.
         22    1    3    3    0    0 -0.12948306566E+02 -0.86315526304E+01 -0.65182075452E+02  0.67013918733E+02  0.00000000000E+00 0.  1.
         22    1    4    4    0    0  0.84522358125E+01  0.75507114965E+01 -0.17191596648E+04  0.17191970238E+04  0.00000000000E+00 0. -1.
         22    1    4    4    0    0  0.44960707534E+01  0.10808411339E+01 -0.34964119050E+03  0.34967176747E+03  0.00000000000E+00 0. -1.
<mgrwt>
<rscale>  0 0.90065543E+02</rscale>
<asrwt>0</asrwt>
<pdfrwt beam="2">  1        2 0.32844736E+00 0.90065543E+02</pdfrwt>
<pdfrwt beam="1">  1       -2 0.14613857E-03 0.90065543E+02</pdfrwt>
<totfact> 0.19022072E+05</totfact>
</mgrwt>
</event>
<event>
 7    1  0.3891761E-009  0.9014640E+02  0.7818608E-02  0.1302498E+00
          2   -1    0    0  501    0  0.00000000000E+00  0.00000000000E+00  0.75724236516E+02  0.75724236559E+02  0.25500000000E-02 0. -1.
         -2   -1    0    0    0  501 -0.00000000000E+00 -0.00000000000E+00 -0.26828836796E+02  0.26828836917E+02  0.25500000000E-02 0.  1.
         23    2    1    2    0    0  0.00000000000E+00  0.00000000000E+00  0.48895399720E+02  0.10255307348E+03  0.90146396298E+02 0.  0.
    9000005    2    3    3    0    0  0.18797099061E+02 -0.11422262832E+02  0.68311166468E+02  0.73214174046E+02  0.14494854115E+02 0.  0.
         22    1    3    3    0    0 -0.18797099061E+02  0.11422262832E+02 -0.19415766748E+02  0.29338899429E+02  0.00000000000E+00 0.  1.
         22    1    4    4    0    0  0.11134430562E+02 -0.13106009049E+02  0.35067637681E+02  0.39057422209E+02  0.00000000000E+00 0.  1.
         22    1    4    4    0    0  0.76626684983E+01  0.16837462168E+01  0.33243528787E+02  0.34156751837E+02  0.00000000000E+00 0.  1.
<mgrwt>
<rscale>  0 0.90146396E+02</rscale>
<asrwt>0</asrwt>
<pdfrwt beam="1">  1        2 0.11649882E-01 0.90146396E+02</pdfrwt>
<pdfrwt beam="2">  1       -2 0.41275134E-02 0.90146396E+02</pdfrwt>
<totfact> 0.11671019E+05</totfact>
</mgrwt>
</event>
<event>
 7    1  0.3891761E-009  0.9220748E+02  0.7818608E-02  0.1297592E+00
         -2   -1    0    0    0  501 -0.00000000000E+00  0.00000000000E+00  0.60988232533E+02  0.60988232586E+02  0.25500000000E-02 0.  1.
          2   -1    0    0  501    0  0.00000000000E+00 -0.00000000000E+00 -0.34851887392E+02  0.34851887485E+02  0.25500000000E-02 0. -1.
         23    2    1    2    0    0 -0.35527136788E-14  0.71054273576E-14  0.26136345141E+02  0.95840120071E+02  0.92207483849E+02 0.  0.
    9000005    2    3    3    0    0  0.23225078254E+02 -0.36686769811E+02 -0.26957034102E+01  0.43719007623E+02  0.43314514441E+01 0.  0.
         22    1    3    3    0    0 -0.23225078254E+02  0.36686769811E+02  0.28832048551E+02  0.52121112447E+02  0.00000000000E+00 0.  1.
         22    1    4    4    0    0  0.77628245352E+01 -0.15882871317E+02 -0.19733285888E+01  0.17788228461E+02  0.00000000000E+00 0. -1.
         22    1    4    4    0    0  0.15462253719E+02 -0.20803898494E+02 -0.72237482146E+00  0.25930779163E+02  0.00000000000E+00 0. -1.
<mgrwt>
<rscale>  0 0.92207484E+02</rscale>
<asrwt>0</asrwt>
<pdfrwt beam="2">  1        2 0.53618289E-02 0.92207484E+02</pdfrwt>
<pdfrwt beam="1">  1       -2 0.93828050E-02 0.92207484E+02</pdfrwt>
<totfact> 0.89048094E+04</totfact>
</mgrwt>
</event>
<event>
 7    1  0.3891761E-009  0.8828154E+02  0.7818608E-02  0.1307067E+00
          2   -1    0    0  501    0  0.00000000000E+00  0.00000000000E+00  0.82353820963E+02  0.82353821003E+02  0.25500000000E-02 0. -1.
         -2   -1    0    0    0  501 -0.00000000000E+00 -0.00000000000E+00 -0.23658984236E+02  0.23658984374E+02  0.25500000000E-02 0.  1.
         23    2    1    2    0    0  0.00000000000E+00  0.00000000000E+00  0.58694836727E+02  0.10601280538E+03  0.88281544194E+02 0.  0.
    9000005    2    3    3    0    0 -0.20435098112E+02  0.32333346908E+02  0.53275567743E+02  0.67381121056E+02  0.15456092627E+02 0.  0.
         22    1    3    3    0    0  0.20435098112E+02 -0.32333346908E+02  0.54192689841E+01  0.38631684321E+02  0.00000000000E+00 0.  1.
         22    1    4    4    0    0 -0.21074612769E+02  0.33542542329E+02  0.49719164461E+02  0.63570722537E+02  0.00000000000E+00 0.  1.
         22    1    4    4    0    0  0.63951465684E+00 -0.12091954212E+01  0.35564032821E+01  0.38103985183E+01  0.00000000000E+00 0.  1.
<mgrwt>
<rscale>  0 0.88281544E+02</rscale>
<asrwt>0</asrwt>
<pdfrwt beam="1">  1        2 0.12669819E-01 0.88281544E+02</pdfrwt>
<pdfrwt beam="2">  1       -2 0.36398437E-02 0.88281544E+02</pdfrwt>
<totfact> 0.12663024E+05</totfact>
</mgrwt>
</event>
<event>
 7    1  0.3891761E-009  0.8927658E+02  0.7818608E-02  0.1304613E+00
          2   -1    0    0  501    0  0.00000000000E+00  0.00000000000E+00  0.34193890034E+03  0.34193890035E+03  0.25500000000E-02 0. -1.
         -2   -1    0    0    0  501 -0.00000000000E+00 -0.00000000000E+00 -0.58272897222E+01  0.58272902802E+01  0.25500000000E-02 0.  1.
         23    2    1    2    0    0 -0.35527136788E-14  0.00000000000E+00  0.33611161062E+03  0.34776619063E+03  0.89276584573E+02 0.  0.
    9000005    2    3    3    0    0 -0.27269718930E+02 -0.34270940523E+02  0.17788473062E+03  0.18358982056E+03  0.12004577930E+02 0.  0.
         22    1    3    3    0    0  0.27269718930E+02  0.34270940523E+02  0.15822687999E+03  0.16417637007E+03  0.00000000000E+00 0.  1.
         22    1    4    4    0    0 -0.37272972752E+01 -0.10806031496E+02  0.32432130662E+02  0.34387587309E+02  0.00000000000E+00 0. -1.
         22    1    4    4    0    0 -0.23542421654E+02 -0.23464909028E+02  0.14545259996E+03  0.14920223325E+03  0.00000000000E+00 0. -1.
<mgrwt>
<rscale>  0 0.89276585E+02</rscale>
<asrwt>0</asrwt>
<pdfrwt beam="1">  1        2 0.52605986E-01 0.89276585E+02</pdfrwt>
<pdfrwt beam="2">  1       -2 0.89650614E-03 0.89276585E+02</pdfrwt>
<totfact> 0.19943359E+05</totfact>
</mgrwt>
</event>
<event>
 7    1  0.3891761E-009  0.8982122E+02  0.7818608E-02  0.1303285E+00
          2   -1    0    0  501    0  0.00000000000E+00  0.00000000000E+00  0.31474738450E+03  0.31474738451E+03  0.25500000000E-02 0. -1.
         -2   -1    0    0    0  501 -0.00000000000E+00 -0.00000000000E+00 -0.64081953136E+01  0.64081958209E+01  0.25500000000E-02 0.  1.
         23    2    1    2    0    0 -0.35527136788E-14 -0.71054273576E-14  0.30833918918E+03  0.32115558033E+03  0.89821217926E+02 0.  0.
    9000005    2    3    3    0    0  0.21287468776E+02  0.38861272983E+02  0.16633381363E+03  0.17239778540E+03  0.95238642682E+01 0.  0.
         22    1    3    3    0    0 -0.21287468776E+02 -0.38861272983E+02  0.14200537555E+03  0.14875779493E+03  0.00000000000E+00 0. -1.
         22    1    4    4    0    0  0.67107883198E+01  0.19926816115E+02  0.89349704695E+02  0.91790426568E+02  0.00000000000E+00 0. -1.
         22    1    4    4    0    0  0.14576680456E+02  0.18934456869E+02  0.76984108934E+02  0.80607358836E+02  0.00000000000E+00 0. -1.
<mgrwt>
<rscale>  0 0.89821218E+02</rscale>
<asrwt>0</asrwt>
<pdfrwt beam="1">  1        2 0.48422674E-01 0.89821218E+02</pdfrwt>
<pdfrwt beam="2">  1       -2 0.98587624E-03 0.89821218E+02</pdfrwt>
<totfact> 0.19033535E+05</totfact>
</mgrwt>
</event>
<event>
 7    1  0.3891761E-009  0.9033668E+02  0.7818608E-02  0.1302038E+00
          2   -1    0    0  501    0  0.00000000000E+00  0.00000000000E+00  0.55405461147E+03  0.55405461148E+03  0.25500000000E-02 0.  1.
         -2   -1    0    0    0  501 -0.00000000000E+00 -0.00000000000E+00 -0.36822700020E+01  0.36822708850E+01  0.25500000000E-02 0. -1.
         23    2    1    2    0    0  0.00000000000E+00  0.00000000000E+00  0.55037234147E+03  0.55773688236E+03  0.90336679664E+02 0.  0.
    9000005    2    3    3    0    0 -0.17102658998E+02 -0.33162584898E+02  0.42938120758E+03  0.43112285288E+03  0.10316727690E+02 0.  0.
         22    1    3    3    0    0  0.17102658998E+02  0.33162584898E+02  0.12099113388E+03  0.12661402948E+03  0.00000000000E+00 0. -1.
         22    1    4    4    0    0 -0.32665443789E+01 -0.12279678203E+02  0.10281001072E+03  0.10359227343E+03  0.00000000000E+00 0.  1.
         22    1    4    4    0    0 -0.13836114619E+02 -0.20882906695E+02  0.32657119686E+03  0.32753057946E+03  0.00000000000E+00 0.  1.
<mgrwt>
<rscale>  0 0.90336680E+02</rscale>
<asrwt>0</asrwt>
<pdfrwt beam="1">  1        2 0.85239168E-01 0.90336680E+02</pdfrwt>
<pdfrwt beam="2">  1       -2 0.56650316E-03 0.90336680E+02</pdfrwt>
<totfact> 0.22808331E+05</totfact>
</mgrwt>
</event>
<event>
 7    1  0.3891761E-009  0.8865283E+02  0.7818608E-02  0.1306147E+00
         -2   -1    0    0    0  501 -0.00000000000E+00  0.00000000000E+00  0.35734022970E+01  0.35734032068E+01  0.25500000000E-02 0. -1.
          2   -1    0    0  501    0  0.00000000000E+00 -0.00000000000E+00 -0.54984881916E+03  0.54984881916E+03  0.25500000000E-02 0.  1.
         23    2    1    2    0    0 -0.35527136788E-14  0.00000000000E+00 -0.54627541686E+03  0.55342222237E+03  0.88652834963E+02 0.  0.
    9000005    2    3    3    0    0 -0.28030328352E+02  0.64179009905E+01 -0.48229040374E+03  0.48327259183E+03  0.11021602215E+02 0.  0.
         22    1    3    3    0    0  0.28030328352E+02 -0.64179009905E+01 -0.63985013118E+02  0.70149630536E+02  0.00000000000E+00 0. -1.
         22    1    4    4    0    0 -0.27435906525E+02  0.33680963459E+01 -0.44099405448E+03  0.44185951288E+03  0.00000000000E+00 0. -1.
         22    1    4    4    0    0 -0.59442182672E+00  0.30498046446E+01 -0.41296349264E+02  0.41413078951E+02  0.00000000000E+00 0. -1.
<mgrwt>
<rscale>  0 0.88652835E+02</rscale>
<asrwt>0</asrwt>
<pdfrwt beam="2">  1        2 0.84592059E-01 0.88652835E+02</pdfrwt>
<pdfrwt beam="1">  1       -2 0.54975471E-03 0.88652835E+02</pdfrwt>
<totfact> 0.23913224E+05</totfact>
</mgrwt>
</event>
<event>
 7    1  0.3891761E-009  0.9140009E+02  0.7818608E-02  0.1299496E+00
          2   -1    0    0  501    0  0.00000000000E+00  0.00000000000E+00  0.80551762375E+03  0.80551762375E+03  0.25500000000E-02 0.  1.
         -2   -1    0    0    0  501 -0.00000000000E+00 -0.00000000000E+00 -0.25927349262E+01  0.25927361802E+01  0.25500000000E-02 0. -1.
         23    2    1    2    0    0  0.35527136788E-14  0.35527136788E-14  0.80292488882E+03  0.80811035993E+03  0.91400091577E+02 0.  0.
    9000005    2    3    3    0    0  0.21221479326E+02  0.22240521301E+02  0.69857764940E+03  0.69932921107E+03  0.10277219662E+02 0.  0.
         22    1    3    3    0    0 -0.21221479326E+02 -0.22240521301E+02  0.10434723942E+03  0.10878114886E+03  0.00000000000E+00 0. -1.
         22    1    4    4    0    0  0.18332740683E+02  0.15322525708E+02  0.59559161327E+03  0.59607066609E+03  0.00000000000E+00 0. -1.
         22    1    4    4    0    0  0.28887386434E+01  0.69179955928E+01  0.10298603613E+03  0.10325854498E+03  0.00000000000E+00 0. -1.
<mgrwt>
<rscale>  0 0.91400092E+02</rscale>
<asrwt>0</asrwt>
<pdfrwt beam="1">  1        2 0.12392579E+00 0.91400092E+02</pdfrwt>
<pdfrwt beam="2">  1       -2 0.39888238E-03 0.91400092E+02</pdfrwt>
<totfact> 0.24246312E+05</totfact>
</mgrwt>
</event>
<event>
 7    1  0.3891761E-009  0.8912576E+02  0.7818608E-02  0.1304983E+00
         -2   -1    0    0    0  501 -0.00000000000E+00  0.00000000000E+00  0.22795389389E+02  0.22795389532E+02  0.25500000000E-02 0.  1.
          2   -1    0    0  501    0  0.00000000000E+00 -0.00000000000E+00 -0.87116310544E+02  0.87116310581E+02  0.25500000000E-02 0. -1.
         23    2    1    2    0    0  0.00000000000E+00  0.00000000000E+00 -0.64320921155E+02  0.10991170011E+03  0.89125759035E+02 0.  0.
    9000005    2    3    3    0    0  0.19025086245E+02 -0.46271149417E+01  0.14737021885E+02  0.28465260921E+02  0.14481960018E+02 0.  0.
         22    1    3    3    0    0 -0.19025086245E+02  0.46271149417E+01 -0.79057943040E+02  0.81446439192E+02  0.00000000000E+00 0. -1.
         22    1    4    4    0    0  0.20846681683E+02 -0.49257100095E+01  0.15528165345E+02  0.26456958920E+02  0.00000000000E+00 0. -1.
         22    1    4    4    0    0 -0.18215954382E+01  0.29859506771E+00 -0.79114345990E+00  0.20083020014E+01  0.00000000000E+00 0. -1.
<mgrwt>
<rscale>  0 0.89125759E+02</rscale>
<asrwt>0</asrwt>
<pdfrwt beam="2">  1        2 0.13402509E-01 0.89125759E+02</pdfrwt>
<pdfrwt beam="1">  1       -2 0.35069830E-02 0.89125759E+02</pdfrwt>
<totfact> 0.12535890E+05</totfact>
</mgrwt>
</event>
<event>
 7    1  0.4222377E-009  0.9404729E+02  0.7818608E-02  0.1293336E+00
         -2   -1    0    0    0  501 -0.00000000000E+00  0.00000000000E+00  0.31554618499E+01  0.31554628803E+01  0.25500000000E-02 0. -1.
          2   -1    0    0  501    0  0.00000000000E+00 -0.00000000000E+00 -0.70076041502E+03  0.70076041502E+03  0.25500000000E-02 0.  1.
         23    2    1    2    0    0  0.00000000000E+00  0.00000000000E+00 -0.69760495317E+03  0.70391587790E+03  0.94047288527E+02 0.  0.
    9000005    2    3    3    0    0  0.43325145260E+02 -0.50788065555E+01 -0.46632589342E+03  0.46855898727E+03  0.13594969472E+02 0.  0.
         22    1    3    3    0    0 -0.43325145260E+02  0.50788065555E+01 -0.23127905975E+03  0.23535689063E+03  0.00000000000E+00 0. -1.
         22    1    4    4    0    0  0.33481472929E+02 -0.75630030275E+01 -0.39876100159E+03  0.40023561115E+03  0.00000000000E+00 0. -1.
         22    1    4    4    0    0  0.98436723315E+01  0.24841964720E+01 -0.67564891829E+02  0.68323376124E+02  0.00000000000E+00 0. -1.
<mgrwt>
<rscale>  0 0.94047289E+02</rscale>
<asrwt>0</asrwt>
<pdfrwt beam="2">  1        2 0.10780917E+00 0.94047289E+02</pdfrwt>
<pdfrwt beam="1">  1       -2 0.48545631E-03 0.94047289E+02</pdfrwt>
<totfact> 0.21854856E+05</totfact>
</mgrwt>
</event>
<event>
 7    1  0.3891761E-009  0.9217555E+02  0.7818608E-02  0.1297667E+00
          2   -1    0    0  501    0  0.00000000000E+00  0.00000000000E+00  0.31706328542E+03  0.31706328543E+03  0.25500000000E-02 0. -1.
         -2   -1    0    0    0  501 -0.00000000000E+00 -0.00000000000E+00 -0.66992394721E+01  0.66992399574E+01  0.25500000000E-02 0.  1.
         23    2    1    2    0    0  0.00000000000E+00  0.35527136788E-14  0.31036404595E+03  0.32376252539E+03  0.92175548972E+02 0.  0.
    9000005    2    3    3    0    0  0.31024889244E+02  0.31034596707E+02  0.19606806546E+03  0.20133188747E+03  0.12890022243E+02 0.  0.
         22    1    3    3    0    0 -0.31024889244E+02 -0.31034596707E+02  0.11429598049E+03  0.12243063792E+03  0.00000000000E+00 0.  1.
         22    1    4    4    0    0  0.18185186529E+02  0.94288235838E+01  0.95328424553E+02  0.97504421700E+02  0.00000000000E+00 0. -1.
         22    1    4    4    0    0  0.12839702715E+02  0.21605773123E+02  0.10073964090E+03  0.10382746577E+03  0.00000000000E+00 0. -1.
<mgrwt>
<rscale>  0 0.92175549E+02</rscale>
<asrwt>0</asrwt>
<pdfrwt beam="1">  1        2 0.48778967E-01 0.92175549E+02</pdfrwt>
<pdfrwt beam="2">  1       -2 0.10306523E-02 0.92175549E+02</pdfrwt>
<totfact> 0.17813732E+05</totfact>
</mgrwt>
</event>
<event>
 7    1  0.3891761E-009  0.9257972E+02  0.7818608E-02  0.1296722E+00
          2   -1    0    0  501    0  0.00000000000E+00  0.00000000000E+00  0.41878778420E+02  0.41878778497E+02  0.25500000000E-02 0. -1.
         -2   -1    0    0    0  501 -0.00000000000E+00 -0.00000000000E+00 -0.51165563897E+02  0.51165563961E+02  0.25500000000E-02 0.  1.
         23    2    1    2    0    0  0.00000000000E+00  0.00000000000E+00 -0.92867854775E+01  0.93044342458E+02  0.92579723908E+02 0.  0.
    9000005    2    3    3    0    0  0.40901676294E+02  0.13151984215E+02  0.10267155709E+02  0.45839698317E+02  0.12245066068E+02 0.  0.
         22    1    3    3    0    0 -0.40901676294E+02 -0.13151984215E+02 -0.19553941187E+02  0.47204644140E+02  0.00000000000E+00 0.  1.
         22    1    4    4    0    0  0.13226890469E+02  0.10317157947E+02  0.52007834719E+01  0.17562531945E+02  0.00000000000E+00 0.  1.
         22    1    4    4    0    0  0.27674785825E+02  0.28348262682E+01  0.50663722376E+01  0.28277166373E+02  0.00000000000E+00 0.  1.
<mgrwt>
<rscale>  0 0.92579724E+02</rscale>
<asrwt>0</asrwt>
<pdfrwt beam="1">  1        2 0.64428890E-02 0.92579724E+02</pdfrwt>
<pdfrwt beam="2">  1       -2 0.78716253E-02 0.92579724E+02</pdfrwt>
<totfact> 0.92355214E+04</totfact>
</mgrwt>
</event>
<event>
 7    1  0.3891761E-009  0.9305237E+02  0.7818608E-02  0.1295624E+00
         -2   -1    0    0    0  501 -0.00000000000E+00  0.00000000000E+00  0.31593990522E+01  0.31594000813E+01  0.25500000000E-02 0.  1.
          2   -1    0    0  501    0  0.00000000000E+00 -0.00000000000E+00 -0.68515738485E+03  0.68515738485E+03  0.25500000000E-02 0. -1.
         23    2    1    2    0    0 -0.17763568394E-14  0.00000000000E+00 -0.68199798579E+03  0.68831678493E+03  0.93052371235E+02 0.  0.
    9000005    2    3    3    0    0  0.12010973686E+02  0.74000741750E+01 -0.66867160423E+03  0.66891016152E+03  0.10957431048E+02 0.  0.
         22    1    3    3    0    0 -0.12010973686E+02 -0.74000741750E+01 -0.13326381567E+02  0.19406623414E+02  0.00000000000E+00 0.  1.
         22    1    4    4    0    0  0.11067438723E+02  0.98855141337E+01 -0.60686721718E+03  0.60704862316E+03  0.00000000000E+00 0. -1.
         22    1    4    4    0    0  0.94353496314E+00 -0.24854399587E+01 -0.61804387051E+02  0.61861538364E+02  0.00000000000E+00 0. -1.
<mgrwt>
<rscale>  0 0.93052371E+02</rscale>
<asrwt>0</asrwt>
<pdfrwt beam="2">  1        2 0.10540871E+00 0.93052371E+02</pdfrwt>
<pdfrwt beam="1">  1       -2 0.48606202E-03 0.93052371E+02</pdfrwt>
<totfact> 0.22358685E+05</totfact>
</mgrwt>
</event>
<event>
 7    1  0.3891761E-009  0.9111525E+02  0.7818608E-02  0.1300173E+00
          2   -1    0    0  501    0  0.00000000000E+00  0.00000000000E+00  0.34751334179E+03  0.34751334180E+03  0.25500000000E-02 0.  1.
         -2   -1    0    0    0  501 -0.00000000000E+00 -0.00000000000E+00 -0.59724242720E+01  0.59724248164E+01  0.25500000000E-02 0. -1.
         23    2    1    2    0    0  0.00000000000E+00  0.00000000000E+00  0.34154091752E+03  0.35348576662E+03  0.91115250430E+02 0.  0.
    9000005    2    3    3    0    0  0.23382296651E+02  0.33765341818E+02  0.23903405726E+03  0.24305711769E+03  0.15895025085E+02 0.  0.
         22    1    3    3    0    0 -0.23382296651E+02 -0.33765341818E+02  0.10250686026E+03  0.11042864893E+03  0.00000000000E+00 0. -1.
         22    1    4    4    0    0  0.21468349113E+02  0.31733569865E+02  0.23527985938E+03  0.23837894559E+03  0.00000000000E+00 0.  1.
         22    1    4    4    0    0  0.19139475374E+01  0.20317719529E+01  0.37541978812E+01  0.46781720977E+01  0.00000000000E+00 0.  1.
<mgrwt>
<rscale>  0 0.91115250E+02</rscale>
<asrwt>0</asrwt>
<pdfrwt beam="1">  1        2 0.53463608E-01 0.91115250E+02</pdfrwt>
<pdfrwt beam="2">  1       -2 0.91883426E-03 0.91115250E+02</pdfrwt>
<totfact> 0.19004250E+05</totfact>
</mgrwt>
</event>
<event>
 7    1  0.3891761E-009  0.9287092E+02  0.7818608E-02  0.1296045E+00
         -2   -1    0    0    0  501 -0.00000000000E+00  0.00000000000E+00  0.34388031301E+02  0.34388031396E+02  0.25500000000E-02 0.  1.
          2   -1    0    0  501    0  0.00000000000E+00 -0.00000000000E+00 -0.62703562489E+02  0.62703562541E+02  0.25500000000E-02 0. -1.
         23    2    1    2    0    0  0.00000000000E+00  0.00000000000E+00 -0.28315531188E+02  0.97091593937E+02  0.92870922827E+02 0.  0.
    9000005    2    3    3    0    0 -0.36892035180E+02 -0.19430123013E+02  0.60425808898E+01  0.43063528956E+02  0.89108250074E+01 0.  0.
         22    1    3    3    0    0  0.36892035180E+02  0.19430123013E+02 -0.34358112078E+02  0.54028064981E+02  0.00000000000E+00 0. -1.
         22    1    4    4    0    0 -0.37405856934E+00  0.79309511870E+00 -0.45974766623E-01  0.87808505269E+00  0.00000000000E+00 0.  1.
         22    1    4    4    0    0 -0.36517976610E+02 -0.20223218132E+02  0.60885556564E+01  0.42185443903E+02  0.00000000000E+00 0.  1.
<mgrwt>
<rscale>  0 0.92870923E+02</rscale>
<asrwt>0</asrwt>
<pdfrwt beam="2">  1        2 0.96467019E-02 0.92870923E+02</pdfrwt>
<pdfrwt beam="1">  1       -2 0.52904664E-02 0.92870923E+02</pdfrwt>
<totfact> 0.10190417E+05</totfact>
</mgrwt>
</event>
<event>
 7    1  0.3891761E-009  0.8833121E+02  0.7818608E-02  0.1306944E+00
         -2   -1    0    0    0  501 -0.00000000000E+00  0.00000000000E+00  0.34381449270E+02  0.34381449364E+02  0.25500000000E-02 0.  1.
          2   -1    0    0  501    0  0.00000000000E+00 -0.00000000000E+00 -0.56734098616E+02  0.56734098673E+02  0.25500000000E-02 0. -1.
         23    2    1    2    0    0  0.88817841970E-15  0.71054273576E-14 -0.22352649346E+02  0.91115548038E+02  0.88331207177E+02 0.  0.
    9000005    2    3    3    0    0 -0.66119762991E+01 -0.43339948307E+02 -0.83822586063E+01  0.45102059067E+02  0.64702490578E+01 0.  0.
         22    1    3    3    0    0  0.66119762991E+01  0.43339948307E+02 -0.13970390740E+02  0.46013488971E+02  0.00000000000E+00 0. -1.
         22    1    4    4    0    0 -0.50015966768E+01 -0.39086367926E+02 -0.56818897902E+01  0.39812611049E+02  0.00000000000E+00 0.  1.
         22    1    4    4    0    0 -0.16103796223E+01 -0.42535803809E+01 -0.27003688162E+01  0.52894480173E+01  0.00000000000E+00 0.  1.
<mgrwt>
<rscale>  0 0.88331207E+02</rscale>
<asrwt>0</asrwt>
<pdfrwt beam="2">  1        2 0.87283228E-02 0.88331207E+02</pdfrwt>
<pdfrwt beam="1">  1       -2 0.52894538E-02 0.88331207E+02</pdfrwt>
<totfact> 0.11426731E+05</totfact>
</mgrwt>
</event>
<event>
 7    1  0.3891761E-009  0.9225421E+02  0.7818608E-02  0.1297483E+00
         -2   -1    0    0    0  501 -0.00000000000E+00  0.00000000000E+00  0.97548286615E+02  0.97548286649E+02  0.25500000000E-02 0.  1.
          2   -1    0    0  501    0  0.00000000000E+00 -0.00000000000E+00 -0.21811862123E+02  0.21811862272E+02  0.25500000000E-02 0. -1.
         23    2    1    2    0    0  0.00000000000E+00  0.00000000000E+00  0.75736424493E+02  0.11936014892E+03  0.92254209419E+02 0.  0.
    9000005    2    3    3    0    0 -0.52931116417E+01  0.45673900000E+02  0.40066632515E+02  0.61166882714E+02  0.46829827877E+01 0.  0.
         22    1    3    3    0    0  0.52931116417E+01 -0.45673900000E+02  0.35669791978E+02  0.58193266207E+02  0.00000000000E+00 0. -1.
         22    1    4    4    0    0 -0.39014421484E+01  0.14870122666E+02  0.13896171973E+02  0.20723064311E+02  0.00000000000E+00 0.  1.
         22    1    4    4    0    0 -0.13916694933E+01  0.30803777334E+02  0.26170460542E+02  0.40443818403E+02  0.00000000000E+00 0.  1.
<mgrwt>
<rscale>  0 0.92254209E+02</rscale>
<asrwt>0</asrwt>
<pdfrwt beam="2">  1        2 0.33556710E-02 0.92254209E+02</pdfrwt>
<pdfrwt beam="1">  1       -2 0.15007429E-01 0.92254209E+02</pdfrwt>
<totfact> 0.78081557E+04</totfact>
</mgrwt>
</event>
<event>
 7    1  0.3891761E-009  0.9210599E+02  0.7818608E-02  0.1297830E+00
         -2   -1    0    0    0  501 -0.00000000000E+00  0.00000000000E+00  0.74545017737E+01  0.74545022099E+01  0.25500000000E-02 0.  1.
          2   -1    0    0  501    0  0.00000000000E+00 -0.00000000000E+00 -0.28450970642E+03  0.28450970643E+03  0.25500000000E-02 0. -1.
         23    2    1    2    0    0  0.00000000000E+00  0.00000000000E+00 -0.27705520465E+03  0.29196420864E+03  0.92105986266E+02 0.  0.
    9000005    2    3    3    0    0  0.27060275666E+02  0.36417963159E+02 -0.15167112433E+03  0.15862368909E+03  0.99407355112E+01 0.  0.
         22    1    3    3    0    0 -0.27060275666E+02 -0.36417963159E+02 -0.12538408031E+03  0.13334051956E+03  0.00000000000E+00 0. -1.
         22    1    4    4    0    0  0.14577064732E+02  0.17137754501E+02 -0.58880173291E+02  0.63032279447E+02  0.00000000000E+00 0. -1.
         22    1    4    4    0    0  0.12483210934E+02  0.19280208658E+02 -0.92790951043E+02  0.95591409638E+02  0.00000000000E+00 0. -1.
<mgrwt>
<rscale>  0 0.92105986E+02</rscale>
<asrwt>0</asrwt>
<pdfrwt beam="2">  1        2 0.43770716E-01 0.92105986E+02</pdfrwt>
<pdfrwt beam="1">  1       -2 0.11468467E-02 0.92105986E+02</pdfrwt>
<totfact> 0.17143237E+05</totfact>
</mgrwt>
</event>
<event>
 7    1  0.3891761E-009  0.9096529E+02  0.7818608E-02  0.1300531E+00
          2   -1    0    0  501    0  0.00000000000E+00  0.00000000000E+00  0.47387687615E+02  0.47387687684E+02  0.25500000000E-02 0. -1.
         -2   -1    0    0    0  501 -0.00000000000E+00 -0.00000000000E+00 -0.43654183290E+02  0.43654183365E+02  0.25500000000E-02 0.  1.
         23    2    1    2    0    0  0.00000000000E+00 -0.88817841970E-15  0.37335043251E+01  0.91041871049E+02  0.90965285849E+02 0.  0.
    9000005    2    3    3    0    0 -0.43947470987E+02  0.63160914384E+01  0.76457292563E+00  0.46543693886E+02  0.13944807334E+02 0.  0.
         22    1    3    3    0    0  0.43947470987E+02 -0.63160914384E+01  0.29689313995E+01  0.44498177163E+02  0.00000000000E+00 0. -1.
         22    1    4    4    0    0 -0.32010034817E+02  0.86603493371E+01  0.52575689557E+01  0.33575080207E+02  0.00000000000E+00 0.  1.
         22    1    4    4    0    0 -0.11937436170E+02 -0.23442578987E+01 -0.44929960301E+01  0.12968613678E+02  0.00000000000E+00 0.  1.
<mgrwt>
<rscale>  0 0.90965286E+02</rscale>
<asrwt>0</asrwt>
<pdfrwt beam="1">  1        2 0.72904135E-02 0.90965286E+02</pdfrwt>
<pdfrwt beam="2">  1       -2 0.67160282E-02 0.90965286E+02</pdfrwt>
<totfact> 0.10033730E+05</totfact>
</mgrwt>
</event>
<event>
 7    1  0.3891761E-009  0.9032422E+02  0.7818608E-02  0.1302068E+00
          2   -1    0    0  501    0  0.00000000000E+00  0.00000000000E+00  0.18135563669E+04  0.18135563669E+04  0.25500000000E-02 0. -1.
         -2   -1    0    0    0  501 -0.00000000000E+00 -0.00000000000E+00 -0.11246486312E+01  0.11246515221E+01  0.25500000000E-02 0.  1.
         23    2    1    2    0    0 -0.35527136788E-14  0.00000000000E+00  0.18124317183E+04  0.18146810185E+04  0.90324222892E+02 0.  0.
    9000005    2    3    3    0    0 -0.20328126731E+02  0.11426479219E+02  0.16817381363E+04  0.16819233085E+04  0.88915458980E+01 0.  0.
         22    1    3    3    0    0  0.20328126731E+02 -0.11426479219E+02  0.13069358201E+03  0.13275770992E+03  0.00000000000E+00 0.  1.
         22    1    4    4    0    0 -0.11810142066E+01 -0.55047915580E+00  0.27345452513E+02  0.27376478864E+02  0.00000000000E+00 0. -1.
         22    1    4    4    0    0 -0.19147112525E+02  0.11976958375E+02  0.16543926838E+04  0.16545468297E+04  0.00000000000E+00 0. -1.
<mgrwt>
<rscale>  0 0.90324223E+02</rscale>
<asrwt>0</asrwt>
<pdfrwt beam="1">  1        2 0.27900693E+00 0.90324223E+02</pdfrwt>
<pdfrwt beam="2">  1       -2 0.17302417E-03 0.90324223E+02</pdfrwt>
<totfact> 0.21855845E+05</totfact>
</mgrwt>
</event>
<event>
 7    1  0.3891761E-009  0.9168361E+02  0.7818608E-02  0.1298825E+00
          2   -1    0    0  501    0  0.00000000000E+00  0.00000000000E+00  0.47704950424E+03  0.47704950425E+03  0.25500000000E-02 0.  1.
         -2   -1    0    0    0  501 -0.00000000000E+00 -0.00000000000E+00 -0.44051424309E+01  0.44051431690E+01  0.25500000000E-02 0. -1.
         23    2    1    2    0    0  0.00000000000E+00  0.00000000000E+00  0.47264436181E+03  0.48145464742E+03  0.91683612322E+02 0.  0.
    9000005    2    3    3    0    0 -0.27749821925E+02 -0.30643314057E+02  0.33193603298E+03  0.33479893115E+03  0.14132550782E+02 0.  0.
         22    1    3    3    0    0  0.27749821925E+02  0.30643314057E+02  0.14070832883E+03  0.14665571627E+03  0.00000000000E+00 0. -1.
         22    1    4    4    0    0 -0.68658331864E+01 -0.34184999288E+00  0.49196651280E+02  0.49674611462E+02  0.00000000000E+00 0. -1.
         22    1    4    4    0    0 -0.20883988739E+02 -0.30301464064E+02  0.28273938170E+03  0.28512431968E+03  0.00000000000E+00 0. -1.
<mgrwt>
<rscale>  0 0.91683612E+02</rscale>
<asrwt>0</asrwt>
<pdfrwt beam="1">  1        2 0.73392228E-01 0.91683612E+02</pdfrwt>
<pdfrwt beam="2">  1       -2 0.67771431E-03 0.91683612E+02</pdfrwt>
<totfact> 0.20909409E+05</totfact>
</mgrwt>
</event>
<event>
 7    1  0.3891761E-009  0.9044967E+02  0.7818608E-02  0.1301766E+00
          2   -1    0    0  501    0  0.00000000000E+00  0.00000000000E+00  0.30960291415E+01  0.30960301917E+01  0.25500000000E-02 0. -1.
         -2   -1    0    0    0  501 -0.00000000000E+00 -0.00000000000E+00 -0.66061564879E+03  0.66061564879E+03  0.25500000000E-02 0.  1.
         23    2    1    2    0    0 -0.35527136788E-14  0.00000000000E+00 -0.65751961965E+03  0.66371167898E+03  0.90449668880E+02 0.  0.
    9000005    2    3    3    0    0 -0.26583944639E+02  0.42239609447E+01 -0.59325695750E+03  0.59403931930E+03  0.14295009149E+02 0.  0.
         22    1    3    3    0    0  0.26583944639E+02 -0.42239609447E+01 -0.64262662143E+02  0.69672359687E+02  0.00000000000E+00 0. -1.
         22    1    4    4    0    0 -0.25985992611E+02  0.75779951009E+01 -0.52928262196E+03  0.52997433120E+03  0.00000000000E+00 0. -1.
         22    1    4    4    0    0 -0.59795202839E+00 -0.33540341562E+01 -0.63974335541E+02  0.64064988095E+02  0.00000000000E+00 0. -1.
<mgrwt>
<rscale>  0 0.90449669E+02</rscale>
<asrwt>0</asrwt>
<pdfrwt beam="1">  1        2 0.47631278E-03 0.90449669E+02</pdfrwt>
<pdfrwt beam="2">  1       -2 0.10163307E+00 0.90449669E+02</pdfrwt>
<totfact> 0.29297190E+04</totfact>
</mgrwt>
</event>
<event>
 7    1  0.3891761E-009  0.9327997E+02  0.7818608E-02  0.1295098E+00
         -2   -1    0    0    0  501 -0.00000000000E+00  0.00000000000E+00  0.46289817898E+02  0.46289817968E+02  0.25500000000E-02 0. -1.
          2   -1    0    0  501    0  0.00000000000E+00 -0.00000000000E+00 -0.46992800048E+02  0.46992800117E+02  0.25500000000E-02 0.  1.
         23    2    1    2    0    0  0.00000000000E+00  0.00000000000E+00 -0.70298215073E+00  0.93282618085E+02  0.93279969195E+02 0.  0.
    9000005    2    3    3    0    0  0.62614898645E+01 -0.37582892766E+02  0.25402669090E+02  0.47096201135E+02  0.11003475837E+02 0.  0.
         22    1    3    3    0    0 -0.62614898645E+01  0.37582892766E+02 -0.26105651241E+02  0.46186416950E+02  0.00000000000E+00 0.  1.
         22    1    4    4    0    0 -0.31954822821E+01 -0.95075356627E+01  0.66556651177E+01  0.12037533782E+02  0.00000000000E+00 0. -1.
         22    1    4    4    0    0  0.94569721466E+01 -0.28075357103E+02  0.18747003973E+02  0.35058667353E+02  0.00000000000E+00 0. -1.
<mgrwt>
<rscale>  0 0.93279969E+02</rscale>
<asrwt>0</asrwt>
<pdfrwt beam="2">  1        2 0.72296616E-02 0.93279969E+02</pdfrwt>
<pdfrwt beam="1">  1       -2 0.71215104E-02 0.93279969E+02</pdfrwt>
<totfact> 0.93148057E+04</totfact>
</mgrwt>
</event>
<event>
 7    1  0.3891761E-009  0.9151633E+02  0.7818608E-02  0.1299221E+00
          2   -1    0    0  501    0  0.00000000000E+00  0.00000000000E+00  0.15761589445E+02  0.15761589652E+02  0.25500000000E-02 0. -1.
         -2   -1    0    0    0  501 -0.00000000000E+00 -0.00000000000E+00 -0.13284255393E+03  0.13284255396E+03  0.25500000000E-02 0.  1.
         23    2    1    2    0    0  0.00000000000E+00  0.00000000000E+00 -0.11708096449E+03  0.14860414361E+03  0.91516333254E+02 0.  0.
    9000005    2    3    3    0    0 -0.85060566040E+01  0.16323343137E+02 -0.12633773012E+03  0.12800093415E+03  0.91767402657E+01 0.  0.
         22    1    3    3    0    0  0.85060566040E+01 -0.16323343137E+02  0.92567656296E+01  0.20603209459E+02  0.00000000000E+00 0. -1.
         22    1    4    4    0    0 -0.48498369641E+01  0.33451421170E+01 -0.21245461406E+02  0.22047233947E+02  0.00000000000E+00 0. -1.
         22    1    4    4    0    0 -0.36562196399E+01  0.12978201020E+02 -0.10509226871E+03  0.10595370020E+03  0.00000000000E+00 0. -1.
<mgrwt>
<rscale>  0 0.91516333E+02</rscale>
<asrwt>0</asrwt>
<pdfrwt beam="1">  1        2 0.24248600E-02 0.91516333E+02</pdfrwt>
<pdfrwt beam="2">  1       -2 0.20437315E-01 0.91516333E+02</pdfrwt>
<totfact> 0.72230571E+04</totfact>
</mgrwt>
</event>
<event>
 7    1  0.3891761E-009  0.9251110E+02  0.7818608E-02  0.1296882E+00
         -2   -1    0    0    0  501 -0.00000000000E+00  0.00000000000E+00  0.14282379168E+01  0.14282401932E+01  0.25500000000E-02 0.  1.
          2   -1    0    0  501    0  0.00000000000E+00 -0.00000000000E+00 -0.14980518078E+04  0.14980518078E+04  0.25500000000E-02 0. -1.
         23    2    1    2    0    0  0.00000000000E+00  0.11102230246E-15 -0.14966235699E+04  0.14994800480E+04  0.92511104234E+02 0.  0.
    9000005    2    3    3    0    0  0.13693401719E+02 -0.78738384725E+00 -0.14643215764E+04  0.14643866297E+04  0.15469156565E+01 0.  0.
         22    1    3    3    0    0 -0.13693401719E+02  0.78738384725E+00 -0.32301993519E+02  0.35093418318E+02  0.00000000000E+00 0.  1.
         22    1    4    4    0    0  0.46438785576E+01 -0.70844451870E+00 -0.43997927752E+03  0.44000435469E+03  0.00000000000E+00 0.  1.
         22    1    4    4    0    0  0.90495231609E+01 -0.78939328544E-01 -0.10243422989E+04  0.10243822750E+04  0.00000000000E+00 0.  1.
<mgrwt>
<rscale>  0 0.92511104E+02</rscale>
<asrwt>0</asrwt>
<pdfrwt beam="2">  1        2 0.23046825E+00 0.92511104E+02</pdfrwt>
<pdfrwt beam="1">  1       -2 0.21973028E-03 0.92511104E+02</pdfrwt>
<totfact> 0.22721135E+05</totfact>
</mgrwt>
</event>
<event>
 7    1  0.3891761E-009  0.9319004E+02  0.7818608E-02  0.1295305E+00
          2   -1    0    0  501    0  0.00000000000E+00  0.00000000000E+00  0.31737392376E+03  0.31737392377E+03  0.25500000000E-02 0. -1.
         -2   -1    0    0    0  501 -0.00000000000E+00 -0.00000000000E+00 -0.68408140628E+01  0.68408145381E+01  0.25500000000E-02 0.  1.
         23    2    1    2    0    0  0.00000000000E+00  0.00000000000E+00  0.31053310970E+03  0.32421473831E+03  0.93190044093E+02 0.  0.
    9000005    2    3    3    0    0  0.19216746449E+02 -0.37829554648E+02  0.21905911335E+03  0.22337897800E+03  0.10531577386E+02 0.  0.
         22    1    3    3    0    0 -0.19216746449E+02  0.37829554648E+02  0.91473996350E+02  0.10083576031E+03  0.00000000000E+00 0.  1.
         22    1    4    4    0    0  0.15986492539E+02 -0.20092125718E+02  0.13134810942E+03  0.13383417840E+03  0.00000000000E+00 0. -1.
         22    1    4    4    0    0  0.32302539104E+01 -0.17737428931E+02  0.87711003931E+02  0.89544799603E+02  0.00000000000E+00 0. -1.
<mgrwt>
<rscale>  0 0.93190044E+02</rscale>
<asrwt>0</asrwt>
<pdfrwt beam="1">  1        2 0.48826748E-01 0.93190044E+02</pdfrwt>
<pdfrwt beam="2">  1       -2 0.10524332E-02 0.93190044E+02</pdfrwt>
<totfact> 0.17306614E+05</totfact>
</mgrwt>
</event>
<event>
 7    1  0.3891761E-009  0.9061251E+02  0.7818608E-02  0.1301375E+00
         -2   -1    0    0    0  501 -0.00000000000E+00  0.00000000000E+00  0.59139223562E+01  0.59139229060E+01  0.25500000000E-02 0.  1.
          2   -1    0    0  501    0  0.00000000000E+00 -0.00000000000E+00 -0.34708886029E+03  0.34708886030E+03  0.25500000000E-02 0. -1.
         23    2    1    2    0    0 -0.11102230246E-15  0.00000000000E+00 -0.34117493793E+03  0.35300278320E+03  0.90612508389E+02 0.  0.
    9000005    2    3    3    0    0  0.35856225627E+00 -0.36209594276E+02 -0.27440987575E+03  0.27704992406E+03  0.12025690247E+02 0.  0.
         22    1    3    3    0    0 -0.35856225627E+00  0.36209594276E+02 -0.66765062181E+02  0.75952859147E+02  0.00000000000E+00 0.  1.
         22    1    4    4    0    0 -0.35105172676E+01 -0.10396039244E+02 -0.11440479027E+03  0.11492979336E+03  0.00000000000E+00 0.  1.
         22    1    4    4    0    0  0.38690795239E+01 -0.25813555032E+02 -0.16000508548E+03  0.16212013070E+03  0.00000000000E+00 0.  1.
<mgrwt>
<rscale>  0 0.90612508E+02</rscale>
<asrwt>0</asrwt>
<pdfrwt beam="2">  1        2 0.53398270E-01 0.90612508E+02</pdfrwt>
<pdfrwt beam="1">  1       -2 0.90983452E-03 0.90612508E+02</pdfrwt>
<totfact> 0.19277248E+05</totfact>
</mgrwt>
</event>
<event>
 7    1  0.3891761E-009  0.9119188E+02  0.7818608E-02  0.1299991E+00
          2   -1    0    0  501    0  0.00000000000E+00  0.00000000000E+00  0.12877121588E+02  0.12877121840E+02  0.25500000000E-02 0. -1.
         -2   -1    0    0    0  501 -0.00000000000E+00 -0.00000000000E+00 -0.16144834223E+03  0.16144834225E+03  0.25500000000E-02 0.  1.
         23    2    1    2    0    0  0.00000000000E+00  0.00000000000E+00 -0.14857122064E+03  0.17432546409E+03  0.91191884654E+02 0.  0.
    9000005    2    3    3    0    0  0.41333073119E+02  0.14695707773E+02 -0.66322871690E+02  0.81109705412E+02  0.15989816834E+02 0.  0.
         22    1    3    3    0    0 -0.41333073119E+02 -0.14695707773E+02 -0.82248348948E+02  0.93215758674E+02  0.00000000000E+00 0. -1.
         22    1    4    4    0    0  0.24118115325E+02  0.15450048145E+02 -0.33798532647E+02  0.44302689350E+02  0.00000000000E+00 0. -1.
         22    1    4    4    0    0  0.17214957795E+02 -0.75434037190E+00 -0.32524339042E+02  0.36807016062E+02  0.00000000000E+00 0. -1.
<mgrwt>
<rscale>  0 0.91191885E+02</rscale>
<asrwt>0</asrwt>
<pdfrwt beam="1">  1        2 0.19810958E-02 0.91191885E+02</pdfrwt>
<pdfrwt beam="2">  1       -2 0.24838205E-01 0.91191885E+02</pdfrwt>
<totfact> 0.67944079E+04</totfact>
</mgrwt>
</event>
<event>
 7    1  0.3891761E-009  0.9188330E+02  0.7818608E-02  0.1298354E+00
          2   -1    0    0  501    0  0.00000000000E+00  0.00000000000E+00  0.31585630559E+02  0.31585630661E+02  0.25500000000E-02 0. -1.
         -2   -1    0    0    0  501 -0.00000000000E+00 -0.00000000000E+00 -0.66822639992E+02  0.66822640041E+02  0.25500000000E-02 0.  1.
         23    2    1    2    0    0  0.00000000000E+00  0.00000000000E+00 -0.35237009433E+02  0.98408270702E+02  0.91883300489E+02 0.  0.
    9000005    2    3    3    0    0  0.28180131135E+02  0.19292839030E+02 -0.49781239348E+02  0.61288625601E+02  0.10573098340E+02 0.  0.
         22    1    3    3    0    0 -0.28180131135E+02 -0.19292839030E+02  0.14544229914E+02  0.37119645101E+02  0.00000000000E+00 0. -1.
         22    1    4    4    0    0  0.11137595473E+02  0.12817225319E+02 -0.29332185203E+02  0.33892541754E+02  0.00000000000E+00 0.  1.
         22    1    4    4    0    0  0.17042535662E+02  0.64756137106E+01 -0.20449054145E+02  0.27396083847E+02  0.00000000000E+00 0.  1.
<mgrwt>
<rscale>  0 0.91883300E+02</rscale>
<asrwt>0</asrwt>
<pdfrwt beam="1">  1        2 0.48593278E-02 0.91883300E+02</pdfrwt>
<pdfrwt beam="2">  1       -2 0.10280406E-01 0.91883300E+02</pdfrwt>
<totfact> 0.87659969E+04</totfact>
</mgrwt>
</event>
<event>
 7    1  0.3891761E-009  0.9191051E+02  0.7818608E-02  0.1298290E+00
          2   -1    0    0  501    0  0.00000000000E+00  0.00000000000E+00  0.13327858355E+03  0.13327858358E+03  0.25500000000E-02 0. -1.
         -2   -1    0    0    0  501 -0.00000000000E+00 -0.00000000000E+00 -0.15845645827E+02  0.15845646032E+02  0.25500000000E-02 0.  1.
         23    2    1    2    0    0  0.00000000000E+00 -0.88817841970E-15  0.11743293772E+03  0.14912422961E+03  0.91910505350E+02 0.  0.
    9000005    2    3    3    0    0 -0.91601870857E+01 -0.63042055770E+01  0.13081911433E+03  0.13172188036E+03  0.10647114878E+02 0.  0.
         22    1    3    3    0    0  0.91601870857E+01  0.63042055770E+01 -0.13386176605E+02  0.17402349252E+02  0.00000000000E+00 0.  1.
         22    1    4    4    0    0 -0.34925028836E+01  0.17859920650E+01  0.69645480363E+02  0.69755861969E+02  0.00000000000E+00 0. -1.
         22    1    4    4    0    0 -0.56676842021E+01 -0.80901976420E+01  0.61173633967E+02  0.61966018388E+02  0.00000000000E+00 0. -1.
<mgrwt>
<rscale>  0 0.91910505E+02</rscale>
<asrwt>0</asrwt>
<pdfrwt beam="1">  1        2 0.20504398E-01 0.91910505E+02</pdfrwt>
<pdfrwt beam="2">  1       -2 0.24377916E-02 0.91910505E+02</pdfrwt>
<totfact> 0.13147167E+05</totfact>
</mgrwt>
</event>
<event>
 7    1  0.3891761E-009  0.1029295E+03  0.7818608E-02  0.1274254E+00
         -2   -1    0    0    0  501 -0.00000000000E+00  0.00000000000E+00  0.14378061412E+02  0.14378061638E+02  0.25500000000E-02 0.  1.
          2   -1    0    0  501    0  0.00000000000E+00 -0.00000000000E+00 -0.18421250598E+03  0.18421250599E+03  0.25500000000E-02 0. -1.
         23    2    1    2    0    0 -0.71054273576E-14 -0.17763568394E-14 -0.16983444456E+03  0.19859056763E+03  0.10292946610E+03 0.  0.
    9000005    2    3    3    0    0  0.48922528336E+02  0.75861806605E+01 -0.10564131913E+03  0.11752441398E+03  0.14175177478E+02 0.  0.
         22    1    3    3    0    0 -0.48922528336E+02 -0.75861806605E+01 -0.64193125429E+02  0.81066153653E+02  0.00000000000E+00 0.  1.
         22    1    4    4    0    0  0.10380107634E+02  0.76712812677E+01 -0.24375404354E+02  0.27581797044E+02  0.00000000000E+00 0.  1.
         22    1    4    4    0    0  0.38542420702E+02 -0.85100607260E-01 -0.81265914781E+02  0.89942616933E+02  0.00000000000E+00 0.  1.
<mgrwt>
<rscale>  0 0.10292947E+03</rscale>
<asrwt>0</asrwt>
<pdfrwt beam="2">  1        2 0.28340384E-01 0.10292947E+03</pdfrwt>
<pdfrwt beam="1">  1       -2 0.22120096E-02 0.10292947E+03</pdfrwt>
<totfact> 0.10799156E+05</totfact>
</mgrwt>
</event>
<event>
 7    1  0.3891761E-009  0.9049926E+02  0.7818608E-02  0.1301647E+00
         -2   -1    0    0    0  501 -0.00000000000E+00  0.00000000000E+00  0.60233396276E+02  0.60233396330E+02  0.25500000000E-02 0.  1.
          2   -1    0    0  501    0  0.00000000000E+00 -0.00000000000E+00 -0.33993250707E+02  0.33993250803E+02  0.25500000000E-02 0. -1.
         23    2    1    2    0    0  0.00000000000E+00  0.00000000000E+00  0.26240145569E+02  0.94226647134E+02  0.90499258508E+02 0.  0.
    9000005    2    3    3    0    0 -0.32096333075E+02 -0.30960757868E+02  0.11113060482E+02  0.47135545767E+02  0.10465010123E+02 0.  0.
         22    1    3    3    0    0  0.32096333075E+02  0.30960757868E+02  0.15127085087E+02  0.47091101366E+02  0.00000000000E+00 0. -1.
         22    1    4    4    0    0 -0.84439350338E+01 -0.12871591292E+02  0.12049875855E+00  0.15394558169E+02  0.00000000000E+00 0.  1.
         22    1    4    4    0    0 -0.23652398042E+02 -0.18089166575E+02  0.10992561723E+02  0.31740987599E+02  0.00000000000E+00 0.  1.
<mgrwt>
<rscale>  0 0.90499259E+02</rscale>
<asrwt>0</asrwt>
<pdfrwt beam="2">  1        2 0.52297310E-02 0.90499259E+02</pdfrwt>
<pdfrwt beam="1">  1       -2 0.92666762E-02 0.90499259E+02</pdfrwt>
<totfact> 0.93458007E+04</totfact>
</mgrwt>
</event>
<event>
 7    1  0.3891761E-009  0.9078759E+02  0.7818608E-02  0.1300956E+00
         -2   -1    0    0    0  501 -0.00000000000E+00  0.00000000000E+00  0.12258141352E+02  0.12258141617E+02  0.25500000000E-02 0.  1.
          2   -1    0    0  501    0  0.00000000000E+00 -0.00000000000E+00 -0.16810026127E+03  0.16810026128E+03  0.25500000000E-02 0. -1.
         23    2    1    2    0    0  0.00000000000E+00  0.00000000000E+00 -0.15584211991E+03  0.18035840290E+03  0.90787593637E+02 0.  0.
    9000005    2    3    3    0    0 -0.37832105131E+02  0.46082268592E+01 -0.31771447218E+02  0.50566123638E+02  0.97470030296E+01 0.  0.
         22    1    3    3    0    0  0.37832105131E+02 -0.46082268592E+01 -0.12407067269E+03  0.12979227926E+03  0.00000000000E+00 0. -1.
         22    1    4    4    0    0 -0.29639364371E+02  0.71277952929E+01 -0.27183331063E+02  0.40843982100E+02  0.00000000000E+00 0. -1.
         22    1    4    4    0    0 -0.81927407595E+01 -0.25195684337E+01 -0.45881161546E+01  0.97221415384E+01  0.00000000000E+00 0. -1.
<mgrwt>
<rscale>  0 0.90787594E+02</rscale>
<asrwt>0</asrwt>
<pdfrwt beam="2">  1        2 0.25861577E-01 0.90787594E+02</pdfrwt>
<pdfrwt beam="1">  1       -2 0.18858680E-02 0.90787594E+02</pdfrwt>
<totfact> 0.14709827E+05</totfact>
</mgrwt>
</event>
<event>
 7    1  0.3891761E-009  0.8761725E+02  0.7818608E-02  0.1308727E+00
         -2   -1    0    0    0  501 -0.00000000000E+00  0.00000000000E+00  0.10319611148E+02  0.10319611463E+02  0.25500000000E-02 0.  1.
          2   -1    0    0  501    0  0.00000000000E+00 -0.00000000000E+00 -0.18597559349E+03  0.18597559350E+03  0.25500000000E-02 0. -1.
         23    2    1    2    0    0  0.00000000000E+00  0.00000000000E+00 -0.17565598234E+03  0.19629520497E+03  0.87617254930E+02 0.  0.
    9000005    2    3    3    0    0 -0.21526609204E+02 -0.75234938692E+01 -0.17134373081E+03  0.17308759033E+03  0.89800877105E+01 0.  0.
         22    1    3    3    0    0  0.21526609204E+02  0.75234938692E+01 -0.43122515302E+01  0.23207614636E+02  0.00000000000E+00 0.  1.
         22    1    4    4    0    0 -0.51549633103E+01 -0.34704111926E+01 -0.76821345515E+02  0.77072281187E+02  0.00000000000E+00 0. -1.
         22    1    4    4    0    0 -0.16371645894E+02 -0.40530826766E+01 -0.94522385292E+02  0.96015309143E+02  0.00000000000E+00 0. -1.
<mgrwt>
<rscale>  0 0.87617255E+02</rscale>
<asrwt>0</asrwt>
<pdfrwt beam="2">  1        2 0.28611627E-01 0.87617255E+02</pdfrwt>
<pdfrwt beam="1">  1       -2 0.15876326E-02 0.87617255E+02</pdfrwt>
<totfact> 0.16772171E+05</totfact>
</mgrwt>
</event>
<event>
 7    1  0.3891761E-009  0.9353027E+02  0.7818608E-02  0.1294521E+00
          2   -1    0    0  501    0  0.00000000000E+00  0.00000000000E+00  0.11210700290E+03  0.11210700293E+03  0.25500000000E-02 0. -1.
         -2   -1    0    0    0  501 -0.00000000000E+00 -0.00000000000E+00 -0.19507951704E+02  0.19507951871E+02  0.25500000000E-02 0.  1.
         23    2    1    2    0    0  0.00000000000E+00 -0.71054273576E-14  0.92599051197E+02  0.13161495480E+03  0.93530273412E+02 0.  0.
    9000005    2    3    3    0    0 -0.93053326871E+01  0.40272557511E+02  0.76975416334E+02  0.87427104986E+02  0.31330275537E+01 0.  0.
         22    1    3    3    0    0  0.93053326871E+01 -0.40272557511E+02  0.15623634864E+02  0.44187849815E+02  0.00000000000E+00 0.  1.
         22    1    4    4    0    0 -0.80477162369E+01  0.29430128478E+02  0.55294508030E+02  0.63153628693E+02  0.00000000000E+00 0. -1.
         22    1    4    4    0    0 -0.12576164501E+01  0.10842429033E+02  0.21680908304E+02  0.24273476293E+02  0.00000000000E+00 0. -1.
<mgrwt>
<rscale>  0 0.93530273E+02</rscale>
<asrwt>0</asrwt>
<pdfrwt beam="1">  1        2 0.17247232E-01 0.93530273E+02</pdfrwt>
<pdfrwt beam="2">  1       -2 0.30012233E-02 0.93530273E+02</pdfrwt>
<totfact> 0.11849514E+05</totfact>
</mgrwt>
</event>
<event>
 7    1  0.3891761E-009  0.9127955E+02  0.7818608E-02  0.1299782E+00
         -2   -1    0    0    0  501 -0.00000000000E+00  0.00000000000E+00  0.18569482215E+03  0.18569482217E+03  0.25500000000E-02 0.  1.
          2   -1    0    0  501    0  0.00000000000E+00 -0.00000000000E+00 -0.11217271516E+02  0.11217271806E+02  0.25500000000E-02 0. -1.
         23    2    1    2    0    0  0.00000000000E+00  0.00000000000E+00  0.17447755064E+03  0.19691209398E+03  0.91279554545E+02 0.  0.
    9000005    2    3    3    0    0  0.37200273993E+02 -0.20752824815E+02  0.59808654792E+02  0.74586725400E+02  0.13098255419E+02 0.  0.
         22    1    3    3    0    0 -0.37200273993E+02  0.20752824815E+02  0.11466889584E+03  0.12232536858E+03  0.00000000000E+00 0.  1.
         22    1    4    4    0    0  0.94622983747E+01  0.48075051360E-01  0.17426756295E+02  0.19830008489E+02  0.00000000000E+00 0. -1.
         22    1    4    4    0    0  0.27737975618E+02 -0.20800899867E+02  0.42381898497E+02  0.54756716911E+02  0.00000000000E+00 0. -1.
<mgrwt>
<rscale>  0 0.91279555E+02</rscale>
<asrwt>0</asrwt>
<pdfrwt beam="2">  1        2 0.17257343E-02 0.91279555E+02</pdfrwt>
<pdfrwt beam="1">  1       -2 0.28568431E-01 0.91279555E+02</pdfrwt>
<totfact> 0.64123162E+04</totfact>
</mgrwt>
</event>
<event>
 7    1  0.3891761E-009  0.9144893E+02  0.7818608E-02  0.1299380E+00
          2   -1    0    0  501    0  0.00000000000E+00  0.00000000000E+00  0.19187390587E+03  0.19187390588E+03  0.25500000000E-02 0. -1.
         -2   -1    0    0    0  501 -0.00000000000E+00 -0.00000000000E+00 -0.10896357464E+02  0.10896357762E+02  0.25500000000E-02 0.  1.
         23    2    1    2    0    0  0.71054273576E-14  0.00000000000E+00  0.18097754840E+03  0.20277026364E+03  0.91448929972E+02 0.  0.
    9000005    2    3    3    0    0 -0.45172979201E+02 -0.37428138383E+01  0.81718068925E+02  0.93650829210E+02  0.61667104398E+01 0.  0.
         22    1    3    3    0    0  0.45172979201E+02  0.37428138383E+01  0.99259479477E+02  0.10911943443E+03  0.00000000000E+00 0. -1.
         22    1    4    4    0    0 -0.43295022367E+02 -0.45037707649E+01  0.75978956285E+02  0.87564517420E+02  0.00000000000E+00 0.  1.
         22    1    4    4    0    0 -0.18779568341E+01  0.76095692667E+00  0.57391126397E+01  0.60863117900E+01  0.00000000000E+00 0.  1.
<mgrwt>
<rscale>  0 0.91448930E+02</rscale>
<asrwt>0</asrwt>
<pdfrwt beam="1">  1        2 0.29519063E-01 0.91448930E+02</pdfrwt>
<pdfrwt beam="2">  1       -2 0.16763627E-02 0.91448930E+02</pdfrwt>
<totfact> 0.15116419E+05</totfact>
</mgrwt>
</event>
<event>
 7    1  0.3891761E-009  0.9185998E+02  0.7818608E-02  0.1298409E+00
          2   -1    0    0  501    0  0.00000000000E+00  0.00000000000E+00  0.98316444676E+02  0.98316444709E+02  0.25500000000E-02 0. -1.
         -2   -1    0    0    0  501 -0.00000000000E+00 -0.00000000000E+00 -0.21456876541E+02  0.21456876693E+02  0.25500000000E-02 0.  1.
         23    2    1    2    0    0 -0.71054273576E-14  0.35527136788E-14  0.76859568134E+02  0.11977332140E+03  0.91859976627E+02 0.  0.
    9000005    2    3    3    0    0 -0.40080355686E+02  0.18203284680E+02  0.25724782540E+02  0.52300654470E+02  0.11653305807E+02 0.  0.
         22    1    3    3    0    0  0.40080355686E+02 -0.18203284680E+02  0.51134785594E+02  0.67472666931E+02  0.00000000000E+00 0. -1.
         22    1    4    4    0    0  0.72305331029E+00 -0.20617072024E+00  0.23377436669E+00  0.78737723483E+00  0.00000000000E+00 0. -1.
         22    1    4    4    0    0 -0.40803408996E+02  0.18409455400E+02  0.25491008173E+02  0.51513277236E+02  0.00000000000E+00 0. -1.
<mgrwt>
<rscale>  0 0.91859977E+02</rscale>
<asrwt>0</asrwt>
<pdfrwt beam="1">  1        2 0.15125607E-01 0.91859977E+02</pdfrwt>
<pdfrwt beam="2">  1       -2 0.33010580E-02 0.91859977E+02</pdfrwt>
<totfact> 0.11955736E+05</totfact>
</mgrwt>
</event>
<event>
 7    1  0.3891761E-009  0.9206747E+02  0.7818608E-02  0.1297921E+00
         -2   -1    0    0    0  501 -0.00000000000E+00  0.00000000000E+00  0.31101174156E+01  0.31101184610E+01  0.25500000000E-02 0.  1.
          2   -1    0    0  501    0  0.00000000000E+00 -0.00000000000E+00 -0.68135834104E+03  0.68135834104E+03  0.25500000000E-02 0. -1.
         23    2    1    2    0    0  0.00000000000E+00  0.00000000000E+00 -0.67824822362E+03  0.68446845950E+03  0.92067470958E+02 0.  0.
    9000005    2    3    3    0    0 -0.52618653710E+01  0.14438034204E+02 -0.66105319089E+03  0.66140738387E+03  0.15240150523E+02 0.  0.
         22    1    3    3    0    0  0.52618653710E+01 -0.14438034204E+02 -0.17195032728E+02  0.23061075634E+02  0.00000000000E+00 0.  1.
         22    1    4    4    0    0 -0.10029129308E+02  0.12105817125E+02 -0.55366055249E+03  0.55388368962E+03  0.00000000000E+00 0. -1.
         22    1    4    4    0    0  0.47672639367E+01  0.23322170788E+01 -0.10739263840E+03  0.10752369425E+03  0.00000000000E+00 0. -1.
<mgrwt>
<rscale>  0 0.92067471E+02</rscale>
<asrwt>0</asrwt>
<pdfrwt beam="2">  1        2 0.10482424E+00 0.92067471E+02</pdfrwt>
<pdfrwt beam="1">  1       -2 0.47848023E-03 0.92067471E+02</pdfrwt>
<totfact> 0.22965456E+05</totfact>
</mgrwt>
</event>
<event>
 7    1  0.4096610E-009  0.9194418E+02  0.7818608E-02  0.1298211E+00
          2   -1    0    0  501    0  0.00000000000E+00  0.00000000000E+00  0.22543491072E+03  0.22543491073E+03  0.25500000000E-02 0. -1.
         -2   -1    0    0    0  501 -0.00000000000E+00 -0.00000000000E+00 -0.93749143057E+01  0.93749146525E+01  0.25500000000E-02 0.  1.
         23    2    1    2    0    0  0.00000000000E+00  0.00000000000E+00  0.21605999641E+03  0.23480982538E+03  0.91944178976E+02 0.  0.
    9000005    2    3    3    0    0 -0.87523323046E+01  0.38922596408E+02  0.59785582722E+02  0.73523545106E+02  0.15486250407E+02 0.  0.
         22    1    3    3    0    0  0.87523323046E+01 -0.38922596408E+02  0.15627441369E+03  0.16128628028E+03  0.00000000000E+00 0. -1.
         22    1    4    4    0    0 -0.83852729026E+00 -0.96062367353E+00  0.57997501423E+01  0.59382680616E+01  0.00000000000E+00 0.  1.
         22    1    4    4    0    0 -0.79138050143E+01  0.39883220081E+02  0.53985832580E+02  0.67585277045E+02  0.00000000000E+00 0.  1.
<mgrwt>
<rscale>  0 0.91944179E+02</rscale>
<asrwt>0</asrwt>
<pdfrwt beam="1">  1        2 0.34682296E-01 0.91944179E+02</pdfrwt>
<pdfrwt beam="2">  1       -2 0.14422945E-02 0.91944179E+02</pdfrwt>
<totfact> 0.15798052E+05</totfact>
</mgrwt>
</event>
<event>
 7    1  0.3891761E-009  0.9031865E+02  0.7818608E-02  0.1302082E+00
          2   -1    0    0  501    0  0.00000000000E+00  0.00000000000E+00  0.84897502008E+01  0.84897505838E+01  0.25500000000E-02 0. -1.
         -2   -1    0    0    0  501 -0.00000000000E+00 -0.00000000000E+00 -0.24021492605E+03  0.24021492607E+03  0.25500000000E-02 0.  1.
         23    2    1    2    0    0  0.00000000000E+00 -0.17763568394E-14 -0.23172517585E+03  0.24870467665E+03  0.90318652913E+02 0.  0.
    9000005    2    3    3    0    0 -0.30290195185E+02 -0.13505064805E+02 -0.39854854130E+02  0.53989235410E+02  0.15051426600E+02 0.  0.
         22    1    3    3    0    0  0.30290195185E+02  0.13505064805E+02 -0.19187032172E+03  0.19471544124E+03  0.00000000000E+00 0.  1.
         22    1    4    4    0    0 -0.14171330974E+02 -0.14430734597E+02 -0.23550613402E+02  0.31043584107E+02  0.00000000000E+00 0.  1.
         22    1    4    4    0    0 -0.16118864210E+02  0.92566979159E+00 -0.16304240728E+02  0.22945651303E+02  0.00000000000E+00 0.  1.
<mgrwt>
<rscale>  0 0.90318653E+02</rscale>
<asrwt>0</asrwt>
<pdfrwt beam="1">  1        2 0.13061156E-02 0.90318653E+02</pdfrwt>
<pdfrwt beam="2">  1       -2 0.36956137E-01 0.90318653E+02</pdfrwt>
<totfact> 0.58698370E+04</totfact>
</mgrwt>
</event>
<event>
 7    1  0.3891761E-009  0.9037717E+02  0.7818608E-02  0.1301941E+00
          2   -1    0    0  501    0  0.00000000000E+00  0.00000000000E+00  0.38374359245E+02  0.38374359330E+02  0.25500000000E-02 0. -1.
         -2   -1    0    0    0  501 -0.00000000000E+00 -0.00000000000E+00 -0.53212827146E+02  0.53212827207E+02  0.25500000000E-02 0.  1.
         23    2    1    2    0    0  0.00000000000E+00  0.00000000000E+00 -0.14838467901E+02  0.91587186536E+02  0.90377168621E+02 0.  0.
    9000005    2    3    3    0    0 -0.26914549848E+02  0.23079224614E+02  0.18989845247E+02  0.42583121677E+02  0.13988010114E+02 0.  0.
         22    1    3    3    0    0  0.26914549848E+02 -0.23079224614E+02 -0.33828313148E+02  0.49004064859E+02  0.00000000000E+00 0.  1.
         22    1    4    4    0    0 -0.13569776039E+02  0.20372420325E+02  0.11540820239E+02  0.27062240548E+02  0.00000000000E+00 0.  1.
         22    1    4    4    0    0 -0.13344773808E+02  0.27068042887E+01  0.74490250080E+01  0.15520881129E+02  0.00000000000E+00 0.  1.
<mgrwt>
<rscale>  0 0.90377169E+02</rscale>
<asrwt>0</asrwt>
<pdfrwt beam="1">  1        2 0.59037476E-02 0.90377169E+02</pdfrwt>
<pdfrwt beam="2">  1       -2 0.81865888E-02 0.90377169E+02</pdfrwt>
<totfact> 0.96811852E+04</totfact>
</mgrwt>
</event>
<event>
 7    1  0.3891761E-009  0.9120634E+02  0.7818608E-02  0.1299956E+00
          2   -1    0    0  501    0  0.00000000000E+00  0.00000000000E+00  0.50306273138E+02  0.50306273202E+02  0.25500000000E-02 0. -1.
         -2   -1    0    0    0  501 -0.00000000000E+00 -0.00000000000E+00 -0.41339754942E+02  0.41339755021E+02  0.25500000000E-02 0.  1.
         23    2    1    2    0    0  0.00000000000E+00  0.35527136788E-14  0.89665181958E+01  0.91646028223E+02  0.91206337721E+02 0.  0.
    9000005    2    3    3    0    0 -0.21517498375E+02  0.18331934353E+02  0.39940053952E+02  0.49712479952E+02  0.87783939242E+01 0.  0.
         22    1    3    3    0    0  0.21517498375E+02 -0.18331934353E+02 -0.30973535756E+02  0.41933548271E+02  0.00000000000E+00 0.  1.
         22    1    4    4    0    0 -0.18164439985E+02  0.15838749598E+02  0.27380341552E+02  0.36475964309E+02  0.00000000000E+00 0.  1.
         22    1    4    4    0    0 -0.33530583891E+01  0.24931847545E+01  0.12559712400E+02  0.13236515642E+02  0.00000000000E+00 0.  1.
<mgrwt>
<rscale>  0 0.91206338E+02</rscale>
<asrwt>0</asrwt>
<pdfrwt beam="1">  1        2 0.77394266E-02 0.91206338E+02</pdfrwt>
<pdfrwt beam="2">  1       -2 0.63599624E-02 0.91206338E+02</pdfrwt>
<totfact> 0.10114530E+05</totfact>
</mgrwt>
</event>
<event>
 7    1  0.3891761E-009  0.8873977E+02  0.7818608E-02  0.1305933E+00
         -2   -1    0    0    0  501 -0.00000000000E+00  0.00000000000E+00  0.82660779822E+02  0.82660779862E+02  0.25500000000E-02 0.  1.
          2   -1    0    0  501    0  0.00000000000E+00 -0.00000000000E+00 -0.23816451994E+02  0.23816452130E+02  0.25500000000E-02 0. -1.
         23    2    1    2    0    0  0.00000000000E+00  0.00000000000E+00  0.58844327828E+02  0.10647723199E+03  0.88739765692E+02 0.  0.
    9000005    2    3    3    0    0 -0.33059740012E+02 -0.20895947557E+02  0.53386402054E+02  0.66988296988E+02  0.10379642339E+02 0.  0.
         22    1    3    3    0    0  0.33059740012E+02  0.20895947557E+02  0.54579257745E+01  0.39488935004E+02  0.00000000000E+00 0.  1.
         22    1    4    4    0    0 -0.16545327198E+02 -0.46964096354E+01  0.20121438362E+02  0.26470292732E+02  0.00000000000E+00 0.  1.
         22    1    4    4    0    0 -0.16514412815E+02 -0.16199537922E+02  0.33264963692E+02  0.40518004256E+02  0.00000000000E+00 0.  1.
<mgrwt>
<rscale>  0 0.88739766E+02</rscale>
<asrwt>0</asrwt>
<pdfrwt beam="2">  1        2 0.36640695E-02 0.88739766E+02</pdfrwt>
<pdfrwt beam="1">  1       -2 0.12717043E-01 0.88739766E+02</pdfrwt>
<totfact> 0.90122344E+04</totfact>
</mgrwt>
</event>
<event>
 7    1  0.3891761E-009  0.9186439E+02  0.7818608E-02  0.1298399E+00
         -2   -1    0    0    0  501 -0.00000000000E+00  0.00000000000E+00  0.21001851862E+01  0.21001867343E+01  0.25500000000E-02 0.  1.
          2   -1    0    0  501    0  0.00000000000E+00 -0.00000000000E+00 -0.10045617241E+04  0.10045617241E+04  0.25500000000E-02 0. -1.
         23    2    1    2    0    0  0.17763568394E-14  0.35527136788E-14 -0.10024615389E+04  0.10066619108E+04  0.91864387710E+02 0.  0.
    9000005    2    3    3    0    0  0.89881438646E+01  0.23168993974E+02 -0.92379386115E+03  0.92416225910E+03  0.79494801139E+01 0.  0.
         22    1    3    3    0    0 -0.89881438646E+01 -0.23168993974E+02 -0.78667677739E+02  0.82499651713E+02  0.00000000000E+00 0.  1.
         22    1    4    4    0    0  0.87270060030E+01  0.23788763426E+02 -0.88541156877E+03  0.88577407503E+03  0.00000000000E+00 0.  1.
         22    1    4    4    0    0  0.26113786162E+00 -0.61976945143E+00 -0.38382292382E+02  0.38388184063E+02  0.00000000000E+00 0.  1.
<mgrwt>
<rscale>  0 0.91864388E+02</rscale>
<asrwt>0</asrwt>
<pdfrwt beam="2">  1        2 0.15454757E+00 0.91864388E+02</pdfrwt>
<pdfrwt beam="1">  1       -2 0.32310633E-03 0.91864388E+02</pdfrwt>
<totfact> 0.24516187E+05</totfact>
</mgrwt>
</event>
<event>
 7    1  0.3891761E-009  0.9141637E+02  0.7818608E-02  0.1299458E+00
          2   -1    0    0  501    0  0.00000000000E+00  0.00000000000E+00  0.30565840703E+03  0.30565840704E+03  0.25500000000E-02 0. -1.
         -2   -1    0    0    0  501 -0.00000000000E+00 -0.00000000000E+00 -0.68352056130E+01  0.68352060887E+01  0.25500000000E-02 0.  1.
         23    2    1    2    0    0  0.17763568394E-14  0.00000000000E+00  0.29882320142E+03  0.31249361313E+03  0.91416369111E+02 0.  0.
    9000005    2    3    3    0    0  0.86922250237E+01  0.16070494014E+02  0.29219986793E+03  0.29305951680E+03  0.13011610705E+02 0.  0.
         22    1    3    3    0    0 -0.86922250237E+01 -0.16070494014E+02  0.66233334845E+01  0.19434096330E+02  0.00000000000E+00 0.  1.
         22    1    4    4    0    0 -0.31743216568E+01  0.40677774943E+01  0.47844677452E+02  0.48122097753E+02  0.00000000000E+00 0.  1.
         22    1    4    4    0    0  0.11866546681E+02  0.12002716520E+02  0.24435519048E+03  0.24493741904E+03  0.00000000000E+00 0.  1.
<mgrwt>
<rscale>  0 0.91416369E+02</rscale>
<asrwt>0</asrwt>
<pdfrwt beam="1">  1        2 0.47024371E-01 0.91416369E+02</pdfrwt>
<pdfrwt beam="2">  1       -2 0.10515701E-02 0.91416369E+02</pdfrwt>
<totfact> 0.17965130E+05</totfact>
</mgrwt>
</event>
<event>
 7    1  0.3891761E-009  0.8973606E+02  0.7818608E-02  0.1303492E+00
         -2   -1    0    0    0  501 -0.00000000000E+00  0.00000000000E+00  0.33381090958E+02  0.33381091055E+02  0.25500000000E-02 0.  1.
          2   -1    0    0  501    0  0.00000000000E+00 -0.00000000000E+00 -0.60307794266E+02  0.60307794320E+02  0.25500000000E-02 0. -1.
         23    2    1    2    0    0  0.00000000000E+00 -0.22204460493E-15 -0.26926703309E+02  0.93688885375E+02  0.89736056810E+02 0.  0.
    9000005    2    3    3    0    0  0.17112450458E+02  0.33819060219E+00  0.29091415538E+02  0.35114317749E+02  0.96826917445E+01 0.  0.
         22    1    3    3    0    0 -0.17112450458E+02 -0.33819060219E+00 -0.56018118846E+02  0.58574567627E+02  0.00000000000E+00 0. -1.
         22    1    4    4    0    0  0.65271695866E+01 -0.18856937312E+01  0.19529026894E+02  0.20677105095E+02  0.00000000000E+00 0. -1.
         22    1    4    4    0    0  0.10585280871E+02  0.22238843334E+01  0.95623886434E+01  0.14437212654E+02  0.00000000000E+00 0. -1.
<mgrwt>
<rscale>  0 0.89736057E+02</rscale>
<asrwt>0</asrwt>
<pdfrwt beam="2">  1        2 0.92781222E-02 0.89736057E+02</pdfrwt>
<pdfrwt beam="1">  1       -2 0.51355525E-02 0.89736057E+02</pdfrwt>
<totfact> 0.11108357E+05</totfact>
</mgrwt>
</event>
<event>
 7    1  0.3891761E-009  0.9312271E+02  0.7818608E-02  0.1295461E+00
         -2   -1    0    0    0  501 -0.00000000000E+00  0.00000000000E+00  0.86649628171E+01  0.86649631923E+01  0.25500000000E-02 0.  1.
          2   -1    0    0  501    0  0.00000000000E+00 -0.00000000000E+00 -0.25019840255E+03  0.25019840257E+03  0.25500000000E-02 0. -1.
         23    2    1    2    0    0  0.00000000000E+00  0.00000000000E+00 -0.24153343974E+03  0.25886336576E+03  0.93122712703E+02 0.  0.
    9000005    2    3    3    0    0 -0.50521805585E+01  0.45616104705E+02 -0.10615065952E+03  0.11591284734E+03  0.78404161401E+01 0.  0.
         22    1    3    3    0    0  0.50521805585E+01 -0.45616104705E+02 -0.13538278022E+03  0.14295051842E+03  0.00000000000E+00 0. -1.
         22    1    4    4    0    0  0.17782204916E+00  0.10565187927E+02 -0.17522732148E+02  0.20462183621E+02  0.00000000000E+00 0. -1.
         22    1    4    4    0    0 -0.52300026077E+01  0.35050916778E+02 -0.88627927372E+02  0.95450663719E+02  0.00000000000E+00 0. -1.
<mgrwt>
<rscale>  0 0.93122713E+02</rscale>
<asrwt>0</asrwt>
<pdfrwt beam="2">  1        2 0.38492056E-01 0.93122713E+02</pdfrwt>
<pdfrwt beam="1">  1       -2 0.13330714E-02 0.93122713E+02</pdfrwt>
<totfact> 0.15866064E+05</totfact>
</mgrwt>
</event>
<event>
 7    1  0.3891761E-009  0.9610591E+02  0.7818608E-02  0.1288705E+00
         -2   -1    0    0    0  501 -0.00000000000E+00  0.00000000000E+00  0.12763520087E+03  0.12763520090E+03  0.25500000000E-02 0.  1.
          2   -1    0    0  501    0  0.00000000000E+00 -0.00000000000E+00 -0.18091297165E+02  0.18091297344E+02  0.25500000000E-02 0. -1.
         23    2    1    2    0    0  0.00000000000E+00  0.00000000000E+00  0.10954390371E+03  0.14572649824E+03  0.96105907469E+02 0.  0.
    9000005    2    3    3    0    0 -0.20834297565E+02 -0.32768446693E+02  0.96429131236E+02  0.10474069203E+03  0.12813905051E+02 0.  0.
         22    1    3    3    0    0  0.20834297565E+02  0.32768446693E+02  0.13114772472E+02  0.40985806210E+02  0.00000000000E+00 0. -1.
         22    1    4    4    0    0 -0.18256652037E+02 -0.33349375071E+02  0.92468698520E+02  0.99979729782E+02  0.00000000000E+00 0.  1.
         22    1    4    4    0    0 -0.25776455283E+01  0.58092837778E+00  0.39604327158E+01  0.47609622500E+01  0.00000000000E+00 0.  1.
<mgrwt>
<rscale>  0 0.96105907E+02</rscale>
<asrwt>0</asrwt>
<pdfrwt beam="2">  1        2 0.27832766E-02 0.96105907E+02</pdfrwt>
<pdfrwt beam="1">  1       -2 0.19636184E-01 0.96105907E+02</pdfrwt>
<totfact> 0.64726643E+04</totfact>
</mgrwt>
</event>
<event>
 7    1  0.3891761E-009  0.1013585E+03  0.7818608E-02  0.1277465E+00
         -2   -1    0    0    0  501 -0.00000000000E+00  0.00000000000E+00  0.57142085614E+01  0.57142091304E+01  0.25500000000E-02 0.  1.
          2   -1    0    0  501    0  0.00000000000E+00 -0.00000000000E+00 -0.44947354813E+03  0.44947354814E+03  0.25500000000E-02 0. -1.
         23    2    1    2    0    0  0.00000000000E+00 -0.17763568394E-14 -0.44375933957E+03  0.45518775727E+03  0.10135848712E+03 0.  0.
    9000005    2    3    3    0    0  0.15756930830E+02 -0.14146988566E+02 -0.42804340250E+03  0.42881715180E+03  0.14648450492E+02 0.  0.
         22    1    3    3    0    0 -0.15756930830E+02  0.14146988566E+02 -0.15715937069E+02  0.26370605465E+02  0.00000000000E+00 0.  1.
         22    1    4    4    0    0  0.79123311651E+01 -0.61803208716E+01 -0.84890058874E+02  0.85481714105E+02  0.00000000000E+00 0. -1.
         22    1    4    4    0    0  0.78445996644E+01 -0.79666676941E+01 -0.34315334363E+03  0.34333543770E+03  0.00000000000E+00 0. -1.
<mgrwt>
<rscale>  0 0.10135849E+03</rscale>
<asrwt>0</asrwt>
<pdfrwt beam="2">  1        2 0.69149749E-01 0.10135849E+03</pdfrwt>
<pdfrwt beam="1">  1       -2 0.87910941E-03 0.10135849E+03</pdfrwt>
<totfact> 0.15682168E+05</totfact>
</mgrwt>
</event>
<event>
 7    1  0.3891761E-009  0.9465579E+02  0.7818608E-02  0.1291953E+00
          2   -1    0    0  501    0  0.00000000000E+00  0.00000000000E+00  0.25168473556E+02  0.25168473685E+02  0.25500000000E-02 0. -1.
         -2   -1    0    0    0  501 -0.00000000000E+00 -0.00000000000E+00 -0.88997441003E+02  0.88997441040E+02  0.25500000000E-02 0.  1.
         23    2    1    2    0    0 -0.17763568394E-14  0.35527136788E-14 -0.63828967447E+02  0.11416591472E+03  0.94655792213E+02 0.  0.
    9000005    2    3    3    0    0  0.13761411397E+02  0.31887686586E+02 -0.69574148285E+02  0.78963526989E+02  0.13728637420E+02 0.  0.
         22    1    3    3    0    0 -0.13761411397E+02 -0.31887686586E+02  0.57451808379E+01  0.35202387736E+02  0.00000000000E+00 0. -1.
         22    1    4    4    0    0  0.15552400332E+02  0.23171483128E+02 -0.46478120194E+02  0.54212640991E+02  0.00000000000E+00 0. -1.
         22    1    4    4    0    0 -0.17909889349E+01  0.87162034584E+01 -0.23096028091E+02  0.24750885997E+02  0.00000000000E+00 0. -1.
<mgrwt>
<rscale>  0 0.94655792E+02</rscale>
<asrwt>0</asrwt>
<pdfrwt beam="1">  1        2 0.38720729E-02 0.94655792E+02</pdfrwt>
<pdfrwt beam="2">  1       -2 0.13691914E-01 0.94655792E+02</pdfrwt>
<totfact> 0.75265228E+04</totfact>
</mgrwt>
</event>
<event>
 7    1  0.3891761E-009  0.1035866E+03  0.7818608E-02  0.1272930E+00
         -2   -1    0    0    0  501 -0.00000000000E+00  0.00000000000E+00  0.56161235159E+01  0.56161240948E+01  0.25500000000E-02 0.  1.
          2   -1    0    0  501    0  0.00000000000E+00 -0.00000000000E+00 -0.47765073605E+03  0.47765073606E+03  0.25500000000E-02 0. -1.
         23    2    1    2    0    0  0.00000000000E+00  0.00000000000E+00 -0.47203461253E+03  0.48326686015E+03  0.10358659513E+03 0.  0.
    9000005    2    3    3    0    0 -0.36232600774E+02 -0.35019706824E+02 -0.27537563279E+03  0.28025470401E+03  0.13106439774E+02 0.  0.
         22    1    3    3    0    0  0.36232600774E+02  0.35019706824E+02 -0.19665897975E+03  0.20301215614E+03  0.00000000000E+00 0.  1.
         22    1    4    4    0    0 -0.20747604434E+02 -0.21455957049E+02 -0.12712692632E+03  0.13058359996E+03  0.00000000000E+00 0.  1.
         22    1    4    4    0    0 -0.15484996341E+02 -0.13563749775E+02 -0.14824870646E+03  0.14967110405E+03  0.00000000000E+00 0.  1.
<mgrwt>
<rscale>  0 0.10358660E+03</rscale>
<asrwt>0</asrwt>
<pdfrwt beam="2">  1        2 0.73484697E-01 0.10358660E+03</pdfrwt>
<pdfrwt beam="1">  1       -2 0.86401942E-03 0.10358660E+03</pdfrwt>
<totfact> 0.15105288E+05</totfact>
</mgrwt>
</event>
<event>
 7    1  0.3891761E-009  0.9177171E+02  0.7818608E-02  0.1298617E+00
          2   -1    0    0  501    0  0.00000000000E+00  0.00000000000E+00  0.92139300168E+02  0.92139300203E+02  0.25500000000E-02 0. -1.
         -2   -1    0    0    0  501 -0.00000000000E+00 -0.00000000000E+00 -0.22851394503E+02  0.22851394645E+02  0.25500000000E-02 0.  1.
         23    2    1    2    0    0  0.00000000000E+00  0.00000000000E+00  0.69287905665E+02  0.11499069485E+03  0.91771706044E+02 0.  0.
    9000005    2    3    3    0    0 -0.37585075372E+02  0.13569198041E+02  0.62362764609E+02  0.74435564410E+02  0.74012035003E+01 0.  0.
         22    1    3    3    0    0  0.37585075372E+02 -0.13569198041E+02  0.69251410564E+01  0.40555130438E+02  0.00000000000E+00 0.  1.
         22    1    4    4    0    0 -0.21731459812E+02  0.11523456160E+02  0.35865259465E+02  0.43489805977E+02  0.00000000000E+00 0. -1.
         22    1    4    4    0    0 -0.15853615560E+02  0.20457418807E+01  0.26497505144E+02  0.30945758433E+02  0.00000000000E+00 0. -1.
<mgrwt>
<rscale>  0 0.91771706E+02</rscale>
<asrwt>0</asrwt>
<pdfrwt beam="1">  1        2 0.14175277E-01 0.91771706E+02</pdfrwt>
<pdfrwt beam="2">  1       -2 0.35155992E-02 0.91771706E+02</pdfrwt>
<totfact> 0.11755584E+05</totfact>
</mgrwt>
</event>
<event>
 6    1  0.3891761E-009  0.1305880E+03  0.7818608E-02  0.1226586E+00
          2   -1    0    0  501    0  0.00000000000E+00  0.00000000000E+00  0.79692709217E+03  0.79692709218E+03  0.25500000000E-02 0. -1.
         -2   -1    0    0    0  501 -0.00000000000E+00 -0.00000000000E+00 -0.53496794398E+01  0.53496800475E+01  0.25500000000E-02 0.  1.
    9000005    2    1    2    0    0 -0.22089500317E+02  0.55620496537E+02  0.55185691825E+03  0.55519884700E+03  0.10868110575E+02 0.  0.
         22    1    1    2    0    0  0.22089500317E+02 -0.55620496537E+02  0.23972049448E+03  0.24707792523E+03  0.00000000000E+00 0.  1.
         22    1    3    3    0    0 -0.48610107091E+01  0.26528663965E+02  0.25543988701E+03  0.25685975807E+03  0.00000000000E+00 0.  1.
         22    1    3    3    0    0 -0.17228489608E+02  0.29091832573E+02  0.29641703124E+03  0.29833908893E+03  0.00000000000E+00 0.  1.
<mgrwt>
<rscale>  0 0.13058797E+03</rscale>
<asrwt>0</asrwt>
<pdfrwt beam="1">  1        2 0.12260423E+00 0.13058797E+03</pdfrwt>
<pdfrwt beam="2">  1       -2 0.82302727E-03 0.13058797E+03</pdfrwt>
<totfact> 0.92908923E+04</totfact>
</mgrwt>
</event>
<event>
 7    1  0.3891761E-009  0.9079198E+02  0.7818608E-02  0.1300945E+00
          2   -1    0    0  501    0  0.00000000000E+00  0.00000000000E+00  0.14649384255E+04  0.14649384255E+04  0.25500000000E-02 0.  1.
         -2   -1    0    0    0  501 -0.00000000000E+00 -0.00000000000E+00 -0.14067444848E+01  0.14067467959E+01  0.25500000000E-02 0. -1.
         23    2    1    2    0    0  0.00000000000E+00  0.00000000000E+00  0.14635316810E+04  0.14663451723E+04  0.90791976445E+02 0.  0.
    9000005    2    3    3    0    0  0.22893224303E+02 -0.10578216356E+02  0.13399150407E+04  0.13401822928E+04  0.89589886643E+01 0.  0.
         22    1    3    3    0    0 -0.22893224303E+02  0.10578216356E+02  0.12361664037E+03  0.12616287948E+03  0.00000000000E+00 0. -1.
         22    1    4    4    0    0  0.13083549264E+02 -0.11969358168E+01  0.61755889037E+03  0.61769862797E+03  0.00000000000E+00 0.  1.
         22    1    4    4    0    0  0.98096750385E+01 -0.93812805395E+01  0.72235615028E+03  0.72248366487E+03  0.00000000000E+00 0.  1.
<mgrwt>
<rscale>  0 0.90791976E+02</rscale>
<asrwt>0</asrwt>
<pdfrwt beam="1">  1        2 0.22537466E+00 0.90791976E+02</pdfrwt>
<pdfrwt beam="2">  1       -2 0.21642287E-03 0.90791976E+02</pdfrwt>
<totfact> 0.24065721E+05</totfact>
</mgrwt>
</event>
<event>
 7    1  0.3891761E-009  0.9034645E+02  0.7818608E-02  0.1302015E+00
         -2   -1    0    0    0  501 -0.00000000000E+00  0.00000000000E+00  0.17408634430E+03  0.17408634431E+03  0.25500000000E-02 0.  1.
          2   -1    0    0  501    0  0.00000000000E+00 -0.00000000000E+00 -0.11721884911E+02  0.11721885188E+02  0.25500000000E-02 0. -1.
         23    2    1    2    0    0  0.00000000000E+00 -0.17763568394E-14  0.16236445938E+03  0.18580822950E+03  0.90346446966E+02 0.  0.
    9000005    2    3    3    0    0  0.40138010926E+02  0.14679811668E+02  0.57102559369E+02  0.72200904093E+02  0.11212112808E+02 0.  0.
         22    1    3    3    0    0 -0.40138010926E+02 -0.14679811668E+02  0.10526190002E+03  0.11360732541E+03  0.00000000000E+00 0.  1.
         22    1    4    4    0    0  0.21265028068E+02  0.18119654050E+01  0.27509968864E+02  0.34817854963E+02  0.00000000000E+00 0.  1.
         22    1    4    4    0    0  0.18872982858E+02  0.12867846263E+02  0.29592590505E+02  0.37383049130E+02  0.00000000000E+00 0.  1.
<mgrwt>
<rscale>  0 0.90346447E+02</rscale>
<asrwt>0</asrwt>
<pdfrwt beam="2">  1        2 0.18033668E-02 0.90346447E+02</pdfrwt>
<pdfrwt beam="1">  1       -2 0.26782516E-01 0.90346447E+02</pdfrwt>
<totfact> 0.67565961E+04</totfact>
</mgrwt>
</event>
<event>
 7    1  0.3891761E-009  0.9186611E+02  0.7818608E-02  0.1298395E+00
          2   -1    0    0  501    0  0.00000000000E+00  0.00000000000E+00  0.43223382578E+02  0.43223382654E+02  0.25500000000E-02 0. -1.
         -2   -1    0    0    0  501 -0.00000000000E+00 -0.00000000000E+00 -0.48812599392E+02  0.48812599459E+02  0.25500000000E-02 0.  1.
         23    2    1    2    0    0  0.00000000000E+00 -0.35527136788E-14 -0.55892168141E+01  0.92035982112E+02  0.91866112679E+02 0.  0.
    9000005    2    3    3    0    0 -0.34151101465E+02 -0.28154082658E+02 -0.99416109739E+01  0.47562468236E+02  0.14296945628E+02 0.  0.
         22    1    3    3    0    0  0.34151101465E+02  0.28154082658E+02  0.43523941598E+01  0.44473513877E+02  0.00000000000E+00 0.  1.
         22    1    4    4    0    0 -0.31486561842E+02 -0.19059479262E+02 -0.97849236697E+01  0.38084275726E+02  0.00000000000E+00 0. -1.
         22    1    4    4    0    0 -0.26645396234E+01 -0.90946033960E+01 -0.15668730417E+00  0.94781925094E+01  0.00000000000E+00 0. -1.
<mgrwt>
<rscale>  0 0.91866113E+02</rscale>
<asrwt>0</asrwt>
<pdfrwt beam="1">  1        2 0.66497512E-02 0.91866113E+02</pdfrwt>
<pdfrwt beam="2">  1       -2 0.75096307E-02 0.91866113E+02</pdfrwt>
<totfact> 0.95229170E+04</totfact>
</mgrwt>
</event>
<event>
 7    1  0.3891761E-009  0.9115155E+02  0.7818608E-02  0.1300087E+00
          2   -1    0    0  501    0  0.00000000000E+00  0.00000000000E+00  0.55191641013E+02  0.55191641072E+02  0.25500000000E-02 0. -1.
         -2   -1    0    0    0  501 -0.00000000000E+00 -0.00000000000E+00 -0.37635250415E+02  0.37635250502E+02  0.25500000000E-02 0.  1.
         23    2    1    2    0    0  0.00000000000E+00  0.00000000000E+00  0.17556390598E+02  0.92826891573E+02  0.91151549347E+02 0.  0.
    9000005    2    3    3    0    0  0.21738788130E+02  0.62428157028E+01  0.48611081453E+02  0.54408907746E+02  0.92598242341E+01 0.  0.
         22    1    3    3    0    0 -0.21738788130E+02 -0.62428157028E+01 -0.31054690855E+02  0.38417983827E+02  0.00000000000E+00 0.  1.
         22    1    4    4    0    0  0.45453287434E+01 -0.22127692945E+01  0.74052018160E+01  0.89662352899E+01  0.00000000000E+00 0.  1.
         22    1    4    4    0    0  0.17193459387E+02  0.84555849973E+01  0.41205879637E+02  0.45442672456E+02  0.00000000000E+00 0.  1.
<mgrwt>
<rscale>  0 0.91151549E+02</rscale>
<asrwt>0</asrwt>
<pdfrwt beam="1">  1        2 0.84910217E-02 0.91151549E+02</pdfrwt>
<pdfrwt beam="2">  1       -2 0.57900386E-02 0.91151549E+02</pdfrwt>
<totfact> 0.10381761E+05</totfact>
</mgrwt>
</event>
<event>
 7    1  0.3891761E-009  0.1062953E+03  0.7818608E-02  0.1267588E+00
         -2   -1    0    0    0  501 -0.00000000000E+00  0.00000000000E+00  0.11395426899E+02  0.11395427184E+02  0.25500000000E-02 0. -1.
          2   -1    0    0  501    0  0.00000000000E+00 -0.00000000000E+00 -0.24787775662E+03  0.24787775663E+03  0.25500000000E-02 0.  1.
         23    2    1    2    0    0  0.35527136788E-14  0.71054273576E-14 -0.23648232972E+03  0.25927318382E+03  0.10629530364E+03 0.  0.
    9000005    2    3    3    0    0 -0.28656892103E+02 -0.44053546890E+02 -0.11207837891E+03  0.12422402448E+03  0.10397729655E+02 0.  0.
         22    1    3    3    0    0  0.28656892103E+02  0.44053546890E+02 -0.12440395081E+03  0.13504915933E+03  0.00000000000E+00 0.  1.
         22    1    4    4    0    0 -0.25336962347E+02 -0.43291906330E+02 -0.10537157303E+03  0.11670183896E+03  0.00000000000E+00 0. -1.
         22    1    4    4    0    0 -0.33199297564E+01 -0.76164055919E+00 -0.67068058796E+01  0.75221855226E+01  0.00000000000E+00 0. -1.
<mgrwt>
<rscale>  0 0.10629530E+03</rscale>
<asrwt>0</asrwt>
<pdfrwt beam="2">  1        2 0.38135035E-01 0.10629530E+03</pdfrwt>
<pdfrwt beam="1">  1       -2 0.17531428E-02 0.10629530E+03</pdfrwt>
<totfact> 0.11051938E+05</totfact>
</mgrwt>
</event>
<event>
 7    1  0.3891761E-009  0.9138529E+02  0.7818608E-02  0.1299531E+00
          2   -1    0    0  501    0  0.00000000000E+00  0.00000000000E+00  0.13441559870E+04  0.13441559870E+04  0.25500000000E-02 0.  1.
         -2   -1    0    0    0  501 -0.00000000000E+00 -0.00000000000E+00 -0.15532545884E+01  0.15532566816E+01  0.25500000000E-02 0. -1.
         23    2    1    2    0    0 -0.35527136788E-14 -0.55511151231E-16  0.13426027324E+04  0.13457092437E+04  0.91385291255E+02 0.  0.
    9000005    2    3    3    0    0 -0.25716085373E+02  0.45950729485E+00  0.12251668648E+04  0.12254898144E+04  0.11397816220E+02 0.  0.
         22    1    3    3    0    0  0.25716085373E+02 -0.45950729485E+00  0.11743586760E+03  0.12021942934E+03  0.00000000000E+00 0. -1.
         22    1    4    4    0    0 -0.11076436698E+02  0.52677963054E+01  0.43579589282E+03  0.43596845909E+03  0.00000000000E+00 0.  1.
         22    1    4    4    0    0 -0.14639648675E+02 -0.48082890106E+01  0.78937097202E+03  0.78952135527E+03  0.00000000000E+00 0.  1.
<mgrwt>
<rscale>  0 0.91385291E+02</rscale>
<asrwt>0</asrwt>
<pdfrwt beam="1">  1        2 0.20679395E+00 0.91385291E+02</pdfrwt>
<pdfrwt beam="2">  1       -2 0.23896157E-03 0.91385291E+02</pdfrwt>
<totfact> 0.24248533E+05</totfact>
</mgrwt>
</event>
<event>
 7    1  0.3891761E-009  0.8898223E+02  0.7818608E-02  0.1305335E+00
         -2   -1    0    0    0  501 -0.00000000000E+00  0.00000000000E+00  0.86343069306E+01  0.86343073072E+01  0.25500000000E-02 0.  1.
          2   -1    0    0  501    0  0.00000000000E+00 -0.00000000000E+00 -0.22925513936E+03  0.22925513938E+03  0.25500000000E-02 0. -1.
         23    2    1    2    0    0  0.00000000000E+00 -0.88817841970E-15 -0.22062083243E+03  0.23788944668E+03  0.88982229353E+02 0.  0.
    9000005    2    3    3    0    0 -0.38993952476E+02 -0.73469654825E+01 -0.16134734202E+03  0.16656025984E+03  0.11612456520E+02 0.  0.
         22    1    3    3    0    0  0.38993952476E+02  0.73469654825E+01 -0.59273490407E+02  0.71329186849E+02  0.00000000000E+00 0.  1.
         22    1    4    4    0    0 -0.33010934377E+02 -0.21460582398E+01 -0.13776649327E+03  0.14168251135E+03  0.00000000000E+00 0. -1.
         22    1    4    4    0    0 -0.59830180982E+01 -0.52009072428E+01 -0.23580848756E+02  0.24877748486E+02  0.00000000000E+00 0. -1.
<mgrwt>
<rscale>  0 0.88982229E+02</rscale>
<asrwt>0</asrwt>
<pdfrwt beam="2">  1        2 0.35270017E-01 0.88982229E+02</pdfrwt>
<pdfrwt beam="1">  1       -2 0.13283551E-02 0.88982229E+02</pdfrwt>
<totfact> 0.17354128E+05</totfact>
</mgrwt>
</event>
<event>
 7    1  0.3891761E-009  0.9092829E+02  0.7818608E-02  0.1300619E+00
         -2   -1    0    0    0  501 -0.00000000000E+00  0.00000000000E+00  0.13350695603E+02  0.13350695847E+02  0.25500000000E-02 0. -1.
          2   -1    0    0  501    0  0.00000000000E+00 -0.00000000000E+00 -0.15482251452E+03  0.15482251454E+03  0.25500000000E-02 0.  1.
         23    2    1    2    0    0  0.00000000000E+00  0.17763568394E-14 -0.14147181891E+03  0.16817321038E+03  0.90928285722E+02 0.  0.
    9000005    2    3    3    0    0  0.36794527405E+02  0.10565724998E+02 -0.26961082329E+02  0.47433073790E+02  0.75845063902E+01 0.  0.
         22    1    3    3    0    0 -0.36794527405E+02 -0.10565724998E+02 -0.11451073658E+03  0.12074013659E+03  0.00000000000E+00 0.  1.
         22    1    4    4    0    0  0.15498647488E+02  0.14890806545E+01 -0.13790875144E+02  0.20799367115E+02  0.00000000000E+00 0.  1.
         22    1    4    4    0    0  0.21295879917E+02  0.90766443434E+01 -0.13170207185E+02  0.26633706675E+02  0.00000000000E+00 0.  1.
<mgrwt>
<rscale>  0 0.90928286E+02</rscale>
<asrwt>0</asrwt>
<pdfrwt beam="2">  1        2 0.23818847E-01 0.90928286E+02</pdfrwt>
<pdfrwt beam="1">  1       -2 0.20539533E-02 0.90928286E+02</pdfrwt>
<totfact> 0.14237833E+05</totfact>
</mgrwt>
</event>
<event>
 7    1  0.3891761E-009  0.8519056E+02  0.7818608E-02  0.1314935E+00
         -2   -1    0    0    0  501 -0.00000000000E+00  0.00000000000E+00  0.25508438945E+03  0.25508438946E+03  0.25500000000E-02 0. -1.
          2   -1    0    0  501    0  0.00000000000E+00 -0.00000000000E+00 -0.71127748693E+01  0.71127753264E+01  0.25500000000E-02 0.  1.
         23    2    1    2    0    0  0.22204460493E-15  0.00000000000E+00  0.24797161458E+03  0.26219716479E+03  0.85190560425E+02 0.  0.
    9000005    2    3    3    0    0  0.31896517377E+00 -0.34682033393E+02  0.19724688717E+03  0.20074846138E+03  0.13808152351E+02 0.  0.
         22    1    3    3    0    0 -0.31896517377E+00  0.34682033393E+02  0.50724727409E+02  0.61448703402E+02  0.00000000000E+00 0.  1.
         22    1    4    4    0    0  0.42743671868E+01 -0.13240837307E+02  0.10722175027E+03  0.10812073677E+03  0.00000000000E+00 0. -1.
         22    1    4    4    0    0 -0.39554020130E+01 -0.21441196086E+02  0.90025136897E+02  0.92627724618E+02  0.00000000000E+00 0. -1.
<mgrwt>
<rscale>  0 0.85190560E+02</rscale>
<asrwt>0</asrwt>
<pdfrwt beam="2">  1        2 0.10942731E-02 0.85190560E+02</pdfrwt>
<pdfrwt beam="1">  1       -2 0.39243753E-01 0.85190560E+02</pdfrwt>
<totfact> 0.66181770E+04</totfact>
</mgrwt>
</event>
<event>
 7    1  0.3891761E-009  0.9585994E+02  0.7818608E-02  0.1289251E+00
         -2   -1    0    0    0  501 -0.00000000000E+00  0.00000000000E+00  0.33741904998E+02  0.33741905094E+02  0.25500000000E-02 0.  1.
          2   -1    0    0  501    0  0.00000000000E+00 -0.00000000000E+00 -0.68083940922E+02  0.68083940970E+02  0.25500000000E-02 0. -1.
         23    2    1    2    0    0 -0.17763568394E-14  0.00000000000E+00 -0.34342035925E+02  0.10182584606E+03  0.95859936862E+02 0.  0.
    9000005    2    3    3    0    0 -0.82802853326E+01 -0.20874270206E+02 -0.61199563272E+02  0.66816917817E+02  0.14656591691E+02 0.  0.
         22    1    3    3    0    0  0.82802853326E+01  0.20874270206E+02  0.26857527347E+02  0.35008928247E+02  0.00000000000E+00 0.  1.
         22    1    4    4    0    0  0.19334979821E+01 -0.60402963255E+01 -0.59139803988E+01  0.86717217612E+01  0.00000000000E+00 0.  1.
         22    1    4    4    0    0 -0.10213783315E+02 -0.14833973880E+02 -0.55285582873E+02  0.58145196056E+02  0.00000000000E+00 0.  1.
<mgrwt>
<rscale>  0 0.95859937E+02</rscale>
<asrwt>0</asrwt>
<pdfrwt beam="2">  1        2 0.10474452E-01 0.95859937E+02</pdfrwt>
<pdfrwt beam="1">  1       -2 0.51910623E-02 0.95859937E+02</pdfrwt>
<totfact> 0.95333653E+04</totfact>
</mgrwt>
</event>
<event>
 7    1  0.3891761E-009  0.9061715E+02  0.7818608E-02  0.1301364E+00
          2   -1    0    0  501    0  0.00000000000E+00  0.00000000000E+00  0.30542060437E+02  0.30542060544E+02  0.25500000000E-02 0.  1.
         -2   -1    0    0    0  501 -0.00000000000E+00 -0.00000000000E+00 -0.67214420093E+02  0.67214420141E+02  0.25500000000E-02 0. -1.
         23    2    1    2    0    0  0.00000000000E+00  0.00000000000E+00 -0.36672359656E+02  0.97756480685E+02  0.90617148230E+02 0.  0.
    9000005    2    3    3    0    0 -0.37395562467E+02 -0.20062704833E+02 -0.15829849223E+01  0.42691024757E+02  0.43677838900E+01 0.  0.
         22    1    3    3    0    0  0.37395562467E+02  0.20062704833E+02 -0.35089374733E+02  0.55065455928E+02  0.00000000000E+00 0. -1.
         22    1    4    4    0    0 -0.21090482607E+01 -0.17171827737E+01  0.84075024497E+00  0.28466932077E+01  0.00000000000E+00 0.  1.
         22    1    4    4    0    0 -0.35286514206E+02 -0.18345522059E+02 -0.24237351673E+01  0.39844331549E+02  0.00000000000E+00 0.  1.
<mgrwt>
<rscale>  0 0.90617148E+02</rscale>
<asrwt>0</asrwt>
<pdfrwt beam="1">  1        2 0.46987786E-02 0.90617148E+02</pdfrwt>
<pdfrwt beam="2">  1       -2 0.10340680E-01 0.90617148E+02</pdfrwt>
<totfact> 0.90523890E+04</totfact>
</mgrwt>
</event>
<event>
 7    1  0.3891761E-009  0.9282539E+02  0.7818608E-02  0.1296150E+00
          2   -1    0    0  501    0  0.00000000000E+00  0.00000000000E+00  0.28296188993E+02  0.28296189108E+02  0.25500000000E-02 0. -1.
         -2   -1    0    0    0  501 -0.00000000000E+00 -0.00000000000E+00 -0.76128206073E+02  0.76128206116E+02  0.25500000000E-02 0.  1.
         23    2    1    2    0    0 -0.17763568394E-14  0.00000000000E+00 -0.47832017080E+02  0.10442439522E+03  0.92825386936E+02 0.  0.
    9000005    2    3    3    0    0 -0.12996469202E+02  0.15256888738E+02  0.23164120408E+02  0.30653585251E+02  0.11768384650E+01 0.  0.
         22    1    3    3    0    0  0.12996469202E+02 -0.15256888738E+02 -0.70996137489E+02  0.73770809973E+02  0.00000000000E+00 0.  1.
         22    1    4    4    0    0 -0.11708673423E+02  0.13638354137E+02  0.20205505382E+02  0.27043671804E+02  0.00000000000E+00 0.  1.
         22    1    4    4    0    0 -0.12877957793E+01  0.16185346015E+01  0.29586150261E+01  0.36099134474E+01  0.00000000000E+00 0.  1.
<mgrwt>
<rscale>  0 0.92825387E+02</rscale>
<asrwt>0</asrwt>
<pdfrwt beam="1">  1        2 0.43532599E-02 0.92825387E+02</pdfrwt>
<pdfrwt beam="2">  1       -2 0.11712032E-01 0.92825387E+02</pdfrwt>
<totfact> 0.82539078E+04</totfact>
</mgrwt>
</event>
<event>
 7    1  0.3891761E-009  0.9058142E+02  0.7818608E-02  0.1301450E+00
          2   -1    0    0  501    0  0.00000000000E+00  0.00000000000E+00  0.67662671086E+02  0.67662671134E+02  0.25500000000E-02 0. -1.
         -2   -1    0    0    0  501 -0.00000000000E+00 -0.00000000000E+00 -0.30315804819E+02  0.30315804926E+02  0.25500000000E-02 0.  1.
         23    2    1    2    0    0  0.00000000000E+00 -0.22204460493E-15  0.37346866267E+02  0.97978476060E+02  0.90581418355E+02 0.  0.
    9000005    2    3    3    0    0  0.25272274264E+02 -0.14406088359E+01  0.58846673203E+02  0.64766958501E+02  0.95427860727E+01 0.  0.
         22    1    3    3    0    0 -0.25272274264E+02  0.14406088359E+01 -0.21499806937E+02  0.33211517560E+02  0.00000000000E+00 0.  1.
         22    1    4    4    0    0  0.14993994756E+02  0.33289169320E+01  0.28522976987E+02  0.32395397557E+02  0.00000000000E+00 0.  1.
         22    1    4    4    0    0  0.10278279508E+02 -0.47695257680E+01  0.30323696217E+02  0.32371560944E+02  0.00000000000E+00 0.  1.
<mgrwt>
<rscale>  0 0.90581418E+02</rscale>
<asrwt>0</asrwt>
<pdfrwt beam="1">  1        2 0.10409642E-01 0.90581418E+02</pdfrwt>
<pdfrwt beam="2">  1       -2 0.46639700E-02 0.90581418E+02</pdfrwt>
<totfact> 0.11161619E+05</totfact>
</mgrwt>
</event>
<event>
 7    1  0.3891761E-009  0.9588130E+02  0.7818608E-02  0.1289203E+00
         -2   -1    0    0    0  501 -0.00000000000E+00  0.00000000000E+00  0.14859835012E+03  0.14859835014E+03  0.25500000000E-02 0.  1.
          2   -1    0    0  501    0  0.00000000000E+00 -0.00000000000E+00 -0.15466563974E+02  0.15466564184E+02  0.25500000000E-02 0. -1.
         23    2    1    2    0    0 -0.35527136788E-14  0.00000000000E+00  0.13313178614E+03  0.16406491432E+03  0.95881299688E+02 0.  0.
    9000005    2    3    3    0    0 -0.21574713249E+02  0.11277379644E+02 -0.20671375795E+01  0.26691712717E+02  0.10748345295E+02 0.  0.
         22    1    3    3    0    0  0.21574713249E+02 -0.11277379644E+02  0.13519892372E+03  0.13737320160E+03  0.00000000000E+00 0.  1.
         22    1    4    4    0    0 -0.15852359044E+01 -0.18649426367E+01  0.85152048164E+00  0.25915383543E+01  0.00000000000E+00 0.  1.
         22    1    4    4    0    0 -0.19989477345E+02  0.13142322281E+02 -0.29186580612E+01  0.24100174363E+02  0.00000000000E+00 0.  1.
<mgrwt>
<rscale>  0 0.95881300E+02</rscale>
<asrwt>0</asrwt>
<pdfrwt beam="2">  1        2 0.23794715E-02 0.95881300E+02</pdfrwt>
<pdfrwt beam="1">  1       -2 0.22861284E-01 0.95881300E+02</pdfrwt>
<totfact> 0.61707302E+04</totfact>
</mgrwt>
</event>
<event>
 7    1  0.3891761E-009  0.8968547E+02  0.7818608E-02  0.1303615E+00
         -2   -1    0    0    0  501 -0.00000000000E+00  0.00000000000E+00  0.19308573119E+01  0.19308589958E+01  0.25500000000E-02 0.  1.
          2   -1    0    0  501    0  0.00000000000E+00 -0.00000000000E+00 -0.10414390354E+04  0.10414390354E+04  0.25500000000E-02 0. -1.
         23    2    1    2    0    0  0.00000000000E+00 -0.88817841970E-15 -0.10395081781E+04  0.10433698944E+04  0.89685473887E+02 0.  0.
    9000005    2    3    3    0    0 -0.18460578981E+02  0.78484353081E+01 -0.98484161162E+03  0.98513910870E+03  0.13552586949E+02 0.  0.
         22    1    3    3    0    0  0.18460578981E+02 -0.78484353081E+01 -0.54666566501E+02  0.58230785725E+02  0.00000000000E+00 0.  1.
         22    1    4    4    0    0 -0.17572194688E+02  0.11109056310E+02 -0.86563164072E+03  0.86588124508E+03  0.00000000000E+00 0. -1.
         22    1    4    4    0    0 -0.88838429319E+00 -0.32606210016E+01 -0.11920997090E+03  0.11925786363E+03  0.00000000000E+00 0. -1.
<mgrwt>
<rscale>  0 0.89685474E+02</rscale>
<asrwt>0</asrwt>
<pdfrwt beam="2">  1        2 0.16022094E+00 0.89685474E+02</pdfrwt>
<pdfrwt beam="1">  1       -2 0.29705593E-03 0.89685474E+02</pdfrwt>
<totfact> 0.26140283E+05</totfact>
</mgrwt>
</event>
<event>
 7    1  0.3891761E-009  0.9334915E+02  0.7818608E-02  0.1294938E+00
          2   -1    0    0  501    0  0.00000000000E+00  0.00000000000E+00  0.61473553573E+02  0.61473553626E+02  0.25500000000E-02 0.  1.
         -2   -1    0    0    0  501 -0.00000000000E+00 -0.00000000000E+00 -0.35438259269E+02  0.35438259361E+02  0.25500000000E-02 0. -1.
         23    2    1    2    0    0  0.00000000000E+00  0.00000000000E+00  0.26035294304E+02  0.96911812987E+02  0.93349145400E+02 0.  0.
    9000005    2    3    3    0    0 -0.38093969642E+02 -0.26365082545E+02  0.11151295296E+02  0.48251752083E+02  0.75902629502E+01 0.  0.
         22    1    3    3    0    0  0.38093969642E+02  0.26365082545E+02  0.14883999008E+02  0.48660060904E+02  0.00000000000E+00 0.  1.
         22    1    4    4    0    0 -0.22261926668E+02 -0.18075967840E+02  0.37958769426E+01  0.28926504699E+02  0.00000000000E+00 0. -1.
         22    1    4    4    0    0 -0.15832042974E+02 -0.82891147048E+01  0.73554183534E+01  0.19325247385E+02  0.00000000000E+00 0. -1.
<mgrwt>
<rscale>  0 0.93349145E+02</rscale>
<asrwt>0</asrwt>
<pdfrwt beam="1">  1        2 0.94574697E-02 0.93349145E+02</pdfrwt>
<pdfrwt beam="2">  1       -2 0.54520399E-02 0.93349145E+02</pdfrwt>
<totfact> 0.99892174E+04</totfact>
</mgrwt>
</event>
<event>
 7    1  0.3891761E-009  0.9172489E+02  0.7818608E-02  0.1298728E+00
         -2   -1    0    0    0  501 -0.00000000000E+00  0.00000000000E+00  0.60700722050E+01  0.60700727406E+01  0.25500000000E-02 0. -1.
          2   -1    0    0  501    0  0.00000000000E+00 -0.00000000000E+00 -0.34651377516E+03  0.34651377517E+03  0.25500000000E-02 0.  1.
         23    2    1    2    0    0 -0.35527136788E-14  0.00000000000E+00 -0.34044370296E+03  0.35258384791E+03  0.91724887164E+02 0.  0.
    9000005    2    3    3    0    0 -0.23240840120E+02  0.39065462293E+02 -0.15495388503E+03  0.16160552571E+03  0.62763415127E+01 0.  0.
         22    1    3    3    0    0  0.23240840120E+02 -0.39065462293E+02 -0.18548981793E+03  0.19097832220E+03  0.00000000000E+00 0.  1.
         22    1    4    4    0    0 -0.13632411888E+02  0.28479189671E+02 -0.10866743885E+03  0.11316147385E+03  0.00000000000E+00 0. -1.
         22    1    4    4    0    0 -0.96084282322E+01  0.10586272623E+02 -0.46286446180E+02  0.48444051865E+02  0.00000000000E+00 0. -1.
<mgrwt>
<rscale>  0 0.91724887E+02</rscale>
<asrwt>0</asrwt>
<pdfrwt beam="2">  1        2 0.53309796E-01 0.91724887E+02</pdfrwt>
<pdfrwt beam="1">  1       -2 0.93385757E-03 0.91724887E+02</pdfrwt>
<totfact> 0.18649998E+05</totfact>
</mgrwt>
</event>
<event>
 7    1  0.3891761E-009  0.9321940E+02  0.7818608E-02  0.1295238E+00
         -2   -1    0    0    0  501 -0.00000000000E+00  0.00000000000E+00  0.88584787498E+01  0.88584791168E+01  0.25500000000E-02 0.  1.
          2   -1    0    0  501    0  0.00000000000E+00 -0.00000000000E+00 -0.24524121337E+03  0.24524121339E+03  0.25500000000E-02 0. -1.
         23    2    1    2    0    0  0.00000000000E+00  0.00000000000E+00 -0.23638273462E+03  0.25409969250E+03  0.93219399817E+02 0.  0.
    9000005    2    3    3    0    0  0.12379199785E+02 -0.13096273962E+02 -0.23490540744E+03  0.23601822479E+03  0.14117188442E+02 0.  0.
         22    1    3    3    0    0 -0.12379199785E+02  0.13096273962E+02 -0.14773271820E+01  0.18081467712E+02  0.00000000000E+00 0.  1.
         22    1    4    4    0    0 -0.22196070679E+00  0.11656098823E+01 -0.71263615767E+02  0.71273493286E+02  0.00000000000E+00 0. -1.
         22    1    4    4    0    0  0.12601160492E+02 -0.14261883845E+02 -0.16364179167E+03  0.16474473151E+03  0.00000000000E+00 0. -1.
<mgrwt>
<rscale>  0 0.93219400E+02</rscale>
<asrwt>0</asrwt>
<pdfrwt beam="2">  1        2 0.37729412E-01 0.93219400E+02</pdfrwt>
<pdfrwt beam="1">  1       -2 0.13628431E-02 0.93219400E+02</pdfrwt>
<totfact> 0.15704802E+05</totfact>
</mgrwt>
</event>
<event>
 7    1  0.3891761E-009  0.9374256E+02  0.7818608E-02  0.1294034E+00
         -2   -1    0    0    0  501 -0.00000000000E+00  0.00000000000E+00  0.11684853074E+03  0.11684853077E+03  0.25500000000E-02 0.  1.
          2   -1    0    0  501    0  0.00000000000E+00 -0.00000000000E+00 -0.18801409262E+02  0.18801409435E+02  0.25500000000E-02 0. -1.
         23    2    1    2    0    0  0.00000000000E+00  0.00000000000E+00  0.98047121479E+02  0.13564994020E+03  0.93742563688E+02 0.  0.
    9000005    2    3    3    0    0 -0.45802934971E+02  0.61922383253E+01  0.54602404882E+02  0.72217329760E+02  0.98826834105E+01 0.  0.
         22    1    3    3    0    0  0.45802934971E+02 -0.61922383253E+01  0.43444716597E+02  0.63432610443E+02  0.00000000000E+00 0. -1.
         22    1    4    4    0    0 -0.10110085194E+02  0.54934248906E+01  0.14886793759E+02  0.18815104786E+02  0.00000000000E+00 0.  1.
         22    1    4    4    0    0 -0.35692849777E+02  0.69881343470E+00  0.39715611122E+02  0.53402224974E+02  0.00000000000E+00 0.  1.
<mgrwt>
<rscale>  0 0.93742564E+02</rscale>
<asrwt>0</asrwt>
<pdfrwt beam="2">  1        2 0.28925246E-02 0.93742564E+02</pdfrwt>
<pdfrwt beam="1">  1       -2 0.17976697E-01 0.93742564E+02</pdfrwt>
<totfact> 0.70949076E+04</totfact>
</mgrwt>
</event>
<event>
 7    1  0.3891761E-009  0.9062185E+02  0.7818608E-02  0.1301353E+00
          2   -1    0    0  501    0  0.00000000000E+00  0.00000000000E+00  0.64778021374E+02  0.64778021425E+02  0.25500000000E-02 0. -1.
         -2   -1    0    0    0  501 -0.00000000000E+00 -0.00000000000E+00 -0.31694079889E+02  0.31694079991E+02  0.25500000000E-02 0.  1.
         23    2    1    2    0    0 -0.71054273576E-14  0.00000000000E+00  0.33083941486E+02  0.96472101416E+02  0.90621847075E+02 0.  0.
    9000005    2    3    3    0    0  0.36223087209E+02  0.19740869628E+02 -0.30772277283E+01  0.41613700605E+02  0.45184916702E+01 0.  0.
         22    1    3    3    0    0 -0.36223087209E+02 -0.19740869628E+02  0.36161169214E+02  0.54858400811E+02  0.00000000000E+00 0. -1.
         22    1    4    4    0    0  0.20480446812E+02  0.86775406140E+01 -0.22173243612E+01  0.22353186351E+02  0.00000000000E+00 0. -1.
         22    1    4    4    0    0  0.15742640397E+02  0.11063329014E+02 -0.85990336719E+00  0.19260514254E+02  0.00000000000E+00 0. -1.
<mgrwt>
<rscale>  0 0.90621847E+02</rscale>
<asrwt>0</asrwt>
<pdfrwt beam="1">  1        2 0.99658494E-02 0.90621847E+02</pdfrwt>
<pdfrwt beam="2">  1       -2 0.48760124E-02 0.90621847E+02</pdfrwt>
<totfact> 0.11016017E+05</totfact>
</mgrwt>
</event>
<event>
 7    1  0.3891761E-009  0.1000030E+03  0.7818608E-02  0.1280290E+00
          2   -1    0    0  501    0  0.00000000000E+00  0.00000000000E+00  0.35887592994E+03  0.35887592995E+03  0.25500000000E-02 0. -1.
         -2   -1    0    0    0  501 -0.00000000000E+00 -0.00000000000E+00 -0.69666128070E+01  0.69666132737E+01  0.25500000000E-02 0.  1.
         23    2    1    2    0    0  0.00000000000E+00  0.71054273576E-14  0.35190931714E+03  0.36584254323E+03  0.10000299469E+03 0.  0.
    9000005    2    3    3    0    0 -0.24622107673E+02  0.39043490183E+02  0.10941798323E+03  0.11899706660E+03  0.75739350999E+01 0.  0.
         22    1    3    3    0    0  0.24622107673E+02 -0.39043490183E+02  0.24249133391E+03  0.24684547663E+03  0.00000000000E+00 0. -1.
         22    1    4    4    0    0 -0.20319760927E+02  0.26197881507E+02  0.74554124216E+02  0.81593744350E+02  0.00000000000E+00 0. -1.
         22    1    4    4    0    0 -0.43023467461E+01  0.12845608676E+02  0.34863859014E+02  0.37403322247E+02  0.00000000000E+00 0. -1.
<mgrwt>
<rscale>  0 0.10000299E+03</rscale>
<asrwt>0</asrwt>
<pdfrwt beam="1">  1        2 0.55211700E-01 0.10000299E+03</pdfrwt>
<pdfrwt beam="2">  1       -2 0.10717863E-02 0.10000299E+03</pdfrwt>
<totfact> 0.14992554E+05</totfact>
</mgrwt>
</event>
<event>
 7    1  0.3891761E-009  0.8825777E+02  0.7818608E-02  0.1307126E+00
         -2   -1    0    0    0  501 -0.00000000000E+00  0.00000000000E+00  0.11204998614E+02  0.11204998905E+02  0.25500000000E-02 0.  1.
          2   -1    0    0  501    0  0.00000000000E+00 -0.00000000000E+00 -0.17379371286E+03  0.17379371288E+03  0.25500000000E-02 0. -1.
         23    2    1    2    0    0  0.00000000000E+00  0.00000000000E+00 -0.16258871424E+03  0.18499871178E+03  0.88257766578E+02 0.  0.
    9000005    2    3    3    0    0  0.16345927295E+02 -0.33264870435E+02 -0.13016791912E+03  0.13575595698E+03  0.10594892274E+02 0.  0.
         22    1    3    3    0    0 -0.16345927295E+02  0.33264870435E+02 -0.32420795119E+02  0.49242754800E+02  0.00000000000E+00 0.  1.
         22    1    4    4    0    0 -0.76510986925E+00 -0.72688249241E+01 -0.20836203553E+02  0.22080955309E+02  0.00000000000E+00 0.  1.
         22    1    4    4    0    0  0.17111037164E+02 -0.25996045511E+02 -0.10933171557E+03  0.11367500167E+03  0.00000000000E+00 0.  1.
<mgrwt>
<rscale>  0 0.88257767E+02</rscale>
<asrwt>0</asrwt>
<pdfrwt beam="2">  1        2 0.26737492E-01 0.88257767E+02</pdfrwt>
<pdfrwt beam="1">  1       -2 0.17238461E-02 0.88257767E+02</pdfrwt>
<totfact> 0.16059519E+05</totfact>
</mgrwt>
</event>
<event>
 7    1  0.3891761E-009  0.9176149E+02  0.7818608E-02  0.1298641E+00
          2   -1    0    0  501    0  0.00000000000E+00  0.00000000000E+00  0.37891467199E+01  0.37891475780E+01  0.25500000000E-02 0. -1.
         -2   -1    0    0    0  501 -0.00000000000E+00 -0.00000000000E+00 -0.55554527525E+03  0.55554527526E+03  0.25500000000E-02 0.  1.
         23    2    1    2    0    0  0.00000000000E+00  0.71054273576E-14 -0.55175612853E+03  0.55933442283E+03  0.91761490814E+02 0.  0.
    9000005    2    3    3    0    0 -0.17580627508E+02  0.34097711431E+02 -0.42191835065E+03  0.42394764005E+03  0.15645270794E+02 0.  0.
         22    1    3    3    0    0  0.17580627508E+02 -0.34097711431E+02 -0.12983777788E+03  0.13538678279E+03  0.00000000000E+00 0. -1.
         22    1    4    4    0    0 -0.55892995698E+01  0.12535008513E+02 -0.82508909880E+02  0.83642614245E+02  0.00000000000E+00 0. -1.
         22    1    4    4    0    0 -0.11991327939E+02  0.21562702918E+02 -0.33940944077E+03  0.34030502580E+03  0.00000000000E+00 0. -1.
<mgrwt>
<rscale>  0 0.91761491E+02</rscale>
<asrwt>0</asrwt>
<pdfrwt beam="1">  1        2 0.58294616E-03 0.91761491E+02</pdfrwt>
<pdfrwt beam="2">  1       -2 0.85468439E-01 0.91761491E+02</pdfrwt>
<totfact> 0.32814523E+04</totfact>
</mgrwt>
</event>
<event>
 7    1  0.3891761E-009  0.9095754E+02  0.7818608E-02  0.1300549E+00
          2   -1    0    0  501    0  0.00000000000E+00  0.00000000000E+00  0.30695825225E+03  0.30695825226E+03  0.25500000000E-02 0. -1.
         -2   -1    0    0    0  501 -0.00000000000E+00 -0.00000000000E+00 -0.67381105230E+01  0.67381110055E+01  0.25500000000E-02 0.  1.
         23    2    1    2    0    0  0.00000000000E+00  0.00000000000E+00  0.30022014173E+03  0.31369636327E+03  0.90957544096E+02 0.  0.
    9000005    2    3    3    0    0 -0.22076792605E+02 -0.18841690056E+02  0.27072290811E+03  0.27231423129E+03  0.46640682011E+01 0.  0.
         22    1    3    3    0    0  0.22076792605E+02  0.18841690056E+02  0.29497233622E+02  0.41382131980E+02  0.00000000000E+00 0.  1.
         22    1    4    4    0    0 -0.19433397834E+02 -0.14317016865E+02  0.21864244957E+03  0.21997080415E+03  0.00000000000E+00 0.  1.
         22    1    4    4    0    0 -0.26433947707E+01 -0.45246731904E+01  0.52080458538E+02  0.52343427141E+02  0.00000000000E+00 0.  1.
<mgrwt>
<rscale>  0 0.90957544E+02</rscale>
<asrwt>0</asrwt>
<pdfrwt beam="1">  1        2 0.47224341E-01 0.90957544E+02</pdfrwt>
<pdfrwt beam="2">  1       -2 0.10366326E-02 0.90957544E+02</pdfrwt>
<totfact> 0.18236720E+05</totfact>
</mgrwt>
</event>
<event>
 7    1  0.3891761E-009  0.9000605E+02  0.7818608E-02  0.1302837E+00
          2   -1    0    0  501    0  0.00000000000E+00  0.00000000000E+00  0.39726631761E+03  0.39726631762E+03  0.25500000000E-02 0. -1.
         -2   -1    0    0    0  501 -0.00000000000E+00 -0.00000000000E+00 -0.50980212290E+01  0.50980218668E+01  0.25500000000E-02 0.  1.
         23    2    1    2    0    0 -0.71054273576E-14  0.00000000000E+00  0.39216829639E+03  0.40236433949E+03  0.90006049813E+02 0.  0.
    9000005    2    3    3    0    0 -0.35133630746E+02 -0.19965255392E+02  0.28184107780E+03  0.28486932430E+03  0.91189562249E+01 0.  0.
         22    1    3    3    0    0  0.35133630746E+02  0.19965255392E+02  0.11032721859E+03  0.11749501519E+03  0.00000000000E+00 0.  1.
         22    1    4    4    0    0 -0.56224405808E+01 -0.41270438131E+01  0.76212028010E+02  0.76530500731E+02  0.00000000000E+00 0. -1.
         22    1    4    4    0    0 -0.29511190165E+02 -0.15838211579E+02  0.20562904979E+03  0.20833882357E+03  0.00000000000E+00 0. -1.
<mgrwt>
<rscale>  0 0.90006050E+02</rscale>
<asrwt>0</asrwt>
<pdfrwt beam="1">  1        2 0.61117907E-01 0.90006050E+02</pdfrwt>
<pdfrwt beam="2">  1       -2 0.78431086E-03 0.90006050E+02</pdfrwt>
<totfact> 0.20607980E+05</totfact>
</mgrwt>
</event>
<event>
 7    1  0.3891761E-009  0.8798534E+02  0.7818608E-02  0.1307805E+00
          2   -1    0    0  501    0  0.00000000000E+00  0.00000000000E+00  0.13064122899E+03  0.13064122902E+03  0.25500000000E-02 0. -1.
         -2   -1    0    0    0  501 -0.00000000000E+00 -0.00000000000E+00 -0.14814274905E+02  0.14814275125E+02  0.25500000000E-02 0.  1.
         23    2    1    2    0    0  0.00000000000E+00  0.00000000000E+00  0.11582695409E+03  0.14545550414E+03  0.87985341917E+02 0.  0.
    9000005    2    3    3    0    0 -0.19287582544E+02 -0.35570584859E+02  0.37995916501E+02  0.57734652805E+02  0.15884681808E+02 0.  0.
         22    1    3    3    0    0  0.19287582544E+02  0.35570584859E+02  0.77831037587E+02  0.87720851338E+02  0.00000000000E+00 0. -1.
         22    1    4    4    0    0 -0.14488895292E+02 -0.10613433013E+02  0.13869040941E+02  0.22691922433E+02  0.00000000000E+00 0.  1.
         22    1    4    4    0    0 -0.47986872522E+01 -0.24957151846E+02  0.24126875561E+02  0.35042730372E+02  0.00000000000E+00 0.  1.
<mgrwt>
<rscale>  0 0.87985342E+02</rscale>
<asrwt>0</asrwt>
<pdfrwt beam="1">  1        2 0.20098650E-01 0.87985342E+02</pdfrwt>
<pdfrwt beam="2">  1       -2 0.22791193E-02 0.87985342E+02</pdfrwt>
<totfact> 0.14706876E+05</totfact>
</mgrwt>
</event>
<event>
 7    1  0.3891761E-009  0.9179968E+02  0.7818608E-02  0.1298551E+00
         -2   -1    0    0    0  501 -0.00000000000E+00  0.00000000000E+00  0.40121629889E+02  0.40121629970E+02  0.25500000000E-02 0.  1.
          2   -1    0    0  501    0  0.00000000000E+00 -0.00000000000E+00 -0.52510217354E+02  0.52510217416E+02  0.25500000000E-02 0. -1.
         23    2    1    2    0    0  0.00000000000E+00  0.00000000000E+00 -0.12388587465E+02  0.92631847385E+02  0.91799684371E+02 0.  0.
    9000005    2    3    3    0    0  0.84960641114E+01  0.33911660743E+02 -0.34190057648E+02  0.51431265571E+02  0.15938356142E+02 0.  0.
         22    1    3    3    0    0 -0.84960641114E+01 -0.33911660743E+02  0.21801470183E+02  0.41200581815E+02  0.00000000000E+00 0. -1.
         22    1    4    4    0    0 -0.18797267207E+01 -0.82241238141E+00 -0.28480106335E+01  0.35101138498E+01  0.00000000000E+00 0.  1.
         22    1    4    4    0    0  0.10375790832E+02  0.34734073125E+02 -0.31342047015E+02  0.47921151721E+02  0.00000000000E+00 0.  1.
<mgrwt>
<rscale>  0 0.91799684E+02</rscale>
<asrwt>0</asrwt>
<pdfrwt beam="2">  1        2 0.80784950E-02 0.91799684E+02</pdfrwt>
<pdfrwt beam="1">  1       -2 0.61725584E-02 0.91799684E+02</pdfrwt>
<totfact> 0.10041760E+05</totfact>
</mgrwt>
</event>
<event>
 7    1  0.3891761E-009  0.9258076E+02  0.7818608E-02  0.1296720E+00
          2   -1    0    0  501    0  0.00000000000E+00  0.00000000000E+00  0.12020605588E+03  0.12020605591E+03  0.25500000000E-02 0. -1.
         -2   -1    0    0    0  501 -0.00000000000E+00 -0.00000000000E+00 -0.17826049415E+02  0.17826049598E+02  0.25500000000E-02 0.  1.
         23    2    1    2    0    0  0.00000000000E+00  0.00000000000E+00  0.10238000646E+03  0.13803210551E+03  0.92580756243E+02 0.  0.
    9000005    2    3    3    0    0 -0.36866429683E+02  0.21803971716E+02  0.29626348305E+02  0.53606744411E+02  0.12704948340E+02 0.  0.
         22    1    3    3    0    0  0.36866429683E+02 -0.21803971716E+02  0.72753658160E+02  0.84425361094E+02  0.00000000000E+00 0. -1.
         22    1    4    4    0    0 -0.28825760621E+02  0.13889727998E+02  0.15576161523E+02  0.35587439175E+02  0.00000000000E+00 0.  1.
         22    1    4    4    0    0 -0.80406690625E+01  0.79142437179E+01  0.14050186782E+02  0.18019305237E+02  0.00000000000E+00 0.  1.
<mgrwt>
<rscale>  0 0.92580756E+02</rscale>
<asrwt>0</asrwt>
<pdfrwt beam="1">  1        2 0.18493239E-01 0.92580756E+02</pdfrwt>
<pdfrwt beam="2">  1       -2 0.27424691E-02 0.92580756E+02</pdfrwt>
<totfact> 0.12460942E+05</totfact>
</mgrwt>
</event>
<event>
 7    1  0.3891761E-009  0.9112733E+02  0.7818608E-02  0.1300144E+00
          2   -1    0    0  501    0  0.00000000000E+00  0.00000000000E+00  0.71867483160E+02  0.71867483206E+02  0.25500000000E-02 0.  1.
         -2   -1    0    0    0  501 -0.00000000000E+00 -0.00000000000E+00 -0.28887162535E+02  0.28887162647E+02  0.25500000000E-02 0. -1.
         23    2    1    2    0    0  0.00000000000E+00  0.00000000000E+00  0.42980320626E+02  0.10075464585E+03  0.91127332343E+02 0.  0.
    9000005    2    3    3    0    0  0.16156814489E+02  0.41057592168E+02  0.17729164156E+02  0.49917755388E+02  0.15188499341E+02 0.  0.
         22    1    3    3    0    0 -0.16156814489E+02 -0.41057592168E+02  0.25251156470E+02  0.50836890465E+02  0.00000000000E+00 0.  1.
         22    1    4    4    0    0  0.13533601058E+02  0.13995508369E+02  0.77783689512E+01  0.20965105190E+02  0.00000000000E+00 0. -1.
         22    1    4    4    0    0  0.26232134308E+01  0.27062083799E+02  0.99507952043E+01  0.28952650198E+02  0.00000000000E+00 0. -1.
<mgrwt>
<rscale>  0 0.91127332E+02</rscale>
<asrwt>0</asrwt>
<pdfrwt beam="1">  1        2 0.11056536E-01 0.91127332E+02</pdfrwt>
<pdfrwt beam="2">  1       -2 0.44441789E-02 0.91127332E+02</pdfrwt>
<totfact> 0.11160118E+05</totfact>
</mgrwt>
</event>
<event>
 7    1  0.3891761E-009  0.8766732E+02  0.7818608E-02  0.1308601E+00
         -2   -1    0    0    0  501 -0.00000000000E+00  0.00000000000E+00  0.14230776164E+02  0.14230776392E+02  0.25500000000E-02 0.  1.
          2   -1    0    0  501    0  0.00000000000E+00 -0.00000000000E+00 -0.13501651616E+03  0.13501651618E+03  0.25500000000E-02 0. -1.
         23    2    1    2    0    0  0.00000000000E+00  0.00000000000E+00 -0.12078573999E+03  0.14924729257E+03  0.87667322045E+02 0.  0.
    9000005    2    3    3    0    0 -0.41487110695E+02 -0.49008015901E+01 -0.48956841746E+02  0.66153437003E+02  0.15307078867E+02 0.  0.
         22    1    3    3    0    0  0.41487110695E+02  0.49008015901E+01 -0.71828898246E+02  0.83093855569E+02  0.00000000000E+00 0. -1.
         22    1    4    4    0    0 -0.27272722706E+02 -0.10480395765E+02 -0.31716758458E+02  0.43122996954E+02  0.00000000000E+00 0. -1.
         22    1    4    4    0    0 -0.14214387990E+02  0.55795941750E+01 -0.17240083288E+02  0.23030440049E+02  0.00000000000E+00 0. -1.
<mgrwt>
<rscale>  0 0.87667322E+02</rscale>
<asrwt>0</asrwt>
<pdfrwt beam="2">  1        2 0.20771771E-01 0.87667322E+02</pdfrwt>
<pdfrwt beam="1">  1       -2 0.21893503E-02 0.87667322E+02</pdfrwt>
<totfact> 0.15012575E+05</totfact>
</mgrwt>
</event>
<event>
 7    1  0.3891761E-009  0.9121505E+02  0.7818608E-02  0.1299936E+00
         -2   -1    0    0    0  501 -0.00000000000E+00  0.00000000000E+00  0.27174671045E+02  0.27174671165E+02  0.25500000000E-02 0.  1.
          2   -1    0    0  501    0  0.00000000000E+00 -0.00000000000E+00 -0.76543564512E+02  0.76543564555E+02  0.25500000000E-02 0. -1.
         23    2    1    2    0    0  0.00000000000E+00  0.00000000000E+00 -0.49368893467E+02  0.10371823572E+03  0.91215046887E+02 0.  0.
    9000005    2    3    3    0    0  0.11143711824E+02  0.37047495339E+02 -0.50760747635E+02  0.65006009199E+02  0.12346194048E+02 0.  0.
         22    1    3    3    0    0 -0.11143711824E+02 -0.37047495339E+02  0.13918541681E+01  0.38712226520E+02  0.00000000000E+00 0.  1.
         22    1    4    4    0    0  0.69264391340E+01  0.21175139678E+02 -0.19127555785E+02  0.29363676367E+02  0.00000000000E+00 0. -1.
         22    1    4    4    0    0  0.42172726899E+01  0.15872355662E+02 -0.31633191849E+02  0.35642332833E+02  0.00000000000E+00 0. -1.
<mgrwt>
<rscale>  0 0.91215047E+02</rscale>
<asrwt>0</asrwt>
<pdfrwt beam="2">  1        2 0.11775933E-01 0.91215047E+02</pdfrwt>
<pdfrwt beam="1">  1       -2 0.41807187E-02 0.91215047E+02</pdfrwt>
<totfact> 0.11328955E+05</totfact>
</mgrwt>
</event>
<event>
 7    1  0.3891761E-009  0.9057069E+02  0.7818608E-02  0.1301476E+00
         -2   -1    0    0    0  501 -0.00000000000E+00  0.00000000000E+00  0.19861961484E+01  0.19861977854E+01  0.25500000000E-02 0.  1.
          2   -1    0    0  501    0  0.00000000000E+00 -0.00000000000E+00 -0.10325070513E+04  0.10325070513E+04  0.25500000000E-02 0. -1.
         23    2    1    2    0    0  0.00000000000E+00  0.00000000000E+00 -0.10305208552E+04  0.10344932491E+04  0.90570687905E+02 0.  0.
    9000005    2    3    3    0    0 -0.13962376568E+02 -0.25004543001E+02 -0.91455808324E+03  0.91504644252E+03  0.85632481604E+01 0.  0.
         22    1    3    3    0    0  0.13962376568E+02  0.25004543001E+02 -0.11596277194E+03  0.11944680659E+03  0.00000000000E+00 0.  1.
         22    1    4    4    0    0 -0.63371910153E+01 -0.10386248719E+02 -0.26502479997E+03  0.26530393655E+03  0.00000000000E+00 0.  1.
         22    1    4    4    0    0 -0.76251855523E+01 -0.14618294282E+02 -0.64953328327E+03  0.64974250597E+03  0.00000000000E+00 0.  1.
<mgrwt>
<rscale>  0 0.90570688E+02</rscale>
<asrwt>0</asrwt>
<pdfrwt beam="2">  1        2 0.15884681E+00 0.90570688E+02</pdfrwt>
<pdfrwt beam="1">  1       -2 0.30556959E-03 0.90570688E+02</pdfrwt>
<totfact> 0.25470100E+05</totfact>
</mgrwt>
</event>
<event>
 7    1  0.3891761E-009  0.8978067E+02  0.7818608E-02  0.1303384E+00
          2   -1    0    0  501    0  0.00000000000E+00  0.00000000000E+00  0.22708497271E+02  0.22708497414E+02  0.25500000000E-02 0. -1.
         -2   -1    0    0    0  501 -0.00000000000E+00 -0.00000000000E+00 -0.88739563840E+02  0.88739563876E+02  0.25500000000E-02 0.  1.
         23    2    1    2    0    0 -0.35527136788E-14  0.35527136788E-14 -0.66031066568E+02  0.11144806129E+03  0.89780669486E+02 0.  0.
    9000005    2    3    3    0    0  0.16123210814E+02 -0.28833674535E+02 -0.70586002485E+02  0.78100105501E+02  0.50895990360E+01 0.  0.
         22    1    3    3    0    0 -0.16123210814E+02  0.28833674535E+02  0.45549359163E+01  0.33347955790E+02  0.00000000000E+00 0. -1.
         22    1    4    4    0    0  0.55898003090E+01 -0.11030977353E+02 -0.32243821553E+02  0.34533930521E+02  0.00000000000E+00 0. -1.
         22    1    4    4    0    0  0.10533410505E+02 -0.17802697182E+02 -0.38342180932E+02  0.43566174980E+02  0.00000000000E+00 0. -1.
<mgrwt>
<rscale>  0 0.89780669E+02</rscale>
<asrwt>0</asrwt>
<pdfrwt beam="1">  1        2 0.34936150E-02 0.89780669E+02</pdfrwt>
<pdfrwt beam="2">  1       -2 0.13652240E-01 0.89780669E+02</pdfrwt>
<totfact> 0.85848927E+04</totfact>
</mgrwt>
</event>
<event>
 7    1  0.3891761E-009  0.9149075E+02  0.7818608E-02  0.1299281E+00
          2   -1    0    0  501    0  0.00000000000E+00  0.00000000000E+00  0.67302706321E+02  0.67302706369E+02  0.25500000000E-02 0. -1.
         -2   -1    0    0    0  501 -0.00000000000E+00 -0.00000000000E+00 -0.31092941776E+02  0.31092941881E+02  0.25500000000E-02 0.  1.
         23    2    1    2    0    0  0.00000000000E+00  0.00000000000E+00  0.36209764544E+02  0.98395648249E+02  0.91490745685E+02 0.  0.
    9000005    2    3    3    0    0 -0.79588088221E+01 -0.21899715329E+02 -0.22306338546E+02  0.35410931927E+02  0.14608942168E+02 0.  0.
         22    1    3    3    0    0  0.79588088221E+01  0.21899715329E+02  0.58516103091E+02  0.62984716323E+02  0.00000000000E+00 0. -1.
         22    1    4    4    0    0 -0.11641972385E+02 -0.19940774140E+02 -0.20452024475E+02  0.30845669055E+02  0.00000000000E+00 0.  1.
         22    1    4    4    0    0  0.36831635634E+01 -0.19589411887E+01 -0.18543140711E+01  0.45652628719E+01  0.00000000000E+00 0.  1.
<mgrwt>
<rscale>  0 0.91490746E+02</rscale>
<asrwt>0</asrwt>
<pdfrwt beam="1">  1        2 0.10354262E-01 0.91490746E+02</pdfrwt>
<pdfrwt beam="2">  1       -2 0.47835296E-02 0.91490746E+02</pdfrwt>
<totfact> 0.10837655E+05</totfact>
</mgrwt>
</event>
<event>
 7    1  0.3891761E-009  0.9422871E+02  0.7818608E-02  0.1292923E+00
          2   -1    0    0  501    0  0.00000000000E+00  0.00000000000E+00  0.15020626715E+04  0.15020626715E+04  0.25500000000E-02 0. -1.
         -2   -1    0    0    0  501 -0.00000000000E+00 -0.00000000000E+00 -0.14778084986E+01  0.14778106986E+01  0.25500000000E-02 0.  1.
         23    2    1    2    0    0  0.35527136788E-14  0.00000000000E+00  0.15005848630E+04  0.15035404822E+04  0.94228714030E+02 0.  0.
    9000005    2    3    3    0    0  0.24791143426E+02  0.64347397396E+01  0.13792276626E+04  0.13795099345E+04  0.11077341795E+02 0.  0.
         22    1    3    3    0    0 -0.24791143426E+02 -0.64347397396E+01  0.12135720042E+03  0.12403054770E+03  0.00000000000E+00 0.  1.
         22    1    4    4    0    0  0.10856436950E+01  0.23964801559E+01  0.53936849091E+02  0.54000976187E+02  0.00000000000E+00 0. -1.
         22    1    4    4    0    0  0.23705499731E+02  0.40382595837E+01  0.13252908135E+04  0.13255089583E+04  0.00000000000E+00 0. -1.
<mgrwt>
<rscale>  0 0.94228714E+02</rscale>
<asrwt>0</asrwt>
<pdfrwt beam="1">  1        2 0.23108534E+00 0.94228714E+02</pdfrwt>
<pdfrwt beam="2">  1       -2 0.22735653E-03 0.94228714E+02</pdfrwt>
<totfact> 0.21621920E+05</totfact>
</mgrwt>
</event>
<event>
 7    1  0.3891761E-009  0.9511343E+02  0.7818608E-02  0.1290921E+00
         -2   -1    0    0    0  501 -0.00000000000E+00  0.00000000000E+00  0.83747098129E+01  0.83747102012E+01  0.25500000000E-02 0.  1.
          2   -1    0    0  501    0  0.00000000000E+00 -0.00000000000E+00 -0.27005606481E+03  0.27005606482E+03  0.25500000000E-02 0. -1.
         23    2    1    2    0    0  0.00000000000E+00  0.00000000000E+00 -0.26168135499E+03  0.27843077502E+03  0.95113431895E+02 0.  0.
    9000005    2    3    3    0    0  0.19880945272E+02 -0.42538459623E+02 -0.11558462969E+03  0.12497385704E+03  0.73406941292E+01 0.  0.
         22    1    3    3    0    0 -0.19880945272E+02  0.42538459623E+02 -0.14609672530E+03  0.15345691798E+03  0.00000000000E+00 0. -1.
         22    1    4    4    0    0  0.94775302026E+01 -0.28090211863E+02 -0.68763086086E+02  0.74881543716E+02  0.00000000000E+00 0.  1.
         22    1    4    4    0    0  0.10403415070E+02 -0.14448247760E+02 -0.46821543603E+02  0.50092313321E+02  0.00000000000E+00 0.  1.
<mgrwt>
<rscale>  0 0.95113432E+02</rscale>
<asrwt>0</asrwt>
<pdfrwt beam="2">  1        2 0.41547080E-01 0.95113432E+02</pdfrwt>
<pdfrwt beam="1">  1       -2 0.12884171E-02 0.95113432E+02</pdfrwt>
<totfact> 0.15423710E+05</totfact>
</mgrwt>
</event>
<event>
 7    1  0.3891761E-009  0.9222508E+02  0.7818608E-02  0.1297551E+00
         -2   -1    0    0    0  501 -0.00000000000E+00  0.00000000000E+00  0.82078084046E+01  0.82078088008E+01  0.25500000000E-02 0.  1.
          2   -1    0    0  501    0  0.00000000000E+00 -0.00000000000E+00 -0.25906625277E+03  0.25906625278E+03  0.25500000000E-02 0. -1.
         23    2    1    2    0    0 -0.35527136788E-14  0.88817841970E-15 -0.25085844436E+03  0.26727406158E+03  0.92225077315E+02 0.  0.
    9000005    2    3    3    0    0 -0.29703543611E+02 -0.65150197130E+01 -0.22576613860E+03  0.22784856484E+03  0.44579340323E+01 0.  0.
         22    1    3    3    0    0  0.29703543611E+02  0.65150197130E+01 -0.25092305766E+02  0.39425496745E+02  0.00000000000E+00 0.  1.
         22    1    4    4    0    0 -0.18829812565E+02 -0.62147028968E+01 -0.14108573289E+03  0.14247234257E+03  0.00000000000E+00 0. -1.
         22    1    4    4    0    0 -0.10873731047E+02 -0.30031681625E+00 -0.84680405710E+02  0.85376222265E+02  0.00000000000E+00 0. -1.
<mgrwt>
<rscale>  0 0.92225077E+02</rscale>
<asrwt>0</asrwt>
<pdfrwt beam="2">  1        2 0.39856340E-01 0.92225077E+02</pdfrwt>
<pdfrwt beam="1">  1       -2 0.12627400E-02 0.92225077E+02</pdfrwt>
<totfact> 0.16496248E+05</totfact>
</mgrwt>
</event>
<event>
 7    1  0.3891761E-009  0.9126224E+02  0.7818608E-02  0.1299823E+00
         -2   -1    0    0    0  501 -0.00000000000E+00  0.00000000000E+00  0.46738215831E+01  0.46738222787E+01  0.25500000000E-02 0.  1.
          2   -1    0    0  501    0  0.00000000000E+00 -0.00000000000E+00 -0.44550245471E+03  0.44550245471E+03  0.25500000000E-02 0. -1.
         23    2    1    2    0    0  0.00000000000E+00  0.00000000000E+00 -0.44082863312E+03  0.45017627699E+03  0.91262240743E+02 0.  0.
    9000005    2    3    3    0    0  0.18510782447E+02  0.40391935654E+02 -0.18657755792E+03  0.19207209885E+03  0.10312541127E+02 0.  0.
         22    1    3    3    0    0 -0.18510782447E+02 -0.40391935654E+02 -0.25425107520E+03  0.25810417814E+03  0.00000000000E+00 0.  1.
         22    1    4    4    0    0  0.17476799544E+02  0.35302123200E+02 -0.17506809135E+03  0.17944501953E+03  0.00000000000E+00 0. -1.
         22    1    4    4    0    0  0.10339829027E+01  0.50898124536E+01 -0.11509466572E+02  0.12627079323E+02  0.00000000000E+00 0. -1.
<mgrwt>
<rscale>  0 0.91262241E+02</rscale>
<asrwt>0</asrwt>
<pdfrwt beam="2">  1        2 0.68538806E-01 0.91262241E+02</pdfrwt>
<pdfrwt beam="1">  1       -2 0.71904988E-03 0.91262241E+02</pdfrwt>
<totfact> 0.20680935E+05</totfact>
</mgrwt>
</event>
<event>
 7    1  0.3891761E-009  0.9254048E+02  0.7818608E-02  0.1296814E+00
         -2   -1    0    0    0  501 -0.00000000000E+00  0.00000000000E+00  0.17645950843E+02  0.17645951027E+02  0.25500000000E-02 0.  1.
          2   -1    0    0  501    0  0.00000000000E+00 -0.00000000000E+00 -0.12132726159E+03  0.12132726161E+03  0.25500000000E-02 0. -1.
         23    2    1    2    0    0  0.00000000000E+00  0.00000000000E+00 -0.10368131074E+03  0.13897321264E+03  0.92540475654E+02 0.  0.
    9000005    2    3    3    0    0 -0.12432115960E+02 -0.18464705614E+02  0.69136700092E+01  0.26160302793E+02  0.11876857689E+02 0.  0.
         22    1    3    3    0    0  0.12432115960E+02  0.18464705614E+02 -0.11059498075E+03  0.11281290985E+03  0.00000000000E+00 0. -1.
         22    1    4    4    0    0 -0.10894301208E+01 -0.47423608601E+01  0.67937520740E+01  0.83565490341E+01  0.00000000000E+00 0.  1.
         22    1    4    4    0    0 -0.11342685839E+02 -0.13722344754E+02  0.11991793520E+00  0.17803753759E+02  0.00000000000E+00 0.  1.
<mgrwt>
<rscale>  0 0.92540476E+02</rscale>
<asrwt>0</asrwt>
<pdfrwt beam="2">  1        2 0.18665732E-01 0.92540476E+02</pdfrwt>
<pdfrwt beam="1">  1       -2 0.27147618E-02 0.92540476E+02</pdfrwt>
<totfact> 0.12513197E+05</totfact>
</mgrwt>
</event>
<event>
 7    1  0.3891761E-009  0.9248846E+02  0.7818608E-02  0.1296935E+00
          2   -1    0    0  501    0  0.00000000000E+00  0.00000000000E+00  0.19789418999E+02  0.19789419163E+02  0.25500000000E-02 0. -1.
         -2   -1    0    0    0  501 -0.00000000000E+00 -0.00000000000E+00 -0.10806426475E+03  0.10806426478E+03  0.25500000000E-02 0.  1.
         23    2    1    2    0    0  0.00000000000E+00  0.00000000000E+00 -0.88274845750E+02  0.12785368394E+03  0.92488464714E+02 0.  0.
    9000005    2    3    3    0    0 -0.21311989877E+02  0.17837359267E+02  0.51196267636E+01  0.30411907509E+02  0.11238382536E+02 0.  0.
         22    1    3    3    0    0  0.21311989877E+02 -0.17837359267E+02 -0.93394472513E+02  0.97441776432E+02  0.00000000000E+00 0.  1.
         22    1    4    4    0    0 -0.63324019337E+01  0.13814591779E+01 -0.24172896146E+01  0.69174440939E+01  0.00000000000E+00 0.  1.
         22    1    4    4    0    0 -0.14979587943E+02  0.16455900089E+02  0.75369163783E+01  0.23494463416E+02  0.00000000000E+00 0.  1.
<mgrwt>
<rscale>  0 0.92488465E+02</rscale>
<asrwt>0</asrwt>
<pdfrwt beam="1">  1        2 0.30445261E-02 0.92488465E+02</pdfrwt>
<pdfrwt beam="2">  1       -2 0.16625271E-01 0.92488465E+02</pdfrwt>
<totfact> 0.75217339E+04</totfact>
</mgrwt>
</event>
<event>
 7    1  0.3891761E-009  0.8994169E+02  0.7818608E-02  0.1302993E+00
         -2   -1    0    0    0  501 -0.00000000000E+00  0.00000000000E+00  0.69484132433E+01  0.69484137113E+01  0.25500000000E-02 0. -1.
          2   -1    0    0  501    0  0.00000000000E+00 -0.00000000000E+00 -0.29105591157E+03  0.29105591158E+03  0.25500000000E-02 0.  1.
         23    2    1    2    0    0  0.00000000000E+00  0.00000000000E+00 -0.28410749832E+03  0.29800432529E+03  0.89941688262E+02 0.  0.
    9000005    2    3    3    0    0 -0.19125227734E+01 -0.29494584151E+02 -0.25430680938E+03  0.25603208090E+03  0.26239122828E+01 0.  0.
         22    1    3    3    0    0  0.19125227734E+01  0.29494584151E+02 -0.29800688948E+02  0.41972244393E+02  0.00000000000E+00 0. -1.
         22    1    4    4    0    0 -0.25712431630E+01 -0.22165007642E+02 -0.19129006295E+03  0.19258708949E+03  0.00000000000E+00 0. -1.
         22    1    4    4    0    0  0.65872038953E+00 -0.73295765094E+01 -0.63016746425E+02  0.63444991405E+02  0.00000000000E+00 0. -1.
<mgrwt>
<rscale>  0 0.89941688E+02</rscale>
<asrwt>0</asrwt>
<pdfrwt beam="2">  1        2 0.44777823E-01 0.89941688E+02</pdfrwt>
<pdfrwt beam="1">  1       -2 0.10689869E-02 0.89941688E+02</pdfrwt>
<totfact> 0.18422450E+05</totfact>
</mgrwt>
</event>
<event>
 7    1  0.3891761E-009  0.9091261E+02  0.7818608E-02  0.1300657E+00
          2   -1    0    0  501    0  0.00000000000E+00  0.00000000000E+00  0.28499844088E+02  0.28499844202E+02  0.25500000000E-02 0. -1.
         -2   -1    0    0    0  501 -0.00000000000E+00 -0.00000000000E+00 -0.72501297373E+02  0.72501297418E+02  0.25500000000E-02 0.  1.
         23    2    1    2    0    0  0.00000000000E+00  0.00000000000E+00 -0.44001453285E+02  0.10100114162E+03  0.90912610332E+02 0.  0.
    9000005    2    3    3    0    0  0.12746985523E+02 -0.30405201281E+01  0.26164637409E+02  0.29621798069E+02  0.45969846131E+01 0.  0.
         22    1    3    3    0    0 -0.12746985523E+02  0.30405201281E+01 -0.70166090694E+02  0.71379343552E+02  0.00000000000E+00 0.  1.
         22    1    4    4    0    0  0.65779754163E+01 -0.23873752582E+01  0.92030386804E+01  0.11561368524E+02  0.00000000000E+00 0. -1.
         22    1    4    4    0    0  0.61690101069E+01 -0.65314486988E+00  0.16961598728E+02  0.18060429545E+02  0.00000000000E+00 0. -1.
<mgrwt>
<rscale>  0 0.90912610E+02</rscale>
<asrwt>0</asrwt>
<pdfrwt beam="1">  1        2 0.43845914E-02 0.90912610E+02</pdfrwt>
<pdfrwt beam="2">  1       -2 0.11154046E-01 0.90912610E+02</pdfrwt>
<totfact> 0.88014649E+04</totfact>
</mgrwt>
</event>
<event>
 7    1  0.3891761E-009  0.9642906E+02  0.7818608E-02  0.1287990E+00
          2   -1    0    0  501    0  0.00000000000E+00  0.00000000000E+00  0.32855984429E+03  0.32855984430E+03  0.25500000000E-02 0. -1.
         -2   -1    0    0    0  501 -0.00000000000E+00 -0.00000000000E+00 -0.70752427525E+01  0.70752432121E+01  0.25500000000E-02 0.  1.
         23    2    1    2    0    0  0.35527136788E-14 -0.71054273576E-14  0.32148460154E+03  0.33563508752E+03  0.96429056532E+02 0.  0.
    9000005    2    3    3    0    0 -0.26315775939E+02  0.39425798627E+02  0.18280531576E+03  0.18907841600E+03  0.92709366685E+01 0.  0.
         22    1    3    3    0    0  0.26315775939E+02 -0.39425798627E+02  0.13867928578E+03  0.14655667151E+03  0.00000000000E+00 0.  1.
         22    1    4    4    0    0 -0.69000239845E+01  0.18479998956E+02  0.76858813718E+02  0.79349845233E+02  0.00000000000E+00 0. -1.
         22    1    4    4    0    0 -0.19415751954E+02  0.20945799671E+02  0.10594650204E+03  0.10972857077E+03  0.00000000000E+00 0. -1.
<mgrwt>
<rscale>  0 0.96429057E+02</rscale>
<asrwt>0</asrwt>
<pdfrwt beam="1">  1        2 0.50547658E-01 0.96429057E+02</pdfrwt>
<pdfrwt beam="2">  1       -2 0.10884991E-02 0.96429057E+02</pdfrwt>
<totfact> 0.15998703E+05</totfact>
</mgrwt>
</event>
<event>
 7    1  0.3891761E-009  0.1149682E+03  0.7818608E-02  0.1251637E+00
          2   -1    0    0  501    0  0.00000000000E+00  0.00000000000E+00  0.54872629068E+03  0.54872629069E+03  0.25500000000E-02 0. -1.
         -2   -1    0    0    0  501 -0.00000000000E+00 -0.00000000000E+00 -0.60219814419E+01  0.60219819818E+01  0.25500000000E-02 0.  1.
         23    2    1    2    0    0  0.00000000000E+00  0.71054273576E-14  0.54270430924E+03  0.55474827267E+03  0.11496816412E+03 0.  0.
    9000005    2    3    3    0    0 -0.90061810570E+01 -0.56672049764E+02  0.27173721620E+03  0.27777174292E+03  0.48160123378E+01 0.  0.
         22    1    3    3    0    0  0.90061810570E+01  0.56672049764E+02  0.27096709304E+03  0.27697652975E+03  0.00000000000E+00 0. -1.
         22    1    4    4    0    0 -0.65569477197E+01 -0.47489325337E+02  0.21909212890E+03  0.22427570205E+03  0.00000000000E+00 0. -1.
         22    1    4    4    0    0 -0.24492333373E+01 -0.91827244273E+01  0.52645087301E+02  0.53496040870E+02  0.00000000000E+00 0. -1.
<mgrwt>
<rscale>  0 0.11496816E+03</rscale>
<asrwt>0</asrwt>
<pdfrwt beam="1">  1        2 0.84419472E-01 0.11496816E+03</pdfrwt>
<pdfrwt beam="2">  1       -2 0.92645826E-03 0.11496816E+03</pdfrwt>
<totfact> 0.11933049E+05</totfact>
</mgrwt>
</event>
<event>
 7    1  0.3891761E-009  0.8346038E+02  0.7818608E-02  0.1319509E+00
          2   -1    0    0  501    0  0.00000000000E+00  0.00000000000E+00  0.34533881847E+03  0.34533881848E+03  0.25500000000E-02 0. -1.
         -2   -1    0    0    0  501 -0.00000000000E+00 -0.00000000000E+00 -0.50426088201E+01  0.50426094649E+01  0.25500000000E-02 0.  1.
         23    2    1    2    0    0  0.00000000000E+00  0.00000000000E+00  0.34029620965E+03  0.35038142795E+03  0.83460378302E+02 0.  0.
    9000005    2    3    3    0    0  0.59831066778E+01 -0.35175042280E+02  0.25595200012E+03  0.25880071575E+03  0.13903342838E+02 0.  0.
         22    1    3    3    0    0 -0.59831066778E+01  0.35175042280E+02  0.84344209531E+02  0.91580712196E+02  0.00000000000E+00 0.  1.
         22    1    4    4    0    0  0.61934109486E+01 -0.28646584199E+02  0.23585149893E+03  0.23766555214E+03  0.00000000000E+00 0. -1.
         22    1    4    4    0    0 -0.21030427082E+00 -0.65284580811E+01  0.20100501192E+02  0.21135163613E+02  0.00000000000E+00 0. -1.
<mgrwt>
<rscale>  0 0.83460378E+02</rscale>
<asrwt>0</asrwt>
<pdfrwt beam="1">  1        2 0.53129055E-01 0.83460378E+02</pdfrwt>
<pdfrwt beam="2">  1       -2 0.77578593E-03 0.83460378E+02</pdfrwt>
<totfact> 0.23918920E+05</totfact>
</mgrwt>
</event>
<event>
 7    1  0.3891761E-009  0.9227930E+02  0.7818608E-02  0.1297424E+00
         -2   -1    0    0    0  501 -0.00000000000E+00  0.00000000000E+00  0.17562702934E+02  0.17562703119E+02  0.25500000000E-02 0. -1.
          2   -1    0    0  501    0  0.00000000000E+00 -0.00000000000E+00 -0.12121523014E+03  0.12121523017E+03  0.25500000000E-02 0.  1.
         23    2    1    2    0    0  0.00000000000E+00  0.35527136788E-14 -0.10365252721E+03  0.13877793329E+03  0.92279295462E+02 0.  0.
    9000005    2    3    3    0    0  0.15761471092E+02 -0.30567899915E+02 -0.98019630485E+02  0.10392753872E+03  0.32038832007E+01 0.  0.
         22    1    3    3    0    0 -0.15761471092E+02  0.30567899915E+02 -0.56328967250E+01  0.34850394570E+02  0.00000000000E+00 0. -1.
         22    1    4    4    0    0  0.13064726583E+02 -0.25307133231E+02 -0.77245763411E+02  0.82328889450E+02  0.00000000000E+00 0.  1.
         22    1    4    4    0    0  0.26967445092E+01 -0.52607666834E+01 -0.20773867073E+02  0.21598649269E+02  0.00000000000E+00 0.  1.
<mgrwt>
<rscale>  0 0.92279295E+02</rscale>
<asrwt>0</asrwt>
<pdfrwt beam="2">  1        2 0.18648496E-01 0.92279295E+02</pdfrwt>
<pdfrwt beam="1">  1       -2 0.27019544E-02 0.92279295E+02</pdfrwt>
<totfact> 0.12606732E+05</totfact>
</mgrwt>
</event>
<event>
 7    1  0.3891761E-009  0.9089289E+02  0.7818608E-02  0.1300704E+00
          2   -1    0    0  501    0  0.00000000000E+00  0.00000000000E+00  0.24795821819E+02  0.24795821950E+02  0.25500000000E-02 0. -1.
         -2   -1    0    0    0  501 -0.00000000000E+00 -0.00000000000E+00 -0.83295466925E+02  0.83295466964E+02  0.25500000000E-02 0.  1.
         23    2    1    2    0    0  0.00000000000E+00  0.00000000000E+00 -0.58499645106E+02  0.10809128891E+03  0.90892894450E+02 0.  0.
    9000005    2    3    3    0    0  0.99472928445E+01  0.37214669765E+02 -0.57592204677E+02  0.69559435484E+02  0.61459535085E+01 0.  0.
         22    1    3    3    0    0 -0.99472928445E+01 -0.37214669765E+02 -0.90744042863E+00  0.38531853431E+02  0.00000000000E+00 0. -1.
         22    1    4    4    0    0  0.24929801268E+01  0.16101780069E+02 -0.19910959265E+02  0.25727972523E+02  0.00000000000E+00 0. -1.
         22    1    4    4    0    0  0.74543127177E+01  0.21112889696E+02 -0.37681245413E+02  0.43831462960E+02  0.00000000000E+00 0. -1.
<mgrwt>
<rscale>  0 0.90892894E+02</rscale>
<asrwt>0</asrwt>
<pdfrwt beam="1">  1        2 0.38147419E-02 0.90892894E+02</pdfrwt>
<pdfrwt beam="2">  1       -2 0.12814687E-01 0.90892894E+02</pdfrwt>
<totfact> 0.84778892E+04</totfact>
</mgrwt>
</event>
<event>
 7    1  0.3891761E-009  0.9114148E+02  0.7818608E-02  0.1300111E+00
          2   -1    0    0  501    0  0.00000000000E+00  0.00000000000E+00  0.22363594333E+03  0.22363594335E+03  0.25500000000E-02 0. -1.
         -2   -1    0    0    0  501 -0.00000000000E+00 -0.00000000000E+00 -0.92860394292E+01  0.92860397793E+01  0.25500000000E-02 0.  1.
         23    2    1    2    0    0  0.00000000000E+00  0.00000000000E+00  0.21434990390E+03  0.23292198313E+03  0.91141477496E+02 0.  0.
    9000005    2    3    3    0    0  0.27340286559E+02  0.19568027082E+02  0.18505426671E+03  0.18832788810E+03  0.95871191750E+01 0.  0.
         22    1    3    3    0    0 -0.27340286559E+02 -0.19568027082E+02  0.29295637193E+02  0.44594095030E+02  0.00000000000E+00 0.  1.
         22    1    4    4    0    0  0.27442003343E+02  0.18052377542E+02  0.18170686807E+03  0.18465193686E+03  0.00000000000E+00 0. -1.
         22    1    4    4    0    0 -0.10171678464E+00  0.15156495405E+01  0.33473986429E+01  0.36759512385E+01  0.00000000000E+00 0. -1.
<mgrwt>
<rscale>  0 0.91141477E+02</rscale>
<asrwt>0</asrwt>
<pdfrwt beam="1">  1        2 0.34405529E-01 0.91141477E+02</pdfrwt>
<pdfrwt beam="2">  1       -2 0.14286215E-02 0.91141477E+02</pdfrwt>
<totfact> 0.16127327E+05</totfact>
</mgrwt>
</event>
<event>
 7    1  0.3891761E-009  0.9094833E+02  0.7818608E-02  0.1300571E+00
          2   -1    0    0  501    0  0.00000000000E+00  0.00000000000E+00  0.34206904450E+03  0.34206904451E+03  0.25500000000E-02 0. -1.
         -2   -1    0    0    0  501 -0.00000000000E+00 -0.00000000000E+00 -0.60452694183E+01  0.60452699561E+01  0.25500000000E-02 0.  1.
         23    2    1    2    0    0  0.00000000000E+00  0.00000000000E+00  0.33602377508E+03  0.34811431446E+03  0.90948328822E+02 0.  0.
    9000005    2    3    3    0    0  0.10157721529E+02 -0.33693650040E+02  0.27567163041E+03  0.27825142928E+03  0.13804663149E+02 0.  0.
         22    1    3    3    0    0 -0.10157721529E+02  0.33693650040E+02  0.60352144667E+02  0.69862885180E+02  0.00000000000E+00 0.  1.
         22    1    4    4    0    0 -0.63915800765E+00 -0.40523335419E+01  0.11637752071E+02  0.12339659775E+02  0.00000000000E+00 0.  1.
         22    1    4    4    0    0  0.10796879537E+02 -0.29641316498E+02  0.26403387834E+03  0.26591176951E+03  0.00000000000E+00 0.  1.
<mgrwt>
<rscale>  0 0.90948329E+02</rscale>
<asrwt>0</asrwt>
<pdfrwt beam="1">  1        2 0.52626000E-01 0.90948329E+02</pdfrwt>
<pdfrwt beam="2">  1       -2 0.93004162E-03 0.90948329E+02</pdfrwt>
<totfact> 0.18986905E+05</totfact>
</mgrwt>
</event>
<event>
 7    1  0.3891761E-009  0.9003680E+02  0.7818608E-02  0.1302763E+00
         -2   -1    0    0    0  501 -0.00000000000E+00  0.00000000000E+00  0.54297900104E+02  0.54297900164E+02  0.25500000000E-02 0.  1.
          2   -1    0    0  501    0  0.00000000000E+00 -0.00000000000E+00 -0.37324768323E+02  0.37324768410E+02  0.25500000000E-02 0. -1.
         23    2    1    2    0    0  0.17763568394E-14 -0.35527136788E-14  0.16973131781E+02  0.91622668573E+02  0.90036804664E+02 0.  0.
    9000005    2    3    3    0    0  0.12193069975E+02 -0.26803253285E+02  0.43111155264E+02  0.52249052868E+02  0.20752048943E+01 0.  0.
         22    1    3    3    0    0 -0.12193069975E+02  0.26803253285E+02 -0.26138023483E+02  0.39373615705E+02  0.00000000000E+00 0. -1.
         22    1    4    4    0    0  0.39587655802E+01 -0.10177840961E+02  0.17397291830E+02  0.20540838215E+02  0.00000000000E+00 0.  1.
         22    1    4    4    0    0  0.82343043943E+01 -0.16625412324E+02  0.25713863434E+02  0.31708214654E+02  0.00000000000E+00 0.  1.
<mgrwt>
<rscale>  0 0.90036805E+02</rscale>
<asrwt>0</asrwt>
<pdfrwt beam="2">  1        2 0.57422721E-02 0.90036805E+02</pdfrwt>
<pdfrwt beam="1">  1       -2 0.83535231E-02 0.90036805E+02</pdfrwt>
<totfact> 0.97181870E+04</totfact>
</mgrwt>
</event>
<event>
 7    1  0.3891761E-009  0.9270134E+02  0.7818608E-02  0.1296439E+00
          2   -1    0    0  501    0  0.00000000000E+00  0.00000000000E+00  0.29146136444E+03  0.29146136445E+03  0.25500000000E-02 0. -1.
         -2   -1    0    0    0  501 -0.00000000000E+00 -0.00000000000E+00 -0.73710790803E+01  0.73710795214E+01  0.25500000000E-02 0.  1.
         23    2    1    2    0    0  0.00000000000E+00  0.00000000000E+00  0.28409028536E+03  0.29883244397E+03  0.92701344838E+02 0.  0.
    9000005    2    3    3    0    0  0.28054519626E+02 -0.14992427831E+02  0.24999154438E+03  0.25220034022E+03  0.98696698721E+01 0.  0.
         22    1    3    3    0    0 -0.28054519626E+02  0.14992427831E+02  0.34098740980E+02  0.46632103749E+02  0.00000000000E+00 0. -1.
         22    1    4    4    0    0  0.14362540869E+02 -0.95129315234E+01  0.16911481856E+03  0.16999000059E+03  0.00000000000E+00 0. -1.
         22    1    4    4    0    0  0.13691978756E+02 -0.54794963081E+01  0.80876725819E+02  0.82210339625E+02  0.00000000000E+00 0. -1.
<mgrwt>
<rscale>  0 0.92701345E+02</rscale>
<asrwt>0</asrwt>
<pdfrwt beam="1">  1        2 0.44840199E-01 0.92701345E+02</pdfrwt>
<pdfrwt beam="2">  1       -2 0.11340125E-02 0.92701345E+02</pdfrwt>
<totfact> 0.17002906E+05</totfact>
</mgrwt>
</event>
<event>
 7    1  0.3891761E-009  0.8656677E+02  0.7818608E-02  0.1311385E+00
          2   -1    0    0  501    0  0.00000000000E+00  0.00000000000E+00  0.50055839981E+03  0.50055839982E+03  0.25500000000E-02 0. -1.
         -2   -1    0    0    0  501 -0.00000000000E+00 -0.00000000000E+00 -0.37427225384E+01  0.37427234071E+01  0.25500000000E-02 0.  1.
         23    2    1    2    0    0  0.00000000000E+00  0.00000000000E+00  0.49681567727E+03  0.50430112323E+03  0.86566770193E+02 0.  0.
    9000005    2    3    3    0    0  0.18917872722E+02  0.16069640081E+02  0.45469470744E+03  0.45541047646E+03  0.59418736694E+01 0.  0.
         22    1    3    3    0    0 -0.18917872722E+02 -0.16069640081E+02  0.42120969839E+02  0.48890646762E+02  0.00000000000E+00 0.  1.
         22    1    4    4    0    0  0.25429384985E+01  0.46432610772E+00  0.28907676173E+02  0.29023023218E+02  0.00000000000E+00 0.  1.
         22    1    4    4    0    0  0.16374934223E+02  0.15605313974E+02  0.42578703126E+03  0.42638745325E+03  0.00000000000E+00 0.  1.
<mgrwt>
<rscale>  0 0.86566770E+02</rscale>
<asrwt>0</asrwt>
<pdfrwt beam="1">  1        2 0.77008960E-01 0.86566770E+02</pdfrwt>
<pdfrwt beam="2">  1       -2 0.57580372E-03 0.86566770E+02</pdfrwt>
<totfact> 0.24720275E+05</totfact>
</mgrwt>
</event>
<event>
 7    1  0.3891761E-009  0.9495270E+02  0.7818608E-02  0.1291283E+00
         -2   -1    0    0    0  501 -0.00000000000E+00  0.00000000000E+00  0.16799301291E+03  0.16799301293E+03  0.25500000000E-02 0.  1.
          2   -1    0    0  501    0  0.00000000000E+00 -0.00000000000E+00 -0.13417247274E+02  0.13417247517E+02  0.25500000000E-02 0. -1.
         23    2    1    2    0    0  0.00000000000E+00  0.00000000000E+00  0.15457576563E+03  0.18141026044E+03  0.94952700189E+02 0.  0.
    9000005    2    3    3    0    0  0.23045901363E+02  0.34181409686E+02  0.36572039052E+02  0.56412813170E+02  0.12058570050E+02 0.  0.
         22    1    3    3    0    0 -0.23045901363E+02 -0.34181409686E+02  0.11800372658E+03  0.12499744727E+03  0.00000000000E+00 0.  1.
         22    1    4    4    0    0  0.61112404519E+01  0.19785018910E+02  0.18452346425E+02  0.27735957198E+02  0.00000000000E+00 0.  1.
         22    1    4    4    0    0  0.16934660911E+02  0.14396390776E+02  0.18119692627E+02  0.28676855972E+02  0.00000000000E+00 0.  1.
<mgrwt>
<rscale>  0 0.94952700E+02</rscale>
<asrwt>0</asrwt>
<pdfrwt beam="2">  1        2 0.20641917E-02 0.94952700E+02</pdfrwt>
<pdfrwt beam="1">  1       -2 0.25845081E-01 0.94952700E+02</pdfrwt>
<totfact> 0.60377510E+04</totfact>
</mgrwt>
</event>
<event>
 7    1  0.3891761E-009  0.9121437E+02  0.7818608E-02  0.1299937E+00
          2   -1    0    0  501    0  0.00000000000E+00  0.00000000000E+00  0.25372830913E+03  0.25372830914E+03  0.25500000000E-02 0. -1.
         -2   -1    0    0    0  501 -0.00000000000E+00 -0.00000000000E+00 -0.81978051983E+01  0.81978055949E+01  0.25500000000E-02 0.  1.
         23    2    1    2    0    0  0.17763568394E-14  0.35527136788E-14  0.24553050393E+03  0.26192611474E+03  0.91214369595E+02 0.  0.
    9000005    2    3    3    0    0 -0.10171362442E+02 -0.18060211331E+02  0.23941505720E+03  0.24031531799E+03  0.15015327324E+01 0.  0.
         22    1    3    3    0    0  0.10171362442E+02  0.18060211331E+02  0.61154467318E+01  0.21610796745E+02  0.00000000000E+00 0.  1.
         22    1    4    4    0    0 -0.70856188441E+01 -0.12786251972E+02  0.16075494663E+03  0.16141823657E+03  0.00000000000E+00 0.  1.
         22    1    4    4    0    0 -0.30857435984E+01 -0.52739593582E+01  0.78660110573E+02  0.78897081417E+02  0.00000000000E+00 0.  1.
<mgrwt>
<rscale>  0 0.91214370E+02</rscale>
<asrwt>0</asrwt>
<pdfrwt beam="1">  1        2 0.39035128E-01 0.91214370E+02</pdfrwt>
<pdfrwt beam="2">  1       -2 0.12612007E-02 0.91214370E+02</pdfrwt>
<totfact> 0.16859692E+05</totfact>
</mgrwt>
</event>
<event>
 7    1  0.3891761E-009  0.9136194E+02  0.7818608E-02  0.1299587E+00
          2   -1    0    0  501    0  0.00000000000E+00  0.00000000000E+00  0.36512137150E+02  0.36512137239E+02  0.25500000000E-02 0.  1.
         -2   -1    0    0    0  501 -0.00000000000E+00 -0.00000000000E+00 -0.57152253687E+02  0.57152253744E+02  0.25500000000E-02 0. -1.
         23    2    1    2    0    0 -0.44408920985E-15  0.00000000000E+00 -0.20640116538E+02  0.93664390983E+02  0.91361938068E+02 0.  0.
    9000005    2    3    3    0    0 -0.30365329859E+01  0.28694492400E+02 -0.45120292852E+02  0.55824287138E+02  0.15745341557E+02 0.  0.
         22    1    3    3    0    0  0.30365329859E+01 -0.28694492400E+02  0.24480176314E+02  0.37840103845E+02  0.00000000000E+00 0.  1.
         22    1    4    4    0    0  0.67517639450E+00  0.18538913195E+02 -0.15111888050E+02  0.23927313390E+02  0.00000000000E+00 0.  1.
         22    1    4    4    0    0 -0.37117093804E+01  0.10155579205E+02 -0.30008404802E+02  0.31896973748E+02  0.00000000000E+00 0.  1.
<mgrwt>
<rscale>  0 0.91361938E+02</rscale>
<asrwt>0</asrwt>
<pdfrwt beam="1">  1        2 0.56172519E-02 0.91361938E+02</pdfrwt>
<pdfrwt beam="2">  1       -2 0.87926544E-02 0.91361938E+02</pdfrwt>
<totfact> 0.92608585E+04</totfact>
</mgrwt>
</event>
<event>
 7    1  0.3891761E-009  0.8990663E+02  0.7818608E-02  0.1303078E+00
         -2   -1    0    0    0  501 -0.00000000000E+00  0.00000000000E+00  0.81232714776E+02  0.81232714816E+02  0.25500000000E-02 0. -1.
          2   -1    0    0  501    0  0.00000000000E+00 -0.00000000000E+00 -0.24876685626E+02  0.24876685756E+02  0.25500000000E-02 0.  1.
         23    2    1    2    0    0  0.71054273576E-14 -0.17763568394E-14  0.56356029150E+02  0.10610940057E+03  0.89906634173E+02 0.  0.
    9000005    2    3    3    0    0  0.35999715373E+02 -0.84918839280E+01  0.58160333858E+02  0.69077696384E+02  0.45838961250E+01 0.  0.
         22    1    3    3    0    0 -0.35999715373E+02  0.84918839280E+01 -0.18043047074E+01  0.37031704188E+02  0.00000000000E+00 0.  1.
         22    1    4    4    0    0  0.25100644601E+02 -0.51360074018E+01  0.43761285743E+02  0.50709674237E+02  0.00000000000E+00 0. -1.
         22    1    4    4    0    0  0.10899070773E+02 -0.33558765262E+01  0.14399048115E+02  0.18368022147E+02  0.00000000000E+00 0. -1.
<mgrwt>
<rscale>  0 0.89906634E+02</rscale>
<asrwt>0</asrwt>
<pdfrwt beam="2">  1        2 0.38271824E-02 0.89906634E+02</pdfrwt>
<pdfrwt beam="1">  1       -2 0.12497341E-01 0.89906634E+02</pdfrwt>
<totfact> 0.87691488E+04</totfact>
</mgrwt>
</event>
<event>
 7    1  0.3891761E-009  0.9342618E+02  0.7818608E-02  0.1294761E+00
          2   -1    0    0  501    0  0.00000000000E+00  0.00000000000E+00  0.30766354322E+03  0.30766354323E+03  0.25500000000E-02 0. -1.
         -2   -1    0    0    0  501 -0.00000000000E+00 -0.00000000000E+00 -0.70925294671E+01  0.70925299255E+01  0.25500000000E-02 0.  1.
         23    2    1    2    0    0  0.11102230246E-15 -0.71054273576E-14  0.30057101375E+03  0.31475607316E+03  0.93426180914E+02 0.  0.
    9000005    2    3    3    0    0  0.98759956023E+00 -0.44875042849E+02  0.10965116288E+03  0.11863077066E+03  0.59276809805E+01 0.  0.
         22    1    3    3    0    0 -0.98759956023E+00  0.44875042849E+02  0.19091985087E+03  0.19612530250E+03  0.00000000000E+00 0.  1.
         22    1    4    4    0    0  0.25079846475E+00 -0.96469532149E+01  0.17703725661E+02  0.20163048095E+02  0.00000000000E+00 0.  1.
         22    1    4    4    0    0  0.73680109548E+00 -0.35228089635E+02  0.91947437223E+02  0.98467722565E+02  0.00000000000E+00 0.  1.
<mgrwt>
<rscale>  0 0.93426181E+02</rscale>
<asrwt>0</asrwt>
<pdfrwt beam="1">  1        2 0.47332856E-01 0.93426181E+02</pdfrwt>
<pdfrwt beam="2">  1       -2 0.10911583E-02 0.93426181E+02</pdfrwt>
<totfact> 0.16992063E+05</totfact>
</mgrwt>
</event>
<event>
 7    1  0.3891761E-009  0.9153164E+02  0.7818608E-02  0.1299184E+00
         -2   -1    0    0    0  501 -0.00000000000E+00  0.00000000000E+00  0.63777633376E+02  0.63777633427E+02  0.25500000000E-02 0.  1.
          2   -1    0    0  501    0  0.00000000000E+00 -0.00000000000E+00 -0.32840824221E+02  0.32840824320E+02  0.25500000000E-02 0. -1.
         23    2    1    2    0    0  0.71054273576E-14  0.00000000000E+00  0.30936809155E+02  0.96618457747E+02  0.91531635060E+02 0.  0.
    9000005    2    3    3    0    0  0.40864137538E+02  0.13031689106E+02  0.93888442306E+00  0.44277478143E+02  0.10950383969E+02 0.  0.
         22    1    3    3    0    0 -0.40864137538E+02 -0.13031689106E+02  0.29997924732E+02  0.52340979604E+02  0.00000000000E+00 0.  1.
         22    1    4    4    0    0  0.50582315587E+01  0.55441707538E+01 -0.13507585167E+01  0.76254891265E+01  0.00000000000E+00 0.  1.
         22    1    4    4    0    0  0.35805905979E+02  0.74875183520E+01  0.22896429397E+01  0.36651989016E+02  0.00000000000E+00 0.  1.
<mgrwt>
<rscale>  0 0.91531635E+02</rscale>
<asrwt>0</asrwt>
<pdfrwt beam="2">  1        2 0.50524345E-02 0.91531635E+02</pdfrwt>
<pdfrwt beam="1">  1       -2 0.98119436E-02 0.91531635E+02</pdfrwt>
<totfact> 0.89580907E+04</totfact>
</mgrwt>
</event>
<event>
 7    1  0.3891761E-009  0.9027700E+02  0.7818608E-02  0.1302182E+00
         -2   -1    0    0    0  501 -0.00000000000E+00  0.00000000000E+00  0.10995568115E+03  0.10995568118E+03  0.25500000000E-02 0.  1.
          2   -1    0    0  501    0  0.00000000000E+00 -0.00000000000E+00 -0.18530047650E+02  0.18530047826E+02  0.25500000000E-02 0. -1.
         23    2    1    2    0    0  0.00000000000E+00  0.35527136788E-14  0.91425633497E+02  0.12848572900E+03  0.90276996500E+02 0.  0.
    9000005    2    3    3    0    0 -0.31603016349E+02 -0.24455271381E+02  0.74480598109E+02  0.85081291845E+02  0.97291205490E+01 0.  0.
         22    1    3    3    0    0  0.31603016349E+02  0.24455271381E+02  0.16945035389E+02  0.43404437158E+02  0.00000000000E+00 0. -1.
         22    1    4    4    0    0 -0.27005420661E+02 -0.21309166867E+02  0.55467297947E+02  0.65268633195E+02  0.00000000000E+00 0. -1.
         22    1    4    4    0    0 -0.45975956883E+01 -0.31461045145E+01  0.19013300161E+02  0.19812658649E+02  0.00000000000E+00 0. -1.
<mgrwt>
<rscale>  0 0.90276997E+02</rscale>
<asrwt>0</asrwt>
<pdfrwt beam="2">  1        2 0.28507766E-02 0.90276997E+02</pdfrwt>
<pdfrwt beam="1">  1       -2 0.16916259E-01 0.90276997E+02</pdfrwt>
<totfact> 0.79479638E+04</totfact>
</mgrwt>
</event>
<event>
 7    1  0.3891761E-009  0.9260360E+02  0.7818608E-02  0.1296666E+00
         -2   -1    0    0    0  501 -0.00000000000E+00  0.00000000000E+00  0.29659760469E+02  0.29659760579E+02  0.25500000000E-02 0.  1.
          2   -1    0    0  501    0  0.00000000000E+00 -0.00000000000E+00 -0.72281660017E+02  0.72281660062E+02  0.25500000000E-02 0. -1.
         23    2    1    2    0    0  0.00000000000E+00  0.00000000000E+00 -0.42621899548E+02  0.10194142064E+03  0.92603601016E+02 0.  0.
    9000005    2    3    3    0    0 -0.41022025958E+02 -0.13015480181E+02 -0.39369531931E+02  0.58781401721E+02  0.72858634243E+01 0.  0.
         22    1    3    3    0    0  0.41022025958E+02  0.13015480181E+02 -0.32523676164E+01  0.43160018919E+02  0.00000000000E+00 0.  1.
         22    1    4    4    0    0 -0.19675357340E+02 -0.33798189176E+01 -0.21361679545E+02  0.29238061074E+02  0.00000000000E+00 0. -1.
         22    1    4    4    0    0 -0.21346668618E+02 -0.96356612630E+01 -0.18007852386E+02  0.29543340647E+02  0.00000000000E+00 0. -1.
<mgrwt>
<rscale>  0 0.92603601E+02</rscale>
<asrwt>0</asrwt>
<pdfrwt beam="2">  1        2 0.11120255E-01 0.92603601E+02</pdfrwt>
<pdfrwt beam="1">  1       -2 0.45630401E-02 0.92603601E+02</pdfrwt>
<totfact> 0.10686310E+05</totfact>
</mgrwt>
</event>
<event>
 7    1  0.3891761E-009  0.9096499E+02  0.7818608E-02  0.1300532E+00
         -2   -1    0    0    0  501 -0.00000000000E+00  0.00000000000E+00  0.41730667304E+01  0.41730675095E+01  0.25500000000E-02 0. -1.
          2   -1    0    0  501    0  0.00000000000E+00 -0.00000000000E+00 -0.49571623503E+03  0.49571623504E+03  0.25500000000E-02 0.  1.
         23    2    1    2    0    0  0.00000000000E+00  0.00000000000E+00 -0.49154316830E+03  0.49988930255E+03  0.90964985011E+02 0.  0.
    9000005    2    3    3    0    0 -0.15588142246E+02 -0.40729555164E+02 -0.29832809847E+03  0.30181368554E+03  0.13782583247E+02 0.  0.
         22    1    3    3    0    0  0.15588142246E+02  0.40729555164E+02 -0.19321506984E+03  0.19807561701E+03  0.00000000000E+00 0.  1.
         22    1    4    4    0    0 -0.10568347616E+02 -0.34977171577E+02 -0.20989568787E+03  0.21305232289E+03  0.00000000000E+00 0.  1.
         22    1    4    4    0    0 -0.50197946297E+01 -0.57523835864E+01 -0.88432410596E+02  0.88761362646E+02  0.00000000000E+00 0.  1.
<mgrwt>
<rscale>  0 0.90964985E+02</rscale>
<asrwt>0</asrwt>
<pdfrwt beam="2">  1        2 0.76263989E-01 0.90964985E+02</pdfrwt>
<pdfrwt beam="1">  1       -2 0.64201072E-03 0.90964985E+02</pdfrwt>
<totfact> 0.21622096E+05</totfact>
</mgrwt>
</event>
<event>
 7    1  0.3891761E-009  0.9376591E+02  0.7818608E-02  0.1293980E+00
          2   -1    0    0  501    0  0.00000000000E+00  0.00000000000E+00  0.32193731159E+02  0.32193731260E+02  0.25500000000E-02 0.  1.
         -2   -1    0    0    0  501 -0.00000000000E+00 -0.00000000000E+00 -0.68274512016E+02  0.68274512064E+02  0.25500000000E-02 0. -1.
         23    2    1    2    0    0  0.00000000000E+00 -0.88817841970E-15 -0.36080780857E+02  0.10046824332E+03  0.93765906220E+02 0.  0.
    9000005    2    3    3    0    0  0.38024793287E+02  0.57173225674E+01 -0.46194312978E+02  0.60708260756E+02  0.85443367634E+01 0.  0.
         22    1    3    3    0    0 -0.38024793287E+02 -0.57173225674E+01  0.10113532120E+02  0.39759982568E+02  0.00000000000E+00 0.  1.
         22    1    4    4    0    0  0.17266304481E+02  0.55740731074E+01 -0.26332187288E+02  0.31977799311E+02  0.00000000000E+00 0.  1.
         22    1    4    4    0    0  0.20758488806E+02  0.14324945996E+00 -0.19862125689E+02  0.28730461445E+02  0.00000000000E+00 0.  1.
<mgrwt>
<rscale>  0 0.93765906E+02</rscale>
<asrwt>0</asrwt>
<pdfrwt beam="1">  1        2 0.49528817E-02 0.93765906E+02</pdfrwt>
<pdfrwt beam="2">  1       -2 0.10503771E-01 0.93765906E+02</pdfrwt>
<totfact> 0.82965005E+04</totfact>
</mgrwt>
</event>
<event>
 7    1  0.5706732E-009  0.9062949E+02  0.7818608E-02  0.1301334E+00
         -2   -1    0    0    0  501 -0.00000000000E+00  0.00000000000E+00  0.17512550533E+02  0.17512550719E+02  0.25500000000E-02 0.  1.
          2   -1    0    0  501    0  0.00000000000E+00 -0.00000000000E+00 -0.11725454896E+03  0.11725454899E+03  0.25500000000E-02 0. -1.
         23    2    1    2    0    0  0.00000000000E+00  0.00000000000E+00 -0.99741998427E+02  0.13476709971E+03  0.90629492513E+02 0.  0.
    9000005    2    3    3    0    0  0.47997099493E+01  0.22584355046E+02 -0.10726963991E+03  0.11048221357E+03  0.12901688224E+02 0.  0.
         22    1    3    3    0    0 -0.47997099493E+01 -0.22584355046E+02  0.75276414867E+01  0.24284886139E+02  0.00000000000E+00 0.  1.
         22    1    4    4    0    0  0.73798894173E+01  0.58869652382E+01 -0.33686339328E+02  0.34984119038E+02  0.00000000000E+00 0. -1.
         22    1    4    4    0    0 -0.25801794680E+01  0.16697389808E+02 -0.73583300586E+02  0.75498094530E+02  0.00000000000E+00 0. -1.
<mgrwt>
<rscale>  0 0.90629493E+02</rscale>
<asrwt>0</asrwt>
<pdfrwt beam="2">  1        2 0.18039161E-01 0.90629493E+02</pdfrwt>
<pdfrwt beam="1">  1       -2 0.26942386E-02 0.90629493E+02</pdfrwt>
<totfact> 0.13104781E+05</totfact>
</mgrwt>
</event>
<event>
 7    1  0.3891761E-009  0.9192419E+02  0.7818608E-02  0.1298258E+00
          2   -1    0    0  501    0  0.00000000000E+00  0.00000000000E+00  0.29175371046E+03  0.29175371047E+03  0.25500000000E-02 0.  1.
         -2   -1    0    0    0  501 -0.00000000000E+00 -0.00000000000E+00 -0.72407448747E+01  0.72407453237E+01  0.25500000000E-02 0. -1.
         23    2    1    2    0    0  0.00000000000E+00  0.00000000000E+00  0.28451296558E+03  0.29899445579E+03  0.91924191647E+02 0.  0.
    9000005    2    3    3    0    0 -0.29190286415E+02 -0.24276318396E+02  0.22313380368E+03  0.22682234226E+03  0.14773900895E+02 0.  0.
         22    1    3    3    0    0  0.29190286415E+02  0.24276318396E+02  0.61379161901E+02  0.72172113531E+02  0.00000000000E+00 0. -1.
         22    1    4    4    0    0 -0.12515819606E+02 -0.19884928845E+02  0.12828177887E+03  0.13041576180E+03  0.00000000000E+00 0.  1.
         22    1    4    4    0    0 -0.16674466810E+02 -0.43913895506E+01  0.94852024814E+02  0.96406580465E+02  0.00000000000E+00 0.  1.
<mgrwt>
<rscale>  0 0.91924192E+02</rscale>
<asrwt>0</asrwt>
<pdfrwt beam="1">  1        2 0.44885182E-01 0.91924192E+02</pdfrwt>
<pdfrwt beam="2">  1       -2 0.11139609E-02 0.91924192E+02</pdfrwt>
<totfact> 0.17396668E+05</totfact>
</mgrwt>
</event>
<event>
 7    1  0.3891761E-009  0.9036488E+02  0.7818608E-02  0.1301970E+00
         -2   -1    0    0    0  501 -0.00000000000E+00  0.00000000000E+00  0.58000592243E+01  0.58000597849E+01  0.25500000000E-02 0.  1.
          2   -1    0    0  501    0  0.00000000000E+00 -0.00000000000E+00 -0.35197103450E+03  0.35197103451E+03  0.25500000000E-02 0. -1.
         23    2    1    2    0    0  0.00000000000E+00  0.00000000000E+00 -0.34617097527E+03  0.35777109429E+03  0.90364881392E+02 0.  0.
    9000005    2    3    3    0    0 -0.52600162391E+01  0.23218907129E+02 -0.32487488789E+03  0.32582882203E+03  0.73445944350E+01 0.  0.
         22    1    3    3    0    0  0.52600162391E+01 -0.23218907129E+02 -0.21296087382E+02  0.31942272257E+02  0.00000000000E+00 0.  1.
         22    1    4    4    0    0 -0.55738579653E+01  0.95245020083E+01 -0.16468613494E+03  0.16505546665E+03  0.00000000000E+00 0. -1.
         22    1    4    4    0    0  0.31384172620E+00  0.13694405121E+02 -0.16018875295E+03  0.16077335538E+03  0.00000000000E+00 0. -1.
<mgrwt>
<rscale>  0 0.90364881E+02</rscale>
<asrwt>0</asrwt>
<pdfrwt beam="2">  1        2 0.54149373E-01 0.90364881E+02</pdfrwt>
<pdfrwt beam="1">  1       -2 0.89231712E-03 0.90364881E+02</pdfrwt>
<totfact> 0.19517367E+05</totfact>
</mgrwt>
</event>
<event>
 7    1  0.3891761E-009  0.9036591E+02  0.7818608E-02  0.1301968E+00
          2   -1    0    0  501    0  0.00000000000E+00  0.00000000000E+00  0.61435935351E+03  0.61435935351E+03  0.25500000000E-02 0. -1.
         -2   -1    0    0    0  501 -0.00000000000E+00 -0.00000000000E+00 -0.33229722724E+01  0.33229732509E+01  0.25500000000E-02 0.  1.
         23    2    1    2    0    0  0.00000000000E+00  0.00000000000E+00  0.61103638124E+03  0.61768232676E+03  0.90365909520E+02 0.  0.
    9000005    2    3    3    0    0  0.20254334221E+02  0.18526004921E+02  0.54932153020E+03  0.55013846137E+03  0.12030470999E+02 0.  0.
         22    1    3    3    0    0 -0.20254334221E+02 -0.18526004921E+02  0.61714851039E+02  0.67543865390E+02  0.00000000000E+00 0.  1.
         22    1    4    4    0    0  0.90307913288E+00 -0.32838517005E+00  0.10043037136E+03  0.10043496841E+03  0.00000000000E+00 0. -1.
         22    1    4    4    0    0  0.19351255088E+02  0.18854390091E+02  0.44889115884E+03  0.44970349296E+03  0.00000000000E+00 0. -1.
<mgrwt>
<rscale>  0 0.90365910E+02</rscale>
<asrwt>0</asrwt>
<pdfrwt beam="1">  1        2 0.94516846E-01 0.90365910E+02</pdfrwt>
<pdfrwt beam="2">  1       -2 0.51122646E-03 0.90365910E+02</pdfrwt>
<totfact> 0.23483527E+05</totfact>
</mgrwt>
</event>
<event>
 7    1  0.3891761E-009  0.9145748E+02  0.7818608E-02  0.1299360E+00
         -2   -1    0    0    0  501 -0.00000000000E+00  0.00000000000E+00  0.75944845230E+02  0.75944845273E+02  0.25500000000E-02 0.  1.
          2   -1    0    0  501    0  0.00000000000E+00 -0.00000000000E+00 -0.27534688199E+02  0.27534688317E+02  0.25500000000E-02 0. -1.
         23    2    1    2    0    0  0.00000000000E+00  0.00000000000E+00  0.48410157031E+02  0.10347953359E+03  0.91457479564E+02 0.  0.
    9000005    2    3    3    0    0  0.11077242163E+02  0.44226928959E+02  0.27801613248E+02  0.53445159247E+02  0.21745824103E+01 0.  0.
         22    1    3    3    0    0 -0.11077242163E+02 -0.44226928959E+02  0.20608543783E+02  0.50034374343E+02  0.00000000000E+00 0.  1.
         22    1    4    4    0    0  0.77721204767E+01  0.26662998501E+02  0.16934682320E+02  0.32528523038E+02  0.00000000000E+00 0. -1.
         22    1    4    4    0    0  0.33051216863E+01  0.17563930458E+02  0.10866930927E+02  0.20916636208E+02  0.00000000000E+00 0. -1.
<mgrwt>
<rscale>  0 0.91457480E+02</rscale>
<asrwt>0</asrwt>
<pdfrwt beam="2">  1        2 0.42361059E-02 0.91457480E+02</pdfrwt>
<pdfrwt beam="1">  1       -2 0.11683822E-01 0.91457480E+02</pdfrwt>
<totfact> 0.85653701E+04</totfact>
</mgrwt>
</event>
<event>
 7    1  0.3891761E-009  0.9563032E+02  0.7818608E-02  0.1289763E+00
         -2   -1    0    0    0  501 -0.00000000000E+00  0.00000000000E+00  0.42478386285E+01  0.42478393939E+01  0.25500000000E-02 0.  1.
          2   -1    0    0  501    0  0.00000000000E+00 -0.00000000000E+00 -0.53822417881E+03  0.53822417882E+03  0.25500000000E-02 0. -1.
         23    2    1    2    0    0  0.00000000000E+00  0.00000000000E+00 -0.53397634019E+03  0.54247201821E+03  0.95630322948E+02 0.  0.
    9000005    2    3    3    0    0  0.37695270231E+02  0.48108536824E+01 -0.42753556995E+03  0.42945115607E+03  0.14055396414E+02 0.  0.
         22    1    3    3    0    0 -0.37695270231E+02 -0.48108536824E+01 -0.10644077024E+03  0.11302086214E+03  0.00000000000E+00 0.  1.
         22    1    4    4    0    0  0.78355844324E+01  0.65404580786E+01 -0.84518135279E+02  0.85132186430E+02  0.00000000000E+00 0. -1.
         22    1    4    4    0    0  0.29859685799E+02 -0.17296043962E+01 -0.34301743467E+03  0.34431896964E+03  0.00000000000E+00 0. -1.
<mgrwt>
<rscale>  0 0.95630323E+02</rscale>
<asrwt>0</asrwt>
<pdfrwt beam="2">  1        2 0.82803666E-01 0.95630323E+02</pdfrwt>
<pdfrwt beam="1">  1       -2 0.65351412E-03 0.95630323E+02</pdfrwt>
<totfact> 0.19439424E+05</totfact>
</mgrwt>
</event>
<event>
 7    1  0.3891761E-009  0.8631671E+02  0.7818608E-02  0.1312025E+00
         -2   -1    0    0    0  501 -0.00000000000E+00  0.00000000000E+00  0.11471659919E+02  0.11471660203E+02  0.25500000000E-02 0.  1.
          2   -1    0    0  501    0  0.00000000000E+00 -0.00000000000E+00 -0.16236913443E+03  0.16236913445E+03  0.25500000000E-02 0. -1.
         23    2    1    2    0    0  0.00000000000E+00  0.00000000000E+00 -0.15089747451E+03  0.17384079466E+03  0.86316707953E+02 0.  0.
    9000005    2    3    3    0    0 -0.36185798131E+02  0.20495577463E+02 -0.64976414341E+02  0.78384473424E+02  0.13882023320E+02 0.  0.
         22    1    3    3    0    0  0.36185798131E+02 -0.20495577463E+02 -0.85921060173E+02  0.95456321232E+02  0.00000000000E+00 0. -1.
         22    1    4    4    0    0 -0.15438709645E+02  0.42981793297E+01 -0.15253079865E+02  0.22124297648E+02  0.00000000000E+00 0.  1.
         22    1    4    4    0    0 -0.20747088485E+02  0.16197398133E+02 -0.49723334476E+02  0.56260175776E+02  0.00000000000E+00 0.  1.
<mgrwt>
<rscale>  0 0.86316708E+02</rscale>
<asrwt>0</asrwt>
<pdfrwt beam="2">  1        2 0.24979865E-01 0.86316708E+02</pdfrwt>
<pdfrwt beam="1">  1       -2 0.17648709E-02 0.86316708E+02</pdfrwt>
<totfact> 0.16653065E+05</totfact>
</mgrwt>
</event>
<event>
 7    1  0.3891761E-009  0.9411278E+02  0.7818608E-02  0.1293187E+00
          2   -1    0    0  501    0  0.00000000000E+00  0.00000000000E+00  0.39075823723E+03  0.39075823724E+03  0.25500000000E-02 0. -1.
         -2   -1    0    0    0  501 -0.00000000000E+00 -0.00000000000E+00 -0.56666843212E+01  0.56666848950E+01  0.25500000000E-02 0.  1.
         23    2    1    2    0    0  0.00000000000E+00  0.00000000000E+00  0.38509155291E+03  0.39642492213E+03  0.94112776851E+02 0.  0.
    9000005    2    3    3    0    0 -0.27432400532E+02  0.37031659319E+02  0.16194320650E+03  0.16856736818E+03  0.80916680087E+01 0.  0.
         22    1    3    3    0    0  0.27432400532E+02 -0.37031659319E+02  0.22314834641E+03  0.22785755396E+03  0.00000000000E+00 0. -1.
         22    1    4    4    0    0 -0.23810909852E+02  0.26747215031E+02  0.12809063451E+03  0.13300219392E+03  0.00000000000E+00 0.  1.
         22    1    4    4    0    0 -0.36214906793E+01  0.10284444288E+02  0.33852571996E+02  0.35565174255E+02  0.00000000000E+00 0.  1.
<mgrwt>
<rscale>  0 0.94112777E+02</rscale>
<asrwt>0</asrwt>
<pdfrwt beam="1">  1        2 0.60116648E-01 0.94112777E+02</pdfrwt>
<pdfrwt beam="2">  1       -2 0.87179769E-03 0.94112777E+02</pdfrwt>
<totfact> 0.18194458E+05</totfact>
</mgrwt>
</event>
<event>
 7    1  0.3891761E-009  0.9302789E+02  0.7818608E-02  0.1295681E+00
         -2   -1    0    0    0  501 -0.00000000000E+00  0.00000000000E+00  0.56238717448E+01  0.56238723230E+01  0.25500000000E-02 0. -1.
          2   -1    0    0  501    0  0.00000000000E+00 -0.00000000000E+00 -0.38470776225E+03  0.38470776225E+03  0.25500000000E-02 0.  1.
         23    2    1    2    0    0  0.00000000000E+00  0.00000000000E+00 -0.37908389050E+03  0.39033163458E+03  0.93027893206E+02 0.  0.
    9000005    2    3    3    0    0  0.43025718136E+01  0.35679233929E+02 -0.31060754098E+03  0.31299774613E+03  0.14107611912E+02 0.  0.
         22    1    3    3    0    0 -0.43025718136E+01 -0.35679233929E+02 -0.68476349525E+02  0.77333888446E+02  0.00000000000E+00 0. -1.
         22    1    4    4    0    0  0.76039016665E+01  0.29184800736E+02 -0.21383148420E+03  0.21594785377E+03  0.00000000000E+00 0.  1.
         22    1    4    4    0    0 -0.33013298529E+01  0.64944331928E+01 -0.96776056779E+02  0.97049892359E+02  0.00000000000E+00 0.  1.
<mgrwt>
<rscale>  0 0.93027893E+02</rscale>
<asrwt>0</asrwt>
<pdfrwt beam="2">  1        2 0.59185789E-01 0.93027893E+02</pdfrwt>
<pdfrwt beam="1">  1       -2 0.86521139E-03 0.93027893E+02</pdfrwt>
<totfact> 0.18659754E+05</totfact>
</mgrwt>
</event>
<event>
 7    1  0.3891761E-009  0.9179967E+02  0.7818608E-02  0.1298551E+00
          2   -1    0    0  501    0  0.00000000000E+00  0.00000000000E+00  0.14648194694E+02  0.14648194916E+02  0.25500000000E-02 0.  1.
         -2   -1    0    0    0  501 -0.00000000000E+00 -0.00000000000E+00 -0.14382625704E+03  0.14382625706E+03  0.25500000000E-02 0. -1.
         23    2    1    2    0    0 -0.48572257327E-15  0.00000000000E+00 -0.12917806234E+03  0.15847445198E+03  0.91799673956E+02 0.  0.
    9000005    2    3    3    0    0 -0.86833708772E-01  0.23582341458E+02 -0.64997526245E+00  0.27800799171E+02  0.14708079344E+02 0.  0.
         22    1    3    3    0    0  0.86833708772E-01 -0.23582341458E+02 -0.12852808708E+03  0.13067365281E+03  0.00000000000E+00 0. -1.
         22    1    4    4    0    0 -0.68451690038E+01  0.65716102565E+01 -0.24214880993E+00  0.94921565569E+01  0.00000000000E+00 0.  1.
         22    1    4    4    0    0  0.67583352950E+01  0.17010731201E+02 -0.40782645251E+00  0.18308642614E+02  0.00000000000E+00 0.  1.
<mgrwt>
<rscale>  0 0.91799674E+02</rscale>
<asrwt>0</asrwt>
<pdfrwt beam="1">  1        2 0.22535685E-02 0.91799674E+02</pdfrwt>
<pdfrwt beam="2">  1       -2 0.22127116E-01 0.91799674E+02</pdfrwt>
<totfact> 0.69709926E+04</totfact>
</mgrwt>
</event>
<event>
 7    1  0.3891761E-009  0.1045203E+03  0.7818608E-02  0.1271068E+00
         -2   -1    0    0    0  501 -0.00000000000E+00  0.00000000000E+00  0.35726766659E+02  0.35726766750E+02  0.25500000000E-02 0.  1.
          2   -1    0    0  501    0  0.00000000000E+00 -0.00000000000E+00 -0.76444793667E+02  0.76444793709E+02  0.25500000000E-02 0. -1.
         23    2    1    2    0    0 -0.71054273576E-14  0.00000000000E+00 -0.40718027007E+02  0.11217156046E+03  0.10452033894E+03 0.  0.
    9000005    2    3    3    0    0 -0.45321456879E+02  0.83081338468E+01 -0.44580890261E+02  0.65933251081E+02  0.15384351791E+02 0.  0.
         22    1    3    3    0    0  0.45321456879E+02 -0.83081338468E+01  0.38628632535E+01  0.46238309378E+02  0.00000000000E+00 0.  1.
         22    1    4    4    0    0 -0.42039276279E+02  0.93542541655E+01 -0.45200545318E+02  0.62433101142E+02  0.00000000000E+00 0.  1.
         22    1    4    4    0    0 -0.32821805995E+01 -0.10461203187E+01  0.61965505732E+00  0.35001499395E+01  0.00000000000E+00 0.  1.
<mgrwt>
<rscale>  0 0.10452034E+03</rscale>
<asrwt>0</asrwt>
<pdfrwt beam="2">  1        2 0.11760737E-01 0.10452034E+03</pdfrwt>
<pdfrwt beam="1">  1       -2 0.54964257E-02 0.10452034E+03</pdfrwt>
<totfact> 0.77145214E+04</totfact>
</mgrwt>
</event>
<event>
 7    1  0.3891761E-009  0.8240484E+02  0.7818608E-02  0.1322362E+00
         -2   -1    0    0    0  501 -0.00000000000E+00  0.00000000000E+00  0.22612284607E+02  0.22612284751E+02  0.25500000000E-02 0.  1.
          2   -1    0    0  501    0  0.00000000000E+00 -0.00000000000E+00 -0.75075975473E+02  0.75075975516E+02  0.25500000000E-02 0. -1.
         23    2    1    2    0    0 -0.71054273576E-14  0.00000000000E+00 -0.52463690865E+02  0.97688260267E+02  0.82404838055E+02 0.  0.
    9000005    2    3    3    0    0  0.32391047189E+02  0.21354630249E+02 -0.42637279672E+02  0.57666284703E+02  0.15041949896E+01 0.  0.
         22    1    3    3    0    0 -0.32391047189E+02 -0.21354630249E+02 -0.98264111936E+01  0.40021975564E+02  0.00000000000E+00 0. -1.
         22    1    4    4    0    0  0.31810481394E+02  0.21158438833E+02 -0.42107629591E+02  0.56856298949E+02  0.00000000000E+00 0. -1.
         22    1    4    4    0    0  0.58056579542E+00  0.19619141625E+00 -0.52965008036E+00  0.80998575435E+00  0.00000000000E+00 0. -1.
<mgrwt>
<rscale>  0 0.82404838E+02</rscale>
<asrwt>0</asrwt>
<pdfrwt beam="2">  1        2 0.11550150E-01 0.82404838E+02</pdfrwt>
<pdfrwt beam="1">  1       -2 0.34788131E-02 0.82404838E+02</pdfrwt>
<totfact> 0.14918156E+05</totfact>
</mgrwt>
</event>
<event>
 7    1  0.3891761E-009  0.9299776E+02  0.7818608E-02  0.1295750E+00
          2   -1    0    0  501    0  0.00000000000E+00  0.00000000000E+00  0.87892686375E+02  0.87892686412E+02  0.25500000000E-02 0.  1.
         -2   -1    0    0    0  501 -0.00000000000E+00 -0.00000000000E+00 -0.24599839782E+02  0.24599839915E+02  0.25500000000E-02 0. -1.
         23    2    1    2    0    0  0.00000000000E+00  0.00000000000E+00  0.63292846592E+02  0.11249252633E+03  0.92997763680E+02 0.  0.
    9000005    2    3    3    0    0  0.12336439821E+02  0.32794169710E+02 -0.52409299711E+01  0.35521597759E+02  0.25828755211E+01 0.  0.
         22    1    3    3    0    0 -0.12336439821E+02 -0.32794169710E+02  0.68533776563E+02  0.76970928567E+02  0.00000000000E+00 0.  1.
         22    1    4    4    0    0  0.38348453561E+01  0.13060339238E+02 -0.27938527498E+01  0.13895470957E+02  0.00000000000E+00 0. -1.
         22    1    4    4    0    0  0.85015944652E+01  0.19733830472E+02 -0.24470772213E+01  0.21626126802E+02  0.00000000000E+00 0. -1.
<mgrwt>
<rscale>  0 0.92997764E+02</rscale>
<asrwt>0</asrwt>
<pdfrwt beam="1">  1        2 0.13521952E-01 0.92997764E+02</pdfrwt>
<pdfrwt beam="2">  1       -2 0.37845908E-02 0.92997764E+02</pdfrwt>
<totfact> 0.11173020E+05</totfact>
</mgrwt>
</event>
<event>
 7    1  0.3891761E-009  0.1012491E+03  0.7818608E-02  0.1277691E+00
          2   -1    0    0  501    0  0.00000000000E+00  0.00000000000E+00  0.57316792117E+01  0.57316797790E+01  0.25500000000E-02 0. -1.
         -2   -1    0    0    0  501 -0.00000000000E+00 -0.00000000000E+00 -0.44713720430E+03  0.44713720431E+03  0.25500000000E-02 0.  1.
         23    2    1    2    0    0  0.00000000000E+00  0.00000000000E+00 -0.44140552509E+03  0.45286888409E+03  0.10124914121E+03 0.  0.
    9000005    2    3    3    0    0  0.47926218968E+02  0.15510785915E+02 -0.21910024963E+03  0.22492778985E+03  0.70770273007E+01 0.  0.
         22    1    3    3    0    0 -0.47926218968E+02 -0.15510785915E+02 -0.22230527546E+03  0.22794109424E+03  0.00000000000E+00 0.  1.
         22    1    4    4    0    0  0.22589938118E+02  0.89853602849E+01 -0.91633544464E+02  0.94803736607E+02  0.00000000000E+00 0.  1.
         22    1    4    4    0    0  0.25336280849E+02  0.65254256304E+01 -0.12746670516E+03  0.13012405324E+03  0.00000000000E+00 0.  1.
<mgrwt>
<rscale>  0 0.10124914E+03</rscale>
<asrwt>0</asrwt>
<pdfrwt beam="1">  1        2 0.88179720E-03 0.10124914E+03</pdfrwt>
<pdfrwt beam="2">  1       -2 0.68790312E-01 0.10124914E+03</pdfrwt>
<totfact> 0.30079893E+04</totfact>
</mgrwt>
</event>
<event>
 7    1  0.3891761E-009  0.8890990E+02  0.7818608E-02  0.1305513E+00
          2   -1    0    0  501    0  0.00000000000E+00  0.00000000000E+00  0.42754285173E+03  0.42754285174E+03  0.25500000000E-02 0. -1.
         -2   -1    0    0    0  501 -0.00000000000E+00 -0.00000000000E+00 -0.46223264027E+01  0.46223271060E+01  0.25500000000E-02 0.  1.
         23    2    1    2    0    0  0.00000000000E+00  0.88817841970E-15  0.42292052533E+03  0.43216517884E+03  0.88909904183E+02 0.  0.
    9000005    2    3    3    0    0 -0.26271987102E+02 -0.52667560170E+01  0.38375079281E+03  0.38470757702E+03  0.41584624526E+01 0.  0.
         22    1    3    3    0    0  0.26271987102E+02  0.52667560170E+01  0.39169732517E+02  0.47457601822E+02  0.00000000000E+00 0.  1.
         22    1    4    4    0    0 -0.20064025503E+02 -0.55861771459E+01  0.30680323078E+03  0.30750933793E+03  0.00000000000E+00 0. -1.
         22    1    4    4    0    0 -0.62079615992E+01  0.31942112897E+00  0.76947562029E+02  0.77198239094E+02  0.00000000000E+00 0. -1.
<mgrwt>
<rscale>  0 0.88909904E+02</rscale>
<asrwt>0</asrwt>
<pdfrwt beam="1">  1        2 0.65775803E-01 0.88909904E+02</pdfrwt>
<pdfrwt beam="2">  1       -2 0.71112741E-03 0.88909904E+02</pdfrwt>
<totfact> 0.21847226E+05</totfact>
</mgrwt>
</event>
<event>
 7    1  0.3891761E-009  0.9203989E+02  0.7818608E-02  0.1297986E+00
          2   -1    0    0  501    0  0.00000000000E+00  0.00000000000E+00  0.10637155661E+03  0.10637155664E+03  0.25500000000E-02 0. -1.
         -2   -1    0    0    0  501 -0.00000000000E+00 -0.00000000000E+00 -0.19909789406E+02  0.19909789569E+02  0.25500000000E-02 0.  1.
         23    2    1    2    0    0  0.00000000000E+00  0.00000000000E+00  0.86461767208E+02  0.12628134621E+03  0.92039889248E+02 0.  0.
    9000005    2    3    3    0    0 -0.29616224812E+02  0.22965969228E+02  0.98308713410E+01  0.40976887268E+02  0.13338018747E+02 0.  0.
         22    1    3    3    0    0  0.29616224812E+02 -0.22965969228E+02  0.76630895867E+02  0.85304458946E+02  0.00000000000E+00 0. -1.
         22    1    4    4    0    0  0.13850852953E+01  0.15781757232E+01  0.79223016035E+00  0.22442656963E+01  0.00000000000E+00 0. -1.
         22    1    4    4    0    0 -0.31001310108E+02  0.21387793505E+02  0.90386411807E+01  0.38732621571E+02  0.00000000000E+00 0. -1.
<mgrwt>
<rscale>  0 0.92039889E+02</rscale>
<asrwt>0</asrwt>
<pdfrwt beam="1">  1        2 0.16364855E-01 0.92039889E+02</pdfrwt>
<pdfrwt beam="2">  1       -2 0.30630445E-02 0.92039889E+02</pdfrwt>
<totfact> 0.12182739E+05</totfact>
</mgrwt>
</event>
<event>
 7    1  0.3891761E-009  0.8857968E+02  0.7818608E-02  0.1306328E+00
         -2   -1    0    0    0  501 -0.00000000000E+00  0.00000000000E+00  0.22004149370E+02  0.22004149518E+02  0.25500000000E-02 0.  1.
          2   -1    0    0  501    0  0.00000000000E+00 -0.00000000000E+00 -0.89146361489E+02  0.89146361525E+02  0.25500000000E-02 0. -1.
         23    2    1    2    0    0  0.00000000000E+00 -0.44408920985E-15 -0.67142212119E+02  0.11115051104E+03  0.88579678577E+02 0.  0.
    9000005    2    3    3    0    0 -0.18531098085E+02  0.32693662092E+01  0.13868484532E+02  0.27983069555E+02  0.15382683994E+02 0.  0.
         22    1    3    3    0    0  0.18531098085E+02 -0.32693662092E+01 -0.81010696651E+02  0.83167441487E+02  0.00000000000E+00 0. -1.
         22    1    4    4    0    0  0.23307966087E+01  0.17451700459E+01  0.37473559506E+01  0.47456198690E+01  0.00000000000E+00 0.  1.
         22    1    4    4    0    0 -0.20861894694E+02  0.15241961632E+01  0.10121128582E+02  0.23237449686E+02  0.00000000000E+00 0.  1.
<mgrwt>
<rscale>  0 0.88579679E+02</rscale>
<asrwt>0</asrwt>
<pdfrwt beam="2">  1        2 0.13714825E-01 0.88579679E+02</pdfrwt>
<pdfrwt beam="1">  1       -2 0.33852538E-02 0.88579679E+02</pdfrwt>
<totfact> 0.12835639E+05</totfact>
</mgrwt>
</event>
<event>
 7    1  0.3891761E-009  0.9069495E+02  0.7818608E-02  0.1301177E+00
         -2   -1    0    0    0  501 -0.00000000000E+00  0.00000000000E+00  0.44046292964E+01  0.44046300346E+01  0.25500000000E-02 0.  1.
          2   -1    0    0  501    0  0.00000000000E+00 -0.00000000000E+00 -0.46687094773E+03  0.46687094774E+03  0.25500000000E-02 0. -1.
         23    2    1    2    0    0 -0.35527136788E-14 -0.35527136788E-14 -0.46246631844E+03  0.47127557777E+03  0.90694953103E+02 0.  0.
    9000005    2    3    3    0    0  0.27946669948E+02 -0.26938970011E+02 -0.35047945497E+03  0.35275223806E+03  0.95691503556E+01 0.  0.
         22    1    3    3    0    0 -0.27946669948E+02  0.26938970011E+02 -0.11198686347E+03  0.11852333971E+03  0.00000000000E+00 0.  1.
         22    1    4    4    0    0  0.24888745918E+02 -0.22473300226E+02 -0.26700838773E+03  0.26910588625E+03  0.00000000000E+00 0.  1.
         22    1    4    4    0    0  0.30579240306E+01 -0.44656697857E+01 -0.83471067235E+02  0.83646351811E+02  0.00000000000E+00 0.  1.
<mgrwt>
<rscale>  0 0.90694953E+02</rscale>
<asrwt>0</asrwt>
<pdfrwt beam="2">  1        2 0.71826261E-01 0.90694953E+02</pdfrwt>
<pdfrwt beam="1">  1       -2 0.67763570E-03 0.90694953E+02</pdfrwt>
<totfact> 0.21363609E+05</totfact>
</mgrwt>
</event>
<event>
 7    1  0.3891761E-009  0.8649763E+02  0.7818608E-02  0.1311562E+00
         -2   -1    0    0    0  501 -0.00000000000E+00  0.00000000000E+00  0.18905744464E+03  0.18905744466E+03  0.25500000000E-02 0.  1.
          2   -1    0    0  501    0  0.00000000000E+00 -0.00000000000E+00 -0.98936056546E+01  0.98936059832E+01  0.25500000000E-02 0. -1.
         23    2    1    2    0    0  0.00000000000E+00  0.00000000000E+00  0.17916383898E+03  0.19895105064E+03  0.86497626273E+02 0.  0.
    9000005    2    3    3    0    0  0.29901271352E+02  0.28062157524E+02  0.65045543828E+02  0.77688706926E+02  0.11092416264E+02 0.  0.
         22    1    3    3    0    0 -0.29901271352E+02 -0.28062157524E+02  0.11411829516E+03  0.12126234371E+03  0.00000000000E+00 0.  1.
         22    1    4    4    0    0  0.10514658000E+02  0.76682536206E+01  0.30313858693E+02  0.32989243327E+02  0.00000000000E+00 0.  1.
         22    1    4    4    0    0  0.19386613352E+02  0.20393903904E+02  0.34731685135E+02  0.44699463599E+02  0.00000000000E+00 0.  1.
<mgrwt>
<rscale>  0 0.86497626E+02</rscale>
<asrwt>0</asrwt>
<pdfrwt beam="2">  1        2 0.15220932E-02 0.86497626E+02</pdfrwt>
<pdfrwt beam="1">  1       -2 0.29085760E-01 0.86497626E+02</pdfrwt>
<totfact> 0.72992067E+04</totfact>
</mgrwt>
</event>
<event>
 7    1  0.3891761E-009  0.9210523E+02  0.7818608E-02  0.1297832E+00
         -2   -1    0    0    0  501 -0.00000000000E+00  0.00000000000E+00  0.26703574450E+02  0.26703574571E+02  0.25500000000E-02 0.  1.
          2   -1    0    0  501    0  0.00000000000E+00 -0.00000000000E+00 -0.79421698925E+02  0.79421698966E+02  0.25500000000E-02 0. -1.
         23    2    1    2    0    0  0.00000000000E+00  0.00000000000E+00 -0.52718124475E+02  0.10612527354E+03  0.92105228055E+02 0.  0.
    9000005    2    3    3    0    0 -0.21141560216E+02  0.28077053355E+02  0.78709320873E+01  0.36080143310E+02  0.21304168297E+01 0.  0.
         22    1    3    3    0    0  0.21141560216E+02 -0.28077053355E+02 -0.60589056562E+02  0.70045130227E+02  0.00000000000E+00 0. -1.
         22    1    4    4    0    0 -0.16935904283E+02  0.23804439941E+02  0.66600691789E+01  0.29963857166E+02  0.00000000000E+00 0. -1.
         22    1    4    4    0    0 -0.42056559326E+01  0.42726134137E+01  0.12108629084E+01  0.61162861435E+01  0.00000000000E+00 0. -1.
<mgrwt>
<rscale>  0 0.92105228E+02</rscale>
<asrwt>0</asrwt>
<pdfrwt beam="2">  1        2 0.12218723E-01 0.92105228E+02</pdfrwt>
<pdfrwt beam="1">  1       -2 0.41082423E-02 0.92105228E+02</pdfrwt>
<totfact> 0.11142910E+05</totfact>
</mgrwt>
</event>
<event>
 7    1  0.3891761E-009  0.8243089E+02  0.7818608E-02  0.1322291E+00
          2   -1    0    0  501    0  0.00000000000E+00  0.00000000000E+00  0.28487292776E+02  0.28487292890E+02  0.25500000000E-02 0. -1.
         -2   -1    0    0    0  501 -0.00000000000E+00 -0.00000000000E+00 -0.59630544492E+02  0.59630544546E+02  0.25500000000E-02 0.  1.
         23    2    1    2    0    0 -0.35527136788E-14  0.00000000000E+00 -0.31143251716E+02  0.88117837436E+02  0.82430887093E+02 0.  0.
    9000005    2    3    3    0    0 -0.27617349260E+02 -0.29198335211E+02 -0.23891736943E+02  0.47278576599E+02  0.70134122805E+01 0.  0.
         22    1    3    3    0    0  0.27617349260E+02  0.29198335211E+02 -0.72515147723E+01  0.40839260837E+02  0.00000000000E+00 0. -1.
         22    1    4    4    0    0 -0.18612324038E+02 -0.21680265767E+02 -0.20155741836E+02  0.34967219775E+02  0.00000000000E+00 0.  1.
         22    1    4    4    0    0 -0.90050252219E+01 -0.75180694435E+01 -0.37359951078E+01  0.12311356824E+02  0.00000000000E+00 0.  1.
<mgrwt>
<rscale>  0 0.82430887E+02</rscale>
<asrwt>0</asrwt>
<pdfrwt beam="1">  1        2 0.43826604E-02 0.82430887E+02</pdfrwt>
<pdfrwt beam="2">  1       -2 0.91739299E-02 0.82430887E+02</pdfrwt>
<totfact> 0.11739026E+05</totfact>
</mgrwt>
</event>
<event>
 7    1  0.3891761E-009  0.1058138E+03  0.7818608E-02  0.1268524E+00
         -2   -1    0    0    0  501 -0.00000000000E+00  0.00000000000E+00  0.88107145892E+02  0.88107145928E+02  0.25500000000E-02 0. -1.
          2   -1    0    0  501    0  0.00000000000E+00 -0.00000000000E+00 -0.31769728543E+02  0.31769728645E+02  0.25500000000E-02 0.  1.
         23    2    1    2    0    0  0.00000000000E+00  0.00000000000E+00  0.56337417349E+02  0.11987687457E+03  0.10581380091E+03 0.  0.
    9000005    2    3    3    0    0  0.48711256084E+02 -0.16013048160E+02  0.40669193329E+02  0.66260669705E+02  0.10358034711E+02 0.  0.
         22    1    3    3    0    0 -0.48711256084E+02  0.16013048160E+02  0.15668224020E+02  0.53616204869E+02  0.00000000000E+00 0.  1.
         22    1    4    4    0    0  0.47368725810E+02 -0.15333035923E+02  0.36235372949E+02  0.61578408783E+02  0.00000000000E+00 0. -1.
         22    1    4    4    0    0  0.13425302733E+01 -0.68001223771E+00  0.44338203800E+01  0.46822609218E+01  0.00000000000E+00 0. -1.
<mgrwt>
<rscale>  0 0.10581380E+03</rscale>
<asrwt>0</asrwt>
<pdfrwt beam="2">  1        2 0.48876506E-02 0.10581380E+03</pdfrwt>
<pdfrwt beam="1">  1       -2 0.13554945E-01 0.10581380E+03</pdfrwt>
<totfact> 0.57375965E+04</totfact>
</mgrwt>
</event>
<event>
 7    1  0.3891761E-009  0.9007922E+02  0.7818608E-02  0.1302660E+00
         -2   -1    0    0    0  501 -0.00000000000E+00  0.00000000000E+00  0.41829839710E+02  0.41829839788E+02  0.25500000000E-02 0.  1.
          2   -1    0    0  501    0  0.00000000000E+00 -0.00000000000E+00 -0.48495681538E+02  0.48495681605E+02  0.25500000000E-02 0. -1.
         23    2    1    2    0    0  0.00000000000E+00 -0.55511151231E-16 -0.66658418281E+01  0.90325521392E+02  0.90079222729E+02 0.  0.
    9000005    2    3    3    0    0 -0.17361201843E+02 -0.42808811420E+00 -0.44116240731E+02  0.49044448649E+02  0.12550723412E+02 0.  0.
         22    1    3    3    0    0  0.17361201843E+02  0.42808811420E+00  0.37450398903E+02  0.41281072744E+02  0.00000000000E+00 0.  1.
         22    1    4    4    0    0  0.15316998181E+01 -0.94402696653E+00 -0.88698539471E+01  0.90505027645E+01  0.00000000000E+00 0.  1.
         22    1    4    4    0    0 -0.18892901662E+02  0.51593885233E+00 -0.35246386784E+02  0.39993945884E+02  0.00000000000E+00 0.  1.
<mgrwt>
<rscale>  0 0.90079223E+02</rscale>
<asrwt>0</asrwt>
<pdfrwt beam="2">  1        2 0.74608741E-02 0.90079223E+02</pdfrwt>
<pdfrwt beam="1">  1       -2 0.64353600E-02 0.90079223E+02</pdfrwt>
<totfact> 0.10379883E+05</totfact>
</mgrwt>
</event>
<event>
 7    1  0.3891761E-009  0.8571968E+02  0.7818608E-02  0.1313561E+00
          2   -1    0    0  501    0  0.00000000000E+00  0.00000000000E+00  0.26932684005E+03  0.26932684006E+03  0.25500000000E-02 0. -1.
         -2   -1    0    0    0  501 -0.00000000000E+00 -0.00000000000E+00 -0.68205815957E+01  0.68205820724E+01  0.25500000000E-02 0.  1.
         23    2    1    2    0    0  0.71054273576E-14  0.00000000000E+00  0.26250625845E+03  0.27614742213E+03  0.85719676992E+02 0.  0.
    9000005    2    3    3    0    0 -0.39340587232E+02 -0.10875019244E+02  0.10504626725E+03  0.11348336133E+03  0.13334436180E+02 0.  0.
         22    1    3    3    0    0  0.39340587232E+02  0.10875019244E+02  0.15745999120E+03  0.16266406080E+03  0.00000000000E+00 0. -1.
         22    1    4    4    0    0 -0.17150601224E+00 -0.23504624839E+01  0.11012769568E+02  0.11262112669E+02  0.00000000000E+00 0. -1.
         22    1    4    4    0    0 -0.39169081220E+02 -0.85245567598E+01  0.94033497682E+02  0.10222124866E+03  0.00000000000E+00 0. -1.
<mgrwt>
<rscale>  0 0.85719677E+02</rscale>
<asrwt>0</asrwt>
<pdfrwt beam="1">  1        2 0.41434894E-01 0.85719677E+02</pdfrwt>
<pdfrwt beam="2">  1       -2 0.10493204E-02 0.85719677E+02</pdfrwt>
<totfact> 0.20340593E+05</totfact>
</mgrwt>
</event>
<event>
 7    1  0.3891761E-009  0.9050918E+02  0.7818608E-02  0.1301623E+00
         -2   -1    0    0    0  501 -0.00000000000E+00  0.00000000000E+00  0.27733782592E+03  0.27733782594E+03  0.25500000000E-02 0.  1.
          2   -1    0    0  501    0  0.00000000000E+00 -0.00000000000E+00 -0.73844164686E+01  0.73844169088E+01  0.25500000000E-02 0. -1.
         23    2    1    2    0    0  0.00000000000E+00  0.00000000000E+00  0.26995340945E+03  0.28472224284E+03  0.90509183478E+02 0.  0.
    9000005    2    3    3    0    0  0.24996390545E+02  0.81264341179E+01  0.25059717002E+03  0.25207990106E+03  0.73808148262E+01 0.  0.
         22    1    3    3    0    0 -0.24996390545E+02 -0.81264341179E+01  0.19356239436E+02  0.32642341780E+02  0.00000000000E+00 0. -1.
         22    1    4    4    0    0  0.43878284686E+01  0.42536839999E+01  0.44250396861E+02  0.44670398348E+02  0.00000000000E+00 0. -1.
         22    1    4    4    0    0  0.20608562076E+02  0.38727501180E+01  0.20634677316E+03  0.20740950272E+03  0.00000000000E+00 0. -1.
<mgrwt>
<rscale>  0 0.90509183E+02</rscale>
<asrwt>0</asrwt>
<pdfrwt beam="2">  1        2 0.11360641E-02 0.90509183E+02</pdfrwt>
<pdfrwt beam="1">  1       -2 0.42667356E-01 0.90509183E+02</pdfrwt>
<totfact> 0.54260441E+04</totfact>
</mgrwt>
</event>
<event>
 7    1  0.3891761E-009  0.9305871E+02  0.7818608E-02  0.1295609E+00
         -2   -1    0    0    0  501 -0.00000000000E+00  0.00000000000E+00  0.28197504642E+02  0.28197504757E+02  0.25500000000E-02 0.  1.
          2   -1    0    0  501    0  0.00000000000E+00 -0.00000000000E+00 -0.76779171740E+02  0.76779171783E+02  0.25500000000E-02 0. -1.
         23    2    1    2    0    0  0.00000000000E+00  0.00000000000E+00 -0.48581667098E+02  0.10497667654E+03  0.93058713935E+02 0.  0.
    9000005    2    3    3    0    0  0.25240074459E+01 -0.44509423248E+02 -0.10487386179E+02  0.46336812879E+02  0.70466720828E+01 0.  0.
         22    1    3    3    0    0 -0.25240074459E+01  0.44509423248E+02 -0.38094280919E+02  0.58639863661E+02  0.00000000000E+00 0. -1.
         22    1    4    4    0    0  0.40741162950E+01 -0.41630497339E+02 -0.92437764106E+01  0.42838582313E+02  0.00000000000E+00 0.  1.
         22    1    4    4    0    0 -0.15501088491E+01 -0.28789259086E+01 -0.12436097686E+01  0.34982305652E+01  0.00000000000E+00 0.  1.
<mgrwt>
<rscale>  0 0.93058714E+02</rscale>
<asrwt>0</asrwt>
<pdfrwt beam="2">  1        2 0.11812180E-01 0.93058714E+02</pdfrwt>
<pdfrwt beam="1">  1       -2 0.43380777E-02 0.93058714E+02</pdfrwt>
<totfact> 0.10722650E+05</totfact>
</mgrwt>
</event>
<event>
 7    1  0.3891761E-009  0.1007497E+03  0.7818608E-02  0.1278727E+00
         -2   -1    0    0    0  501 -0.00000000000E+00  0.00000000000E+00  0.95707754237E+01  0.95707757634E+01  0.25500000000E-02 0.  1.
          2   -1    0    0  501    0  0.00000000000E+00 -0.00000000000E+00 -0.26514316100E+03  0.26514316101E+03  0.25500000000E-02 0. -1.
         23    2    1    2    0    0  0.00000000000E+00  0.00000000000E+00 -0.25557238558E+03  0.27471393678E+03  0.10074970367E+03 0.  0.
    9000005    2    3    3    0    0  0.35046689919E+02  0.32942495887E+02 -0.15926386990E+03  0.16706260747E+03  0.15213679688E+02 0.  0.
         22    1    3    3    0    0 -0.35046689919E+02 -0.32942495887E+02 -0.96308515677E+02  0.10765132931E+03  0.00000000000E+00 0.  1.
         22    1    4    4    0    0  0.22825731307E+02  0.11032051096E+02 -0.81457906150E+02  0.85311843465E+02  0.00000000000E+00 0.  1.
         22    1    4    4    0    0  0.12220958612E+02  0.21910444791E+02 -0.77805963752E+02  0.81750764006E+02  0.00000000000E+00 0.  1.
<mgrwt>
<rscale>  0 0.10074970E+03</rscale>
<asrwt>0</asrwt>
<pdfrwt beam="2">  1        2 0.40791250E-01 0.10074970E+03</pdfrwt>
<pdfrwt beam="1">  1       -2 0.14724272E-02 0.10074970E+03</pdfrwt>
<totfact> 0.13114481E+05</totfact>
</mgrwt>
</event>
<event>
 7    1  0.3891761E-009  0.9380696E+02  0.7818608E-02  0.1293886E+00
          2   -1    0    0  501    0  0.00000000000E+00  0.00000000000E+00  0.11978443222E+03  0.11978443224E+03  0.25500000000E-02 0. -1.
         -2   -1    0    0    0  501 -0.00000000000E+00 -0.00000000000E+00 -0.18365795577E+02  0.18365795754E+02  0.25500000000E-02 0.  1.
         23    2    1    2    0    0 -0.71054273576E-14 -0.35527136788E-14  0.10141863664E+03  0.13815022800E+03  0.93806959432E+02 0.  0.
    9000005    2    3    3    0    0  0.38416441275E+02  0.18393588197E+02  0.26226842590E+02  0.51732909482E+02  0.13202257544E+02 0.  0.
         22    1    3    3    0    0 -0.38416441275E+02 -0.18393588197E+02  0.75191794048E+02  0.86417318514E+02  0.00000000000E+00 0. -1.
         22    1    4    4    0    0  0.34334956027E+02  0.17964207424E+02  0.18403839302E+02  0.42898755865E+02  0.00000000000E+00 0. -1.
         22    1    4    4    0    0  0.40814852484E+01  0.42938077276E+00  0.78230032884E+01  0.88341536171E+01  0.00000000000E+00 0. -1.
<mgrwt>
<rscale>  0 0.93806959E+02</rscale>
<asrwt>0</asrwt>
<pdfrwt beam="1">  1        2 0.18428373E-01 0.93806959E+02</pdfrwt>
<pdfrwt beam="2">  1       -2 0.28255071E-02 0.93806959E+02</pdfrwt>
<totfact> 0.12005394E+05</totfact>
</mgrwt>
</event>
<event>
 7    1  0.3891761E-009  0.8892258E+02  0.7818608E-02  0.1305482E+00
          2   -1    0    0  501    0  0.00000000000E+00  0.00000000000E+00  0.18351077740E+04  0.18351077740E+04  0.25500000000E-02 0. -1.
         -2   -1    0    0    0  501 -0.00000000000E+00 -0.00000000000E+00 -0.10772138082E+01  0.10772168264E+01  0.25500000000E-02 0.  1.
         23    2    1    2    0    0  0.00000000000E+00 -0.44408920985E-15  0.18340305602E+04  0.18361849908E+04  0.88922577702E+02 0.  0.
    9000005    2    3    3    0    0  0.16490269837E+02 -0.33122173706E+01  0.17648403345E+04  0.17649797444E+04  0.14463478007E+02 0.  0.
         22    1    3    3    0    0 -0.16490269837E+02  0.33122173706E+01  0.69190225755E+02  0.71205246458E+02  0.00000000000E+00 0.  1.
         22    1    4    4    0    0  0.16669757556E+02 -0.45467408850E+01  0.10794993456E+04  0.10796376201E+04  0.00000000000E+00 0. -1.
         22    1    4    4    0    0 -0.17948771887E+00  0.12345235144E+01  0.68534098886E+03  0.68534212425E+03  0.00000000000E+00 0. -1.
<mgrwt>
<rscale>  0 0.88922578E+02</rscale>
<asrwt>0</asrwt>
<pdfrwt beam="1">  1        2 0.28232430E+00 0.88922578E+02</pdfrwt>
<pdfrwt beam="2">  1       -2 0.16572542E-03 0.88922578E+02</pdfrwt>
<totfact> 0.22582721E+05</totfact>
</mgrwt>
</event>
<event>
 7    1  0.3891761E-009  0.9140689E+02  0.7818608E-02  0.1299480E+00
          2   -1    0    0  501    0  0.00000000000E+00  0.00000000000E+00  0.20754212801E+03  0.20754212803E+03  0.25500000000E-02 0. -1.
         -2   -1    0    0    0  501 -0.00000000000E+00 -0.00000000000E+00 -0.10064484980E+02  0.10064485303E+02  0.25500000000E-02 0.  1.
         23    2    1    2    0    0  0.00000000000E+00  0.00000000000E+00  0.19747764303E+03  0.21760661333E+03  0.91406885233E+02 0.  0.
    9000005    2    3    3    0    0 -0.14350619886E+02  0.36554665335E+02  0.48807299803E+02  0.63837127396E+02  0.12281794302E+02 0.  0.
         22    1    3    3    0    0  0.14350619886E+02 -0.36554665335E+02  0.14867034323E+03  0.15376948593E+03  0.00000000000E+00 0. -1.
         22    1    4    4    0    0 -0.18495685046E+00  0.70594674254E+01  0.16061564670E+02  0.17545487996E+02  0.00000000000E+00 0. -1.
         22    1    4    4    0    0 -0.14165663036E+02  0.29495197910E+02  0.32745735133E+02  0.46291639400E+02  0.00000000000E+00 0. -1.
<mgrwt>
<rscale>  0 0.91406885E+02</rscale>
<asrwt>0</asrwt>
<pdfrwt beam="1">  1        2 0.31929557E-01 0.91406885E+02</pdfrwt>
<pdfrwt beam="2">  1       -2 0.15483824E-02 0.91406885E+02</pdfrwt>
<totfact> 0.15570975E+05</totfact>
</mgrwt>
</event>
<event>
 7    1  0.3891761E-009  0.9106759E+02  0.7818608E-02  0.1300287E+00
          2   -1    0    0  501    0  0.00000000000E+00  0.00000000000E+00  0.14624839173E+02  0.14624839395E+02  0.25500000000E-02 0.  1.
         -2   -1    0    0    0  501 -0.00000000000E+00 -0.00000000000E+00 -0.14176745802E+03  0.14176745804E+03  0.25500000000E-02 0. -1.
         23    2    1    2    0    0 -0.35527136788E-14  0.35527136788E-14 -0.12714261885E+03  0.15639229744E+03  0.91067585730E+02 0.  0.
    9000005    2    3    3    0    0  0.24523647964E+02  0.22888411001E+02 -0.12569482941E+02  0.37009333248E+02  0.92957075263E+01 0.  0.
         22    1    3    3    0    0 -0.24523647964E+02 -0.22888411001E+02 -0.11457313591E+03  0.11938296419E+03  0.00000000000E+00 0. -1.
         22    1    4    4    0    0  0.18592000289E+02  0.21881742405E+02 -0.11320153096E+02  0.30864526426E+02  0.00000000000E+00 0.  1.
         22    1    4    4    0    0  0.59316476757E+01  0.10066685958E+01 -0.12493298455E+01  0.61448068214E+01  0.00000000000E+00 0.  1.
<mgrwt>
<rscale>  0 0.91067586E+02</rscale>
<asrwt>0</asrwt>
<pdfrwt beam="1">  1        2 0.22499754E-02 0.91067586E+02</pdfrwt>
<pdfrwt beam="2">  1       -2 0.21810377E-01 0.91067586E+02</pdfrwt>
<totfact> 0.71500952E+04</totfact>
</mgrwt>
</event>
<event>
 7    1  0.3891761E-009  0.9216055E+02  0.7818608E-02  0.1297702E+00
          2   -1    0    0  501    0  0.00000000000E+00  0.00000000000E+00  0.26424568536E+03  0.26424568537E+03  0.25500000000E-02 0. -1.
         -2   -1    0    0    0  501 -0.00000000000E+00 -0.00000000000E+00 -0.80356721558E+01  0.80356725604E+01  0.25500000000E-02 0.  1.
         23    2    1    2    0    0  0.44408920985E-15 -0.71054273576E-14  0.25621001320E+03  0.27228135793E+03  0.92160550191E+02 0.  0.
    9000005    2    3    3    0    0  0.23374135841E+01 -0.38940405133E+02  0.19727480183E+03  0.20160478619E+03  0.14329121443E+02 0.  0.
         22    1    3    3    0    0 -0.23374135841E+01  0.38940405133E+02  0.58935211369E+02  0.70676571743E+02  0.00000000000E+00 0.  1.
         22    1    4    4    0    0 -0.34299066063E+01 -0.22573470756E+02  0.13668439989E+03  0.13857832087E+03  0.00000000000E+00 0.  1.
         22    1    4    4    0    0  0.57673201904E+01 -0.16366934377E+02  0.60590401942E+02  0.63026465319E+02  0.00000000000E+00 0.  1.
<mgrwt>
<rscale>  0 0.92160550E+02</rscale>
<asrwt>0</asrwt>
<pdfrwt beam="1">  1        2 0.40653176E-01 0.92160550E+02</pdfrwt>
<pdfrwt beam="2">  1       -2 0.12362575E-02 0.92160550E+02</pdfrwt>
<totfact> 0.16649875E+05</totfact>
</mgrwt>
</event>
<event>
 7    1  0.3891761E-009  0.9089900E+02  0.7818608E-02  0.1300689E+00
         -2   -1    0    0    0  501 -0.00000000000E+00  0.00000000000E+00  0.26645363292E+02  0.26645363414E+02  0.25500000000E-02 0.  1.
          2   -1    0    0  501    0  0.00000000000E+00 -0.00000000000E+00 -0.77524068744E+02  0.77524068786E+02  0.25500000000E-02 0. -1.
         23    2    1    2    0    0  0.71054273576E-14  0.00000000000E+00 -0.50878705453E+02  0.10416943220E+03  0.90898998544E+02 0.  0.
    9000005    2    3    3    0    0  0.40988751385E+02 -0.18962173471E+02 -0.24161303474E+02  0.51695997671E+02  0.70047003309E+01 0.  0.
         22    1    3    3    0    0 -0.40988751385E+02  0.18962173471E+02 -0.26717401978E+02  0.52473434530E+02  0.00000000000E+00 0. -1.
         22    1    4    4    0    0  0.57855718992E+01 -0.36501203178E+01 -0.11453252108E+01  0.69359923856E+01  0.00000000000E+00 0. -1.
         22    1    4    4    0    0  0.35203179486E+02 -0.15312053153E+02 -0.23015978263E+02  0.44760005285E+02  0.00000000000E+00 0. -1.
<mgrwt>
<rscale>  0 0.90898999E+02</rscale>
<asrwt>0</asrwt>
<pdfrwt beam="2">  1        2 0.11926780E-01 0.90898999E+02</pdfrwt>
<pdfrwt beam="1">  1       -2 0.40992867E-02 0.90898999E+02</pdfrwt>
<totfact> 0.11480250E+05</totfact>
</mgrwt>
</event>
<event>
 7    1  0.3891761E-009  0.9128087E+02  0.7818608E-02  0.1299779E+00
         -2   -1    0    0    0  501 -0.00000000000E+00  0.00000000000E+00  0.79606493962E+01  0.79606498046E+01  0.25500000000E-02 0.  1.
          2   -1    0    0  501    0  0.00000000000E+00 -0.00000000000E+00 -0.26166825779E+03  0.26166825780E+03  0.25500000000E-02 0. -1.
         23    2    1    2    0    0  0.00000000000E+00 -0.35527136788E-14 -0.25370760839E+03  0.26962890761E+03  0.91280870178E+02 0.  0.
    9000005    2    3    3    0    0 -0.20212919846E+02 -0.26497018336E+02 -0.21883477276E+03  0.22139231595E+03  0.39045721386E+01 0.  0.
         22    1    3    3    0    0  0.20212919846E+02  0.26497018336E+02 -0.34872835630E+02  0.48236591653E+02  0.00000000000E+00 0.  1.
         22    1    4    4    0    0 -0.17858907714E+02 -0.21767798414E+02 -0.17703722077E+03  0.17926225250E+03  0.00000000000E+00 0.  1.
         22    1    4    4    0    0 -0.23540121317E+01 -0.47292199218E+01 -0.41797551990E+02  0.42130063453E+02  0.00000000000E+00 0.  1.
<mgrwt>
<rscale>  0 0.91280870E+02</rscale>
<asrwt>0</asrwt>
<pdfrwt beam="2">  1        2 0.40256648E-01 0.91280870E+02</pdfrwt>
<pdfrwt beam="1">  1       -2 0.12247155E-02 0.91280870E+02</pdfrwt>
<totfact> 0.17020805E+05</totfact>
</mgrwt>
</event>
<event>
 7    1  0.3891761E-009  0.9542974E+02  0.7818608E-02  0.1290211E+00
         -2   -1    0    0    0  501 -0.00000000000E+00  0.00000000000E+00  0.47697444450E+01  0.47697451266E+01  0.25500000000E-02 0.  1.
          2   -1    0    0  501    0  0.00000000000E+00 -0.00000000000E+00 -0.47732298012E+03  0.47732298013E+03  0.25500000000E-02 0. -1.
         23    2    1    2    0    0  0.00000000000E+00  0.88817841970E-15 -0.47255323568E+03  0.48209272526E+03  0.95429739575E+02 0.  0.
    9000005    2    3    3    0    0  0.46210551904E+02  0.28186205794E+01 -0.27523357123E+03  0.27941463145E+03  0.13253596104E+02 0.  0.
         22    1    3    3    0    0 -0.46210551904E+02 -0.28186205794E+01 -0.19731966445E+03  0.20267809380E+03  0.00000000000E+00 0.  1.
         22    1    4    4    0    0  0.21246908208E+02 -0.52119000650E+01 -0.13190857469E+03  0.13371038511E+03  0.00000000000E+00 0.  1.
         22    1    4    4    0    0  0.24963643696E+02  0.80305206444E+01 -0.14332499654E+03  0.14570424634E+03  0.00000000000E+00 0.  1.
<mgrwt>
<rscale>  0 0.95429740E+02</rscale>
<asrwt>0</asrwt>
<pdfrwt beam="2">  1        2 0.73434267E-01 0.95429740E+02</pdfrwt>
<pdfrwt beam="1">  1       -2 0.73380727E-03 0.95429740E+02</pdfrwt>
<totfact> 0.18802916E+05</totfact>
</mgrwt>
</event>
<event>
 7    1  0.3891761E-009  0.9098286E+02  0.7818608E-02  0.1300489E+00
         -2   -1    0    0    0  501 -0.00000000000E+00  0.00000000000E+00  0.95175118539E+01  0.95175121955E+01  0.25500000000E-02 0. -1.
          2   -1    0    0  501    0  0.00000000000E+00 -0.00000000000E+00 -0.21743813222E+03  0.21743813224E+03  0.25500000000E-02 0.  1.
         23    2    1    2    0    0  0.00000000000E+00  0.00000000000E+00 -0.20792062037E+03  0.22695564444E+03  0.90982856438E+02 0.  0.
    9000005    2    3    3    0    0 -0.17567439622E+02 -0.38658624162E+02 -0.65247367240E+02  0.78097452468E+02  0.62361040123E+01 0.  0.
         22    1    3    3    0    0  0.17567439622E+02  0.38658624162E+02 -0.14267325313E+03  0.14885819197E+03  0.00000000000E+00 0. -1.
         22    1    4    4    0    0 -0.25027280027E+01 -0.11344297132E+02 -0.20245821053E+02  0.23342022084E+02  0.00000000000E+00 0.  1.
         22    1    4    4    0    0 -0.15064711619E+02 -0.27314327029E+02 -0.45001546187E+02  0.54755430383E+02  0.00000000000E+00 0.  1.
<mgrwt>
<rscale>  0 0.90982856E+02</rscale>
<asrwt>0</asrwt>
<pdfrwt beam="2">  1        2 0.33452017E-01 0.90982856E+02</pdfrwt>
<pdfrwt beam="1">  1       -2 0.14642328E-02 0.90982856E+02</pdfrwt>
<totfact> 0.16037064E+05</totfact>
</mgrwt>
</event>
<event>
 7    1  0.3891761E-009  0.9066172E+02  0.7818608E-02  0.1301257E+00
          2   -1    0    0  501    0  0.00000000000E+00  0.00000000000E+00  0.59589389567E+02  0.59589389622E+02  0.25500000000E-02 0. -1.
         -2   -1    0    0    0  501 -0.00000000000E+00 -0.00000000000E+00 -0.34484105309E+02  0.34484105403E+02  0.25500000000E-02 0.  1.
         23    2    1    2    0    0  0.00000000000E+00  0.00000000000E+00  0.25105284259E+02  0.94073495025E+02  0.90661718319E+02 0.  0.
    9000005    2    3    3    0    0  0.74747634881E+01 -0.42775523755E+02  0.25278406075E+02  0.50649452227E+02  0.63837038997E+01 0.  0.
         22    1    3    3    0    0 -0.74747634881E+01  0.42775523755E+02 -0.17312181602E+00  0.43424042798E+02  0.00000000000E+00 0.  1.
         22    1    4    4    0    0  0.14260810103E+01 -0.17106723258E+02  0.13141512443E+02  0.21618812108E+02  0.00000000000E+00 0. -1.
         22    1    4    4    0    0  0.60486824778E+01 -0.25668800498E+02  0.12136893631E+02  0.29030640119E+02  0.00000000000E+00 0. -1.
<mgrwt>
<rscale>  0 0.90661718E+02</rscale>
<asrwt>0</asrwt>
<pdfrwt beam="1">  1        2 0.91675984E-02 0.90661718E+02</pdfrwt>
<pdfrwt beam="2">  1       -2 0.53052470E-02 0.90661718E+02</pdfrwt>
<totfact> 0.10757879E+05</totfact>
</mgrwt>
</event>
<event>
 7    1  0.3891761E-009  0.9192771E+02  0.7818608E-02  0.1298249E+00
         -2   -1    0    0    0  501 -0.00000000000E+00  0.00000000000E+00  0.11520221802E+02  0.11520222084E+02  0.25500000000E-02 0. -1.
          2   -1    0    0  501    0  0.00000000000E+00 -0.00000000000E+00 -0.18338847632E+03  0.18338847633E+03  0.25500000000E-02 0.  1.
         23    2    1    2    0    0  0.00000000000E+00 -0.44408920985E-15 -0.17186825451E+03  0.19490869842E+03  0.91927709693E+02 0.  0.
    9000005    2    3    3    0    0  0.34780673969E+02 -0.36037825350E+01 -0.14907178054E+03  0.15316709141E+03  0.38832469251E+01 0.  0.
         22    1    3    3    0    0 -0.34780673969E+02  0.36037825350E+01 -0.22796473977E+02  0.41741607013E+02  0.00000000000E+00 0. -1.
         22    1    4    4    0    0  0.13638786725E+02 -0.23650341552E+01 -0.51899884033E+02  0.53714130845E+02  0.00000000000E+00 0. -1.
         22    1    4    4    0    0  0.21141887244E+02 -0.12387483798E+01 -0.97171896505E+02  0.99452960560E+02  0.00000000000E+00 0. -1.
<mgrwt>
<rscale>  0 0.91927710E+02</rscale>
<asrwt>0</asrwt>
<pdfrwt beam="2">  1        2 0.28213610E-01 0.91927710E+02</pdfrwt>
<pdfrwt beam="1">  1       -2 0.17723420E-02 0.91927710E+02</pdfrwt>
<totfact> 0.14665186E+05</totfact>
</mgrwt>
</event>
<event>
 7    1  0.3891761E-009  0.9258836E+02  0.7818608E-02  0.1296702E+00
          2   -1    0    0  501    0  0.00000000000E+00  0.00000000000E+00  0.57140609988E+02  0.57140610045E+02  0.25500000000E-02 0. -1.
         -2   -1    0    0    0  501 -0.00000000000E+00 -0.00000000000E+00 -0.37506616854E+02  0.37506616941E+02  0.25500000000E-02 0.  1.
         23    2    1    2    0    0  0.00000000000E+00  0.00000000000E+00  0.19633993134E+02  0.94647226986E+02  0.92588357204E+02 0.  0.
    9000005    2    3    3    0    0 -0.11468484958E+02  0.18343672018E+02 -0.31281166512E+02  0.39326616612E+02  0.10002746896E+02 0.  0.
         22    1    3    3    0    0  0.11468484958E+02 -0.18343672018E+02  0.50915159646E+02  0.55320610374E+02  0.00000000000E+00 0. -1.
         22    1    4    4    0    0 -0.22186860018E+00  0.83713889448E+01 -0.14916458623E+02  0.17106434941E+02  0.00000000000E+00 0. -1.
         22    1    4    4    0    0 -0.11246616358E+02  0.99722830731E+01 -0.16364707889E+02  0.22220181671E+02  0.00000000000E+00 0. -1.
<mgrwt>
<rscale>  0 0.92588357E+02</rscale>
<asrwt>0</asrwt>
<pdfrwt beam="1">  1        2 0.87908630E-02 0.92588357E+02</pdfrwt>
<pdfrwt beam="2">  1       -2 0.57702488E-02 0.92588357E+02</pdfrwt>
<totfact> 0.10023267E+05</totfact>
</mgrwt>
</event>
<event>
 7    1  0.3891761E-009  0.9196438E+02  0.7818608E-02  0.1298163E+00
         -2   -1    0    0    0  501 -0.00000000000E+00  0.00000000000E+00  0.71968633602E+01  0.71968638119E+01  0.25500000000E-02 0. -1.
          2   -1    0    0  501    0  0.00000000000E+00 -0.00000000000E+00 -0.29378935653E+03  0.29378935654E+03  0.25500000000E-02 0.  1.
         23    2    1    2    0    0  0.00000000000E+00  0.00000000000E+00 -0.28659249317E+03  0.30098622035E+03  0.91964382785E+02 0.  0.
    9000005    2    3    3    0    0 -0.35309993659E+02 -0.28263544411E+02 -0.14138456848E+03  0.14889754560E+03  0.11630102624E+02 0.  0.
         22    1    3    3    0    0  0.35309993659E+02  0.28263544411E+02 -0.14520792469E+03  0.15208867475E+03  0.00000000000E+00 0. -1.
         22    1    4    4    0    0 -0.34091598730E+02 -0.28394855734E+02 -0.12828399567E+03  0.13573978223E+03  0.00000000000E+00 0. -1.
         22    1    4    4    0    0 -0.12183949291E+01  0.13131132242E+00 -0.13100572812E+02  0.13157763368E+02  0.00000000000E+00 0. -1.
<mgrwt>
<rscale>  0 0.91964383E+02</rscale>
<asrwt>0</asrwt>
<pdfrwt beam="2">  1        2 0.45198353E-01 0.91964383E+02</pdfrwt>
<pdfrwt beam="1">  1       -2 0.11072100E-02 0.91964383E+02</pdfrwt>
<totfact> 0.17421501E+05</totfact>
</mgrwt>
</event>
<event>
 7    1  0.3891761E-009  0.9327391E+02  0.7818608E-02  0.1295112E+00
          2   -1    0    0  501    0  0.00000000000E+00  0.00000000000E+00  0.75244434313E+03  0.75244434314E+03  0.25500000000E-02 0. -1.
         -2   -1    0    0    0  501 -0.00000000000E+00 -0.00000000000E+00 -0.28905861820E+01  0.28905873068E+01  0.25500000000E-02 0.  1.
         23    2    1    2    0    0  0.00000000000E+00 -0.71054273576E-14  0.74955375695E+03  0.75533493045E+03  0.93273911624E+02 0.  0.
    9000005    2    3    3    0    0  0.54022997603E+01 -0.35966634164E+02  0.60865629342E+03  0.60981902463E+03  0.96941045905E+01 0.  0.
         22    1    3    3    0    0 -0.54022997603E+01  0.35966634164E+02  0.14089746354E+03  0.14551590582E+03  0.00000000000E+00 0.  1.
         22    1    4    4    0    0  0.53465429664E+01 -0.16160328166E+02  0.21949259998E+03  0.22015163677E+03  0.00000000000E+00 0.  1.
         22    1    4    4    0    0  0.55756793821E-01 -0.19806305998E+02  0.38916369344E+03  0.38966738785E+03  0.00000000000E+00 0.  1.
<mgrwt>
<rscale>  0 0.93273912E+02</rscale>
<asrwt>0</asrwt>
<pdfrwt beam="1">  1        2 0.11576088E+00 0.93273912E+02</pdfrwt>
<pdfrwt beam="2">  1       -2 0.44470485E-03 0.93273912E+02</pdfrwt>
<totfact> 0.22688248E+05</totfact>
</mgrwt>
</event>
<event>
 7    1  0.3891761E-009  0.8911543E+02  0.7818608E-02  0.1305008E+00
         -2   -1    0    0    0  501 -0.00000000000E+00  0.00000000000E+00  0.14074176310E+02  0.14074176541E+02  0.25500000000E-02 0. -1.
          2   -1    0    0  501    0  0.00000000000E+00 -0.00000000000E+00 -0.14106614174E+03  0.14106614177E+03  0.25500000000E-02 0.  1.
         23    2    1    2    0    0  0.00000000000E+00  0.00000000000E+00 -0.12699196543E+03  0.15514031831E+03  0.89115425601E+02 0.  0.
    9000005    2    3    3    0    0  0.28292253128E+02 -0.30272088668E+02 -0.89003081557E+02  0.98926385537E+02  0.12166769881E+02 0.  0.
         22    1    3    3    0    0 -0.28292253128E+02  0.30272088668E+02 -0.37988883877E+02  0.56213932772E+02  0.00000000000E+00 0. -1.
         22    1    4    4    0    0  0.15090323721E+02 -0.78597234289E+01 -0.31127527525E+02  0.35474160909E+02  0.00000000000E+00 0. -1.
         22    1    4    4    0    0  0.13201929407E+02 -0.22412365240E+02 -0.57875554033E+02  0.63452224628E+02  0.00000000000E+00 0. -1.
<mgrwt>
<rscale>  0 0.89115426E+02</rscale>
<asrwt>0</asrwt>
<pdfrwt beam="2">  1        2 0.21702482E-01 0.89115426E+02</pdfrwt>
<pdfrwt beam="1">  1       -2 0.21652580E-02 0.89115426E+02</pdfrwt>
<totfact> 0.14570692E+05</totfact>
</mgrwt>
</event>
<event>
 7    1  0.3891761E-009  0.9451157E+02  0.7818608E-02  0.1292280E+00
          2   -1    0    0  501    0  0.00000000000E+00  0.00000000000E+00  0.33462445111E+02  0.33462445208E+02  0.25500000000E-02 0. -1.
         -2   -1    0    0    0  501 -0.00000000000E+00 -0.00000000000E+00 -0.66734783575E+02  0.66734783623E+02  0.25500000000E-02 0.  1.
         23    2    1    2    0    0 -0.11102230246E-15  0.71054273576E-14 -0.33272338464E+02  0.10019722883E+03  0.94511566269E+02 0.  0.
    9000005    2    3    3    0    0 -0.26192759477E+00  0.46863176342E+02 -0.13423515747E+02  0.49303204956E+02  0.73749129484E+01 0.  0.
         22    1    3    3    0    0  0.26192759477E+00 -0.46863176342E+02 -0.19848822717E+02  0.50894023875E+02  0.00000000000E+00 0. -1.
         22    1    4    4    0    0  0.11903817998E+01  0.22975809981E+01  0.40434087766E+00  0.26190415838E+01  0.00000000000E+00 0. -1.
         22    1    4    4    0    0 -0.14523093946E+01  0.44565595344E+02 -0.13827856625E+02  0.46684163373E+02  0.00000000000E+00 0. -1.
<mgrwt>
<rscale>  0 0.94511566E+02</rscale>
<asrwt>0</asrwt>
<pdfrwt beam="1">  1        2 0.51480685E-02 0.94511566E+02</pdfrwt>
<pdfrwt beam="2">  1       -2 0.10266890E-01 0.94511566E+02</pdfrwt>
<totfact> 0.81891392E+04</totfact>
</mgrwt>
</event>
<event>
 7    1  0.3891761E-009  0.1060739E+03  0.7818608E-02  0.1268018E+00
         -2   -1    0    0    0  501 -0.00000000000E+00  0.00000000000E+00  0.59827227928E+03  0.59827227928E+03  0.25500000000E-02 0.  1.
          2   -1    0    0  501    0  0.00000000000E+00 -0.00000000000E+00 -0.47017311555E+01  0.47017318470E+01  0.25500000000E-02 0. -1.
         23    2    1    2    0    0  0.35527136788E-14  0.71054273576E-14  0.59357054812E+03  0.60297401113E+03  0.10607385399E+03 0.  0.
    9000005    2    3    3    0    0 -0.26751630036E+02 -0.32557180848E+02  0.47835858956E+03  0.48029795344E+03  0.91413423424E+01 0.  0.
         22    1    3    3    0    0  0.26751630036E+02  0.32557180848E+02  0.11521195856E+03  0.12267605769E+03  0.00000000000E+00 0. -1.
         22    1    4    4    0    0 -0.25894234276E+02 -0.32798359498E+02  0.45289244293E+03  0.45481623610E+03  0.00000000000E+00 0. -1.
         22    1    4    4    0    0 -0.85739576068E+00  0.24117865046E+00  0.25466146625E+02  0.25481717339E+02  0.00000000000E+00 0. -1.
<mgrwt>
<rscale>  0 0.10607385E+03</rscale>
<asrwt>0</asrwt>
<pdfrwt beam="2">  1        2 0.72334352E-03 0.10607385E+03</pdfrwt>
<pdfrwt beam="1">  1       -2 0.92041862E-01 0.10607385E+03</pdfrwt>
<totfact> 0.21124664E+04</totfact>
</mgrwt>
</event>
<event>
 7    1  0.3891761E-009  0.9045137E+02  0.7818608E-02  0.1301762E+00
          2   -1    0    0  501    0  0.00000000000E+00  0.00000000000E+00  0.62665758710E+03  0.62665758710E+03  0.25500000000E-02 0. -1.
         -2   -1    0    0    0  501 -0.00000000000E+00 -0.00000000000E+00 -0.32639234410E+01  0.32639244371E+01  0.25500000000E-02 0.  1.
         23    2    1    2    0    0  0.00000000000E+00  0.17763568394E-14  0.62339366366E+03  0.62992151154E+03  0.90451372645E+02 0.  0.
    9000005    2    3    3    0    0 -0.38002921325E+02 -0.15118325052E+02  0.43772217898E+03  0.43979869333E+03  0.12222884403E+02 0.  0.
         22    1    3    3    0    0  0.38002921325E+02  0.15118325052E+02  0.18567148468E+03  0.19012281821E+03  0.00000000000E+00 0.  1.
         22    1    4    4    0    0 -0.26422749704E+02 -0.97437999681E+01  0.23628431430E+03  0.23795667783E+03  0.00000000000E+00 0. -1.
         22    1    4    4    0    0 -0.11580171621E+02 -0.53745250839E+01  0.20143786468E+03  0.20184201550E+03  0.00000000000E+00 0. -1.
<mgrwt>
<rscale>  0 0.90451373E+02</rscale>
<asrwt>0</asrwt>
<pdfrwt beam="1">  1        2 0.96408779E-01 0.90451373E+02</pdfrwt>
<pdfrwt beam="2">  1       -2 0.50214257E-03 0.90451373E+02</pdfrwt>
<totfact> 0.23552319E+05</totfact>
</mgrwt>
</event>
<event>
 7    1  0.3891761E-009  0.9191144E+02  0.7818608E-02  0.1298288E+00
          2   -1    0    0  501    0  0.00000000000E+00  0.00000000000E+00  0.19122298824E+02  0.19122298994E+02  0.25500000000E-02 0.  1.
         -2   -1    0    0    0  501 -0.00000000000E+00 -0.00000000000E+00 -0.11044322610E+03  0.11044322613E+03  0.25500000000E-02 0. -1.
         23    2    1    2    0    0  0.35527136788E-14 -0.88817841970E-15 -0.91320927271E+02  0.12956552512E+03  0.91911444020E+02 0.  0.
    9000005    2    3    3    0    0  0.29066212430E+02 -0.75608615834E+01 -0.93955140713E+02  0.99416720609E+02  0.12413884861E+02 0.  0.
         22    1    3    3    0    0 -0.29066212430E+02  0.75608615834E+01  0.26342134421E+01  0.30148804510E+02  0.00000000000E+00 0.  1.
         22    1    4    4    0    0  0.23056070335E+02 -0.59490408203E+01 -0.86441041668E+02  0.89660622073E+02  0.00000000000E+00 0. -1.
         22    1    4    4    0    0  0.60101420955E+01 -0.16118207631E+01 -0.75140990457E+01  0.97560985363E+01  0.00000000000E+00 0. -1.
<mgrwt>
<rscale>  0 0.91911444E+02</rscale>
<asrwt>0</asrwt>
<pdfrwt beam="1">  1        2 0.29418922E-02 0.91911444E+02</pdfrwt>
<pdfrwt beam="2">  1       -2 0.16991265E-01 0.91911444E+02</pdfrwt>
<totfact> 0.75888577E+04</totfact>
</mgrwt>
</event>
<event>
 7    1  0.3891761E-009  0.8245963E+02  0.7818608E-02  0.1322213E+00
          2   -1    0    0  501    0  0.00000000000E+00  0.00000000000E+00  0.10673557634E+03  0.10673557638E+03  0.25500000000E-02 0. -1.
         -2   -1    0    0    0  501 -0.00000000000E+00 -0.00000000000E+00 -0.15926253066E+02  0.15926253270E+02  0.25500000000E-02 0.  1.
         23    2    1    2    0    0  0.00000000000E+00  0.00000000000E+00  0.90809323279E+02  0.12266182965E+03  0.82459634110E+02 0.  0.
    9000005    2    3    3    0    0 -0.13387774972E+02  0.29416500612E+02  0.83033871459E+02  0.89419978344E+02  0.75329735479E+01 0.  0.
         22    1    3    3    0    0  0.13387774972E+02 -0.29416500612E+02  0.77754518195E+01  0.33241851302E+02  0.00000000000E+00 0.  1.
         22    1    4    4    0    0 -0.13104449400E+02  0.28889790637E+02  0.82958711541E+02  0.88817196633E+02  0.00000000000E+00 0. -1.
         22    1    4    4    0    0 -0.28332557152E+00  0.52670997544E+00  0.75159918224E-01  0.60278171092E+00  0.00000000000E+00 0. -1.
<mgrwt>
<rscale>  0 0.82459634E+02</rscale>
<asrwt>0</asrwt>
<pdfrwt beam="1">  1        2 0.16420858E-01 0.82459634E+02</pdfrwt>
<pdfrwt beam="2">  1       -2 0.24501928E-02 0.82459634E+02</pdfrwt>
<totfact> 0.16457570E+05</totfact>
</mgrwt>
</event>
<event>
 7    1  0.4336884E-009  0.9119074E+02  0.7818608E-02  0.1299994E+00
          2   -1    0    0  501    0  0.00000000000E+00  0.00000000000E+00  0.11459939052E+02  0.11459939336E+02  0.25500000000E-02 0. -1.
         -2   -1    0    0    0  501 -0.00000000000E+00 -0.00000000000E+00 -0.18140914369E+03  0.18140914371E+03  0.25500000000E-02 0.  1.
         23    2    1    2    0    0  0.71054273576E-14 -0.35527136788E-14 -0.16994920464E+03  0.19286908305E+03  0.91190739865E+02 0.  0.
    9000005    2    3    3    0    0 -0.39109166257E+02  0.20387551275E+02 -0.94001652040E+02  0.10504420116E+03  0.15899511904E+02 0.  0.
         22    1    3    3    0    0  0.39109166257E+02 -0.20387551275E+02 -0.75947552601E+02  0.87824881887E+02  0.00000000000E+00 0. -1.
         22    1    4    4    0    0 -0.37121617303E+02  0.19813725237E+02 -0.93985838629E+02  0.10297541474E+03  0.00000000000E+00 0.  1.
         22    1    4    4    0    0 -0.19875489544E+01  0.57382603803E+00 -0.15813410265E-01  0.20687864153E+01  0.00000000000E+00 0.  1.
<mgrwt>
<rscale>  0 0.91190740E+02</rscale>
<asrwt>0</asrwt>
<pdfrwt beam="1">  1        2 0.17630677E-02 0.91190740E+02</pdfrwt>
<pdfrwt beam="2">  1       -2 0.27909097E-01 0.91190740E+02</pdfrwt>
<totfact> 0.64902039E+04</totfact>
</mgrwt>
</event>
<event>
 7    1  0.3891761E-009  0.1204468E+03  0.7818608E-02  0.1242362E+00
         -2   -1    0    0    0  501 -0.00000000000E+00  0.00000000000E+00  0.30113991432E+03  0.30113991433E+03  0.25500000000E-02 0.  1.
          2   -1    0    0  501    0  0.00000000000E+00 -0.00000000000E+00 -0.12043759872E+02  0.12043760142E+02  0.25500000000E-02 0. -1.
         23    2    1    2    0    0  0.00000000000E+00  0.00000000000E+00  0.28909615445E+03  0.31318367447E+03  0.12044678260E+03 0.  0.
    9000005    2    3    3    0    0  0.19155460328E+02 -0.42322773075E+02  0.48185539125E+02  0.67834793578E+02  0.11025618254E+02 0.  0.
         22    1    3    3    0    0 -0.19155460328E+02  0.42322773075E+02  0.24091061532E+03  0.24534888089E+03  0.00000000000E+00 0.  1.
         22    1    4    4    0    0  0.18573496293E+02 -0.29515187581E+02  0.33796130229E+02  0.48562325736E+02  0.00000000000E+00 0.  1.
         22    1    4    4    0    0  0.58196403472E+00 -0.12807585494E+02  0.14389408897E+02  0.19272467842E+02  0.00000000000E+00 0.  1.
<mgrwt>
<rscale>  0 0.12044678E+03</rscale>
<asrwt>0</asrwt>
<pdfrwt beam="2">  1        2 0.18528862E-02 0.12044678E+03</pdfrwt>
<pdfrwt beam="1">  1       -2 0.46329217E-01 0.12044678E+03</pdfrwt>
<totfact> 0.24747589E+04</totfact>
</mgrwt>
</event>
<event>
 7    1  0.3891761E-009  0.9104287E+02  0.7818608E-02  0.1300346E+00
         -2   -1    0    0    0  501 -0.00000000000E+00  0.00000000000E+00  0.70793299171E+01  0.70793303763E+01  0.25500000000E-02 0.  1.
          2   -1    0    0  501    0  0.00000000000E+00 -0.00000000000E+00 -0.29271146321E+03  0.29271146322E+03  0.25500000000E-02 0. -1.
         23    2    1    2    0    0  0.00000000000E+00  0.35527136788E-14 -0.28563213329E+03  0.29979079360E+03  0.91042870980E+02 0.  0.
    9000005    2    3    3    0    0 -0.17401939016E+02 -0.30044984499E+02 -0.23782265856E+03  0.24070378615E+03  0.13159299606E+02 0.  0.
         22    1    3    3    0    0  0.17401939016E+02  0.30044984499E+02 -0.47809474729E+02  0.59087007446E+02  0.00000000000E+00 0.  1.
         22    1    4    4    0    0 -0.17964350388E+02 -0.22430168792E+02 -0.20501685893E+03  0.20702111681E+03  0.00000000000E+00 0. -1.
         22    1    4    4    0    0  0.56241137132E+00 -0.76148157068E+01 -0.32805799632E+02  0.33682669346E+02  0.00000000000E+00 0. -1.
<mgrwt>
<rscale>  0 0.91042871E+02</rscale>
<asrwt>0</asrwt>
<pdfrwt beam="2">  1        2 0.45032523E-01 0.91042871E+02</pdfrwt>
<pdfrwt beam="1">  1       -2 0.10891279E-02 0.91042871E+02</pdfrwt>
<totfact> 0.17872179E+05</totfact>
</mgrwt>
</event>
<event>
 7    1  0.3891761E-009  0.8860520E+02  0.7818608E-02  0.1306265E+00
          2   -1    0    0  501    0  0.00000000000E+00  0.00000000000E+00  0.76256699266E+03  0.76256699266E+03  0.25500000000E-02 0. -1.
         -2   -1    0    0    0  501 -0.00000000000E+00 -0.00000000000E+00 -0.25738329270E+01  0.25738341902E+01  0.25500000000E-02 0.  1.
         23    2    1    2    0    0  0.00000000000E+00  0.35527136788E-14  0.75999315973E+03  0.76514082685E+03  0.88605203452E+02 0.  0.
    9000005    2    3    3    0    0 -0.33602363451E+02  0.18987432986E+02  0.55678092076E+03  0.55829582326E+03  0.14127671912E+02 0.  0.
         22    1    3    3    0    0  0.33602363451E+02 -0.18987432986E+02  0.20321223897E+03  0.20684500359E+03  0.00000000000E+00 0.  1.
         22    1    4    4    0    0 -0.44985825327E+01  0.53055585940E+01  0.48224481907E+02  0.48723575936E+02  0.00000000000E+00 0. -1.
         22    1    4    4    0    0 -0.29103780919E+02  0.13681874392E+02  0.50855643885E+03  0.50957224733E+03  0.00000000000E+00 0. -1.
<mgrwt>
<rscale>  0 0.88605203E+02</rscale>
<asrwt>0</asrwt>
<pdfrwt beam="1">  1        2 0.11731796E+00 0.88605203E+02</pdfrwt>
<pdfrwt beam="2">  1       -2 0.39597452E-03 0.88605203E+02</pdfrwt>
<totfact> 0.26045795E+05</totfact>
</mgrwt>
</event>
<event>
 7    1  0.3891761E-009  0.8902519E+02  0.7818608E-02  0.1305230E+00
         -2   -1    0    0    0  501 -0.00000000000E+00  0.00000000000E+00  0.15226537444E+02  0.15226537657E+02  0.25500000000E-02 0.  1.
          2   -1    0    0  501    0  0.00000000000E+00 -0.00000000000E+00 -0.13012616216E+03  0.13012616219E+03  0.25500000000E-02 0. -1.
         23    2    1    2    0    0  0.00000000000E+00  0.35527136788E-14 -0.11489962472E+03  0.14535269985E+03  0.89025185154E+02 0.  0.
    9000005    2    3    3    0    0  0.32390574100E+02  0.28580849824E+02 -0.74189938884E+02  0.85995368470E+02  0.50042081775E+01 0.  0.
         22    1    3    3    0    0 -0.32390574100E+02 -0.28580849824E+02 -0.40709685836E+02  0.59357331376E+02  0.00000000000E+00 0.  1.
         22    1    4    4    0    0  0.11078051813E+02  0.80375611695E+01 -0.27395708851E+02  0.30624344645E+02  0.00000000000E+00 0.  1.
         22    1    4    4    0    0  0.21312522287E+02  0.20543288655E+02 -0.46794230034E+02  0.55371023825E+02  0.00000000000E+00 0.  1.
<mgrwt>
<rscale>  0 0.89025185E+02</rscale>
<asrwt>0</asrwt>
<pdfrwt beam="2">  1        2 0.20019409E-01 0.89025185E+02</pdfrwt>
<pdfrwt beam="1">  1       -2 0.23425443E-02 0.89025185E+02</pdfrwt>
<totfact> 0.14227104E+05</totfact>
</mgrwt>
</event>
<event>
 7    1  0.3891761E-009  0.8895935E+02  0.7818608E-02  0.1305392E+00
          2   -1    0    0  501    0  0.00000000000E+00  0.00000000000E+00  0.10306097423E+03  0.10306097427E+03  0.25500000000E-02 0.  1.
         -2   -1    0    0    0  501 -0.00000000000E+00 -0.00000000000E+00 -0.19196806047E+02  0.19196806217E+02  0.25500000000E-02 0. -1.
         23    2    1    2    0    0  0.00000000000E+00  0.00000000000E+00  0.83864168187E+02  0.12225778048E+03  0.88959351295E+02 0.  0.
    9000005    2    3    3    0    0 -0.37575673204E+02 -0.60521474089E+00  0.10688300332E+02  0.39995971981E+02  0.85522224626E+01 0.  0.
         22    1    3    3    0    0  0.37575673204E+02  0.60521474089E+00  0.73175867854E+02  0.82261808501E+02  0.00000000000E+00 0.  1.
         22    1    4    4    0    0 -0.15408654382E+02 -0.42175819439E+01  0.29830082383E+01  0.16251552710E+02  0.00000000000E+00 0. -1.
         22    1    4    4    0    0 -0.22167018822E+02  0.36123672030E+01  0.77052920940E+01  0.23744419271E+02  0.00000000000E+00 0. -1.
<mgrwt>
<rscale>  0 0.88959351E+02</rscale>
<asrwt>0</asrwt>
<pdfrwt beam="1">  1        2 0.15855535E-01 0.88959351E+02</pdfrwt>
<pdfrwt beam="2">  1       -2 0.29533548E-02 0.88959351E+02</pdfrwt>
<totfact> 0.13246213E+05</totfact>
</mgrwt>
</event>
<event>
 7    1  0.3891761E-009  0.9107312E+02  0.7818608E-02  0.1300274E+00
          2   -1    0    0  501    0  0.00000000000E+00  0.00000000000E+00  0.15258101519E+04  0.15258101519E+04  0.25500000000E-02 0. -1.
         -2   -1    0    0    0  501 -0.00000000000E+00 -0.00000000000E+00 -0.13590004443E+01  0.13590028367E+01  0.25500000000E-02 0.  1.
         23    2    1    2    0    0  0.00000000000E+00  0.00000000000E+00  0.15244511515E+04  0.15271691548E+04  0.91073124528E+02 0.  0.
    9000005    2    3    3    0    0  0.21103046925E+02  0.10677133582E+02  0.14124189339E+04  0.14126678118E+04  0.11990070940E+02 0.  0.
         22    1    3    3    0    0 -0.21103046925E+02 -0.10677133582E+02  0.11203221753E+03  0.11450134294E+03  0.00000000000E+00 0.  1.
         22    1    4    4    0    0  0.34887151107E+01 -0.22782496167E+01  0.34342896311E+03  0.34345423896E+03  0.00000000000E+00 0.  1.
         22    1    4    4    0    0  0.17614331815E+02  0.12955383198E+02  0.10689899708E+04  0.10692135729E+04  0.00000000000E+00 0.  1.
<mgrwt>
<rscale>  0 0.91073125E+02</rscale>
<asrwt>0</asrwt>
<pdfrwt beam="1">  1        2 0.23473791E+00 0.91073125E+02</pdfrwt>
<pdfrwt beam="2">  1       -2 0.20907906E-03 0.91073125E+02</pdfrwt>
<totfact> 0.23510095E+05</totfact>
</mgrwt>
</event>
<event>
 7    1  0.3891761E-009  0.9247473E+02  0.7818608E-02  0.1296967E+00
         -2   -1    0    0    0  501 -0.00000000000E+00  0.00000000000E+00  0.17014123241E+03  0.17014123243E+03  0.25500000000E-02 0.  1.
          2   -1    0    0  501    0  0.00000000000E+00 -0.00000000000E+00 -0.12565408040E+02  0.12565408299E+02  0.25500000000E-02 0. -1.
         23    2    1    2    0    0  0.00000000000E+00  0.00000000000E+00  0.15757582437E+03  0.18270664073E+03  0.92474732444E+02 0.  0.
    9000005    2    3    3    0    0 -0.58511361605E+01  0.38689434771E+02  0.12469420995E+03  0.13159589114E+03  0.15418314148E+02 0.  0.
         22    1    3    3    0    0  0.58511361605E+01 -0.38689434771E+02  0.32881614421E+02  0.51110749595E+02  0.00000000000E+00 0. -1.
         22    1    4    4    0    0  0.92272669162E+00  0.15073749367E+02  0.70404196901E+02  0.72005696204E+02  0.00000000000E+00 0. -1.
         22    1    4    4    0    0 -0.67738628522E+01  0.23615685403E+02  0.54290013051E+02  0.59590194933E+02  0.00000000000E+00 0. -1.
<mgrwt>
<rscale>  0 0.92474732E+02</rscale>
<asrwt>0</asrwt>
<pdfrwt beam="2">  1        2 0.19331398E-02 0.92474732E+02</pdfrwt>
<pdfrwt beam="1">  1       -2 0.26175573E-01 0.92474732E+02</pdfrwt>
<totfact> 0.64258848E+04</totfact>
</mgrwt>
</event>
<event>
 7    1  0.3891761E-009  0.9749294E+02  0.7818608E-02  0.1285658E+00
         -2   -1    0    0    0  501 -0.00000000000E+00  0.00000000000E+00  0.15402535455E+03  0.15402535458E+03  0.25500000000E-02 0.  1.
          2   -1    0    0  501    0  0.00000000000E+00 -0.00000000000E+00 -0.15427449781E+02  0.15427449992E+02  0.25500000000E-02 0. -1.
         23    2    1    2    0    0  0.88817841970E-15  0.00000000000E+00  0.13859790477E+03  0.16945280457E+03  0.97492942146E+02 0.  0.
    9000005    2    3    3    0    0  0.44421878934E+01  0.37967625453E+02  0.21154178959E+02  0.45944495743E+02  0.14217024506E+02 0.  0.
         22    1    3    3    0    0 -0.44421878934E+01 -0.37967625453E+02  0.11744372581E+03  0.12350830883E+03  0.00000000000E+00 0.  1.
         22    1    4    4    0    0 -0.49930311322E+01  0.18198537021E+02  0.93241071503E+01  0.21048897447E+02  0.00000000000E+00 0. -1.
         22    1    4    4    0    0  0.94352190256E+01  0.19769088432E+02  0.11830071809E+02  0.24895598295E+02  0.00000000000E+00 0. -1.
<mgrwt>
<rscale>  0 0.97492942E+02</rscale>
<asrwt>0</asrwt>
<pdfrwt beam="2">  1        2 0.23734539E-02 0.97492942E+02</pdfrwt>
<pdfrwt beam="1">  1       -2 0.23696208E-01 0.97492942E+02</pdfrwt>
<totfact> 0.58371881E+04</totfact>
</mgrwt>
</event>
<event>
 7    1  0.3891761E-009  0.9929452E+02  0.7818608E-02  0.1281787E+00
          2   -1    0    0  501    0  0.00000000000E+00  0.00000000000E+00  0.15112337421E+03  0.15112337423E+03  0.25500000000E-02 0. -1.
         -2   -1    0    0    0  501 -0.00000000000E+00 -0.00000000000E+00 -0.16310185670E+02  0.16310185870E+02  0.25500000000E-02 0.  1.
         23    2    1    2    0    0  0.44408920985E-15  0.00000000000E+00  0.13481318854E+03  0.16743356010E+03  0.99294517692E+02 0.  0.
    9000005    2    3    3    0    0  0.26325423702E+01 -0.45363206261E+02  0.98517397995E+02  0.10927743254E+03  0.13081620425E+02 0.  0.
         22    1    3    3    0    0 -0.26325423702E+01  0.45363206261E+02  0.36295790540E+02  0.58156127558E+02  0.00000000000E+00 0.  1.
         22    1    4    4    0    0  0.47660960554E+01 -0.37862187311E+02  0.89850026826E+02  0.97618073225E+02  0.00000000000E+00 0. -1.
         22    1    4    4    0    0 -0.21335536852E+01 -0.75010189503E+01  0.86673711690E+01  0.11659359314E+02  0.00000000000E+00 0. -1.
<mgrwt>
<rscale>  0 0.99294518E+02</rscale>
<asrwt>0</asrwt>
<pdfrwt beam="1">  1        2 0.23249749E-01 0.99294518E+02</pdfrwt>
<pdfrwt beam="2">  1       -2 0.25092594E-02 0.99294518E+02</pdfrwt>
<totfact> 0.11104623E+05</totfact>
</mgrwt>
</event>
<event>
 7    1  0.3891761E-009  0.9070585E+02  0.7818608E-02  0.1301151E+00
          2   -1    0    0  501    0  0.00000000000E+00  0.00000000000E+00  0.75471739150E+03  0.75471739150E+03  0.25500000000E-02 0. -1.
         -2   -1    0    0    0  501 -0.00000000000E+00 -0.00000000000E+00 -0.27253743025E+01  0.27253754955E+01  0.25500000000E-02 0.  1.
         23    2    1    2    0    0 -0.17763568394E-14  0.00000000000E+00  0.75199201719E+03  0.75744276700E+03  0.90705850702E+02 0.  0.
    9000005    2    3    3    0    0 -0.14620988742E+02 -0.38251821067E+02  0.53445764888E+03  0.53608744963E+03  0.82340805266E+01 0.  0.
         22    1    3    3    0    0  0.14620988742E+02  0.38251821067E+02  0.21753436832E+03  0.22135531736E+03  0.00000000000E+00 0.  1.
         22    1    4    4    0    0 -0.15462078888E+02 -0.35116808355E+02  0.50357257803E+03  0.50503228358E+03  0.00000000000E+00 0. -1.
         22    1    4    4    0    0  0.84109014638E+00 -0.31350127126E+01  0.30885070849E+02  0.31055166055E+02  0.00000000000E+00 0. -1.
<mgrwt>
<rscale>  0 0.90705851E+02</rscale>
<asrwt>0</asrwt>
<pdfrwt beam="1">  1        2 0.11611053E+00 0.90705851E+02</pdfrwt>
<pdfrwt beam="2">  1       -2 0.41928787E-03 0.90705851E+02</pdfrwt>
<totfact> 0.24437931E+05</totfact>
</mgrwt>
</event>
<event>
 7    1  0.3891761E-009  0.9311899E+02  0.7818608E-02  0.1295470E+00
          2   -1    0    0  501    0  0.00000000000E+00  0.00000000000E+00  0.38102052543E+02  0.38102052628E+02  0.25500000000E-02 0.  1.
         -2   -1    0    0    0  501 -0.00000000000E+00 -0.00000000000E+00 -0.56894214610E+02  0.56894214668E+02  0.25500000000E-02 0. -1.
         23    2    1    2    0    0  0.00000000000E+00  0.00000000000E+00 -0.18792162068E+02  0.94996267296E+02  0.93118985416E+02 0.  0.
    9000005    2    3    3    0    0  0.10518728779E+02 -0.17875875421E+02  0.33109488459E+02  0.39103764180E+02  0.16357169090E+01 0.  0.
         22    1    3    3    0    0 -0.10518728779E+02  0.17875875421E+02 -0.51901650527E+02  0.55892503116E+02  0.00000000000E+00 0. -1.
         22    1    4    4    0    0  0.93100133293E+01 -0.16154466122E+02  0.28804879259E+02  0.34312740972E+02  0.00000000000E+00 0.  1.
         22    1    4    4    0    0  0.12087154494E+01 -0.17214092994E+01  0.43046091996E+01  0.47910232075E+01  0.00000000000E+00 0.  1.
<mgrwt>
<rscale>  0 0.93118985E+02</rscale>
<asrwt>0</asrwt>
<pdfrwt beam="1">  1        2 0.58618543E-02 0.93118985E+02</pdfrwt>
<pdfrwt beam="2">  1       -2 0.87529561E-02 0.93118985E+02</pdfrwt>
<totfact> 0.88578220E+04</totfact>
</mgrwt>
</event>
<event>
 7    1  0.3891761E-009  0.8962171E+02  0.7818608E-02  0.1303770E+00
          2   -1    0    0  501    0  0.00000000000E+00  0.00000000000E+00  0.14731113460E+03  0.14731113462E+03  0.25500000000E-02 0.  1.
         -2   -1    0    0    0  501 -0.00000000000E+00 -0.00000000000E+00 -0.13631097808E+02  0.13631098047E+02  0.25500000000E-02 0. -1.
         23    2    1    2    0    0 -0.35527136788E-14  0.00000000000E+00  0.13368003679E+03  0.16094223267E+03  0.89621705071E+02 0.  0.
    9000005    2    3    3    0    0  0.29492679674E+02  0.25149393826E+02  0.30194460774E+02  0.50436239130E+02  0.11392918506E+02 0.  0.
         22    1    3    3    0    0 -0.29492679674E+02 -0.25149393826E+02  0.10348557602E+03  0.11050599354E+03  0.00000000000E+00 0.  1.
         22    1    4    4    0    0  0.92517921879E+01  0.32536270295E+01  0.34946137237E+01  0.10411247409E+02  0.00000000000E+00 0.  1.
         22    1    4    4    0    0  0.20240887486E+02  0.21895766796E+02  0.26699847050E+02  0.40024991721E+02  0.00000000000E+00 0.  1.
<mgrwt>
<rscale>  0 0.89621705E+02</rscale>
<asrwt>0</asrwt>
<pdfrwt beam="1">  1        2 0.22663253E-01 0.89621705E+02</pdfrwt>
<pdfrwt beam="2">  1       -2 0.20970919E-02 0.89621705E+02</pdfrwt>
<totfact> 0.14558741E+05</totfact>
</mgrwt>
</event>
<event>
 7    1  0.3891761E-009  0.9143667E+02  0.7818608E-02  0.1299409E+00
          2   -1    0    0  501    0  0.00000000000E+00  0.00000000000E+00  0.93019781125E+02  0.93019781160E+02  0.25500000000E-02 0. -1.
         -2   -1    0    0    0  501 -0.00000000000E+00 -0.00000000000E+00 -0.22470124490E+02  0.22470124635E+02  0.25500000000E-02 0.  1.
         23    2    1    2    0    0  0.00000000000E+00  0.35527136788E-14  0.70549656635E+02  0.11548990580E+03  0.91436668187E+02 0.  0.
    9000005    2    3    3    0    0 -0.83578217632E+01 -0.24273585978E+02 -0.11755984100E+02  0.29273441835E+02  0.77247054225E+01 0.  0.
         22    1    3    3    0    0  0.83578217632E+01  0.24273585978E+02  0.82305640736E+02  0.86216463960E+02  0.00000000000E+00 0. -1.
         22    1    4    4    0    0 -0.32821835633E+01 -0.17734579929E+02 -0.10587349881E+02  0.20913632676E+02  0.00000000000E+00 0.  1.
         22    1    4    4    0    0 -0.50756381999E+01 -0.65390060487E+01 -0.11686342196E+01  0.83598091593E+01  0.00000000000E+00 0.  1.
<mgrwt>
<rscale>  0 0.91436668E+02</rscale>
<asrwt>0</asrwt>
<pdfrwt beam="1">  1        2 0.14310736E-01 0.91436668E+02</pdfrwt>
<pdfrwt beam="2">  1       -2 0.34569422E-02 0.91436668E+02</pdfrwt>
<totfact> 0.11908885E+05</totfact>
</mgrwt>
</event>
<event>
 7    1  0.3891761E-009  0.9590584E+02  0.7818608E-02  0.1289149E+00
          2   -1    0    0  501    0  0.00000000000E+00  0.00000000000E+00  0.61280971304E+03  0.61280971305E+03  0.25500000000E-02 0. -1.
         -2   -1    0    0    0  501 -0.00000000000E+00 -0.00000000000E+00 -0.37523591314E+01  0.37523599979E+01  0.25500000000E-02 0.  1.
         23    2    1    2    0    0  0.22204460493E-15  0.00000000000E+00  0.60905735391E+03  0.61656207304E+03  0.95905836972E+02 0.  0.
    9000005    2    3    3    0    0 -0.19638313603E+01  0.42204629889E+02  0.44635515501E+03  0.44846361099E+03  0.10079611206E+02 0.  0.
         22    1    3    3    0    0  0.19638313603E+01 -0.42204629889E+02  0.16270219890E+03  0.16809846205E+03  0.00000000000E+00 0.  1.
         22    1    4    4    0    0 -0.10378298687E+01 -0.18975457446E-01  0.61353255353E+01  0.62225131843E+01  0.00000000000E+00 0. -1.
         22    1    4    4    0    0 -0.92600149166E+00  0.42223605346E+02  0.44021982947E+03  0.44224109781E+03  0.00000000000E+00 0. -1.
<mgrwt>
<rscale>  0 0.95905837E+02</rscale>
<asrwt>0</asrwt>
<pdfrwt beam="1">  1        2 0.94278437E-01 0.95905837E+02</pdfrwt>
<pdfrwt beam="2">  1       -2 0.57728597E-03 0.95905837E+02</pdfrwt>
<totfact> 0.20047637E+05</totfact>
</mgrwt>
</event>
<event>
 7    1  0.3891761E-009  0.9006792E+02  0.7818608E-02  0.1302687E+00
         -2   -1    0    0    0  501 -0.00000000000E+00  0.00000000000E+00  0.42908411321E+03  0.42908411322E+03  0.25500000000E-02 0.  1.
          2   -1    0    0  501    0  0.00000000000E+00 -0.00000000000E+00 -0.47264801758E+01  0.47264808637E+01  0.25500000000E-02 0. -1.
         23    2    1    2    0    0 -0.35527136788E-14 -0.17763568394E-14  0.42435763303E+03  0.43381059408E+03  0.90067923384E+02 0.  0.
    9000005    2    3    3    0    0 -0.25645030477E+02 -0.11843953907E+02  0.37903579979E+03  0.38040633020E+03  0.15584983159E+02 0.  0.
         22    1    3    3    0    0  0.25645030477E+02  0.11843953907E+02  0.45321833246E+02  0.53404263885E+02  0.00000000000E+00 0. -1.
         22    1    4    4    0    0 -0.25256461174E+02 -0.61486267907E+01  0.33403700181E+03  0.33504688182E+03  0.00000000000E+00 0. -1.
         22    1    4    4    0    0 -0.38856930266E+00 -0.56953271167E+01  0.44998797980E+02  0.45359448373E+02  0.00000000000E+00 0. -1.
<mgrwt>
<rscale>  0 0.90067923E+02</rscale>
<asrwt>0</asrwt>
<pdfrwt beam="2">  1        2 0.72715103E-03 0.90067923E+02</pdfrwt>
<pdfrwt beam="1">  1       -2 0.66012924E-01 0.90067923E+02</pdfrwt>
<totfact> 0.41975943E+04</totfact>
</mgrwt>
</event>
<event>
 7    1  0.3891761E-009  0.8896757E+02  0.7818608E-02  0.1305371E+00
         -2   -1    0    0    0  501 -0.00000000000E+00  0.00000000000E+00  0.41670261663E+01  0.41670269466E+01  0.25500000000E-02 0.  1.
          2   -1    0    0  501    0  0.00000000000E+00 -0.00000000000E+00 -0.47487272819E+03  0.47487272820E+03  0.25500000000E-02 0. -1.
         23    2    1    2    0    0  0.00000000000E+00  0.00000000000E+00 -0.47070570203E+03  0.47903975514E+03  0.88967573252E+02 0.  0.
    9000005    2    3    3    0    0  0.11382406894E+02  0.26026604608E+02 -0.41883495616E+03  0.41989994105E+03  0.92895996463E+01 0.  0.
         22    1    3    3    0    0 -0.11382406894E+02 -0.26026604608E+02 -0.51870745868E+02  0.59139814093E+02  0.00000000000E+00 0.  1.
         22    1    4    4    0    0  0.18649652284E+01  0.15746305006E+02 -0.21444794405E+03  0.21503335770E+03  0.00000000000E+00 0. -1.
         22    1    4    4    0    0  0.95174416657E+01  0.10280299602E+02 -0.20438701211E+03  0.20486658336E+03  0.00000000000E+00 0. -1.
<mgrwt>
<rscale>  0 0.88967573E+02</rscale>
<asrwt>0</asrwt>
<pdfrwt beam="2">  1        2 0.73057300E-01 0.88967573E+02</pdfrwt>
<pdfrwt beam="1">  1       -2 0.64108138E-03 0.88967573E+02</pdfrwt>
<totfact> 0.22606011E+05</totfact>
</mgrwt>
</event>
<event>
 7    1  0.3891761E-009  0.9092535E+02  0.7818608E-02  0.1300626E+00
          2   -1    0    0  501    0  0.00000000000E+00  0.00000000000E+00  0.23102683560E+03  0.23102683561E+03  0.25500000000E-02 0. -1.
         -2   -1    0    0    0  501 -0.00000000000E+00 -0.00000000000E+00 -0.89463842076E+01  0.89463845710E+01  0.25500000000E-02 0.  1.
         23    2    1    2    0    0  0.17763568394E-14  0.00000000000E+00  0.22208045139E+03  0.23997322019E+03  0.90925351335E+02 0.  0.
    9000005    2    3    3    0    0  0.15878892851E+02  0.32066186619E+02  0.18436743431E+03  0.18798619084E+03  0.81900885790E+01 0.  0.
         22    1    3    3    0    0 -0.15878892851E+02 -0.32066186619E+02  0.37713017083E+02  0.51987029344E+02  0.00000000000E+00 0.  1.
         22    1    4    4    0    0  0.49938488430E+01  0.19273034804E+02  0.10066634815E+03  0.10261628548E+03  0.00000000000E+00 0. -1.
         22    1    4    4    0    0  0.10885044008E+02  0.12793151815E+02  0.83701086161E+02  0.85369905359E+02  0.00000000000E+00 0. -1.
<mgrwt>
<rscale>  0 0.90925351E+02</rscale>
<asrwt>0</asrwt>
<pdfrwt beam="1">  1        2 0.35542593E-01 0.90925351E+02</pdfrwt>
<pdfrwt beam="2">  1       -2 0.13763667E-02 0.90925351E+02</pdfrwt>
<totfact> 0.16425409E+05</totfact>
</mgrwt>
</event>
<event>
 7    1  0.3891761E-009  0.8664554E+02  0.7818608E-02  0.1311185E+00
         -2   -1    0    0    0  501 -0.00000000000E+00  0.00000000000E+00  0.12586388332E+01  0.12586414164E+01  0.25500000000E-02 0.  1.
          2   -1    0    0  501    0  0.00000000000E+00 -0.00000000000E+00 -0.14911827933E+04  0.14911827933E+04  0.25500000000E-02 0. -1.
         23    2    1    2    0    0 -0.88817841970E-15 -0.17763568394E-14 -0.14899241545E+04  0.14924414347E+04  0.86645542304E+02 0.  0.
    9000005    2    3    3    0    0 -0.45019562431E+01 -0.91809437991E+01 -0.14698827777E+04  0.14699422320E+04  0.83802127873E+01 0.  0.
         22    1    3    3    0    0  0.45019562431E+01  0.91809437991E+01 -0.20041376731E+02  0.22499202660E+02  0.00000000000E+00 0.  1.
         22    1    4    4    0    0  0.14669320995E+01 -0.41283481148E+01 -0.28527041263E+03  0.28530405442E+03  0.00000000000E+00 0. -1.
         22    1    4    4    0    0 -0.59688883426E+01 -0.50525956843E+01 -0.11846123651E+04  0.11846381776E+04  0.00000000000E+00 0. -1.
<mgrwt>
<rscale>  0 0.86645542E+02</rscale>
<asrwt>0</asrwt>
<pdfrwt beam="2">  1        2 0.22941132E+00 0.86645542E+02</pdfrwt>
<pdfrwt beam="1">  1       -2 0.19363814E-03 0.86645542E+02</pdfrwt>
<totfact> 0.27040124E+05</totfact>
</mgrwt>
</event>
<event>
 7    1  0.3891761E-009  0.9139667E+02  0.7818608E-02  0.1299504E+00
          2   -1    0    0  501    0  0.00000000000E+00  0.00000000000E+00  0.12112717303E+03  0.12112717306E+03  0.25500000000E-02 0. -1.
         -2   -1    0    0    0  501 -0.00000000000E+00 -0.00000000000E+00 -0.17240869801E+02  0.17240869989E+02  0.25500000000E-02 0.  1.
         23    2    1    2    0    0  0.00000000000E+00 -0.17763568394E-14  0.10388630323E+03  0.13836804305E+03  0.91396670278E+02 0.  0.
    9000005    2    3    3    0    0  0.18780890504E+02 -0.10091845325E+02 -0.57706482670E+01  0.26657639763E+02  0.14925219802E+02 0.  0.
         22    1    3    3    0    0 -0.18780890504E+02  0.10091845325E+02  0.10965695150E+03  0.11171040329E+03  0.00000000000E+00 0. -1.
         22    1    4    4    0    0  0.12813463289E+02 -0.13904146359E+02 -0.35670639336E+01  0.19241467526E+02  0.00000000000E+00 0.  1.
         22    1    4    4    0    0  0.59674272152E+01  0.38123010340E+01 -0.22035843334E+01  0.74161722376E+01  0.00000000000E+00 0.  1.
<mgrwt>
<rscale>  0 0.91396670E+02</rscale>
<asrwt>0</asrwt>
<pdfrwt beam="1">  1        2 0.18634950E-01 0.91396670E+02</pdfrwt>
<pdfrwt beam="2">  1       -2 0.26524415E-02 0.91396670E+02</pdfrwt>
<totfact> 0.12939863E+05</totfact>
</mgrwt>
</event>
<event>
 7    1  0.3891761E-009  0.9161834E+02  0.7818608E-02  0.1298979E+00
         -2   -1    0    0    0  501 -0.00000000000E+00  0.00000000000E+00  0.65106857974E+01  0.65106862967E+01  0.25500000000E-02 0.  1.
          2   -1    0    0  501    0  0.00000000000E+00 -0.00000000000E+00 -0.32231318572E+03  0.32231318573E+03  0.25500000000E-02 0. -1.
         23    2    1    2    0    0  0.00000000000E+00  0.11102230246E-15 -0.31580249992E+03  0.32882387202E+03  0.91618337996E+02 0.  0.
    9000005    2    3    3    0    0  0.39537088973E+02  0.71413802940E+00 -0.23966311760E+03  0.24302820233E+03  0.77849723412E+01 0.  0.
         22    1    3    3    0    0 -0.39537088973E+02 -0.71413802940E+00 -0.76139382324E+02  0.85795669694E+02  0.00000000000E+00 0.  1.
         22    1    4    4    0    0  0.37669651439E+01  0.21324224469E+01 -0.19590429969E+02  0.20062955871E+02  0.00000000000E+00 0. -1.
         22    1    4    4    0    0  0.35770123829E+02 -0.14182844175E+01 -0.22007268763E+03  0.22296524646E+03  0.00000000000E+00 0. -1.
<mgrwt>
<rscale>  0 0.91618338E+02</rscale>
<asrwt>0</asrwt>
<pdfrwt beam="2">  1        2 0.49586632E-01 0.91618338E+02</pdfrwt>
<pdfrwt beam="1">  1       -2 0.10016443E-02 0.91618338E+02</pdfrwt>
<totfact> 0.18214975E+05</totfact>
</mgrwt>
</event>
<event>
 7    1  0.3891761E-009  0.6912720E+02  0.7818608E-02  0.1363086E+00
          2   -1    0    0  501    0  0.00000000000E+00  0.00000000000E+00  0.85040551707E+02  0.85040551745E+02  0.25500000000E-02 0. -1.
         -2   -1    0    0    0  501 -0.00000000000E+00 -0.00000000000E+00 -0.14047914359E+02  0.14047914591E+02  0.25500000000E-02 0.  1.
         23    2    1    2    0    0 -0.35527136788E-14  0.00000000000E+00  0.70992637347E+02  0.99088466336E+02  0.69127198723E+02 0.  0.
    9000005    2    3    3    0    0 -0.30681228009E+02 -0.12425165877E+02  0.31625617796E+02  0.47654190532E+02  0.13229500181E+02 0.  0.
         22    1    3    3    0    0  0.30681228009E+02  0.12425165877E+02  0.39367019551E+02  0.51434275804E+02  0.00000000000E+00 0. -1.
         22    1    4    4    0    0 -0.10633929820E+02  0.17161574325E+01  0.12808349439E+02  0.16735575135E+02  0.00000000000E+00 0.  1.
         22    1    4    4    0    0 -0.20047298189E+02 -0.14141323309E+02  0.18817268357E+02  0.30918615396E+02  0.00000000000E+00 0.  1.
<mgrwt>
<rscale>  0 0.69127199E+02</rscale>
<asrwt>0</asrwt>
<pdfrwt beam="1">  1        2 0.13083162E-01 0.69127199E+02</pdfrwt>
<pdfrwt beam="2">  1       -2 0.21612177E-02 0.69127199E+02</pdfrwt>
<totfact> 0.24773934E+05</totfact>
</mgrwt>
</event>
<event>
 7    1  0.3891761E-009  0.9208053E+02  0.7818608E-02  0.1297890E+00
          2   -1    0    0  501    0  0.00000000000E+00  0.00000000000E+00  0.20254919530E+03  0.20254919532E+03  0.25500000000E-02 0. -1.
         -2   -1    0    0    0  501 -0.00000000000E+00 -0.00000000000E+00 -0.10465142413E+02  0.10465142724E+02  0.25500000000E-02 0.  1.
         23    2    1    2    0    0  0.00000000000E+00  0.35527136788E-14  0.19208405289E+03  0.21301433804E+03  0.92080534517E+02 0.  0.
    9000005    2    3    3    0    0 -0.29807795760E+02  0.30542317883E+02  0.13198285166E+03  0.13930211206E+03  0.12816685329E+02 0.  0.
         22    1    3    3    0    0  0.29807795760E+02 -0.30542317883E+02  0.60101201231E+02  0.73712225981E+02  0.00000000000E+00 0.  1.
         22    1    4    4    0    0 -0.13765328422E+02  0.74119759187E+01  0.35351203672E+02  0.38653968161E+02  0.00000000000E+00 0. -1.
         22    1    4    4    0    0 -0.16042467338E+02  0.23130341964E+02  0.96631647985E+02  0.10064814390E+03  0.00000000000E+00 0. -1.
<mgrwt>
<rscale>  0 0.92080535E+02</rscale>
<asrwt>0</asrwt>
<pdfrwt beam="1">  1        2 0.31161416E-01 0.92080535E+02</pdfrwt>
<pdfrwt beam="2">  1       -2 0.16100219E-02 0.92080535E+02</pdfrwt>
<totfact> 0.15131425E+05</totfact>
</mgrwt>
</event>
<event>
 7    1  0.3891761E-009  0.7683352E+02  0.7818608E-02  0.1338285E+00
          2   -1    0    0  501    0  0.00000000000E+00  0.00000000000E+00  0.19665515802E+02  0.19665515968E+02  0.25500000000E-02 0. -1.
         -2   -1    0    0    0  501 -0.00000000000E+00 -0.00000000000E+00 -0.75047482454E+02  0.75047482497E+02  0.25500000000E-02 0.  1.
         23    2    1    2    0    0  0.00000000000E+00  0.00000000000E+00 -0.55381966652E+02  0.94712998465E+02  0.76833520341E+02 0.  0.
    9000005    2    3    3    0    0  0.88297140187E+01  0.35426261357E+02 -0.40841441912E+02  0.55414007345E+02  0.83489513827E+01 0.  0.
         22    1    3    3    0    0 -0.88297140187E+01 -0.35426261357E+02 -0.14540524739E+02  0.39298991120E+02  0.00000000000E+00 0. -1.
         22    1    4    4    0    0  0.33958230697E+01  0.10838489450E+02 -0.74151794231E+01  0.13564267535E+02  0.00000000000E+00 0.  1.
         22    1    4    4    0    0  0.54338909490E+01  0.24587771906E+02 -0.33426262489E+02  0.41849739810E+02  0.00000000000E+00 0.  1.
<mgrwt>
<rscale>  0 0.76833520E+02</rscale>
<asrwt>0</asrwt>
<pdfrwt beam="1">  1        2 0.30254640E-02 0.76833520E+02</pdfrwt>
<pdfrwt beam="2">  1       -2 0.11545766E-01 0.76833520E+02</pdfrwt>
<totfact> 0.13176471E+05</totfact>
</mgrwt>
</event>
<event>
 7    1  0.3891761E-009  0.9439593E+02  0.7818608E-02  0.1292542E+00
         -2   -1    0    0    0  501 -0.00000000000E+00  0.00000000000E+00  0.12980409509E+02  0.12980409759E+02  0.25500000000E-02 0.  1.
          2   -1    0    0  501    0  0.00000000000E+00 -0.00000000000E+00 -0.17161615607E+03  0.17161615609E+03  0.25500000000E-02 0. -1.
         23    2    1    2    0    0  0.00000000000E+00  0.00000000000E+00 -0.15863574656E+03  0.18459656585E+03  0.94395932305E+02 0.  0.
    9000005    2    3    3    0    0  0.24465634360E+02  0.38852743440E+02 -0.87444578084E+02  0.99883606942E+02  0.14902273717E+02 0.  0.
         22    1    3    3    0    0 -0.24465634360E+02 -0.38852743440E+02 -0.71191168476E+02  0.84712958905E+02  0.00000000000E+00 0.  1.
         22    1    4    4    0    0  0.23251869549E+02  0.32195346760E+02 -0.62606391105E+02  0.74140070122E+02  0.00000000000E+00 0.  1.
         22    1    4    4    0    0  0.12137648109E+01  0.66573966795E+01 -0.24838186979E+02  0.25743536820E+02  0.00000000000E+00 0.  1.
<mgrwt>
<rscale>  0 0.94395932E+02</rscale>
<asrwt>0</asrwt>
<pdfrwt beam="2">  1        2 0.26402484E-01 0.94395932E+02</pdfrwt>
<pdfrwt beam="1">  1       -2 0.19969862E-02 0.94395932E+02</pdfrwt>
<totfact> 0.13331339E+05</totfact>
</mgrwt>
</event>
<event>
 7    1  0.3891761E-009  0.9481184E+02  0.7818608E-02  0.1291600E+00
         -2   -1    0    0    0  501 -0.00000000000E+00  0.00000000000E+00  0.42757775900E+02  0.42757775976E+02  0.25500000000E-02 0.  1.
          2   -1    0    0  501    0  0.00000000000E+00 -0.00000000000E+00 -0.52559358337E+02  0.52559358399E+02  0.25500000000E-02 0. -1.
         23    2    1    2    0    0  0.00000000000E+00  0.00000000000E+00 -0.98015824374E+01  0.95317134375E+02  0.94811840438E+02 0.  0.
    9000005    2    3    3    0    0  0.17537742902E+02 -0.24007007240E+02 -0.41513895784E+02  0.51847838999E+02  0.89936668275E+01 0.  0.
         22    1    3    3    0    0 -0.17537742902E+02  0.24007007240E+02  0.31712313347E+02  0.43469295376E+02  0.00000000000E+00 0.  1.
         22    1    4    4    0    0 -0.88448297758E+00 -0.24209651781E+00 -0.19445244158E+01  0.21499060596E+01  0.00000000000E+00 0. -1.
         22    1    4    4    0    0  0.18422225880E+02 -0.23764910722E+02 -0.39569371368E+02  0.49697932940E+02  0.00000000000E+00 0. -1.
<mgrwt>
<rscale>  0 0.94811840E+02</rscale>
<asrwt>0</asrwt>
<pdfrwt beam="2">  1        2 0.80860551E-02 0.94811840E+02</pdfrwt>
<pdfrwt beam="1">  1       -2 0.65781194E-02 0.94811840E+02</pdfrwt>
<totfact> 0.91587998E+04</totfact>
</mgrwt>
</event>
<event>
 7    1  0.3891761E-009  0.8543417E+02  0.7818608E-02  0.1314301E+00
          2   -1    0    0  501    0  0.00000000000E+00  0.00000000000E+00  0.90426291002E+02  0.90426291038E+02  0.25500000000E-02 0. -1.
         -2   -1    0    0    0  501 -0.00000000000E+00 -0.00000000000E+00 -0.20179413675E+02  0.20179413836E+02  0.25500000000E-02 0.  1.
         23    2    1    2    0    0  0.00000000000E+00 -0.35527136788E-14  0.70246877327E+02  0.11060570487E+03  0.85434174523E+02 0.  0.
    9000005    2    3    3    0    0 -0.25404230220E+02  0.31126679430E+02  0.48939937904E+02  0.65127899815E+02  0.15240758737E+02 0.  0.
         22    1    3    3    0    0  0.25404230220E+02 -0.31126679430E+02  0.21306939423E+02  0.45477805059E+02  0.00000000000E+00 0.  1.
         22    1    4    4    0    0 -0.25550556624E+02  0.21755708580E+02  0.39406020822E+02  0.51758828007E+02  0.00000000000E+00 0.  1.
         22    1    4    4    0    0  0.14632640426E+00  0.93709708498E+01  0.95339170824E+01  0.13369071808E+02  0.00000000000E+00 0.  1.
<mgrwt>
<rscale>  0 0.85434175E+02</rscale>
<asrwt>0</asrwt>
<pdfrwt beam="1">  1        2 0.13911737E-01 0.85434175E+02</pdfrwt>
<pdfrwt beam="2">  1       -2 0.31045251E-02 0.85434175E+02</pdfrwt>
<totfact> 0.14233008E+05</totfact>
</mgrwt>
</event>
<event>
 7    1  0.3891761E-009  0.9300219E+02  0.7818608E-02  0.1295740E+00
         -2   -1    0    0    0  501 -0.00000000000E+00  0.00000000000E+00  0.12664793436E+02  0.12664793692E+02  0.25500000000E-02 0.  1.
          2   -1    0    0  501    0  0.00000000000E+00 -0.00000000000E+00 -0.17073723040E+03  0.17073723042E+03  0.25500000000E-02 0. -1.
         23    2    1    2    0    0 -0.35527136788E-14  0.00000000000E+00 -0.15807243696E+03  0.18340202411E+03  0.93002188793E+02 0.  0.
    9000005    2    3    3    0    0 -0.20552983903E+02 -0.34344675391E+02 -0.40033088107E+02  0.58761461879E+02  0.15756883695E+02 0.  0.
         22    1    3    3    0    0  0.20552983903E+02  0.34344675391E+02 -0.11803934886E+03  0.12464056223E+03  0.00000000000E+00 0. -1.
         22    1    4    4    0    0 -0.98820540285E+01 -0.47911643119E+01 -0.14984005505E+02  0.18577692759E+02  0.00000000000E+00 0.  1.
         22    1    4    4    0    0 -0.10670929874E+02 -0.29553511079E+02 -0.25049082603E+02  0.40183769120E+02  0.00000000000E+00 0.  1.
<mgrwt>
<rscale>  0 0.93002189E+02</rscale>
<asrwt>0</asrwt>
<pdfrwt beam="2">  1        2 0.26267265E-01 0.93002189E+02</pdfrwt>
<pdfrwt beam="1">  1       -2 0.19484299E-02 0.93002189E+02</pdfrwt>
<totfact> 0.13855574E+05</totfact>
</mgrwt>
</event>
<event>
 7    1  0.3891761E-009  0.1211582E+03  0.7818608E-02  0.1241198E+00
         -2   -1    0    0    0  501 -0.00000000000E+00  0.00000000000E+00  0.18296173132E+01  0.18296190902E+01  0.25500000000E-02 0.  1.
          2   -1    0    0  501    0  0.00000000000E+00 -0.00000000000E+00 -0.20057898117E+04  0.20057898117E+04  0.25500000000E-02 0. -1.
         23    2    1    2    0    0  0.00000000000E+00  0.00000000000E+00 -0.20039601944E+04  0.20076194308E+04  0.12115823623E+03 0.  0.
    9000005    2    3    3    0    0  0.31322466540E+02 -0.20097095902E+02 -0.17926521515E+04  0.17930592314E+04  0.86418086970E+01 0.  0.
         22    1    3    3    0    0 -0.31322466540E+02  0.20097095902E+02 -0.21130804281E+03  0.21456019932E+03  0.00000000000E+00 0.  1.
         22    1    4    4    0    0  0.18000753654E+02 -0.15085095667E+02 -0.97227551506E+03  0.97255913159E+03  0.00000000000E+00 0. -1.
         22    1    4    4    0    0  0.13321712886E+02 -0.50120002351E+01 -0.82037663649E+03  0.82050009986E+03  0.00000000000E+00 0. -1.
<mgrwt>
<rscale>  0 0.12115824E+03</rscale>
<asrwt>0</asrwt>
<pdfrwt beam="2">  1        2 0.30858129E+00 0.12115824E+03</pdfrwt>
<pdfrwt beam="1">  1       -2 0.28148133E-03 0.12115824E+03</pdfrwt>
<totfact> 0.91658473E+04</totfact>
</mgrwt>
</event>
<event>
 7    1  0.3891761E-009  0.9139270E+02  0.7818608E-02  0.1299514E+00
         -2   -1    0    0    0  501 -0.00000000000E+00  0.00000000000E+00  0.77250049699E+02  0.77250049741E+02  0.25500000000E-02 0.  1.
          2   -1    0    0  501    0  0.00000000000E+00 -0.00000000000E+00 -0.27031132349E+02  0.27031132469E+02  0.25500000000E-02 0. -1.
         23    2    1    2    0    0  0.00000000000E+00  0.00000000000E+00  0.50218917350E+02  0.10428118221E+03  0.91392698304E+02 0.  0.
    9000005    2    3    3    0    0 -0.16503836854E+02  0.34924588322E+02 -0.10547368910E+01  0.40085457122E+02  0.10659638942E+02 0.  0.
         22    1    3    3    0    0  0.16503836854E+02 -0.34924588322E+02  0.51273654241E+02  0.64195725088E+02  0.00000000000E+00 0.  1.
         22    1    4    4    0    0 -0.14159722755E+02  0.26881987309E+02 -0.50571380055E+01  0.30801195350E+02  0.00000000000E+00 0. -1.
         22    1    4    4    0    0 -0.23441140987E+01  0.80426010136E+01  0.40024011144E+01  0.92842617721E+01  0.00000000000E+00 0. -1.
<mgrwt>
<rscale>  0 0.91392698E+02</rscale>
<asrwt>0</asrwt>
<pdfrwt beam="2">  1        2 0.41586359E-02 0.91392698E+02</pdfrwt>
<pdfrwt beam="1">  1       -2 0.11884623E-01 0.91392698E+02</pdfrwt>
<totfact> 0.85403732E+04</totfact>
</mgrwt>
</event>
<event>
 7    1  0.3911892E-009  0.8993593E+02  0.7818608E-02  0.1303007E+00
         -2   -1    0    0    0  501 -0.00000000000E+00  0.00000000000E+00  0.36428877210E+01  0.36428886134E+01  0.25500000000E-02 0.  1.
          2   -1    0    0  501    0  0.00000000000E+00 -0.00000000000E+00 -0.55508645924E+03  0.55508645925E+03  0.25500000000E-02 0. -1.
         23    2    1    2    0    0  0.00000000000E+00  0.00000000000E+00 -0.55144357152E+03  0.55872934786E+03  0.89935930471E+02 0.  0.
    9000005    2    3    3    0    0 -0.91316900983E+01 -0.40283663750E+02 -0.37009306989E+03  0.37273427865E+03  0.15993772879E+02 0.  0.
         22    1    3    3    0    0  0.91316900983E+01  0.40283663750E+02 -0.18135050163E+03  0.18599506921E+03  0.00000000000E+00 0.  1.
         22    1    4    4    0    0  0.13410709829E+01 -0.26422277627E+02 -0.24895371968E+03  0.25035552674E+03  0.00000000000E+00 0.  1.
         22    1    4    4    0    0 -0.10472761081E+02 -0.13861386123E+02 -0.12113935021E+03  0.12237875191E+03  0.00000000000E+00 0.  1.
<mgrwt>
<rscale>  0 0.89935930E+02</rscale>
<asrwt>0</asrwt>
<pdfrwt beam="2">  1        2 0.85397850E-01 0.89935930E+02</pdfrwt>
<pdfrwt beam="1">  1       -2 0.56044477E-03 0.89935930E+02</pdfrwt>
<totfact> 0.23090588E+05</totfact>
</mgrwt>
</event>
<event>
 7    1  0.3891761E-009  0.9145109E+02  0.7818608E-02  0.1299375E+00
          2   -1    0    0  501    0  0.00000000000E+00  0.00000000000E+00  0.17764315609E+03  0.17764315611E+03  0.25500000000E-02 0. -1.
         -2   -1    0    0    0  501 -0.00000000000E+00 -0.00000000000E+00 -0.11769804662E+02  0.11769804939E+02  0.25500000000E-02 0.  1.
         23    2    1    2    0    0  0.44408920985E-15  0.71054273576E-14  0.16587335143E+03  0.18941296105E+03  0.91451085827E+02 0.  0.
    9000005    2    3    3    0    0  0.16120210074E+01  0.41917077257E+02  0.49437509401E+02  0.65651313975E+02  0.10314441984E+02 0.  0.
         22    1    3    3    0    0 -0.16120210074E+01 -0.41917077257E+02  0.11643584203E+03  0.12376164707E+03  0.00000000000E+00 0. -1.
         22    1    4    4    0    0  0.51657025318E+01  0.33269724239E+02  0.41051544336E+02  0.53092262393E+02  0.00000000000E+00 0. -1.
         22    1    4    4    0    0 -0.35536815244E+01  0.86473530171E+01  0.83859650644E+01  0.12559051582E+02  0.00000000000E+00 0. -1.
<mgrwt>
<rscale>  0 0.91451086E+02</rscale>
<asrwt>0</asrwt>
<pdfrwt beam="1">  1        2 0.27329718E-01 0.91451086E+02</pdfrwt>
<pdfrwt beam="2">  1       -2 0.18107391E-02 0.91451086E+02</pdfrwt>
<totfact> 0.14705316E+05</totfact>
</mgrwt>
</event>
<event>
 7    1  0.3891761E-009  0.9054120E+02  0.7818608E-02  0.1301546E+00
         -2   -1    0    0    0  501 -0.00000000000E+00  0.00000000000E+00  0.45561780507E+01  0.45561787643E+01  0.25500000000E-02 0.  1.
          2   -1    0    0  501    0  0.00000000000E+00 -0.00000000000E+00 -0.44981280510E+03  0.44981280511E+03  0.25500000000E-02 0. -1.
         23    2    1    2    0    0  0.00000000000E+00  0.00000000000E+00 -0.44525662705E+03  0.45436898387E+03  0.90541203731E+02 0.  0.
    9000005    2    3    3    0    0  0.49679324186E+01  0.33879025500E+02 -0.36853620077E+03  0.37035414870E+03  0.13068873552E+02 0.  0.
         22    1    3    3    0    0 -0.49679324186E+01 -0.33879025500E+02 -0.76720426277E+02  0.84014835174E+02  0.00000000000E+00 0.  1.
         22    1    4    4    0    0 -0.31327964376E+01  0.33203298361E+01 -0.69998697151E+02  0.70147392015E+02  0.00000000000E+00 0.  1.
         22    1    4    4    0    0  0.81007288562E+01  0.30558695663E+02 -0.29853750362E+03  0.30020675668E+03  0.00000000000E+00 0.  1.
<mgrwt>
<rscale>  0 0.90541204E+02</rscale>
<asrwt>0</asrwt>
<pdfrwt beam="2">  1        2 0.69201935E-01 0.90541204E+02</pdfrwt>
<pdfrwt beam="1">  1       -2 0.70095088E-03 0.90541204E+02</pdfrwt>
<totfact> 0.21190072E+05</totfact>
</mgrwt>
</event>
<event>
 7    1  0.3891761E-009  0.9263667E+02  0.7818608E-02  0.1296589E+00
          2   -1    0    0  501    0  0.00000000000E+00  0.00000000000E+00  0.22586215313E+02  0.22586215457E+02  0.25500000000E-02 0. -1.
         -2   -1    0    0    0  501 -0.00000000000E+00 -0.00000000000E+00 -0.94986620721E+02  0.94986620755E+02  0.25500000000E-02 0.  1.
         23    2    1    2    0    0 -0.35527136788E-14  0.00000000000E+00 -0.72400405408E+02  0.11757283621E+03  0.92636672607E+02 0.  0.
    9000005    2    3    3    0    0 -0.17438357554E+02 -0.29953740608E+02 -0.74108141735E+02  0.82870685646E+02  0.13198900613E+02 0.  0.
         22    1    3    3    0    0  0.17438357554E+02  0.29953740608E+02  0.17077363275E+01  0.34702150566E+02  0.00000000000E+00 0. -1.
         22    1    4    4    0    0 -0.14591480888E+02 -0.11948977190E+02 -0.37723810737E+02  0.42175529243E+02  0.00000000000E+00 0. -1.
         22    1    4    4    0    0 -0.28468766655E+01 -0.18004763418E+02 -0.36384330998E+02  0.40695156403E+02  0.00000000000E+00 0. -1.
<mgrwt>
<rscale>  0 0.92636673E+02</rscale>
<asrwt>0</asrwt>
<pdfrwt beam="1">  1        2 0.34748024E-02 0.92636673E+02</pdfrwt>
<pdfrwt beam="2">  1       -2 0.14613326E-01 0.92636673E+02</pdfrwt>
<totfact> 0.77893917E+04</totfact>
</mgrwt>
</event>
<event>
 7    1  0.3891761E-009  0.9112561E+02  0.7818608E-02  0.1300149E+00
         -2   -1    0    0    0  501 -0.00000000000E+00  0.00000000000E+00  0.36764701872E+03  0.36764701873E+03  0.25500000000E-02 0. -1.
          2   -1    0    0  501    0  0.00000000000E+00 -0.00000000000E+00 -0.56466369575E+01  0.56466375333E+01  0.25500000000E-02 0.  1.
         23    2    1    2    0    0  0.00000000000E+00  0.00000000000E+00  0.36200038176E+03  0.37329365626E+03  0.91125613356E+02 0.  0.
    9000005    2    3    3    0    0  0.16114507201E+02 -0.13450943576E+02  0.34585283040E+03  0.34681066851E+03  0.14928304300E+02 0.  0.
         22    1    3    3    0    0 -0.16114507201E+02  0.13450943576E+02  0.16147551362E+02  0.26482987754E+02  0.00000000000E+00 0.  1.
         22    1    4    4    0    0  0.50793976399E+01  0.29444776015E+01  0.94383504747E+02  0.94565935711E+02  0.00000000000E+00 0. -1.
         22    1    4    4    0    0  0.11035109561E+02 -0.16395421177E+02  0.25146932566E+03  0.25224473280E+03  0.00000000000E+00 0. -1.
<mgrwt>
<rscale>  0 0.91125613E+02</rscale>
<asrwt>0</asrwt>
<pdfrwt beam="2">  1        2 0.86871320E-03 0.91125613E+02</pdfrwt>
<pdfrwt beam="1">  1       -2 0.56561095E-01 0.91125613E+02</pdfrwt>
<totfact> 0.45196841E+04</totfact>
</mgrwt>
</event>
<event>
 7    1  0.3891761E-009  0.9069498E+02  0.7818608E-02  0.1301177E+00
         -2   -1    0    0    0  501 -0.00000000000E+00  0.00000000000E+00  0.46790169231E+01  0.46790176180E+01  0.25500000000E-02 0.  1.
          2   -1    0    0  501    0  0.00000000000E+00 -0.00000000000E+00 -0.43949285892E+03  0.43949285893E+03  0.25500000000E-02 0. -1.
         23    2    1    2    0    0  0.00000000000E+00  0.00000000000E+00 -0.43481384200E+03  0.44417187655E+03  0.90694976276E+02 0.  0.
    9000005    2    3    3    0    0  0.40549140958E+02 -0.90034089813E+01 -0.29969385040E+03  0.30281167587E+03  0.12377918657E+02 0.  0.
         22    1    3    3    0    0 -0.40549140958E+02  0.90034089813E+01 -0.13511999160E+03  0.14136020068E+03  0.00000000000E+00 0. -1.
         22    1    4    4    0    0  0.35294634905E+01 -0.27448966819E+01 -0.63012226135E+02  0.63170659430E+02  0.00000000000E+00 0. -1.
         22    1    4    4    0    0  0.37019677467E+02 -0.62585122994E+01 -0.23668162426E+03  0.23964101644E+03  0.00000000000E+00 0. -1.
<mgrwt>
<rscale>  0 0.90694976E+02</rscale>
<asrwt>0</asrwt>
<pdfrwt beam="2">  1        2 0.67614254E-01 0.90694976E+02</pdfrwt>
<pdfrwt beam="1">  1       -2 0.71984916E-03 0.90694976E+02</pdfrwt>
<totfact> 0.20927186E+05</totfact>
</mgrwt>
</event>
<event>
 6    1  0.3891761E-009  0.2310345E+03  0.7818608E-02  0.1125914E+00
         -2   -1    0    0    0  501 -0.00000000000E+00  0.00000000000E+00  0.28933828213E+02  0.28933828325E+02  0.25500000000E-02 0.  1.
          2   -1    0    0  501    0  0.00000000000E+00 -0.00000000000E+00 -0.46119822287E+03  0.46119822287E+03  0.25500000000E-02 0. -1.
    9000005    2    1    2    0    0  0.44924212517E+02  0.99125387981E+02 -0.13415755083E+03  0.17278095581E+03  0.33140355598E+01 0.  0.
         22    1    1    2    0    0 -0.44924212517E+02 -0.99125387981E+02 -0.29810684382E+03  0.31735109539E+03  0.00000000000E+00 0.  1.
         22    1    3    3    0    0  0.31331003188E+02  0.67214475111E+02 -0.89284376437E+02  0.11606514249E+03  0.00000000000E+00 0.  1.
         22    1    3    3    0    0  0.13593209329E+02  0.31910912870E+02 -0.44873174394E+02  0.56715813318E+02  0.00000000000E+00 0.  1.
<mgrwt>
<rscale>  0 0.23103446E+03</rscale>
<asrwt>0</asrwt>
<pdfrwt beam="2">  1        2 0.70953567E-01 0.23103446E+03</pdfrwt>
<pdfrwt beam="1">  1       -2 0.44513586E-02 0.23103446E+03</pdfrwt>
<totfact> 0.15650431E+04</totfact>
</mgrwt>
</event>
<event>
 7    1  0.3891761E-009  0.9082944E+02  0.7818608E-02  0.1300855E+00
         -2   -1    0    0    0  501 -0.00000000000E+00  0.00000000000E+00  0.97253522742E+01  0.97253526085E+01  0.25500000000E-02 0.  1.
          2   -1    0    0  501    0  0.00000000000E+00 -0.00000000000E+00 -0.21207425191E+03  0.21207425192E+03  0.25500000000E-02 0. -1.
         23    2    1    2    0    0  0.00000000000E+00  0.88817841970E-15 -0.20234889963E+03  0.22179960453E+03  0.90829441194E+02 0.  0.
    9000005    2    3    3    0    0 -0.10642443852E+02 -0.56837135190E+01 -0.20802226703E+03  0.20846718884E+03  0.63038904424E+01 0.  0.
         22    1    3    3    0    0  0.10642443852E+02  0.56837135190E+01  0.56733673936E+01  0.13332415688E+02  0.00000000000E+00 0.  1.
         22    1    4    4    0    0 -0.14118073506E+01 -0.27449605319E+01 -0.88191915546E+02  0.88245917617E+02  0.00000000000E+00 0. -1.
         22    1    4    4    0    0 -0.92306365009E+01 -0.29387529871E+01 -0.11983035148E+03  0.12022127123E+03  0.00000000000E+00 0. -1.
<mgrwt>
<rscale>  0 0.90829441E+02</rscale>
<asrwt>0</asrwt>
<pdfrwt beam="2">  1        2 0.32626805E-01 0.90829441E+02</pdfrwt>
<pdfrwt beam="1">  1       -2 0.14962082E-02 0.90829441E+02</pdfrwt>
<totfact> 0.15963698E+05</totfact>
</mgrwt>
</event>
<event>
 7    1  0.3891761E-009  0.9020416E+02  0.7818608E-02  0.1302358E+00
         -2   -1    0    0    0  501 -0.00000000000E+00  0.00000000000E+00  0.64455695293E+02  0.64455695343E+02  0.25500000000E-02 0.  1.
          2   -1    0    0  501    0  0.00000000000E+00 -0.00000000000E+00 -0.31559623711E+02  0.31559623814E+02  0.25500000000E-02 0. -1.
         23    2    1    2    0    0  0.00000000000E+00  0.00000000000E+00  0.32896071582E+02  0.96015319158E+02  0.90204157262E+02 0.  0.
    9000005    2    3    3    0    0 -0.64280951155E+01  0.24769406033E+02  0.55821912456E+02  0.61657815439E+02  0.55458464110E+01 0.  0.
         22    1    3    3    0    0  0.64280951155E+01 -0.24769406033E+02 -0.22925840874E+02  0.34357503719E+02  0.00000000000E+00 0. -1.
         22    1    4    4    0    0 -0.66050871729E+01  0.24949965911E+02  0.55672520636E+02  0.61364138791E+02  0.00000000000E+00 0.  1.
         22    1    4    4    0    0  0.17699205745E+00 -0.18055987783E+00  0.14939181928E+00  0.29367664795E+00  0.00000000000E+00 0.  1.
<mgrwt>
<rscale>  0 0.90204157E+02</rscale>
<asrwt>0</asrwt>
<pdfrwt beam="2">  1        2 0.48553268E-02 0.90204157E+02</pdfrwt>
<pdfrwt beam="1">  1       -2 0.99162607E-02 0.90204157E+02</pdfrwt>
<totfact> 0.92546667E+04</totfact>
</mgrwt>
</event>
<event>
 7    1  0.3891761E-009  0.1018153E+03  0.7818608E-02  0.1276524E+00
          2   -1    0    0  501    0  0.00000000000E+00  0.00000000000E+00  0.74273409457E+01  0.74273413834E+01  0.25500000000E-02 0. -1.
         -2   -1    0    0    0  501 -0.00000000000E+00 -0.00000000000E+00 -0.34892533474E+03  0.34892533475E+03  0.25500000000E-02 0.  1.
         23    2    1    2    0    0  0.00000000000E+00  0.00000000000E+00 -0.34149799379E+03  0.35635267613E+03  0.10181527401E+03 0.  0.
    9000005    2    3    3    0    0 -0.22952543268E+02 -0.42235749421E+02 -0.13143887598E+03  0.14086367236E+03  0.15991194424E+02 0.  0.
         22    1    3    3    0    0  0.22952543268E+02  0.42235749421E+02 -0.21005911781E+03  0.21548900378E+03  0.00000000000E+00 0.  1.
         22    1    4    4    0    0 -0.48109173720E+01 -0.15883514762E+02 -0.65548323415E+02  0.67616667100E+02  0.00000000000E+00 0.  1.
         22    1    4    4    0    0 -0.18141625896E+02 -0.26352234659E+02 -0.65890552564E+02  0.73247005256E+02  0.00000000000E+00 0.  1.
<mgrwt>
<rscale>  0 0.10181527E+03</rscale>
<asrwt>0</asrwt>
<pdfrwt beam="1">  1        2 0.11426681E-02 0.10181527E+03</pdfrwt>
<pdfrwt beam="2">  1       -2 0.53680808E-01 0.10181527E+03</pdfrwt>
<totfact> 0.35052985E+04</totfact>
</mgrwt>
</event>
<event>
 7    1  0.3891761E-009  0.8476331E+02  0.7818608E-02  0.1316053E+00
          2   -1    0    0  501    0  0.00000000000E+00  0.00000000000E+00  0.30545349781E+03  0.30545349782E+03  0.25500000000E-02 0. -1.
         -2   -1    0    0    0  501 -0.00000000000E+00 -0.00000000000E+00 -0.58804519659E+01  0.58804525188E+01  0.25500000000E-02 0.  1.
         23    2    1    2    0    0 -0.71054273576E-14 -0.33306690739E-15  0.29957304584E+03  0.31133395034E+03  0.84763310682E+02 0.  0.
    9000005    2    3    3    0    0 -0.41215684686E+02 -0.68548319523E+00  0.17404147939E+03  0.17920758383E+03  0.11212448509E+02 0.  0.
         22    1    3    3    0    0  0.41215684686E+02  0.68548319523E+00  0.12553156645E+03  0.13212636651E+03  0.00000000000E+00 0. -1.
         22    1    4    4    0    0 -0.16698237311E+02 -0.42310809755E+01  0.88038806963E+02  0.89708219841E+02  0.00000000000E+00 0.  1.
         22    1    4    4    0    0 -0.24517447375E+02  0.35455977802E+01  0.86002672429E+02  0.89499363988E+02  0.00000000000E+00 0.  1.
<mgrwt>
<rscale>  0 0.84763311E+02</rscale>
<asrwt>0</asrwt>
<pdfrwt beam="1">  1        2 0.46992844E-01 0.84763311E+02</pdfrwt>
<pdfrwt beam="2">  1       -2 0.90468500E-03 0.84763311E+02</pdfrwt>
<totfact> 0.21951922E+05</totfact>
</mgrwt>
</event>
<event>
 7    1  0.3891761E-009  0.9345162E+02  0.7818608E-02  0.1294702E+00
         -2   -1    0    0    0  501 -0.00000000000E+00  0.00000000000E+00  0.18353073906E+01  0.18353091621E+01  0.25500000000E-02 0.  1.
          2   -1    0    0  501    0  0.00000000000E+00 -0.00000000000E+00 -0.11896100786E+04  0.11896100786E+04  0.25500000000E-02 0. -1.
         23    2    1    2    0    0 -0.35527136788E-14  0.00000000000E+00 -0.11877747712E+04  0.11914453877E+04  0.93451617987E+02 0.  0.
    9000005    2    3    3    0    0 -0.25235435038E+02 -0.22293197182E+02 -0.10022194877E+04  0.10028596591E+04  0.12238483477E+02 0.  0.
         22    1    3    3    0    0  0.25235435038E+02  0.22293197182E+02 -0.18555528346E+03  0.18858572862E+03  0.00000000000E+00 0. -1.
         22    1    4    4    0    0 -0.17586058818E+02 -0.14393999390E+02 -0.49549352332E+03  0.49601440335E+03  0.00000000000E+00 0. -1.
         22    1    4    4    0    0 -0.76493762192E+01 -0.78991977916E+01 -0.50672596440E+03  0.50684525575E+03  0.00000000000E+00 0. -1.
<mgrwt>
<rscale>  0 0.93451618E+02</rscale>
<asrwt>0</asrwt>
<pdfrwt beam="2">  1        2 0.18301632E+00 0.93451618E+02</pdfrwt>
<pdfrwt beam="1">  1       -2 0.28235607E-03 0.93451618E+02</pdfrwt>
<totfact> 0.23326024E+05</totfact>
</mgrwt>
</event>
<event>
 7    1  0.3891761E-009  0.8551055E+02  0.7818608E-02  0.1314103E+00
         -2   -1    0    0    0  501 -0.00000000000E+00  0.00000000000E+00  0.65305579807E+01  0.65305584785E+01  0.25500000000E-02 0.  1.
          2   -1    0    0  501    0  0.00000000000E+00 -0.00000000000E+00 -0.27991691031E+03  0.27991691032E+03  0.25500000000E-02 0. -1.
         23    2    1    2    0    0  0.88817841970E-15  0.00000000000E+00 -0.27338635233E+03  0.28644746880E+03  0.85510553397E+02 0.  0.
    9000005    2    3    3    0    0  0.44815061858E+01  0.30819523441E+02 -0.23303528830E+03  0.23547556192E+03  0.13166918593E+02 0.  0.
         22    1    3    3    0    0 -0.44815061858E+01 -0.30819523441E+02 -0.40351064032E+02  0.50971906883E+02  0.00000000000E+00 0.  1.
         22    1    4    4    0    0  0.36609300290E+01  0.55968418452E+01 -0.88612498197E+02  0.88864514200E+02  0.00000000000E+00 0. -1.
         22    1    4    4    0    0  0.82057615675E+00  0.25222681596E+02 -0.14442279010E+03  0.14661104772E+03  0.00000000000E+00 0. -1.
<mgrwt>
<rscale>  0 0.85510553E+02</rscale>
<asrwt>0</asrwt>
<pdfrwt beam="2">  1        2 0.43064131E-01 0.85510553E+02</pdfrwt>
<pdfrwt beam="1">  1       -2 0.10047015E-02 0.85510553E+02</pdfrwt>
<totfact> 0.20767051E+05</totfact>
</mgrwt>
</event>
<event>
 7    1  0.3891761E-009  0.9086576E+02  0.7818608E-02  0.1300769E+00
         -2   -1    0    0    0  501 -0.00000000000E+00  0.00000000000E+00  0.40868289273E+01  0.40868297228E+01  0.25500000000E-02 0. -1.
          2   -1    0    0  501    0  0.00000000000E+00 -0.00000000000E+00 -0.50507288899E+03  0.50507288900E+03  0.25500000000E-02 0.  1.
         23    2    1    2    0    0  0.00000000000E+00  0.00000000000E+00 -0.50098606006E+03  0.50915971872E+03  0.90865762469E+02 0.  0.
    9000005    2    3    3    0    0  0.20327566765E+02  0.10529343311E+02 -0.46985654517E+03  0.47051875938E+03  0.99324140626E+01 0.  0.
         22    1    3    3    0    0 -0.20327566765E+02 -0.10529343311E+02 -0.31129514895E+02  0.38640959341E+02  0.00000000000E+00 0. -1.
         22    1    4    4    0    0  0.75680176557E+01 -0.32333704758E+00 -0.19952937274E+03  0.19967310792E+03  0.00000000000E+00 0.  1.
         22    1    4    4    0    0  0.12759549110E+02  0.10852680359E+02 -0.27032717242E+03  0.27084565146E+03  0.00000000000E+00 0.  1.
<mgrwt>
<rscale>  0 0.90865762E+02</rscale>
<asrwt>0</asrwt>
<pdfrwt beam="2">  1        2 0.77703472E-01 0.90865762E+02</pdfrwt>
<pdfrwt beam="1">  1       -2 0.62874338E-03 0.90865762E+02</pdfrwt>
<totfact> 0.21816654E+05</totfact>
</mgrwt>
</event>
<event>
 7    1  0.3891761E-009  0.9191373E+02  0.7818608E-02  0.1298282E+00
          2   -1    0    0  501    0  0.00000000000E+00  0.00000000000E+00  0.72867473146E+02  0.72867473191E+02  0.25500000000E-02 0. -1.
         -2   -1    0    0    0  501 -0.00000000000E+00 -0.00000000000E+00 -0.28984585821E+02  0.28984585933E+02  0.25500000000E-02 0.  1.
         23    2    1    2    0    0  0.00000000000E+00  0.00000000000E+00  0.43882887326E+02  0.10185205912E+03  0.91913732096E+02 0.  0.
    9000005    2    3    3    0    0 -0.36705080688E+02  0.22082399620E+02  0.38042112133E+02  0.58620011103E+02  0.12418054795E+02 0.  0.
         22    1    3    3    0    0  0.36705080688E+02 -0.22082399620E+02  0.58407751925E+01  0.43232048021E+02  0.00000000000E+00 0. -1.
         22    1    4    4    0    0 -0.28747269291E+02  0.14085800337E+02  0.21371878749E+02  0.38491199827E+02  0.00000000000E+00 0. -1.
         22    1    4    4    0    0 -0.79578113966E+01  0.79965992822E+01  0.16670233384E+02  0.20128811276E+02  0.00000000000E+00 0. -1.
<mgrwt>
<rscale>  0 0.91913732E+02</rscale>
<asrwt>0</asrwt>
<pdfrwt beam="1">  1        2 0.11210380E-01 0.91913732E+02</pdfrwt>
<pdfrwt beam="2">  1       -2 0.44591671E-02 0.91913732E+02</pdfrwt>
<totfact> 0.10937248E+05</totfact>
</mgrwt>
</event>
<event>
 7    1  0.3891761E-009  0.9176897E+02  0.7818608E-02  0.1298624E+00
          2   -1    0    0  501    0  0.00000000000E+00  0.00000000000E+00  0.64381351438E+03  0.64381351439E+03  0.25500000000E-02 0. -1.
         -2   -1    0    0    0  501 -0.00000000000E+00 -0.00000000000E+00 -0.32701793559E+01  0.32701803501E+01  0.25500000000E-02 0.  1.
         23    2    1    2    0    0  0.00000000000E+00  0.00000000000E+00  0.64054333502E+03  0.64708369474E+03  0.91768970509E+02 0.  0.
    9000005    2    3    3    0    0 -0.42777990866E+02 -0.13966544484E+02  0.38290588299E+03  0.38554578628E+03  0.19019001751E+01 0.  0.
         22    1    3    3    0    0  0.42777990866E+02  0.13966544484E+02  0.25763745203E+03  0.26153790845E+03  0.00000000000E+00 0.  1.
         22    1    4    4    0    0 -0.27488803732E+02 -0.98582834705E+01  0.24532972877E+03  0.24706172489E+03  0.00000000000E+00 0.  1.
         22    1    4    4    0    0 -0.15289187134E+02 -0.41082610138E+01  0.13757615422E+03  0.13848406140E+03  0.00000000000E+00 0.  1.
<mgrwt>
<rscale>  0 0.91768971E+02</rscale>
<asrwt>0</asrwt>
<pdfrwt beam="1">  1        2 0.99048062E-01 0.91768971E+02</pdfrwt>
<pdfrwt beam="2">  1       -2 0.50310546E-03 0.91768971E+02</pdfrwt>
<totfact> 0.22833789E+05</totfact>
</mgrwt>
</event>
<event>
 7    1  0.3891761E-009  0.9091382E+02  0.7818608E-02  0.1300654E+00
         -2   -1    0    0    0  501 -0.00000000000E+00  0.00000000000E+00  0.87180937062E+01  0.87180940791E+01  0.25500000000E-02 0.  1.
          2   -1    0    0  501    0  0.00000000000E+00 -0.00000000000E+00 -0.23701634375E+03  0.23701634376E+03  0.25500000000E-02 0. -1.
         23    2    1    2    0    0  0.00000000000E+00  0.00000000000E+00 -0.22829825004E+03  0.24573443784E+03  0.90913821660E+02 0.  0.
    9000005    2    3    3    0    0 -0.37918733449E+01 -0.13914110807E+02 -0.23041435444E+03  0.23115847541E+03  0.11639812634E+02 0.  0.
         22    1    3    3    0    0  0.37918733449E+01  0.13914110807E+02  0.21161043983E+01  0.14575962432E+02  0.00000000000E+00 0.  1.
         22    1    4    4    0    0 -0.58688486808E+01 -0.95159896293E+01 -0.20358781335E+03  0.20389456881E+03  0.00000000000E+00 0.  1.
         22    1    4    4    0    0  0.20769753359E+01 -0.43981211774E+01 -0.26826541088E+02  0.27263906602E+02  0.00000000000E+00 0.  1.
<mgrwt>
<rscale>  0 0.90913822E+02</rscale>
<asrwt>0</asrwt>
<pdfrwt beam="2">  1        2 0.36464048E-01 0.90913822E+02</pdfrwt>
<pdfrwt beam="1">  1       -2 0.13412454E-02 0.90913822E+02</pdfrwt>
<totfact> 0.16586533E+05</totfact>
</mgrwt>
</event>
<event>
 7    1  0.3891761E-009  0.8934188E+02  0.7818608E-02  0.1304453E+00
         -2   -1    0    0    0  501 -0.00000000000E+00  0.00000000000E+00  0.64613304957E+01  0.64613309988E+01  0.25500000000E-02 0. -1.
          2   -1    0    0  501    0  0.00000000000E+00 -0.00000000000E+00 -0.30883619999E+03  0.30883620000E+03  0.25500000000E-02 0.  1.
         23    2    1    2    0    0  0.35527136788E-14 -0.88817841970E-15 -0.30237486949E+03  0.31529753100E+03  0.89341879052E+02 0.  0.
    9000005    2    3    3    0    0  0.27032847659E+02 -0.47543489029E+01 -0.27541409275E+03  0.27682335565E+03  0.49868891844E+01 0.  0.
         22    1    3    3    0    0 -0.27032847659E+02  0.47543489029E+01 -0.26960776749E+02  0.38474175351E+02  0.00000000000E+00 0. -1.
         22    1    4    4    0    0  0.18310348415E+02 -0.38165757854E+01 -0.16361914382E+03  0.16468472708E+03  0.00000000000E+00 0. -1.
         22    1    4    4    0    0  0.87224992436E+01 -0.93777311755E+00 -0.11179494893E+03  0.11213862857E+03  0.00000000000E+00 0. -1.
<mgrwt>
<rscale>  0 0.89341879E+02</rscale>
<asrwt>0</asrwt>
<pdfrwt beam="2">  1        2 0.47513250E-01 0.89341879E+02</pdfrwt>
<pdfrwt beam="1">  1       -2 0.99405112E-03 0.89341879E+02</pdfrwt>
<totfact> 0.19171178E+05</totfact>
</mgrwt>
</event>
<event>
 7    1  0.3891761E-009  0.1227780E+03  0.7818608E-02  0.1238583E+00
         -2   -1    0    0    0  501 -0.00000000000E+00  0.00000000000E+00  0.36604812441E+01  0.36604821323E+01  0.25500000000E-02 0.  1.
          2   -1    0    0  501    0  0.00000000000E+00 -0.00000000000E+00 -0.10295394527E+04  0.10295394527E+04  0.25500000000E-02 0. -1.
         23    2    1    2    0    0  0.00000000000E+00  0.00000000000E+00 -0.10258789714E+04  0.10331999348E+04  0.12277801622E+03 0.  0.
    9000005    2    3    3    0    0  0.32899965994E+02 -0.36291085154E+02 -0.82368290283E+03  0.82515498586E+03  0.52702616729E+01 0.  0.
         22    1    3    3    0    0 -0.32899965994E+02  0.36291085154E+02 -0.20219606858E+03  0.20804494892E+03  0.00000000000E+00 0.  1.
         22    1    4    4    0    0  0.40657005559E+01 -0.70045479746E+01 -0.15258185496E+03  0.15279664943E+03  0.00000000000E+00 0.  1.
         22    1    4    4    0    0  0.28834265439E+02 -0.29286537179E+02 -0.67110104787E+03  0.67235833643E+03  0.00000000000E+00 0.  1.
<mgrwt>
<rscale>  0 0.12277802E+03</rscale>
<asrwt>0</asrwt>
<pdfrwt beam="2">  1        2 0.15839045E+00 0.12277802E+03</pdfrwt>
<pdfrwt beam="1">  1       -2 0.56315185E-03 0.12277802E+03</pdfrwt>
<totfact> 0.11301672E+05</totfact>
</mgrwt>
</event>
<event>
 7    1  0.3891761E-009  0.9251725E+02  0.7818608E-02  0.1296868E+00
          2   -1    0    0  501    0  0.00000000000E+00  0.00000000000E+00  0.16374703070E+03  0.16374703072E+03  0.25500000000E-02 0. -1.
         -2   -1    0    0    0  501 -0.00000000000E+00 -0.00000000000E+00 -0.13068087813E+02  0.13068088062E+02  0.25500000000E-02 0.  1.
         23    2    1    2    0    0  0.00000000000E+00  0.00000000000E+00  0.15067894289E+03  0.17681511878E+03  0.92517254608E+02 0.  0.
    9000005    2    3    3    0    0 -0.44040826663E+02 -0.59229568469E+01  0.90665266981E+02  0.10214037655E+03  0.15420442760E+02 0.  0.
         22    1    3    3    0    0  0.44040826663E+02  0.59229568469E+01  0.60013675904E+02  0.74674742226E+02  0.00000000000E+00 0.  1.
         22    1    4    4    0    0 -0.71021501913E+01 -0.71164578417E+01  0.18056379016E+02  0.20666817189E+02  0.00000000000E+00 0.  1.
         22    1    4    4    0    0 -0.36938676472E+02  0.11935009948E+01  0.72608887965E+02  0.81473559365E+02  0.00000000000E+00 0.  1.
<mgrwt>
<rscale>  0 0.92517255E+02</rscale>
<asrwt>0</asrwt>
<pdfrwt beam="1">  1        2 0.25191852E-01 0.92517255E+02</pdfrwt>
<pdfrwt beam="2">  1       -2 0.20104750E-02 0.92517255E+02</pdfrwt>
<totfact> 0.13849519E+05</totfact>
</mgrwt>
</event>
<event>
 7    1  0.3891761E-009  0.9074738E+02  0.7818608E-02  0.1301052E+00
          2   -1    0    0  501    0  0.00000000000E+00  0.00000000000E+00  0.25672977635E+03  0.25672977636E+03  0.25500000000E-02 0. -1.
         -2   -1    0    0    0  501 -0.00000000000E+00 -0.00000000000E+00 -0.80192164780E+01  0.80192168835E+01  0.25500000000E-02 0.  1.
         23    2    1    2    0    0  0.35527136788E-14 -0.35527136788E-14  0.24871055987E+03  0.26474899324E+03  0.90747379207E+02 0.  0.
    9000005    2    3    3    0    0  0.26244523288E+02 -0.16872807347E+02  0.21983239703E+03  0.22223529052E+03  0.94220453001E+01 0.  0.
         22    1    3    3    0    0 -0.26244523288E+02  0.16872807347E+02  0.28878162839E+02  0.42513702724E+02  0.00000000000E+00 0.  1.
         22    1    4    4    0    0  0.24991462660E+02 -0.12428357148E+02  0.19315474754E+03  0.19516094324E+03  0.00000000000E+00 0.  1.
         22    1    4    4    0    0  0.12530606279E+01 -0.44444501994E+01  0.26677649488E+02  0.27074347281E+02  0.00000000000E+00 0.  1.
<mgrwt>
<rscale>  0 0.90747379E+02</rscale>
<asrwt>0</asrwt>
<pdfrwt beam="1">  1        2 0.39496882E-01 0.90747379E+02</pdfrwt>
<pdfrwt beam="2">  1       -2 0.12337259E-02 0.90747379E+02</pdfrwt>
<totfact> 0.17167502E+05</totfact>
</mgrwt>
</event>
<event>
 7    1  0.3891761E-009  0.9202051E+02  0.7818608E-02  0.1298031E+00
         -2   -1    0    0    0  501 -0.00000000000E+00  0.00000000000E+00  0.24508388388E+01  0.24508401654E+01  0.25500000000E-02 0.  1.
          2   -1    0    0  501    0  0.00000000000E+00 -0.00000000000E+00 -0.86376260495E+03  0.86376260495E+03  0.25500000000E-02 0. -1.
         23    2    1    2    0    0  0.00000000000E+00 -0.35527136788E-14 -0.86131176611E+03  0.86621344512E+03  0.92020508929E+02 0.  0.
    9000005    2    3    3    0    0 -0.42739885337E+01  0.24173971576E+02 -0.79692247166E+03  0.79730314749E+03  0.20579789078E+01 0.  0.
         22    1    3    3    0    0  0.42739885337E+01 -0.24173971576E+02 -0.64389294453E+02  0.68910297633E+02  0.00000000000E+00 0.  1.
         22    1    4    4    0    0 -0.23476759343E+01  0.16168799706E+02 -0.50231612828E+03  0.50258176886E+03  0.00000000000E+00 0.  1.
         22    1    4    4    0    0 -0.19263125993E+01  0.80051718701E+01 -0.29460634338E+03  0.29472137862E+03  0.00000000000E+00 0.  1.
<mgrwt>
<rscale>  0 0.92020509E+02</rscale>
<asrwt>0</asrwt>
<pdfrwt beam="2">  1        2 0.13288631E+00 0.92020509E+02</pdfrwt>
<pdfrwt beam="1">  1       -2 0.37705292E-03 0.92020509E+02</pdfrwt>
<totfact> 0.24076130E+05</totfact>
</mgrwt>
</event>
<event>
 7    1  0.3891761E-009  0.9093250E+02  0.7818608E-02  0.1300609E+00
         -2   -1    0    0    0  501 -0.00000000000E+00  0.00000000000E+00  0.74627884096E+01  0.74627888453E+01  0.25500000000E-02 0. -1.
          2   -1    0    0  501    0  0.00000000000E+00 -0.00000000000E+00 -0.27699828801E+03  0.27699828802E+03  0.25500000000E-02 0.  1.
         23    2    1    2    0    0  0.00000000000E+00  0.00000000000E+00 -0.26953549960E+03  0.28446107686E+03  0.90932495333E+02 0.  0.
    9000005    2    3    3    0    0  0.25735854412E+02 -0.33925248042E+02 -0.10233552589E+03  0.11192386967E+03  0.15528557133E+02 0.  0.
         22    1    3    3    0    0 -0.25735854412E+02  0.33925248042E+02 -0.16719997371E+03  0.17253720719E+03  0.00000000000E+00 0.  1.
         22    1    4    4    0    0  0.80414202391E+00 -0.48336525223E-02  0.39979646201E+00  0.89805621753E+00  0.00000000000E+00 0. -1.
         22    1    4    4    0    0  0.24931712388E+02 -0.33920414389E+02 -0.10273532235E+03  0.11102581345E+03  0.00000000000E+00 0. -1.
<mgrwt>
<rscale>  0 0.90932495E+02</rscale>
<asrwt>0</asrwt>
<pdfrwt beam="2">  1        2 0.42615113E-01 0.90932495E+02</pdfrwt>
<pdfrwt beam="1">  1       -2 0.11481215E-02 0.90932495E+02</pdfrwt>
<totfact> 0.17564919E+05</totfact>
</mgrwt>
</event>
<event>
 7    1  0.3891761E-009  0.9565139E+02  0.7818608E-02  0.1289716E+00
         -2   -1    0    0    0  501 -0.00000000000E+00  0.00000000000E+00  0.13116258940E+02  0.13116259188E+02  0.25500000000E-02 0.  1.
          2   -1    0    0  501    0  0.00000000000E+00 -0.00000000000E+00 -0.17438638824E+03  0.17438638826E+03  0.25500000000E-02 0. -1.
         23    2    1    2    0    0  0.00000000000E+00  0.00000000000E+00 -0.16127012930E+03  0.18750264744E+03  0.95651388881E+02 0.  0.
    9000005    2    3    3    0    0  0.21709791980E+02 -0.39399046412E+02 -0.59354431772E+02  0.76100630729E+02  0.15644727561E+02 0.  0.
         22    1    3    3    0    0 -0.21709791980E+02  0.39399046412E+02 -0.10191569753E+03  0.11140201672E+03  0.00000000000E+00 0. -1.
         22    1    4    4    0    0  0.13201508626E+02 -0.14728419937E+02 -0.36019839446E+02  0.41093004484E+02  0.00000000000E+00 0.  1.
         22    1    4    4    0    0  0.85082833539E+01 -0.24670626475E+02 -0.23334592326E+02  0.35007626245E+02  0.00000000000E+00 0.  1.
<mgrwt>
<rscale>  0 0.95651389E+02</rscale>
<asrwt>0</asrwt>
<pdfrwt beam="2">  1        2 0.26828673E-01 0.95651389E+02</pdfrwt>
<pdfrwt beam="1">  1       -2 0.20178861E-02 0.95651389E+02</pdfrwt>
<totfact> 0.12934170E+05</totfact>
</mgrwt>
</event>
<event>
 7    1  0.3891761E-009  0.9444812E+02  0.7818608E-02  0.1292424E+00
         -2   -1    0    0    0  501 -0.00000000000E+00  0.00000000000E+00  0.30604826738E+02  0.30604826844E+02  0.25500000000E-02 0.  1.
          2   -1    0    0  501    0  0.00000000000E+00 -0.00000000000E+00 -0.72867982849E+02  0.72867982894E+02  0.25500000000E-02 0. -1.
         23    2    1    2    0    0  0.00000000000E+00  0.00000000000E+00 -0.42263156111E+02  0.10347280974E+03  0.94448123278E+02 0.  0.
    9000005    2    3    3    0    0 -0.19032104314E+02 -0.39669306791E+02 -0.38672153692E+02  0.59327932411E+02  0.94017656380E+01 0.  0.
         22    1    3    3    0    0  0.19032104314E+02  0.39669306791E+02 -0.35910024190E+01  0.44144877327E+02  0.00000000000E+00 0.  1.
         22    1    4    4    0    0 -0.13671122500E+02 -0.34746245276E+02 -0.29306357598E+02  0.47466448643E+02  0.00000000000E+00 0.  1.
         22    1    4    4    0    0 -0.53609818138E+01 -0.49230615150E+01 -0.93657960944E+01  0.11861483768E+02  0.00000000000E+00 0.  1.
<mgrwt>
<rscale>  0 0.94448123E+02</rscale>
<asrwt>0</asrwt>
<pdfrwt beam="2">  1        2 0.11210459E-01 0.94448123E+02</pdfrwt>
<pdfrwt beam="1">  1       -2 0.47084349E-02 0.94448123E+02</pdfrwt>
<totfact> 0.10133947E+05</totfact>
</mgrwt>
</event>
<event>
 7    1  0.3891761E-009  0.9225963E+02  0.7818608E-02  0.1297470E+00
         -2   -1    0    0    0  501 -0.00000000000E+00  0.00000000000E+00  0.10761017930E+03  0.10761017933E+03  0.25500000000E-02 0.  1.
          2   -1    0    0  501    0  0.00000000000E+00 -0.00000000000E+00 -0.19774708913E+02  0.19774709077E+02  0.25500000000E-02 0. -1.
         23    2    1    2    0    0  0.00000000000E+00  0.00000000000E+00  0.87835470384E+02  0.12738488840E+03  0.92259633297E+02 0.  0.
    9000005    2    3    3    0    0 -0.15058221665E+02  0.34241874269E+02  0.80260978113E+02  0.89219080063E+02  0.10907045730E+02 0.  0.
         22    1    3    3    0    0  0.15058221665E+02 -0.34241874269E+02  0.75744922713E+01  0.38165808341E+02  0.00000000000E+00 0.  1.
         22    1    4    4    0    0 -0.58431868983E+01  0.17759749006E+02  0.51731745814E+02  0.55006590904E+02  0.00000000000E+00 0. -1.
         22    1    4    4    0    0 -0.92150347666E+01  0.16482125263E+02  0.28529232299E+02  0.34212489160E+02  0.00000000000E+00 0. -1.
<mgrwt>
<rscale>  0 0.92259633E+02</rscale>
<asrwt>0</asrwt>
<pdfrwt beam="2">  1        2 0.30422630E-02 0.92259633E+02</pdfrwt>
<pdfrwt beam="1">  1       -2 0.16555412E-01 0.92259633E+02</pdfrwt>
<totfact> 0.75783196E+04</totfact>
</mgrwt>
</event>
<event>
 7    1  0.3891761E-009  0.8647702E+02  0.7818608E-02  0.1311615E+00
          2   -1    0    0  501    0  0.00000000000E+00  0.00000000000E+00  0.57692655543E+03  0.57692655544E+03  0.25500000000E-02 0. -1.
         -2   -1    0    0    0  501 -0.00000000000E+00 -0.00000000000E+00 -0.32405655307E+01  0.32405665340E+01  0.25500000000E-02 0.  1.
         23    2    1    2    0    0  0.00000000000E+00  0.00000000000E+00  0.57368598990E+03  0.58016712197E+03  0.86477016645E+02 0.  0.
    9000005    2    3    3    0    0 -0.34674846961E+02 -0.62868857445E+01  0.45011310279E+03  0.45166759523E+03  0.12646791386E+02 0.  0.
         22    1    3    3    0    0  0.34674846961E+02  0.62868857445E+01  0.12357288712E+03  0.12849952675E+03  0.00000000000E+00 0.  1.
         22    1    4    4    0    0 -0.15577789402E+02  0.10052204279E+01  0.13666512166E+03  0.13755374757E+03  0.00000000000E+00 0. -1.
         22    1    4    4    0    0 -0.19097057559E+02 -0.72921061724E+01  0.31344798112E+03  0.31411384766E+03  0.00000000000E+00 0. -1.
<mgrwt>
<rscale>  0 0.86477017E+02</rscale>
<asrwt>0</asrwt>
<pdfrwt beam="1">  1        2 0.88757994E-01 0.86477017E+02</pdfrwt>
<pdfrwt beam="2">  1       -2 0.49854827E-03 0.86477017E+02</pdfrwt>
<totfact> 0.25898800E+05</totfact>
</mgrwt>
</event>
<event>
 7    1  0.3891761E-009  0.9153057E+02  0.7818608E-02  0.1299187E+00
         -2   -1    0    0    0  501 -0.00000000000E+00  0.00000000000E+00  0.39721956140E+02  0.39721956222E+02  0.25500000000E-02 0. -1.
          2   -1    0    0  501    0  0.00000000000E+00 -0.00000000000E+00 -0.52728048205E+02  0.52728048267E+02  0.25500000000E-02 0.  1.
         23    2    1    2    0    0  0.00000000000E+00  0.00000000000E+00 -0.13006092065E+02  0.92450004489E+02  0.91530568114E+02 0.  0.
    9000005    2    3    3    0    0 -0.30854861705E+02  0.17800317314E+02 -0.34539695253E+02  0.50825854604E+02  0.11018310248E+02 0.  0.
         22    1    3    3    0    0  0.30854861705E+02 -0.17800317314E+02  0.21533603188E+02  0.41624149885E+02  0.00000000000E+00 0. -1.
         22    1    4    4    0    0 -0.23712913000E+02  0.11165472326E+02 -0.18591470421E+02  0.32134293016E+02  0.00000000000E+00 0. -1.
         22    1    4    4    0    0 -0.71419487054E+01  0.66348449879E+01 -0.15948224831E+02  0.18691561588E+02  0.00000000000E+00 0. -1.
<mgrwt>
<rscale>  0 0.91530568E+02</rscale>
<asrwt>0</asrwt>
<pdfrwt beam="2">  1        2 0.81120074E-02 0.91530568E+02</pdfrwt>
<pdfrwt beam="1">  1       -2 0.61110702E-02 0.91530568E+02</pdfrwt>
<totfact> 0.10137155E+05</totfact>
</mgrwt>
</event>
<event>
 6    1  0.3891761E-009  0.2673026E+03  0.7818608E-02  0.1102833E+00
         -2   -1    0    0    0  501 -0.00000000000E+00  0.00000000000E+00  0.11381812594E+03  0.11381812596E+03  0.25500000000E-02 0. -1.
          2   -1    0    0  501    0  0.00000000000E+00 -0.00000000000E+00 -0.15694049468E+03  0.15694049470E+03  0.25500000000E-02 0.  1.
    9000005    2    1    2    0    0  0.11169656024E+03  0.92174225678E+01  0.52059988482E+02  0.12371861394E+03  0.59135933440E+01 0.  0.
         22    1    1    2    0    0 -0.11169656024E+03 -0.92174225678E+01 -0.95182357226E+02  0.14704000672E+03  0.00000000000E+00 0.  1.
         22    1    3    3    0    0  0.90228166365E+02  0.96111985869E+01  0.41138938862E+02  0.99628858443E+02  0.00000000000E+00 0. -1.
         22    1    3    3    0    0  0.21468393879E+02 -0.39377601918E+00  0.10921049621E+02  0.24089755501E+02  0.00000000000E+00 0. -1.
<mgrwt>
<rscale>  0 0.26730262E+03</rscale>
<asrwt>0</asrwt>
<pdfrwt beam="2">  1        2 0.24144691E-01 0.26730262E+03</pdfrwt>
<pdfrwt beam="1">  1       -2 0.17510481E-01 0.26730262E+03</pdfrwt>
<totfact> 0.58517920E+03</totfact>
</mgrwt>
</event>
<event>
 7    1  0.3891761E-009  0.9017782E+02  0.7818608E-02  0.1302422E+00
         -2   -1    0    0    0  501 -0.00000000000E+00  0.00000000000E+00  0.42875205937E+02  0.42875206013E+02  0.25500000000E-02 0. -1.
          2   -1    0    0  501    0  0.00000000000E+00 -0.00000000000E+00 -0.47416907657E+02  0.47416907726E+02  0.25500000000E-02 0.  1.
         23    2    1    2    0    0  0.00000000000E+00  0.00000000000E+00 -0.45417017199E+01  0.90292113738E+02  0.90177817388E+02 0.  0.
    9000005    2    3    3    0    0 -0.84861983519E+01 -0.25022002431E+02  0.32835548293E+02  0.44519032275E+02  0.14340670654E+02 0.  0.
         22    1    3    3    0    0  0.84861983519E+01  0.25022002431E+02 -0.37377250013E+02  0.45773081464E+02  0.00000000000E+00 0.  1.
         22    1    4    4    0    0 -0.98257739779E+01 -0.10247643217E+02  0.21858603431E+02  0.26064507855E+02  0.00000000000E+00 0.  1.
         22    1    4    4    0    0  0.13395756260E+01 -0.14774359214E+02  0.10976944862E+02  0.18454524419E+02  0.00000000000E+00 0.  1.
<mgrwt>
<rscale>  0 0.90177817E+02</rscale>
<asrwt>0</asrwt>
<pdfrwt beam="2">  1        2 0.72949088E-02 0.90177817E+02</pdfrwt>
<pdfrwt beam="1">  1       -2 0.65961856E-02 0.90177817E+02</pdfrwt>
<totfact> 0.10287605E+05</totfact>
</mgrwt>
</event>
<event>
 7    1  0.3891761E-009  0.9680535E+02  0.7818608E-02  0.1287161E+00
          2   -1    0    0  501    0  0.00000000000E+00  0.00000000000E+00  0.57197405591E+03  0.57197405592E+03  0.25500000000E-02 0. -1.
         -2   -1    0    0    0  501 -0.00000000000E+00 -0.00000000000E+00 -0.40960225983E+01  0.40960233921E+01  0.25500000000E-02 0.  1.
         23    2    1    2    0    0  0.00000000000E+00 -0.71054273576E-14  0.56787803331E+03  0.57607007931E+03  0.96805348797E+02 0.  0.
    9000005    2    3    3    0    0 -0.20065207124E+02  0.42532847953E+02  0.34466849494E+03  0.34796011961E+03  0.82594034153E+01 0.  0.
         22    1    3    3    0    0  0.20065207124E+02 -0.42532847953E+02  0.22320953838E+03  0.22810995970E+03  0.00000000000E+00 0.  1.
         22    1    4    4    0    0 -0.10268604072E+02  0.26737651797E+02  0.23325655049E+03  0.23500843517E+03  0.00000000000E+00 0.  1.
         22    1    4    4    0    0 -0.97966030520E+01  0.15795196156E+02  0.11141194444E+03  0.11295168444E+03  0.00000000000E+00 0.  1.
<mgrwt>
<rscale>  0 0.96805349E+02</rscale>
<asrwt>0</asrwt>
<pdfrwt beam="1">  1        2 0.87996040E-01 0.96805349E+02</pdfrwt>
<pdfrwt beam="2">  1       -2 0.63015716E-03 0.96805349E+02</pdfrwt>
<totfact> 0.19171167E+05</totfact>
</mgrwt>
</event>
<event>
 7    1  0.3891761E-009  0.8996068E+02  0.7818608E-02  0.1302947E+00
          2   -1    0    0  501    0  0.00000000000E+00  0.00000000000E+00  0.53111388886E+03  0.53111388887E+03  0.25500000000E-02 0. -1.
         -2   -1    0    0    0  501 -0.00000000000E+00 -0.00000000000E+00 -0.38094100291E+01  0.38094108826E+01  0.25500000000E-02 0.  1.
         23    2    1    2    0    0  0.00000000000E+00  0.00000000000E+00  0.52730447883E+03  0.53492329975E+03  0.89960675959E+02 0.  0.
    9000005    2    3    3    0    0 -0.16404505222E+02 -0.39957633804E+02  0.31190553030E+03  0.31523618743E+03  0.14935653414E+02 0.  0.
         22    1    3    3    0    0  0.16404505222E+02  0.39957633804E+02  0.21539894854E+03  0.21968711232E+03  0.00000000000E+00 0.  1.
         22    1    4    4    0    0 -0.11353299337E+02 -0.24596141435E+02  0.24058810915E+03  0.24210845885E+03  0.00000000000E+00 0. -1.
         22    1    4    4    0    0 -0.50512058845E+01 -0.15361492368E+02  0.71317421144E+02  0.73127728580E+02  0.00000000000E+00 0. -1.
<mgrwt>
<rscale>  0 0.89960676E+02</rscale>
<asrwt>0</asrwt>
<pdfrwt beam="1">  1        2 0.81709849E-01 0.89960676E+02</pdfrwt>
<pdfrwt beam="2">  1       -2 0.58606301E-03 0.89960676E+02</pdfrwt>
<totfact> 0.22762075E+05</totfact>
</mgrwt>
</event>
<event>
 7    1  0.3891761E-009  0.9079392E+02  0.7818608E-02  0.1300940E+00
          2   -1    0    0  501    0  0.00000000000E+00  0.00000000000E+00  0.21063969230E+03  0.21063969231E+03  0.25500000000E-02 0. -1.
         -2   -1    0    0    0  501 -0.00000000000E+00 -0.00000000000E+00 -0.97839300646E+01  0.97839303969E+01  0.25500000000E-02 0.  1.
         23    2    1    2    0    0  0.00000000000E+00  0.00000000000E+00  0.20085576223E+03  0.22042362271E+03  0.90793921748E+02 0.  0.
    9000005    2    3    3    0    0 -0.34214070353E+02 -0.33221397584E+01  0.31698442241E+02  0.47808912649E+02  0.99630148751E+01 0.  0.
         22    1    3    3    0    0  0.34214070353E+02  0.33221397584E+01  0.16915731999E+03  0.17261471006E+03  0.00000000000E+00 0. -1.
         22    1    4    4    0    0 -0.10091800524E+02  0.35121281830E+01  0.10416397806E+02  0.14922493942E+02  0.00000000000E+00 0.  1.
         22    1    4    4    0    0 -0.24122269829E+02 -0.68342679414E+01  0.21282044435E+02  0.32886418707E+02  0.00000000000E+00 0.  1.
<mgrwt>
<rscale>  0 0.90793922E+02</rscale>
<asrwt>0</asrwt>
<pdfrwt beam="1">  1        2 0.32406106E-01 0.90793922E+02</pdfrwt>
<pdfrwt beam="2">  1       -2 0.15052201E-02 0.90793922E+02</pdfrwt>
<totfact> 0.15941023E+05</totfact>
</mgrwt>
</event>
<event>
 7    1  0.3891761E-009  0.9169653E+02  0.7818608E-02  0.1298795E+00
          2   -1    0    0  501    0  0.00000000000E+00  0.00000000000E+00  0.13005738237E+03  0.13005738240E+03  0.25500000000E-02 0.  1.
         -2   -1    0    0    0  501 -0.00000000000E+00 -0.00000000000E+00 -0.16162585311E+02  0.16162585512E+02  0.25500000000E-02 0. -1.
         23    2    1    2    0    0 -0.44408920985E-15  0.00000000000E+00  0.11389479706E+03  0.14621996791E+03  0.91696533293E+02 0.  0.
    9000005    2    3    3    0    0  0.38760065677E+01 -0.42950384589E+02  0.81729912528E+02  0.92420908808E+02  0.14445829194E+01 0.  0.
         22    1    3    3    0    0 -0.38760065677E+01  0.42950384589E+02  0.32164884535E+02  0.53799059103E+02  0.00000000000E+00 0. -1.
         22    1    4    4    0    0  0.31681614827E+01 -0.30790210185E+02  0.57518913001E+02  0.65318447955E+02  0.00000000000E+00 0. -1.
         22    1    4    4    0    0  0.70784508507E+00 -0.12160174404E+02  0.24210999527E+02  0.27102460853E+02  0.00000000000E+00 0. -1.
<mgrwt>
<rscale>  0 0.91696533E+02</rscale>
<asrwt>0</asrwt>
<pdfrwt beam="1">  1        2 0.20008828E-01 0.91696533E+02</pdfrwt>
<pdfrwt beam="2">  1       -2 0.24865517E-02 0.91696533E+02</pdfrwt>
<totfact> 0.13124758E+05</totfact>
</mgrwt>
</event>
<event>
 7    1  0.3891761E-009  0.9782827E+02  0.7818608E-02  0.1284930E+00
          2   -1    0    0  501    0  0.00000000000E+00  0.00000000000E+00  0.12653165083E+03  0.12653165085E+03  0.25500000000E-02 0. -1.
         -2   -1    0    0    0  501 -0.00000000000E+00 -0.00000000000E+00 -0.18909043386E+02  0.18909043558E+02  0.25500000000E-02 0.  1.
         23    2    1    2    0    0 -0.17763568394E-14  0.00000000000E+00  0.10762260744E+03  0.14544069441E+03  0.97828267685E+02 0.  0.
    9000005    2    3    3    0    0  0.11465461902E+02  0.24641899337E+02  0.11413559250E+03  0.11749254610E+03  0.62357754761E+01 0.  0.
         22    1    3    3    0    0 -0.11465461902E+02 -0.24641899337E+02 -0.65129850540E+01  0.27948148309E+02  0.00000000000E+00 0.  1.
         22    1    4    4    0    0  0.10809783522E+02  0.24432620392E+02  0.10553003026E+03  0.10885950416E+03  0.00000000000E+00 0. -1.
         22    1    4    4    0    0  0.65567838046E+00  0.20927894527E+00  0.86055622353E+01  0.86330419436E+01  0.00000000000E+00 0. -1.
<mgrwt>
<rscale>  0 0.97828268E+02</rscale>
<asrwt>0</asrwt>
<pdfrwt beam="1">  1        2 0.19466408E-01 0.97828268E+02</pdfrwt>
<pdfrwt beam="2">  1       -2 0.29090835E-02 0.97828268E+02</pdfrwt>
<totfact> 0.10889619E+05</totfact>
</mgrwt>
</event>
<event>
 7    1  0.3891761E-009  0.9134114E+02  0.7818608E-02  0.1299636E+00
          2   -1    0    0  501    0  0.00000000000E+00  0.00000000000E+00  0.11226926296E+03  0.11226926299E+03  0.25500000000E-02 0. -1.
         -2   -1    0    0    0  501 -0.00000000000E+00 -0.00000000000E+00 -0.18578555437E+02  0.18578555612E+02  0.25500000000E-02 0.  1.
         23    2    1    2    0    0  0.00000000000E+00  0.00000000000E+00  0.93690707521E+02  0.13084781860E+03  0.91341135073E+02 0.  0.
    9000005    2    3    3    0    0  0.29114268759E+02  0.18482995105E+02  0.82915440004E+01  0.38748530418E+02  0.15602472696E+02 0.  0.
         22    1    3    3    0    0 -0.29114268759E+02 -0.18482995105E+02  0.85399163520E+02  0.92099288181E+02  0.00000000000E+00 0. -1.
         22    1    4    4    0    0  0.79581155593E+01  0.12637244036E+02  0.76748973693E+01  0.16790937726E+02  0.00000000000E+00 0.  1.
         22    1    4    4    0    0  0.21156153200E+02  0.58457510693E+01  0.61664663105E+00  0.21957592693E+02  0.00000000000E+00 0.  1.
<mgrwt>
<rscale>  0 0.91341135E+02</rscale>
<asrwt>0</asrwt>
<pdfrwt beam="1">  1        2 0.17272194E-01 0.91341135E+02</pdfrwt>
<pdfrwt beam="2">  1       -2 0.28582393E-02 0.91341135E+02</pdfrwt>
<totfact> 0.12652277E+05</totfact>
</mgrwt>
</event>
<event>
 7    1  0.3891761E-009  0.9115128E+02  0.7818608E-02  0.1300087E+00
         -2   -1    0    0    0  501 -0.00000000000E+00  0.00000000000E+00  0.36597758285E+01  0.36597767169E+01  0.25500000000E-02 0. -1.
          2   -1    0    0  501    0  0.00000000000E+00 -0.00000000000E+00 -0.56755905155E+03  0.56755905156E+03  0.25500000000E-02 0.  1.
         23    2    1    2    0    0  0.00000000000E+00  0.00000000000E+00 -0.56389927573E+03  0.57121882828E+03  0.91151284214E+02 0.  0.
    9000005    2    3    3    0    0 -0.40589982826E+02 -0.19981043744E+02 -0.31359268119E+03  0.31685652745E+03  0.33015867975E+01 0.  0.
         22    1    3    3    0    0  0.40589982826E+02  0.19981043744E+02 -0.25030659454E+03  0.25436230083E+03  0.00000000000E+00 0. -1.
         22    1    4    4    0    0 -0.24971297350E+02 -0.10540122140E+02 -0.18470172106E+03  0.18667990151E+03  0.00000000000E+00 0.  1.
         22    1    4    4    0    0 -0.15618685476E+02 -0.94409216041E+01 -0.12889096013E+03  0.13017662593E+03  0.00000000000E+00 0.  1.
<mgrwt>
<rscale>  0 0.91151284E+02</rscale>
<asrwt>0</asrwt>
<pdfrwt beam="2">  1        2 0.87316707E-01 0.91151284E+02</pdfrwt>
<pdfrwt beam="1">  1       -2 0.56304296E-03 0.91151284E+02</pdfrwt>
<totfact> 0.22436039E+05</totfact>
</mgrwt>
</event>
<event>
 7    1  0.3891761E-009  0.9286307E+02  0.7818608E-02  0.1296063E+00
         -2   -1    0    0    0  501 -0.00000000000E+00  0.00000000000E+00  0.25188323531E+02  0.25188323660E+02  0.25500000000E-02 0.  1.
          2   -1    0    0  501    0  0.00000000000E+00 -0.00000000000E+00 -0.85590751518E+02  0.85590751556E+02  0.25500000000E-02 0. -1.
         23    2    1    2    0    0  0.00000000000E+00  0.00000000000E+00 -0.60402427988E+02  0.11077907522E+03  0.92863072310E+02 0.  0.
    9000005    2    3    3    0    0 -0.44956997140E+02 -0.81793323280E+01 -0.24388136731E+02  0.52597787469E+02  0.91494789033E+01 0.  0.
         22    1    3    3    0    0  0.44956997140E+02  0.81793323280E+01 -0.36014291257E+02  0.58181287747E+02  0.00000000000E+00 0. -1.
         22    1    4    4    0    0 -0.22397715525E+02 -0.63634553622E+01 -0.78680388588E+01  0.24577576373E+02  0.00000000000E+00 0.  1.
         22    1    4    4    0    0 -0.22559281616E+02 -0.18158769659E+01 -0.16520097872E+02  0.28020211096E+02  0.00000000000E+00 0.  1.
<mgrwt>
<rscale>  0 0.92863072E+02</rscale>
<asrwt>0</asrwt>
<pdfrwt beam="2">  1        2 0.13167808E-01 0.92863072E+02</pdfrwt>
<pdfrwt beam="1">  1       -2 0.38751267E-02 0.92863072E+02</pdfrwt>
<totfact> 0.11130629E+05</totfact>
</mgrwt>
</event>
<event>
 7    1  0.3891761E-009  0.9173997E+02  0.7818608E-02  0.1298692E+00
         -2   -1    0    0    0  501 -0.00000000000E+00  0.00000000000E+00  0.54839725072E+01  0.54839731000E+01  0.25500000000E-02 0.  1.
          2   -1    0    0  501    0  0.00000000000E+00 -0.00000000000E+00 -0.38367358369E+03  0.38367358370E+03  0.25500000000E-02 0. -1.
         23    2    1    2    0    0 -0.35527136788E-14  0.35527136788E-14 -0.37818961119E+03  0.38915755680E+03  0.91739969516E+02 0.  0.
    9000005    2    3    3    0    0  0.28225068771E+02 -0.29637738714E+02 -0.27248046346E+03  0.27580203653E+03  0.12087610320E+02 0.  0.
         22    1    3    3    0    0 -0.28225068771E+02  0.29637738714E+02 -0.10570914773E+03  0.11335552028E+03  0.00000000000E+00 0.  1.
         22    1    4    4    0    0  0.12218515478E+02 -0.13156494900E+02 -0.82108525337E+02  0.84048768055E+02  0.00000000000E+00 0. -1.
         22    1    4    4    0    0  0.16006553293E+02 -0.16481243814E+02 -0.19037193812E+03  0.19175326847E+03  0.00000000000E+00 0. -1.
<mgrwt>
<rscale>  0 0.91739970E+02</rscale>
<asrwt>0</asrwt>
<pdfrwt beam="2">  1        2 0.59026684E-01 0.91739970E+02</pdfrwt>
<pdfrwt beam="1">  1       -2 0.84368843E-03 0.91739970E+02</pdfrwt>
<totfact> 0.19346290E+05</totfact>
</mgrwt>
</event>
<event>
 7    1  0.3891761E-009  0.9100847E+02  0.7818608E-02  0.1300428E+00
          2   -1    0    0  501    0  0.00000000000E+00  0.00000000000E+00  0.14602193524E+04  0.14602193524E+04  0.25500000000E-02 0. -1.
         -2   -1    0    0    0  501 -0.00000000000E+00 -0.00000000000E+00 -0.14180293091E+01  0.14180316019E+01  0.25500000000E-02 0.  1.
         23    2    1    2    0    0  0.00000000000E+00  0.00000000000E+00  0.14588013230E+04  0.14616373840E+04  0.91008472498E+02 0.  0.
    9000005    2    3    3    0    0  0.74700601538E+01  0.11731780223E+02  0.14246694561E+04  0.14247806233E+04  0.11105353911E+02 0.  0.
         22    1    3    3    0    0 -0.74700601538E+01 -0.11731780223E+02  0.34131866929E+02  0.36856760654E+02  0.00000000000E+00 0.  1.
         22    1    4    4    0    0  0.12941989631E+01 -0.14594936287E+01  0.56545978910E+02  0.56579614734E+02  0.00000000000E+00 0.  1.
         22    1    4    4    0    0  0.61758611907E+01  0.13191273851E+02  0.13681234772E+04  0.13682010086E+04  0.00000000000E+00 0.  1.
<mgrwt>
<rscale>  0 0.91008472E+02</rscale>
<asrwt>0</asrwt>
<pdfrwt beam="1">  1        2 0.22464837E+00 0.91008472E+02</pdfrwt>
<pdfrwt beam="2">  1       -2 0.21815927E-03 0.91008472E+02</pdfrwt>
<totfact> 0.23941596E+05</totfact>
</mgrwt>
</event>
<event>
 7    1  0.3891761E-009  0.8816669E+02  0.7818608E-02  0.1307353E+00
         -2   -1    0    0    0  501 -0.00000000000E+00  0.00000000000E+00  0.56233795121E+02  0.56233795179E+02  0.25500000000E-02 0.  1.
          2   -1    0    0  501    0  0.00000000000E+00 -0.00000000000E+00 -0.34558244901E+02  0.34558244995E+02  0.25500000000E-02 0. -1.
         23    2    1    2    0    0  0.00000000000E+00 -0.17763568394E-14  0.21675550220E+02  0.90792040174E+02  0.88166689184E+02 0.  0.
    9000005    2    3    3    0    0 -0.72221237177E+01  0.13142182096E+02 -0.30399684569E+02  0.36600656176E+02  0.13805476792E+02 0.  0.
         22    1    3    3    0    0  0.72221237177E+01 -0.13142182096E+02  0.52075234789E+02  0.54191383998E+02  0.00000000000E+00 0.  1.
         22    1    4    4    0    0 -0.55801979994E+01  0.86971262225E+00 -0.18815328231E+02  0.19644632504E+02  0.00000000000E+00 0.  1.
         22    1    4    4    0    0 -0.16419257184E+01  0.12272469473E+02 -0.11584356338E+02  0.16956023673E+02  0.00000000000E+00 0.  1.
<mgrwt>
<rscale>  0 0.88166689E+02</rscale>
<asrwt>0</asrwt>
<pdfrwt beam="2">  1        2 0.53166531E-02 0.88166689E+02</pdfrwt>
<pdfrwt beam="1">  1       -2 0.86513530E-02 0.88166689E+02</pdfrwt>
<totfact> 0.10128074E+05</totfact>
</mgrwt>
</event>
<event>
 7    1  0.3891761E-009  0.9203485E+02  0.7818608E-02  0.1297998E+00
         -2   -1    0    0    0  501 -0.00000000000E+00  0.00000000000E+00  0.25769806233E+01  0.25769818849E+01  0.25500000000E-02 0.  1.
          2   -1    0    0  501    0  0.00000000000E+00 -0.00000000000E+00 -0.82173800690E+03  0.82173800690E+03  0.25500000000E-02 0. -1.
         23    2    1    2    0    0  0.55511151231E-16  0.00000000000E+00 -0.81916102628E+03  0.82431498879E+03  0.92034850852E+02 0.  0.
    9000005    2    3    3    0    0 -0.26069038863E+00 -0.10589023909E+02 -0.81061834346E+03  0.81070716690E+03  0.56405959521E+01 0.  0.
         22    1    3    3    0    0  0.26069038863E+00  0.10589023909E+02 -0.85426828139E+01  0.13607821886E+02  0.00000000000E+00 0.  1.
         22    1    4    4    0    0  0.52782315204E+00 -0.87681080338E+01 -0.46396107062E+03  0.46404421489E+03  0.00000000000E+00 0.  1.
         22    1    4    4    0    0 -0.78851354068E+00 -0.18209158750E+01 -0.34665727284E+03  0.34666295202E+03  0.00000000000E+00 0.  1.
<mgrwt>
<rscale>  0 0.92034851E+02</rscale>
<asrwt>0</asrwt>
<pdfrwt beam="2">  1        2 0.12642102E+00 0.92034851E+02</pdfrwt>
<pdfrwt beam="1">  1       -2 0.39645931E-03 0.92034851E+02</pdfrwt>
<totfact> 0.23887431E+05</totfact>
</mgrwt>
</event>
<event>
 7    1  0.3891761E-009  0.9517665E+02  0.7818608E-02  0.1290779E+00
         -2   -1    0    0    0  501 -0.00000000000E+00  0.00000000000E+00  0.23814493381E+01  0.23814507034E+01  0.25500000000E-02 0. -1.
          2   -1    0    0  501    0  0.00000000000E+00 -0.00000000000E+00 -0.95095360365E+03  0.95095360365E+03  0.25500000000E-02 0.  1.
         23    2    1    2    0    0  0.00000000000E+00 -0.22204460493E-15 -0.94857215431E+03  0.95333505436E+03  0.95176645925E+02 0.  0.
    9000005    2    3    3    0    0  0.11618208638E+02 -0.17338570570E+01 -0.93607488088E+03  0.93618364405E+03  0.81020826188E+01 0.  0.
         22    1    3    3    0    0 -0.11618208638E+02  0.17338570570E+01 -0.12497273433E+02  0.17151410306E+02  0.00000000000E+00 0. -1.
         22    1    4    4    0    0  0.75919196604E+01  0.18980061813E+01 -0.36973499049E+03  0.36981779685E+03  0.00000000000E+00 0.  1.
         22    1    4    4    0    0  0.40262889771E+01 -0.36318632383E+01 -0.56633989039E+03  0.56636584720E+03  0.00000000000E+00 0.  1.
<mgrwt>
<rscale>  0 0.95176646E+02</rscale>
<asrwt>0</asrwt>
<pdfrwt beam="2">  1        2 0.14630025E+00 0.95176646E+02</pdfrwt>
<pdfrwt beam="1">  1       -2 0.36637769E-03 0.95176646E+02</pdfrwt>
<totfact> 0.22254807E+05</totfact>
</mgrwt>
</event>
<event>
 7    1  0.3891761E-009  0.9165590E+02  0.7818608E-02  0.1298891E+00
          2   -1    0    0  501    0  0.00000000000E+00  0.00000000000E+00  0.13227332589E+03  0.13227332591E+03  0.25500000000E-02 0. -1.
         -2   -1    0    0    0  501 -0.00000000000E+00 -0.00000000000E+00 -0.15877735124E+02  0.15877735328E+02  0.25500000000E-02 0.  1.
         23    2    1    2    0    0  0.71054273576E-14 -0.88817841970E-15  0.11639559076E+03  0.14815106124E+03  0.91655896686E+02 0.  0.
    9000005    2    3    3    0    0 -0.37420443232E+02  0.69286378326E+01  0.97706969161E+02  0.10575341778E+03  0.13741832288E+02 0.  0.
         22    1    3    3    0    0  0.37420443232E+02 -0.69286378326E+01  0.18688621602E+02  0.42397643464E+02  0.00000000000E+00 0.  1.
         22    1    4    4    0    0 -0.15456411179E+02 -0.34901060763E+01  0.32362720146E+02  0.36033694540E+02  0.00000000000E+00 0. -1.
         22    1    4    4    0    0 -0.21964032054E+02  0.10418743909E+02  0.65344249015E+02  0.69719723236E+02  0.00000000000E+00 0. -1.
<mgrwt>
<rscale>  0 0.91655897E+02</rscale>
<asrwt>0</asrwt>
<pdfrwt beam="1">  1        2 0.20349743E-01 0.91655897E+02</pdfrwt>
<pdfrwt beam="2">  1       -2 0.24427284E-02 0.91655897E+02</pdfrwt>
<totfact> 0.13213978E+05</totfact>
</mgrwt>
</event>
<event>
 6    1  0.1919307E-008  0.4056908E+03  0.7818608E-02  0.1041827E+00
         -2   -1    0    0    0  501 -0.00000000000E+00  0.00000000000E+00  0.73090758954E+02  0.73090758998E+02  0.25500000000E-02 0.  1.
          2   -1    0    0  501    0  0.00000000000E+00 -0.00000000000E+00 -0.56294756514E+03  0.56294756514E+03  0.25500000000E-02 0. -1.
    9000005    2    1    2    0    0 -0.97654691232E+02 -0.11901718335E+02  0.32520350536E+02  0.10447837128E+03  0.13418913833E+02 0.  0.
         22    1    1    2    0    0  0.97654691232E+02  0.11901718335E+02 -0.52237715672E+03  0.53155995286E+03  0.00000000000E+00 0. -1.
         22    1    3    3    0    0 -0.11480553215E+02 -0.41115172536E+01  0.78565356265E+01  0.14506303054E+02  0.00000000000E+00 0.  1.
         22    1    3    3    0    0 -0.86174138016E+02 -0.77902010813E+01  0.24663814909E+02  0.89972068230E+02  0.00000000000E+00 0.  1.
<mgrwt>
<rscale>  0 0.40569084E+03</rscale>
<asrwt>0</asrwt>
<pdfrwt beam="2">  1        2 0.86607315E-01 0.40569084E+03</pdfrwt>
<pdfrwt beam="1">  1       -2 0.11244732E-01 0.40569084E+03</pdfrwt>
<totfact> 0.30035821E+03</totfact>
</mgrwt>
</event>
<event>
 7    1  0.3891761E-009  0.9173942E+02  0.7818608E-02  0.1298693E+00
         -2   -1    0    0    0  501 -0.00000000000E+00  0.00000000000E+00  0.60235291765E+01  0.60235297162E+01  0.25500000000E-02 0.  1.
          2   -1    0    0  501    0  0.00000000000E+00 -0.00000000000E+00 -0.34930188530E+03  0.34930188531E+03  0.25500000000E-02 0. -1.
         23    2    1    2    0    0  0.00000000000E+00  0.00000000000E+00 -0.34327835613E+03  0.35532541503E+03  0.91739417811E+02 0.  0.
    9000005    2    3    3    0    0  0.18083497208E+02 -0.41507442923E+02 -0.17429105177E+03  0.18037802372E+03  0.10439349961E+02 0.  0.
         22    1    3    3    0    0 -0.18083497208E+02  0.41507442923E+02 -0.16898730436E+03  0.17494739130E+03  0.00000000000E+00 0.  1.
         22    1    4    4    0    0  0.88158289282E+01 -0.23188900296E+02 -0.75325511258E+02  0.79305589860E+02  0.00000000000E+00 0.  1.
         22    1    4    4    0    0  0.92676682794E+01 -0.18318542626E+02 -0.98965540507E+02  0.10107243386E+03  0.00000000000E+00 0.  1.
<mgrwt>
<rscale>  0 0.91739418E+02</rscale>
<asrwt>0</asrwt>
<pdfrwt beam="2">  1        2 0.53738736E-01 0.91739418E+02</pdfrwt>
<pdfrwt beam="1">  1       -2 0.92669711E-03 0.91739418E+02</pdfrwt>
<totfact> 0.18696984E+05</totfact>
</mgrwt>
</event>
<event>
 7    1  0.3891761E-009  0.8995886E+02  0.7818608E-02  0.1302951E+00
          2   -1    0    0  501    0  0.00000000000E+00  0.00000000000E+00  0.99599746944E+02  0.99599746976E+02  0.25500000000E-02 0. -1.
         -2   -1    0    0    0  501 -0.00000000000E+00 -0.00000000000E+00 -0.20312795463E+02  0.20312795623E+02  0.25500000000E-02 0.  1.
         23    2    1    2    0    0  0.00000000000E+00  0.00000000000E+00  0.79286951481E+02  0.11991254260E+03  0.89958863918E+02 0.  0.
    9000005    2    3    3    0    0 -0.22167359052E+01  0.24624652062E+02  0.88930990562E+02  0.93373987683E+02  0.14095853513E+02 0.  0.
         22    1    3    3    0    0  0.22167359052E+01 -0.24624652062E+02 -0.96440390808E+01  0.26538554916E+02  0.00000000000E+00 0.  1.
         22    1    4    4    0    0  0.59649761524E+01  0.12132371244E+02  0.43335773744E+02  0.45395645810E+02  0.00000000000E+00 0. -1.
         22    1    4    4    0    0 -0.81817120577E+01  0.12492280817E+02  0.45595216818E+02  0.47978341873E+02  0.00000000000E+00 0. -1.
<mgrwt>
<rscale>  0 0.89958864E+02</rscale>
<asrwt>0</asrwt>
<pdfrwt beam="1">  1        2 0.15323038E-01 0.89958864E+02</pdfrwt>
<pdfrwt beam="2">  1       -2 0.31250455E-02 0.89958864E+02</pdfrwt>
<totfact> 0.12714063E+05</totfact>
</mgrwt>
</event>
<event>
 7    1  0.3891761E-009  0.8863767E+02  0.7818608E-02  0.1306185E+00
         -2   -1    0    0    0  501 -0.00000000000E+00  0.00000000000E+00  0.85826583322E+02  0.85826583359E+02  0.25500000000E-02 0.  1.
          2   -1    0    0  501    0  0.00000000000E+00 -0.00000000000E+00 -0.22885209242E+02  0.22885209384E+02  0.25500000000E-02 0. -1.
         23    2    1    2    0    0  0.00000000000E+00  0.71054273576E-14  0.62941374079E+02  0.10871179274E+03  0.88637674330E+02 0.  0.
    9000005    2    3    3    0    0 -0.36371190382E+01 -0.38542297842E+02  0.55533596082E+02  0.69295900863E+02  0.14805547093E+02 0.  0.
         22    1    3    3    0    0  0.36371190382E+01  0.38542297842E+02  0.74077779969E+01  0.39415891880E+02  0.00000000000E+00 0.  1.
         22    1    4    4    0    0 -0.56119297326E+01 -0.32201462755E+02  0.35813207971E+02  0.48487254244E+02  0.00000000000E+00 0.  1.
         22    1    4    4    0    0  0.19748106944E+01 -0.63408350871E+01  0.19720388111E+02  0.20808646619E+02  0.00000000000E+00 0.  1.
<mgrwt>
<rscale>  0 0.88637674E+02</rscale>
<asrwt>0</asrwt>
<pdfrwt beam="2">  1        2 0.35208015E-02 0.88637674E+02</pdfrwt>
<pdfrwt beam="1">  1       -2 0.13204090E-01 0.88637674E+02</pdfrwt>
<totfact> 0.89443338E+04</totfact>
</mgrwt>
</event>
<event>
 7    1  0.3891761E-009  0.9585723E+02  0.7818608E-02  0.1289257E+00
         -2   -1    0    0    0  501 -0.00000000000E+00  0.00000000000E+00  0.18389738963E+02  0.18389739140E+02  0.25500000000E-02 0.  1.
          2   -1    0    0  501    0  0.00000000000E+00 -0.00000000000E+00 -0.12491488912E+03  0.12491488915E+03  0.25500000000E-02 0. -1.
         23    2    1    2    0    0 -0.35527136788E-14  0.00000000000E+00 -0.10652515016E+03  0.14330462829E+03  0.95857231718E+02 0.  0.
    9000005    2    3    3    0    0  0.31021158424E+02  0.29217204185E+02 -0.83489513496E+02  0.94862932955E+02  0.14578062099E+02 0.  0.
         22    1    3    3    0    0 -0.31021158424E+02 -0.29217204185E+02 -0.23035636663E+02  0.48441695334E+02  0.00000000000E+00 0.  1.
         22    1    4    4    0    0  0.48674638677E+01  0.63488496364E+01 -0.30255941056E+02  0.31295719601E+02  0.00000000000E+00 0. -1.
         22    1    4    4    0    0  0.26153694556E+02  0.22868354549E+02 -0.53233572440E+02  0.63567213353E+02  0.00000000000E+00 0. -1.
<mgrwt>
<rscale>  0 0.95857232E+02</rscale>
<asrwt>0</asrwt>
<pdfrwt beam="2">  1        2 0.19217675E-01 0.95857232E+02</pdfrwt>
<pdfrwt beam="1">  1       -2 0.28291907E-02 0.95857232E+02</pdfrwt>
<totfact> 0.11468504E+05</totfact>
</mgrwt>
</event>
<event>
 7    1  0.3891761E-009  0.9137193E+02  0.7818608E-02  0.1299563E+00
          2   -1    0    0  501    0  0.00000000000E+00  0.00000000000E+00  0.47424008329E+02  0.47424008397E+02  0.25500000000E-02 0. -1.
         -2   -1    0    0    0  501 -0.00000000000E+00 -0.00000000000E+00 -0.44011619754E+02  0.44011619828E+02  0.25500000000E-02 0.  1.
         23    2    1    2    0    0  0.71054273576E-14  0.00000000000E+00  0.34123885746E+01  0.91435628225E+02  0.91371930664E+02 0.  0.
    9000005    2    3    3    0    0 -0.36277614771E+02 -0.23961741343E+02 -0.86667952842E+01  0.46312052742E+02  0.13396361708E+02 0.  0.
         22    1    3    3    0    0  0.36277614771E+02  0.23961741343E+02  0.12079183859E+02  0.45123575483E+02  0.00000000000E+00 0. -1.
         22    1    4    4    0    0 -0.58125632806E+01 -0.49384414889E+01  0.34982357072E+01  0.83911709131E+01  0.00000000000E+00 0.  1.
         22    1    4    4    0    0 -0.30465051491E+02 -0.19023299854E+02 -0.12165030991E+02  0.37920881829E+02  0.00000000000E+00 0.  1.
<mgrwt>
<rscale>  0 0.91371931E+02</rscale>
<asrwt>0</asrwt>
<pdfrwt beam="1">  1        2 0.72960013E-02 0.91371931E+02</pdfrwt>
<pdfrwt beam="2">  1       -2 0.67710184E-02 0.91371931E+02</pdfrwt>
<totfact> 0.99083404E+04</totfact>
</mgrwt>
</event>
<event>
 7    1  0.3891761E-009  0.9103996E+02  0.7818608E-02  0.1300353E+00
          2   -1    0    0  501    0  0.00000000000E+00  0.00000000000E+00  0.55171911470E+01  0.55171917363E+01  0.25500000000E-02 0. -1.
         -2   -1    0    0    0  501 -0.00000000000E+00 -0.00000000000E+00 -0.37556582926E+03  0.37556582927E+03  0.25500000000E-02 0.  1.
         23    2    1    2    0    0  0.00000000000E+00  0.00000000000E+00 -0.37004863811E+03  0.38108302100E+03  0.91039960066E+02 0.  0.
    9000005    2    3    3    0    0 -0.29829885920E+02  0.12074733920E+02 -0.31909516598E+03  0.32081795969E+03  0.81741673944E+01 0.  0.
         22    1    3    3    0    0  0.29829885920E+02 -0.12074733920E+02 -0.50953472131E+02  0.60265061316E+02  0.00000000000E+00 0. -1.
         22    1    4    4    0    0 -0.69926945374E+01  0.37142342464E+01 -0.11641835684E+03  0.11668730489E+03  0.00000000000E+00 0. -1.
         22    1    4    4    0    0 -0.22837191382E+02  0.83604996735E+01 -0.20267680914E+03  0.20413065480E+03  0.00000000000E+00 0. -1.
<mgrwt>
<rscale>  0 0.91039960E+02</rscale>
<asrwt>0</asrwt>
<pdfrwt beam="1">  1        2 0.84879898E-03 0.91039960E+02</pdfrwt>
<pdfrwt beam="2">  1       -2 0.57779338E-01 0.91039960E+02</pdfrwt>
<totfact> 0.44687536E+04</totfact>
</mgrwt>
</event>
<event>
 7    1  0.3891761E-009  0.9178284E+02  0.7818608E-02  0.1298591E+00
          2   -1    0    0  501    0  0.00000000000E+00  0.00000000000E+00  0.11497851531E+02  0.11497851814E+02  0.25500000000E-02 0. -1.
         -2   -1    0    0    0  501 -0.00000000000E+00 -0.00000000000E+00 -0.18316660397E+03  0.18316660399E+03  0.25500000000E-02 0.  1.
         23    2    1    2    0    0 -0.17763568394E-14  0.71054273576E-14 -0.17166875244E+03  0.19466445580E+03  0.91782840383E+02 0.  0.
    9000005    2    3    3    0    0  0.88322268039E+01 -0.32421802301E+02 -0.15198701083E+03  0.15572151745E+03  0.44674423714E+01 0.  0.
         22    1    3    3    0    0 -0.88322268039E+01  0.32421802301E+02 -0.19681741612E+02  0.38942938354E+02  0.00000000000E+00 0. -1.
         22    1    4    4    0    0  0.42468175458E+01 -0.14363955956E+02 -0.77969150675E+02  0.79394881113E+02  0.00000000000E+00 0. -1.
         22    1    4    4    0    0  0.45854092580E+01 -0.18057846346E+02 -0.74017860151E+02  0.76326636334E+02  0.00000000000E+00 0. -1.
<mgrwt>
<rscale>  0 0.91782840E+02</rscale>
<asrwt>0</asrwt>
<pdfrwt beam="1">  1        2 0.17689004E-02 0.91782840E+02</pdfrwt>
<pdfrwt beam="2">  1       -2 0.28179476E-01 0.91782840E+02</pdfrwt>
<totfact> 0.63588471E+04</totfact>
</mgrwt>
</event>
<event>
 7    1  0.3891761E-009  0.8953121E+02  0.7818608E-02  0.1303991E+00
         -2   -1    0    0    0  501 -0.00000000000E+00  0.00000000000E+00  0.14862734589E+03  0.14862734591E+03  0.25500000000E-02 0.  1.
          2   -1    0    0  501    0  0.00000000000E+00 -0.00000000000E+00 -0.13483113653E+02  0.13483113894E+02  0.25500000000E-02 0. -1.
         23    2    1    2    0    0  0.00000000000E+00  0.71054273576E-14  0.13514423224E+03  0.16211045981E+03  0.89531210601E+02 0.  0.
    9000005    2    3    3    0    0 -0.17540159905E+02 -0.35813517333E+02  0.10142601785E+03  0.10988802004E+03  0.14066791371E+02 0.  0.
         22    1    3    3    0    0  0.17540159905E+02  0.35813517333E+02  0.33718214394E+02  0.52222439766E+02  0.00000000000E+00 0.  1.
         22    1    4    4    0    0 -0.95458521856E+01 -0.26042368536E+02  0.52705292191E+02  0.59558173896E+02  0.00000000000E+00 0. -1.
         22    1    4    4    0    0 -0.79943077195E+01 -0.97711487965E+01  0.48720725655E+02  0.50329846146E+02  0.00000000000E+00 0. -1.
<mgrwt>
<rscale>  0 0.89531211E+02</rscale>
<asrwt>0</asrwt>
<pdfrwt beam="2">  1        2 0.20743252E-02 0.89531211E+02</pdfrwt>
<pdfrwt beam="1">  1       -2 0.22865746E-01 0.89531211E+02</pdfrwt>
<totfact> 0.73393593E+04</totfact>
</mgrwt>
</event>
<event>
 7    1  0.3891761E-009  0.8039349E+02  0.7818608E-02  0.1327938E+00
          2   -1    0    0  501    0  0.00000000000E+00  0.00000000000E+00  0.55582841979E+01  0.55582847828E+01  0.25500000000E-02 0.  1.
         -2   -1    0    0    0  501 -0.00000000000E+00 -0.00000000000E+00 -0.29069733130E+03  0.29069733131E+03  0.25500000000E-02 0. -1.
         23    2    1    2    0    0 -0.88817841970E-15  0.00000000000E+00 -0.28513904711E+03  0.29625561610E+03  0.80393494047E+02 0.  0.
    9000005    2    3    3    0    0 -0.48270419839E+01 -0.24276009168E+02 -0.25900078476E+03  0.26025792570E+03  0.63369100313E+01 0.  0.
         22    1    3    3    0    0  0.48270419839E+01  0.24276009168E+02 -0.26138262348E+02  0.35997690398E+02  0.00000000000E+00 0.  1.
         22    1    4    4    0    0  0.68398951647E+00 -0.11166414743E+02 -0.12778378614E+03  0.12827257174E+03  0.00000000000E+00 0.  1.
         22    1    4    4    0    0 -0.55110315004E+01 -0.13109594425E+02 -0.13121699862E+03  0.13198535396E+03  0.00000000000E+00 0.  1.
<mgrwt>
<rscale>  0 0.80393494E+02</rscale>
<asrwt>0</asrwt>
<pdfrwt beam="1">  1        2 0.85512092E-03 0.80393494E+02</pdfrwt>
<pdfrwt beam="2">  1       -2 0.44722655E-01 0.80393494E+02</pdfrwt>
<totfact> 0.71678200E+04</totfact>
</mgrwt>
</event>
<event>
 7    1  0.3891761E-009  0.8926262E+02  0.7818608E-02  0.1304647E+00
          2   -1    0    0  501    0  0.00000000000E+00  0.00000000000E+00  0.30990559119E+03  0.30990559120E+03  0.25500000000E-02 0. -1.
         -2   -1    0    0    0  501 -0.00000000000E+00 -0.00000000000E+00 -0.64276147483E+01  0.64276152542E+01  0.25500000000E-02 0.  1.
         23    2    1    2    0    0  0.00000000000E+00 -0.88817841970E-15  0.30347797644E+03  0.31633320645E+03  0.89262619952E+02 0.  0.
    9000005    2    3    3    0    0  0.23557695306E+02  0.59350183992E+01  0.28342306924E+03  0.28483100408E+03  0.14487072071E+02 0.  0.
         22    1    3    3    0    0 -0.23557695306E+02 -0.59350183992E+01  0.20054907203E+02  0.31502202374E+02  0.00000000000E+00 0.  1.
         22    1    4    4    0    0  0.31358553834E+01 -0.40970972707E+01  0.36678013693E+02  0.37039120987E+02  0.00000000000E+00 0.  1.
         22    1    4    4    0    0  0.20421839922E+02  0.10032115670E+02  0.24674505555E+03  0.24779188309E+03  0.00000000000E+00 0.  1.
<mgrwt>
<rscale>  0 0.89262620E+02</rscale>
<asrwt>0</asrwt>
<pdfrwt beam="1">  1        2 0.47677793E-01 0.89262620E+02</pdfrwt>
<pdfrwt beam="2">  1       -2 0.98886364E-03 0.89262620E+02</pdfrwt>
<totfact> 0.19241111E+05</totfact>
</mgrwt>
</event>
<event>
 7    1  0.3891761E-009  0.9196124E+02  0.7818608E-02  0.1298171E+00
          2   -1    0    0  501    0  0.00000000000E+00  0.00000000000E+00  0.13911172088E+02  0.13911172322E+02  0.25500000000E-02 0. -1.
         -2   -1    0    0    0  501 -0.00000000000E+00 -0.00000000000E+00 -0.15197981656E+03  0.15197981658E+03  0.25500000000E-02 0.  1.
         23    2    1    2    0    0  0.00000000000E+00  0.00000000000E+00 -0.13806864447E+03  0.16589098890E+03  0.91961239730E+02 0.  0.
    9000005    2    3    3    0    0  0.40958835984E+02  0.35346946357E+01 -0.39108687209E+02  0.58731325536E+02  0.15157799072E+02 0.  0.
         22    1    3    3    0    0 -0.40958835984E+02 -0.35346946357E+01 -0.98959957261E+02  0.10715966336E+03  0.00000000000E+00 0.  1.
         22    1    4    4    0    0  0.20052032956E+02 -0.40308266145E+01 -0.12160512639E+02  0.23795160359E+02  0.00000000000E+00 0.  1.
         22    1    4    4    0    0  0.20906803028E+02  0.75655212502E+01 -0.26948174570E+02  0.34936165177E+02  0.00000000000E+00 0.  1.
<mgrwt>
<rscale>  0 0.91961240E+02</rscale>
<asrwt>0</asrwt>
<pdfrwt beam="1">  1        2 0.21401804E-02 0.91961240E+02</pdfrwt>
<pdfrwt beam="2">  1       -2 0.23381509E-01 0.91961240E+02</pdfrwt>
<totfact> 0.68029028E+04</totfact>
</mgrwt>
</event>
<event>
 7    1  0.3891761E-009  0.9104653E+02  0.7818608E-02  0.1300337E+00
          2   -1    0    0  501    0  0.00000000000E+00  0.00000000000E+00  0.57859787800E+03  0.57859787801E+03  0.25500000000E-02 0. -1.
         -2   -1    0    0    0  501 -0.00000000000E+00 -0.00000000000E+00 -0.35817055416E+01  0.35817064493E+01  0.25500000000E-02 0.  1.
         23    2    1    2    0    0  0.00000000000E+00  0.17763568394E-14  0.57501617246E+03  0.58217958446E+03  0.91046526388E+02 0.  0.
    9000005    2    3    3    0    0 -0.19497673023E+02  0.13844168495E+02  0.53513499866E+03  0.53567874276E+03  0.32293035726E+01 0.  0.
         22    1    3    3    0    0  0.19497673023E+02 -0.13844168495E+02  0.39881173801E+02  0.46500841696E+02  0.00000000000E+00 0.  1.
         22    1    4    4    0    0 -0.96946916331E+01  0.55103200464E+01  0.22293631871E+03  0.22321503730E+03  0.00000000000E+00 0.  1.
         22    1    4    4    0    0 -0.98029813902E+01  0.83338484488E+01  0.31219867994E+03  0.31246370546E+03  0.00000000000E+00 0.  1.
<mgrwt>
<rscale>  0 0.91046526E+02</rscale>
<asrwt>0</asrwt>
<pdfrwt beam="1">  1        2 0.89014996E-01 0.91046526E+02</pdfrwt>
<pdfrwt beam="2">  1       -2 0.55103208E-03 0.91046526E+02</pdfrwt>
<totfact> 0.22632928E+05</totfact>
</mgrwt>
</event>
<event>
 7    1  0.3891761E-009  0.9150831E+02  0.7818608E-02  0.1299240E+00
          2   -1    0    0  501    0  0.00000000000E+00  0.00000000000E+00  0.66472528232E+02  0.66472528281E+02  0.25500000000E-02 0. -1.
         -2   -1    0    0    0  501 -0.00000000000E+00 -0.00000000000E+00 -0.31493348650E+02  0.31493348754E+02  0.25500000000E-02 0.  1.
         23    2    1    2    0    0  0.17763568394E-14  0.00000000000E+00  0.34979179581E+02  0.97965877034E+02  0.91508305956E+02 0.  0.
    9000005    2    3    3    0    0  0.14711226024E+02 -0.70611667525E+01 -0.28130589414E+02  0.32780578157E+02  0.41177659571E+01 0.  0.
         22    1    3    3    0    0 -0.14711226024E+02  0.70611667525E+01  0.63109768996E+02  0.65185298877E+02  0.00000000000E+00 0. -1.
         22    1    4    4    0    0  0.21346104654E+01 -0.14814349020E+01 -0.21132287593E+01  0.33491710910E+01  0.00000000000E+00 0.  1.
         22    1    4    4    0    0  0.12576615558E+02 -0.55797318506E+01 -0.26017360655E+02  0.29431407066E+02  0.00000000000E+00 0.  1.
<mgrwt>
<rscale>  0 0.91508306E+02</rscale>
<asrwt>0</asrwt>
<pdfrwt beam="1">  1        2 0.10226543E-01 0.91508306E+02</pdfrwt>
<pdfrwt beam="2">  1       -2 0.48451306E-02 0.91508306E+02</pdfrwt>
<totfact> 0.10794940E+05</totfact>
</mgrwt>
</event>
<event>
 7    1  0.3891761E-009  0.9284281E+02  0.7818608E-02  0.1296110E+00
          2   -1    0    0  501    0  0.00000000000E+00  0.00000000000E+00  0.17891343978E+04  0.17891343978E+04  0.25500000000E-02 0. -1.
         -2   -1    0    0    0  501 -0.00000000000E+00 -0.00000000000E+00 -0.12044619889E+01  0.12044646882E+01  0.25500000000E-02 0.  1.
         23    2    1    2    0    0  0.00000000000E+00  0.00000000000E+00  0.17879299358E+04  0.17903388625E+04  0.92842808943E+02 0.  0.
    9000005    2    3    3    0    0  0.98382004415E+01  0.23047801418E+02  0.16473974748E+04  0.16475895580E+04  0.22181688463E+01 0.  0.
         22    1    3    3    0    0 -0.98382004415E+01 -0.23047801418E+02  0.14053246100E+03  0.14274930450E+03  0.00000000000E+00 0.  1.
         22    1    4    4    0    0  0.90295302093E+01  0.19085995622E+02  0.13841594036E+04  0.13843204334E+04  0.00000000000E+00 0.  1.
         22    1    4    4    0    0  0.80867023220E+00  0.39618057967E+01  0.26323807116E+03  0.26326912458E+03  0.00000000000E+00 0.  1.
<mgrwt>
<rscale>  0 0.92842809E+02</rscale>
<asrwt>0</asrwt>
<pdfrwt beam="1">  1        2 0.27525011E+00 0.92842809E+02</pdfrwt>
<pdfrwt beam="2">  1       -2 0.18530295E-03 0.92842809E+02</pdfrwt>
<totfact> 0.20517900E+05</totfact>
</mgrwt>
</event>
<event>
 7    1  0.3891761E-009  0.9349315E+02  0.7818608E-02  0.1294606E+00
         -2   -1    0    0    0  501 -0.00000000000E+00  0.00000000000E+00  0.21082271897E+02  0.21082272051E+02  0.25500000000E-02 0.  1.
          2   -1    0    0  501    0  0.00000000000E+00 -0.00000000000E+00 -0.10365307110E+03  0.10365307113E+03  0.25500000000E-02 0. -1.
         23    2    1    2    0    0  0.00000000000E+00 -0.35527136788E-14 -0.82570799202E+02  0.12473534318E+03  0.93493149256E+02 0.  0.
    9000005    2    3    3    0    0 -0.87604290406E+01 -0.31281939162E+02 -0.85931971309E+02  0.92076465174E+02  0.62021698784E+01 0.  0.
         22    1    3    3    0    0  0.87604290406E+01  0.31281939162E+02  0.33611721073E+01  0.32658878007E+02  0.00000000000E+00 0.  1.
         22    1    4    4    0    0 -0.41140251017E+01 -0.13317806775E+02 -0.28586412454E+02  0.31803650055E+02  0.00000000000E+00 0. -1.
         22    1    4    4    0    0 -0.46464039389E+01 -0.17964132387E+02 -0.57345558856E+02  0.60272815120E+02  0.00000000000E+00 0. -1.
<mgrwt>
<rscale>  0 0.93493149E+02</rscale>
<asrwt>0</asrwt>
<pdfrwt beam="2">  1        2 0.15946626E-01 0.93493149E+02</pdfrwt>
<pdfrwt beam="1">  1       -2 0.32434265E-02 0.93493149E+02</pdfrwt>
<totfact> 0.11574325E+05</totfact>
</mgrwt>
</event>
<event>
 7    1  0.3891761E-009  0.8748643E+02  0.7818608E-02  0.1309055E+00
         -2   -1    0    0    0  501 -0.00000000000E+00  0.00000000000E+00  0.69867483110E+01  0.69867487764E+01  0.25500000000E-02 0.  1.
          2   -1    0    0  501    0  0.00000000000E+00 -0.00000000000E+00 -0.27387116879E+03  0.27387116880E+03  0.25500000000E-02 0. -1.
         23    2    1    2    0    0  0.00000000000E+00  0.00000000000E+00 -0.26688442048E+03  0.28085791758E+03  0.87486433074E+02 0.  0.
    9000005    2    3    3    0    0  0.27208685339E+02  0.17460981240E+02 -0.22685964533E+03  0.22940715423E+03  0.10823368582E+02 0.  0.
         22    1    3    3    0    0 -0.27208685339E+02 -0.17460981240E+02 -0.40024775148E+02  0.51450763351E+02  0.00000000000E+00 0.  1.
         22    1    4    4    0    0  0.12682562975E+02  0.28440726201E+01 -0.69618804677E+02  0.70821706540E+02  0.00000000000E+00 0. -1.
         22    1    4    4    0    0  0.14526122363E+02  0.14616908620E+02 -0.15724084066E+03  0.15858544769E+03  0.00000000000E+00 0. -1.
<mgrwt>
<rscale>  0 0.87486433E+02</rscale>
<asrwt>0</asrwt>
<pdfrwt beam="2">  1        2 0.42134018E-01 0.87486433E+02</pdfrwt>
<pdfrwt beam="1">  1       -2 0.10748846E-02 0.87486433E+02</pdfrwt>
<totfact> 0.19387255E+05</totfact>
</mgrwt>
</event>
<event>
 7    1  0.3891761E-009  0.1177198E+03  0.7818608E-02  0.1246907E+00
          2   -1    0    0  501    0  0.00000000000E+00  0.00000000000E+00  0.10066019527E+03  0.10066019530E+03  0.25500000000E-02 0.  1.
         -2   -1    0    0    0  501 -0.00000000000E+00 -0.00000000000E+00 -0.34417677864E+02  0.34417677959E+02  0.25500000000E-02 0. -1.
         23    2    1    2    0    0  0.00000000000E+00  0.00000000000E+00  0.66242517401E+02  0.13507787326E+03  0.11771984001E+03 0.  0.
    9000005    2    3    3    0    0 -0.16655835079E+02  0.51202120281E+01  0.97066563073E+02  0.99669467405E+02  0.14437854849E+02 0.  0.
         22    1    3    3    0    0  0.16655835079E+02 -0.51202120281E+01 -0.30824045672E+02  0.35408405852E+02  0.00000000000E+00 0. -1.
         22    1    4    4    0    0 -0.12099513708E+02  0.94647915585E+01  0.80380376785E+02  0.81835111556E+02  0.00000000000E+00 0. -1.
         22    1    4    4    0    0 -0.45563213708E+01 -0.43445795305E+01  0.16686186288E+02  0.17834355849E+02  0.00000000000E+00 0. -1.
<mgrwt>
<rscale>  0 0.11771984E+03</rscale>
<asrwt>0</asrwt>
<pdfrwt beam="1">  1        2 0.15486184E-01 0.11771984E+03</pdfrwt>
<pdfrwt beam="2">  1       -2 0.52950275E-02 0.11771984E+03</pdfrwt>
<totfact> 0.59965723E+04</totfact>
</mgrwt>
</event>
<event>
 7    1  0.3891761E-009  0.9587053E+02  0.7818608E-02  0.1289227E+00
          2   -1    0    0  501    0  0.00000000000E+00  0.00000000000E+00  0.17010826649E+03  0.17010826650E+03  0.25500000000E-02 0. -1.
         -2   -1    0    0    0  501 -0.00000000000E+00 -0.00000000000E+00 -0.13507808067E+02  0.13507808308E+02  0.25500000000E-02 0.  1.
         23    2    1    2    0    0 -0.35527136788E-14  0.35527136788E-14  0.15660045842E+03  0.18361607481E+03  0.95870534330E+02 0.  0.
    9000005    2    3    3    0    0  0.31989494997E+02 -0.24049937523E+02  0.12741347910E+03  0.13408217686E+03  0.11920914763E+02 0.  0.
         22    1    3    3    0    0 -0.31989494997E+02  0.24049937523E+02  0.29186979316E+02  0.49533897955E+02  0.00000000000E+00 0.  1.
         22    1    4    4    0    0  0.64679039548E+01 -0.10019250237E+02  0.26700631885E+02  0.29242826470E+02  0.00000000000E+00 0.  1.
         22    1    4    4    0    0  0.25521591042E+02 -0.14030687286E+02  0.10071284722E+03  0.10483935039E+03  0.00000000000E+00 0.  1.
<mgrwt>
<rscale>  0 0.95870534E+02</rscale>
<asrwt>0</asrwt>
<pdfrwt beam="1">  1        2 0.26170501E-01 0.95870534E+02</pdfrwt>
<pdfrwt beam="2">  1       -2 0.20781245E-02 0.95870534E+02</pdfrwt>
<totfact> 0.12741147E+05</totfact>
</mgrwt>
</event>
<event>
 7    1  0.3891761E-009  0.9155395E+02  0.7818608E-02  0.1299132E+00
         -2   -1    0    0    0  501 -0.00000000000E+00  0.00000000000E+00  0.10200269344E+02  0.10200269663E+02  0.25500000000E-02 0.  1.
          2   -1    0    0  501    0  0.00000000000E+00 -0.00000000000E+00 -0.20543881734E+03  0.20543881736E+03  0.25500000000E-02 0. -1.
         23    2    1    2    0    0  0.00000000000E+00  0.00000000000E+00 -0.19523854800E+03  0.21563908702E+03  0.91553947085E+02 0.  0.
    9000005    2    3    3    0    0 -0.36335576807E+01 -0.35125915917E+02 -0.29997204358E+02  0.46666502385E+02  0.55585488364E+01 0.  0.
         22    1    3    3    0    0  0.36335576807E+01  0.35125915917E+02 -0.16524134364E+03  0.16897258464E+03  0.00000000000E+00 0. -1.
         22    1    4    4    0    0  0.51984556707E+00 -0.18023408250E+02 -0.13287789068E+02  0.22398187933E+02  0.00000000000E+00 0. -1.
         22    1    4    4    0    0 -0.41534032477E+01 -0.17102507667E+02 -0.16709415290E+02  0.24268314452E+02  0.00000000000E+00 0. -1.
<mgrwt>
<rscale>  0 0.91553947E+02</rscale>
<asrwt>0</asrwt>
<pdfrwt beam="2">  1        2 0.31605969E-01 0.91553947E+02</pdfrwt>
<pdfrwt beam="1">  1       -2 0.15692724E-02 0.91553947E+02</pdfrwt>
<totfact> 0.15446400E+05</totfact>
</mgrwt>
</event>
<event>
 7    1  0.3891761E-009  0.7409205E+02  0.7818608E-02  0.1346706E+00
         -2   -1    0    0    0  501 -0.00000000000E+00  0.00000000000E+00  0.20061327932E+01  0.20061344139E+01  0.25500000000E-02 0.  1.
          2   -1    0    0  501    0  0.00000000000E+00 -0.00000000000E+00 -0.68410601578E+03  0.68410601579E+03  0.25500000000E-02 0. -1.
         23    2    1    2    0    0  0.35527136788E-14  0.00000000000E+00 -0.68209988299E+03  0.68611215020E+03  0.74092052743E+02 0.  0.
    9000005    2    3    3    0    0 -0.30537711292E+02 -0.12333335391E+02 -0.49109583066E+03  0.49228952258E+03  0.94443726552E+01 0.  0.
         22    1    3    3    0    0  0.30537711292E+02  0.12333335391E+02 -0.19100405232E+03  0.19382262762E+03  0.00000000000E+00 0.  1.
         22    1    4    4    0    0 -0.20488100356E+02 -0.12606831870E+02 -0.32430426420E+03  0.32519524941E+03  0.00000000000E+00 0. -1.
         22    1    4    4    0    0 -0.10049610936E+02  0.27349647895E+00 -0.16679156647E+03  0.16709427317E+03  0.00000000000E+00 0. -1.
<mgrwt>
<rscale>  0 0.74092053E+02</rscale>
<asrwt>0</asrwt>
<pdfrwt beam="2">  1        2 0.10524689E+00 0.74092053E+02</pdfrwt>
<pdfrwt beam="1">  1       -2 0.30863648E-03 0.74092053E+02</pdfrwt>
<totfact> 0.40536351E+05</totfact>
</mgrwt>
</event>
<event>
 7    1  0.3891761E-009  0.9160479E+02  0.7818608E-02  0.1299011E+00
         -2   -1    0    0    0  501 -0.00000000000E+00  0.00000000000E+00  0.21749878109E+02  0.21749878258E+02  0.25500000000E-02 0.  1.
          2   -1    0    0  501    0  0.00000000000E+00 -0.00000000000E+00 -0.96453835677E+02  0.96453835711E+02  0.25500000000E-02 0. -1.
         23    2    1    2    0    0  0.00000000000E+00 -0.44408920985E-15 -0.74703957568E+02  0.11820371397E+03  0.91604785463E+02 0.  0.
    9000005    2    3    3    0    0  0.15183810151E+02  0.24744786460E+01 -0.92826510010E+02  0.94431923076E+02  0.79972495198E+01 0.  0.
         22    1    3    3    0    0 -0.15183810151E+02 -0.24744786460E+01  0.18122552442E+02  0.23771790893E+02  0.00000000000E+00 0.  1.
         22    1    4    4    0    0  0.95913537390E+01  0.30532913547E+01 -0.76610026491E+02  0.77268446430E+02  0.00000000000E+00 0. -1.
         22    1    4    4    0    0  0.55924564121E+01 -0.57881270864E+00 -0.16216483519E+02  0.17163476646E+02  0.00000000000E+00 0. -1.
<mgrwt>
<rscale>  0 0.91604785E+02</rscale>
<asrwt>0</asrwt>
<pdfrwt beam="2">  1        2 0.14839051E-01 0.91604785E+02</pdfrwt>
<pdfrwt beam="1">  1       -2 0.33461352E-02 0.91604785E+02</pdfrwt>
<totfact> 0.11978312E+05</totfact>
</mgrwt>
</event>
<event>
 7    1  0.3891761E-009  0.1010142E+03  0.7818608E-02  0.1278177E+00
          2   -1    0    0  501    0  0.00000000000E+00  0.00000000000E+00  0.25884313686E+03  0.25884313687E+03  0.25500000000E-02 0. -1.
         -2   -1    0    0    0  501 -0.00000000000E+00 -0.00000000000E+00 -0.98552716598E+01  0.98552719897E+01  0.25500000000E-02 0.  1.
         23    2    1    2    0    0  0.00000000000E+00  0.00000000000E+00  0.24898786520E+03  0.26869840886E+03  0.10101424607E+03 0.  0.
    9000005    2    3    3    0    0 -0.15444959954E+02  0.40523154558E+02  0.58688573939E+02  0.73520302769E+02  0.89561914369E+01 0.  0.
         22    1    3    3    0    0  0.15444959954E+02 -0.40523154558E+02  0.19029929126E+03  0.19517810609E+03  0.00000000000E+00 0. -1.
         22    1    4    4    0    0 -0.48817107802E+01  0.47090978971E+01  0.69108759287E+01  0.96833315160E+01  0.00000000000E+00 0.  1.
         22    1    4    4    0    0 -0.10563249174E+02  0.35814056661E+02  0.51777698010E+02  0.63836971253E+02  0.00000000000E+00 0.  1.
<mgrwt>
<rscale>  0 0.10101425E+03</rscale>
<asrwt>0</asrwt>
<pdfrwt beam="1">  1        2 0.39822016E-01 0.10101425E+03</pdfrwt>
<pdfrwt beam="2">  1       -2 0.15161959E-02 0.10101425E+03</pdfrwt>
<totfact> 0.12903526E+05</totfact>
</mgrwt>
</event>
<event>
 7    1  0.3891761E-009  0.9644930E+02  0.7818608E-02  0.1287945E+00
         -2   -1    0    0    0  501 -0.00000000000E+00  0.00000000000E+00  0.40846972271E+03  0.40846972272E+03  0.25500000000E-02 0.  1.
          2   -1    0    0  501    0  0.00000000000E+00 -0.00000000000E+00 -0.56934857790E+01  0.56934863501E+01  0.25500000000E-02 0. -1.
         23    2    1    2    0    0  0.00000000000E+00  0.00000000000E+00  0.40277623693E+03  0.41416320907E+03  0.96449296054E+02 0.  0.
    9000005    2    3    3    0    0  0.36528115160E+02 -0.29766160079E+02  0.24297758230E+03  0.24756207611E+03  0.53430835357E+01 0.  0.
         22    1    3    3    0    0 -0.36528115160E+02  0.29766160079E+02  0.15979865463E+03  0.16660113296E+03  0.00000000000E+00 0. -1.
         22    1    4    4    0    0  0.17006578849E+01 -0.15485751787E+00  0.85405330321E+01  0.87095879676E+01  0.00000000000E+00 0. -1.
         22    1    4    4    0    0  0.34827457275E+02 -0.29611302561E+02  0.23443704927E+03  0.23885248814E+03  0.00000000000E+00 0. -1.
<mgrwt>
<rscale>  0 0.96449296E+02</rscale>
<asrwt>0</asrwt>
<pdfrwt beam="2">  1        2 0.87592079E-03 0.96449296E+02</pdfrwt>
<pdfrwt beam="1">  1       -2 0.62841506E-01 0.96449296E+02</pdfrwt>
<totfact> 0.36382924E+04</totfact>
</mgrwt>
</event>
<event>
 7    1  0.3891761E-009  0.1005760E+03  0.7818608E-02  0.1279089E+00
         -2   -1    0    0    0  501 -0.00000000000E+00  0.00000000000E+00  0.42592770456E+01  0.42592778090E+01  0.25500000000E-02 0.  1.
          2   -1    0    0  501    0  0.00000000000E+00 -0.00000000000E+00 -0.59373542640E+03  0.59373542640E+03  0.25500000000E-02 0. -1.
         23    2    1    2    0    0  0.00000000000E+00  0.00000000000E+00 -0.58947614935E+03  0.59799470421E+03  0.10057601906E+03 0.  0.
    9000005    2    3    3    0    0 -0.24580802070E+02  0.38347176740E+02 -0.41886143992E+03  0.42140449817E+03  0.78818420704E+01 0.  0.
         22    1    3    3    0    0  0.24580802070E+02 -0.38347176740E+02 -0.17061470943E+03  0.17659020604E+03  0.00000000000E+00 0.  1.
         22    1    4    4    0    0 -0.97256647960E+01  0.11426792627E+02 -0.11055608324E+03  0.11156974360E+03  0.00000000000E+00 0.  1.
         22    1    4    4    0    0 -0.14855137274E+02  0.26920384112E+02 -0.30830535668E+03  0.30983475458E+03  0.00000000000E+00 0.  1.
<mgrwt>
<rscale>  0 0.10057602E+03</rscale>
<asrwt>0</asrwt>
<pdfrwt beam="2">  1        2 0.91343847E-01 0.10057602E+03</pdfrwt>
<pdfrwt beam="1">  1       -2 0.65527392E-03 0.10057602E+03</pdfrwt>
<totfact> 0.17506766E+05</totfact>
</mgrwt>
</event>
<event>
 7    1  0.3891761E-009  0.9295844E+02  0.7818608E-02  0.1295842E+00
          2   -1    0    0  501    0  0.00000000000E+00  0.00000000000E+00  0.26004972348E+02  0.26004972473E+02  0.25500000000E-02 0. -1.
         -2   -1    0    0    0  501 -0.00000000000E+00 -0.00000000000E+00 -0.83073255696E+02  0.83073255735E+02  0.25500000000E-02 0.  1.
         23    2    1    2    0    0  0.35527136788E-14  0.00000000000E+00 -0.57068283348E+02  0.10907822821E+03  0.92958436437E+02 0.  0.
    9000005    2    3    3    0    0  0.25445311874E+02 -0.33434173919E+02 -0.50517620491E+02  0.66555069037E+02  0.10594307552E+02 0.  0.
         22    1    3    3    0    0 -0.25445311874E+02  0.33434173919E+02 -0.65506628569E+01  0.42523159171E+02  0.00000000000E+00 0. -1.
         22    1    4    4    0    0  0.85861586541E+01 -0.41560219252E+01 -0.11598842732E+02  0.15017582742E+02  0.00000000000E+00 0. -1.
         22    1    4    4    0    0  0.16859153220E+02 -0.29278151994E+02 -0.38918777758E+02  0.51537486295E+02  0.00000000000E+00 0. -1.
<mgrwt>
<rscale>  0 0.92958436E+02</rscale>
<asrwt>0</asrwt>
<pdfrwt beam="1">  1        2 0.40007650E-02 0.92958436E+02</pdfrwt>
<pdfrwt beam="2">  1       -2 0.12780501E-01 0.92958436E+02</pdfrwt>
<totfact> 0.80272277E+04</totfact>
</mgrwt>
</event>
<event>
 7    1  0.3891761E-009  0.9217882E+02  0.7818608E-02  0.1297660E+00
          2   -1    0    0  501    0  0.00000000000E+00  0.00000000000E+00  0.48708504437E+02  0.48708504504E+02  0.25500000000E-02 0. -1.
         -2   -1    0    0    0  501 -0.00000000000E+00 -0.00000000000E+00 -0.43611150250E+02  0.43611150325E+02  0.25500000000E-02 0.  1.
         23    2    1    2    0    0  0.88817841970E-15  0.17763568394E-14  0.50973541873E+01  0.92319654829E+02  0.92178824293E+02 0.  0.
    9000005    2    3    3    0    0  0.79174563933E+01  0.13769719579E+02 -0.39557210673E+02  0.44924281047E+02  0.14181918713E+02 0.  0.
         22    1    3    3    0    0 -0.79174563933E+01 -0.13769719579E+02  0.44654564860E+02  0.47395373781E+02  0.00000000000E+00 0. -1.
         22    1    4    4    0    0  0.64824419919E+01 -0.88178434973E+00 -0.13289759498E+02  0.14812741317E+02  0.00000000000E+00 0.  1.
         22    1    4    4    0    0  0.14350144014E+01  0.14651503928E+02 -0.26267451175E+02  0.30111539731E+02  0.00000000000E+00 0.  1.
<mgrwt>
<rscale>  0 0.92178824E+02</rscale>
<asrwt>0</asrwt>
<pdfrwt beam="1">  1        2 0.74936160E-02 0.92178824E+02</pdfrwt>
<pdfrwt beam="2">  1       -2 0.67094078E-02 0.92178824E+02</pdfrwt>
<totfact> 0.97296104E+04</totfact>
</mgrwt>
</event>
<event>
 7    1  0.3891761E-009  0.9062069E+02  0.7818608E-02  0.1301356E+00
         -2   -1    0    0    0  501 -0.00000000000E+00  0.00000000000E+00  0.57834300601E+02  0.57834300657E+02  0.25500000000E-02 0. -1.
          2   -1    0    0  501    0  0.00000000000E+00 -0.00000000000E+00 -0.35498441134E+02  0.35498441225E+02  0.25500000000E-02 0.  1.
         23    2    1    2    0    0  0.00000000000E+00  0.00000000000E+00  0.22335859467E+02  0.93332741883E+02  0.90620693493E+02 0.  0.
    9000005    2    3    3    0    0 -0.16196874310E+02 -0.36796551417E+02 -0.94061094787E+01  0.42108943447E+02  0.82682095456E+01 0.  0.
         22    1    3    3    0    0  0.16196874310E+02  0.36796551417E+02  0.31741968946E+02  0.51223798436E+02  0.00000000000E+00 0. -1.
         22    1    4    4    0    0 -0.11465872700E+02 -0.33130194740E+02 -0.79109234781E+01  0.35939654291E+02  0.00000000000E+00 0.  1.
         22    1    4    4    0    0 -0.47310016092E+01 -0.36663566773E+01 -0.14951860006E+01  0.61692891558E+01  0.00000000000E+00 0.  1.
<mgrwt>
<rscale>  0 0.90620693E+02</rscale>
<asrwt>0</asrwt>
<pdfrwt beam="2">  1        2 0.54612987E-02 0.90620693E+02</pdfrwt>
<pdfrwt beam="1">  1       -2 0.88975847E-02 0.90620693E+02</pdfrwt>
<totfact> 0.94146196E+04</totfact>
</mgrwt>
</event>
<event>
 7    1  0.3891761E-009  0.9761311E+02  0.7818608E-02  0.1285397E+00
          2   -1    0    0  501    0  0.00000000000E+00  0.00000000000E+00  0.52380948909E+02  0.52380948971E+02  0.25500000000E-02 0. -1.
         -2   -1    0    0    0  501 -0.00000000000E+00 -0.00000000000E+00 -0.45476076167E+02  0.45476076239E+02  0.25500000000E-02 0.  1.
         23    2    1    2    0    0  0.00000000000E+00  0.71054273576E-14  0.69048727419E+01  0.97857025210E+02  0.97613114464E+02 0.  0.
    9000005    2    3    3    0    0  0.62440066696E+01 -0.43877446055E+02 -0.14555932621E+02  0.48614928805E+02  0.13686425268E+02 0.  0.
         22    1    3    3    0    0 -0.62440066696E+01  0.43877446055E+02  0.21460805363E+02  0.49242096406E+02  0.00000000000E+00 0. -1.
         22    1    4    4    0    0  0.30095868752E+01 -0.95011142979E+01 -0.94073920476E+01  0.13705028683E+02  0.00000000000E+00 0. -1.
         22    1    4    4    0    0  0.32344197943E+01 -0.34376331757E+02 -0.51485405733E+01  0.34909900122E+02  0.00000000000E+00 0. -1.
<mgrwt>
<rscale>  0 0.97613114E+02</rscale>
<asrwt>0</asrwt>
<pdfrwt beam="1">  1        2 0.80586076E-02 0.97613114E+02</pdfrwt>
<pdfrwt beam="2">  1       -2 0.69963194E-02 0.97613114E+02</pdfrwt>
<totfact> 0.84153805E+04</totfact>
</mgrwt>
</event>
<event>
 7    1  0.3891761E-009  0.9605064E+02  0.7818608E-02  0.1288827E+00
          2   -1    0    0  501    0  0.00000000000E+00  0.00000000000E+00  0.16785164623E+02  0.16785164816E+02  0.25500000000E-02 0. -1.
         -2   -1    0    0    0  501 -0.00000000000E+00 -0.00000000000E+00 -0.13740892356E+03  0.13740892359E+03  0.25500000000E-02 0.  1.
         23    2    1    2    0    0  0.00000000000E+00  0.00000000000E+00 -0.12062375894E+03  0.15419408840E+03  0.96050641214E+02 0.  0.
    9000005    2    3    3    0    0 -0.95403190916E+01 -0.65617149922E+01 -0.13484938344E+03  0.13585172802E+03  0.11715886660E+02 0.  0.
         22    1    3    3    0    0  0.95403190916E+01  0.65617149922E+01  0.14225624499E+02  0.18342360382E+02  0.00000000000E+00 0. -1.
         22    1    4    4    0    0 -0.23131869296E+01  0.28335377257E+01 -0.16003920898E+02  0.16416615178E+02  0.00000000000E+00 0.  1.
         22    1    4    4    0    0 -0.72271321620E+01 -0.93952527179E+01 -0.11884546254E+03  0.11943511284E+03  0.00000000000E+00 0.  1.
<mgrwt>
<rscale>  0 0.96050641E+02</rscale>
<asrwt>0</asrwt>
<pdfrwt beam="1">  1        2 0.25823331E-02 0.96050641E+02</pdfrwt>
<pdfrwt beam="2">  1       -2 0.21139834E-01 0.96050641E+02</pdfrwt>
<totfact> 0.63186292E+04</totfact>
</mgrwt>
</event>
<event>
 7    1  0.3891761E-009  0.9045016E+02  0.7818608E-02  0.1301765E+00
         -2   -1    0    0    0  501 -0.00000000000E+00  0.00000000000E+00  0.87743697175E+02  0.87743697212E+02  0.25500000000E-02 0. -1.
          2   -1    0    0  501    0  0.00000000000E+00 -0.00000000000E+00 -0.23310024934E+02  0.23310025074E+02  0.25500000000E-02 0.  1.
         23    2    1    2    0    0 -0.71054273576E-14 -0.88817841970E-15  0.64433672241E+02  0.11105372229E+03  0.90450158181E+02 0.  0.
    9000005    2    3    3    0    0 -0.37688388666E+02 -0.67135986242E+01  0.59865387885E+02  0.72500431003E+02  0.14386131599E+02 0.  0.
         22    1    3    3    0    0  0.37688388666E+02  0.67135986242E+01  0.45682843559E+01  0.38553291282E+02  0.00000000000E+00 0.  1.
         22    1    4    4    0    0 -0.18536518005E+02  0.39589434188E+01  0.28776833618E+02  0.34458408056E+02  0.00000000000E+00 0. -1.
         22    1    4    4    0    0 -0.19151870661E+02 -0.10672542043E+02  0.31088554267E+02  0.38042022947E+02  0.00000000000E+00 0. -1.
<mgrwt>
<rscale>  0 0.90450158E+02</rscale>
<asrwt>0</asrwt>
<pdfrwt beam="2">  1        2 0.35861577E-02 0.90450158E+02</pdfrwt>
<pdfrwt beam="1">  1       -2 0.13499030E-01 0.90450158E+02</pdfrwt>
<totfact> 0.84558279E+04</totfact>
</mgrwt>
</event>
<event>
 7    1  0.3891761E-009  0.8432073E+02  0.7818608E-02  0.1317219E+00
         -2   -1    0    0    0  501 -0.00000000000E+00  0.00000000000E+00  0.38531433486E+02  0.38531433571E+02  0.25500000000E-02 0.  1.
          2   -1    0    0  501    0  0.00000000000E+00 -0.00000000000E+00 -0.46131069609E+02  0.46131069680E+02  0.25500000000E-02 0. -1.
         23    2    1    2    0    0  0.00000000000E+00 -0.44408920985E-15 -0.75996361230E+01  0.84662503251E+02  0.84320726915E+02 0.  0.
    9000005    2    3    3    0    0  0.26371425075E+02  0.23355775794E+01  0.28872604735E+02  0.39594428782E+02  0.57605992063E+01 0.  0.
         22    1    3    3    0    0 -0.26371425075E+02 -0.23355775794E+01 -0.36472240858E+02  0.45068074469E+02  0.00000000000E+00 0. -1.
         22    1    4    4    0    0  0.78828293496E+01  0.26328962399E+01  0.11757997414E+02  0.14398668145E+02  0.00000000000E+00 0.  1.
         22    1    4    4    0    0  0.18488595726E+02 -0.29731866051E+00  0.17114607321E+02  0.25195760637E+02  0.00000000000E+00 0.  1.
<mgrwt>
<rscale>  0 0.84320727E+02</rscale>
<asrwt>0</asrwt>
<pdfrwt beam="2">  1        2 0.70970877E-02 0.84320727E+02</pdfrwt>
<pdfrwt beam="1">  1       -2 0.59279128E-02 0.84320727E+02</pdfrwt>
<totfact> 0.12361150E+05</totfact>
</mgrwt>
</event>
<event>
 7    1  0.3891761E-009  0.8783131E+02  0.7818608E-02  0.1308190E+00
         -2   -1    0    0    0  501 -0.00000000000E+00  0.00000000000E+00  0.16759626748E+02  0.16759626942E+02  0.25500000000E-02 0.  1.
          2   -1    0    0  501    0  0.00000000000E+00 -0.00000000000E+00 -0.11507323888E+03  0.11507323890E+03  0.25500000000E-02 0. -1.
         23    2    1    2    0    0 -0.35527136788E-14 -0.71054273576E-14 -0.98313612129E+02  0.13183286585E+03  0.87831305282E+02 0.  0.
    9000005    2    3    3    0    0  0.28931649910E+02  0.30272847291E+02 -0.63741404028E+02  0.77530718352E+02  0.13948478451E+02 0.  0.
         22    1    3    3    0    0 -0.28931649910E+02 -0.30272847291E+02 -0.34572208100E+02  0.54302147495E+02  0.00000000000E+00 0.  1.
         22    1    4    4    0    0  0.66726557720E+01  0.59758117525E+01 -0.25625347716E+02  0.27145775117E+02  0.00000000000E+00 0.  1.
         22    1    4    4    0    0  0.22258994138E+02  0.24297035538E+02 -0.38116056313E+02  0.50384943235E+02  0.00000000000E+00 0.  1.
<mgrwt>
<rscale>  0 0.87831305E+02</rscale>
<asrwt>0</asrwt>
<pdfrwt beam="2">  1        2 0.17703575E-01 0.87831305E+02</pdfrwt>
<pdfrwt beam="1">  1       -2 0.25784042E-02 0.87831305E+02</pdfrwt>
<totfact> 0.14190424E+05</totfact>
</mgrwt>
</event>
<event>
 7    1  0.3891761E-009  0.8804769E+02  0.7818608E-02  0.1307650E+00
         -2   -1    0    0    0  501 -0.00000000000E+00  0.00000000000E+00  0.52268457575E+01  0.52268463795E+01  0.25500000000E-02 0.  1.
          2   -1    0    0  501    0  0.00000000000E+00 -0.00000000000E+00 -0.37079698907E+03  0.37079698908E+03  0.25500000000E-02 0. -1.
         23    2    1    2    0    0  0.00000000000E+00  0.00000000000E+00 -0.36557014332E+03  0.37602383546E+03  0.88047686803E+02 0.  0.
    9000005    2    3    3    0    0  0.76285783973E+01  0.40669427949E+02 -0.14467839653E+03  0.15128985633E+03  0.15639201637E+02 0.  0.
         22    1    3    3    0    0 -0.76285783973E+01 -0.40669427949E+02 -0.22089174679E+03  0.22473397913E+03  0.00000000000E+00 0.  1.
         22    1    4    4    0    0  0.29285551652E+01  0.25818030431E+02 -0.63150537737E+02  0.68287169711E+02  0.00000000000E+00 0. -1.
         22    1    4    4    0    0  0.47000232320E+01  0.14851397519E+02 -0.81527858790E+02  0.83002686617E+02  0.00000000000E+00 0. -1.
<mgrwt>
<rscale>  0 0.88047687E+02</rscale>
<asrwt>0</asrwt>
<pdfrwt beam="2">  1        2 0.57045670E-01 0.88047687E+02</pdfrwt>
<pdfrwt beam="1">  1       -2 0.80413046E-03 0.88047687E+02</pdfrwt>
<totfact> 0.21308297E+05</totfact>
</mgrwt>
</event>
<event>
 7    1  0.3891761E-009  0.9372203E+02  0.7818608E-02  0.1294081E+00
          2   -1    0    0  501    0  0.00000000000E+00  0.00000000000E+00  0.47600256426E+02  0.47600256495E+02  0.25500000000E-02 0. -1.
         -2   -1    0    0    0  501 -0.00000000000E+00 -0.00000000000E+00 -0.46133250274E+02  0.46133250345E+02  0.25500000000E-02 0.  1.
         23    2    1    2    0    0  0.00000000000E+00  0.35527136788E-14  0.14670061522E+01  0.93733506839E+02  0.93722026212E+02 0.  0.
    9000005    2    3    3    0    0  0.18470560849E+02  0.29368018035E+02  0.31618602536E+02  0.47768728303E+02  0.88585143234E+01 0.  0.
         22    1    3    3    0    0 -0.18470560849E+02 -0.29368018035E+02 -0.30151596383E+02  0.45964778536E+02  0.00000000000E+00 0.  1.
         22    1    4    4    0    0  0.76084297045E+01  0.49828006377E+01  0.86781835470E+01  0.12570893940E+02  0.00000000000E+00 0.  1.
         22    1    4    4    0    0  0.10862131144E+02  0.24385217398E+02  0.22940418989E+02  0.35197834364E+02  0.00000000000E+00 0.  1.
<mgrwt>
<rscale>  0 0.93722026E+02</rscale>
<asrwt>0</asrwt>
<pdfrwt beam="1">  1        2 0.73231164E-02 0.93722026E+02</pdfrwt>
<pdfrwt beam="2">  1       -2 0.70974231E-02 0.93722026E+02</pdfrwt>
<totfact> 0.92201868E+04</totfact>
</mgrwt>
</event>
<event>
 7    1  0.3891761E-009  0.9065089E+02  0.7818608E-02  0.1301283E+00
         -2   -1    0    0    0  501 -0.00000000000E+00  0.00000000000E+00  0.17769988056E+02  0.17769988238E+02  0.25500000000E-02 0.  1.
          2   -1    0    0  501    0  0.00000000000E+00 -0.00000000000E+00 -0.11561043009E+03  0.11561043012E+03  0.25500000000E-02 0. -1.
         23    2    1    2    0    0  0.00000000000E+00  0.00000000000E+00 -0.97840442038E+02  0.13338041836E+03  0.90650890254E+02 0.  0.
    9000005    2    3    3    0    0  0.29344551370E+01 -0.44617249288E+02 -0.56768079222E+02  0.72665931223E+02  0.76428254628E+01 0.  0.
         22    1    3    3    0    0 -0.29344551370E+01  0.44617249288E+02 -0.41072362817E+02  0.60714487137E+02  0.00000000000E+00 0.  1.
         22    1    4    4    0    0  0.18937683141E+01 -0.23752882687E+02 -0.36281957996E+02  0.43406984120E+02  0.00000000000E+00 0. -1.
         22    1    4    4    0    0  0.10406868229E+01 -0.20864366601E+02 -0.20486121226E+02  0.29258947104E+02  0.00000000000E+00 0. -1.
<mgrwt>
<rscale>  0 0.90650890E+02</rscale>
<asrwt>0</asrwt>
<pdfrwt beam="2">  1        2 0.17786220E-01 0.90650890E+02</pdfrwt>
<pdfrwt beam="1">  1       -2 0.27338444E-02 0.90650890E+02</pdfrwt>
<totfact> 0.13037844E+05</totfact>
</mgrwt>
</event>
<event>
 7    1  0.3891761E-009  0.1027121E+03  0.7818608E-02  0.1274694E+00
          2   -1    0    0  501    0  0.00000000000E+00  0.00000000000E+00  0.31244879419E+03  0.31244879420E+03  0.25500000000E-02 0. -1.
         -2   -1    0    0    0  501 -0.00000000000E+00 -0.00000000000E+00 -0.84411960267E+01  0.84411964119E+01  0.25500000000E-02 0.  1.
         23    2    1    2    0    0 -0.17763568394E-14  0.00000000000E+00  0.30400759816E+03  0.32088999061E+03  0.10271205545E+03 0.  0.
    9000005    2    3    3    0    0  0.14580214327E+02  0.38348462746E+02  0.58087223144E+02  0.71570881649E+02  0.80671161252E+01 0.  0.
         22    1    3    3    0    0 -0.14580214327E+02 -0.38348462746E+02  0.24592037502E+03  0.24931910896E+03  0.00000000000E+00 0. -1.
         22    1    4    4    0    0  0.25445035474E+01  0.13690931489E+01  0.33232040879E+01  0.44037029604E+01  0.00000000000E+00 0. -1.
         22    1    4    4    0    0  0.12035710780E+02  0.36979369597E+02  0.54764019056E+02  0.67167178688E+02  0.00000000000E+00 0. -1.
<mgrwt>
<rscale>  0 0.10271206E+03</rscale>
<asrwt>0</asrwt>
<pdfrwt beam="1">  1        2 0.48069045E-01 0.10271206E+03</pdfrwt>
<pdfrwt beam="2">  1       -2 0.12986456E-02 0.10271206E+03</pdfrwt>
<totfact> 0.13247053E+05</totfact>
</mgrwt>
</event>
<event>
 7    1  0.3891761E-009  0.7969917E+02  0.7818608E-02  0.1329907E+00
          2   -1    0    0  501    0  0.00000000000E+00  0.00000000000E+00  0.31900236628E+01  0.31900246819E+01  0.25500000000E-02 0. -1.
         -2   -1    0    0    0  501 -0.00000000000E+00 -0.00000000000E+00 -0.49779858968E+03  0.49779858968E+03  0.25500000000E-02 0.  1.
         23    2    1    2    0    0 -0.71054273576E-14  0.00000000000E+00 -0.49460856601E+03  0.50098861437E+03  0.79699172826E+02 0.  0.
    9000005    2    3    3    0    0  0.34429554609E+02  0.58920005849E+01 -0.36056806372E+03  0.36247158958E+03  0.12498590833E+02 0.  0.
         22    1    3    3    0    0 -0.34429554609E+02 -0.58920005849E+01 -0.13404050229E+03  0.13851702479E+03  0.00000000000E+00 0. -1.
         22    1    4    4    0    0  0.28962960329E+02  0.70715591135E+01 -0.33361195514E+03  0.33494148240E+03  0.00000000000E+00 0. -1.
         22    1    4    4    0    0  0.54665942806E+01 -0.11795585286E+01 -0.26956108581E+02  0.27530107177E+02  0.00000000000E+00 0. -1.
<mgrwt>
<rscale>  0 0.79699173E+02</rscale>
<asrwt>0</asrwt>
<pdfrwt beam="1">  1        2 0.49077334E-03 0.79699173E+02</pdfrwt>
<pdfrwt beam="2">  1       -2 0.76584337E-01 0.79699173E+02</pdfrwt>
<totfact> 0.51530725E+04</totfact>
</mgrwt>
</event>
<event>
 7    1  0.3891761E-009  0.9106600E+02  0.7818608E-02  0.1300291E+00
          2   -1    0    0  501    0  0.00000000000E+00  0.00000000000E+00  0.26385500784E+02  0.26385500907E+02  0.25500000000E-02 0. -1.
         -2   -1    0    0    0  501 -0.00000000000E+00 -0.00000000000E+00 -0.78575499095E+02  0.78575499137E+02  0.25500000000E-02 0.  1.
         23    2    1    2    0    0 -0.35527136788E-14  0.00000000000E+00 -0.52189998311E+02  0.10496100004E+03  0.91065995885E+02 0.  0.
    9000005    2    3    3    0    0 -0.31030649264E+02 -0.20166064275E+02 -0.56239022127E+02  0.67732436602E+02  0.74353221968E+01 0.  0.
         22    1    3    3    0    0  0.31030649264E+02  0.20166064275E+02  0.40490238158E+01  0.37228563442E+02  0.00000000000E+00 0. -1.
         22    1    4    4    0    0 -0.12632055403E+02 -0.55296318697E+01 -0.15939122146E+02  0.21076082822E+02  0.00000000000E+00 0. -1.
         22    1    4    4    0    0 -0.18398593861E+02 -0.14636432406E+02 -0.40299899981E+02  0.46656353780E+02  0.00000000000E+00 0. -1.
<mgrwt>
<rscale>  0 0.91065996E+02</rscale>
<asrwt>0</asrwt>
<pdfrwt beam="1">  1        2 0.40593079E-02 0.91065996E+02</pdfrwt>
<pdfrwt beam="2">  1       -2 0.12088538E-01 0.91065996E+02</pdfrwt>
<totfact> 0.85756833E+04</totfact>
</mgrwt>
</event>
<event>
 7    1  0.3891761E-009  0.8338625E+02  0.7818608E-02  0.1319707E+00
         -2   -1    0    0    0  501 -0.00000000000E+00  0.00000000000E+00  0.92926468883E+01  0.92926472381E+01  0.25500000000E-02 0.  1.
          2   -1    0    0  501    0  0.00000000000E+00 -0.00000000000E+00 -0.18706365789E+03  0.18706365791E+03  0.25500000000E-02 0. -1.
         23    2    1    2    0    0  0.00000000000E+00  0.17763568394E-14 -0.17777101100E+03  0.19635630515E+03  0.83386247175E+02 0.  0.
    9000005    2    3    3    0    0  0.31650065154E+02 -0.80853720769E+01 -0.14825759499E+03  0.15233197562E+03  0.12554539302E+02 0.  0.
         22    1    3    3    0    0 -0.31650065154E+02  0.80853720769E+01 -0.29513416013E+02  0.44024329530E+02  0.00000000000E+00 0.  1.
         22    1    4    4    0    0  0.72593907590E+01  0.56371822135E+00 -0.16178485208E+02  0.17741474461E+02  0.00000000000E+00 0. -1.
         22    1    4    4    0    0  0.24390674395E+02 -0.86490902983E+01 -0.13207910978E+03  0.13459050116E+03  0.00000000000E+00 0. -1.
<mgrwt>
<rscale>  0 0.83386247E+02</rscale>
<asrwt>0</asrwt>
<pdfrwt beam="2">  1        2 0.28779022E-01 0.83386247E+02</pdfrwt>
<pdfrwt beam="1">  1       -2 0.14296381E-02 0.83386247E+02</pdfrwt>
<totfact> 0.19185894E+05</totfact>
</mgrwt>
</event>
<event>
 7    1  0.3891761E-009  0.9035822E+02  0.7818608E-02  0.1301987E+00
          2   -1    0    0  501    0  0.00000000000E+00  0.00000000000E+00  0.15642839091E+02  0.15642839299E+02  0.25500000000E-02 0.  1.
         -2   -1    0    0    0  501 -0.00000000000E+00 -0.00000000000E+00 -0.13048476183E+03  0.13048476185E+03  0.25500000000E-02 0. -1.
         23    2    1    2    0    0  0.00000000000E+00  0.71054273576E-14 -0.11484192273E+03  0.14612760115E+03  0.90358223757E+02 0.  0.
    9000005    2    3    3    0    0 -0.24088576427E+02 -0.35049276163E+02 -0.81417590827E+02  0.92036037693E+02  0.57529874148E+01 0.  0.
         22    1    3    3    0    0  0.24088576427E+02  0.35049276163E+02 -0.33424331907E+02  0.54091563458E+02  0.00000000000E+00 0.  1.
         22    1    4    4    0    0 -0.18346048375E+02 -0.28762018016E+02 -0.60571098174E+02  0.69517545306E+02  0.00000000000E+00 0.  1.
         22    1    4    4    0    0 -0.57425280517E+01 -0.62872581476E+01 -0.20846492653E+02  0.22518492387E+02  0.00000000000E+00 0.  1.
<mgrwt>
<rscale>  0 0.90358224E+02</rscale>
<asrwt>0</asrwt>
<pdfrwt beam="1">  1        2 0.24065907E-02 0.90358224E+02</pdfrwt>
<pdfrwt beam="2">  1       -2 0.20074578E-01 0.90358224E+02</pdfrwt>
<totfact> 0.75039684E+04</totfact>
</mgrwt>
</event>
<event>
 7    1  0.3891761E-009  0.1057900E+03  0.7818608E-02  0.1268571E+00
          2   -1    0    0  501    0  0.00000000000E+00  0.00000000000E+00  0.63428766188E+01  0.63428771313E+01  0.25500000000E-02 0. -1.
         -2   -1    0    0    0  501 -0.00000000000E+00 -0.00000000000E+00 -0.44110611082E+03  0.44110611083E+03  0.25500000000E-02 0.  1.
         23    2    1    2    0    0 -0.35527136788E-14  0.17763568394E-14 -0.43476323420E+03  0.44744898796E+03  0.10579001376E+03 0.  0.
    9000005    2    3    3    0    0 -0.16665831988E+02  0.85219636078E+01 -0.42654933425E+03  0.42700780472E+03  0.63997596703E+01 0.  0.
         22    1    3    3    0    0  0.16665831988E+02 -0.85219636078E+01 -0.82138999448E+01  0.20441183231E+02  0.00000000000E+00 0. -1.
         22    1    4    4    0    0 -0.14986206531E+02  0.74953547194E+01 -0.31843378124E+03  0.31887433224E+03  0.00000000000E+00 0. -1.
         22    1    4    4    0    0 -0.16796254574E+01  0.10266088884E+01 -0.10811555301E+03  0.10813347248E+03  0.00000000000E+00 0. -1.
<mgrwt>
<rscale>  0 0.10579001E+03</rscale>
<asrwt>0</asrwt>
<pdfrwt beam="1">  1        2 0.97582756E-03 0.10579001E+03</pdfrwt>
<pdfrwt beam="2">  1       -2 0.67862455E-01 0.10579001E+03</pdfrwt>
<totfact> 0.27096565E+04</totfact>
</mgrwt>
</event>
<event>
 7    1  0.5783081E-009  0.9123714E+02  0.7818608E-02  0.1299883E+00
          2   -1    0    0  501    0  0.00000000000E+00  0.00000000000E+00  0.56549967370E+03  0.56549967371E+03  0.25500000000E-02 0. -1.
         -2   -1    0    0    0  501 -0.00000000000E+00 -0.00000000000E+00 -0.36800265935E+01  0.36800274770E+01  0.25500000000E-02 0.  1.
         23    2    1    2    0    0  0.00000000000E+00  0.71054273576E-14  0.56181964711E+03  0.56917970119E+03  0.91237143553E+02 0.  0.
    9000005    2    3    3    0    0  0.90963255737E+01  0.40514017179E+02  0.38583901305E+03  0.38836678049E+03  0.15260519949E+02 0.  0.
         22    1    3    3    0    0 -0.90963255737E+01 -0.40514017179E+02  0.17598063406E+03  0.18081292070E+03  0.00000000000E+00 0.  1.
         22    1    4    4    0    0  0.98470456935E+00  0.33365393418E+02  0.28360909115E+03  0.28556669222E+03  0.00000000000E+00 0. -1.
         22    1    4    4    0    0  0.81116210043E+01  0.71486237611E+01  0.10222992190E+03  0.10280008827E+03  0.00000000000E+00 0. -1.
<mgrwt>
<rscale>  0 0.91237144E+02</rscale>
<asrwt>0</asrwt>
<pdfrwt beam="1">  1        2 0.86999859E-01 0.91237144E+02</pdfrwt>
<pdfrwt beam="2">  1       -2 0.56615860E-03 0.91237144E+02</pdfrwt>
<totfact> 0.22355968E+05</totfact>
</mgrwt>
</event>
<event>
 7    1  0.3891761E-009  0.9164078E+02  0.7818608E-02  0.1298926E+00
          2   -1    0    0  501    0  0.00000000000E+00  0.00000000000E+00  0.12166211834E+03  0.12166211837E+03  0.25500000000E-02 0. -1.
         -2   -1    0    0    0  501 -0.00000000000E+00 -0.00000000000E+00 -0.17256878011E+02  0.17256878200E+02  0.25500000000E-02 0.  1.
         23    2    1    2    0    0  0.00000000000E+00  0.00000000000E+00  0.10440524033E+03  0.13891899657E+03  0.91640784585E+02 0.  0.
    9000005    2    3    3    0    0 -0.36878087760E+02 -0.16494133170E+02  0.82535593802E+02  0.92980655011E+02  0.14185491748E+02 0.  0.
         22    1    3    3    0    0  0.36878087760E+02  0.16494133170E+02  0.21869646531E+02  0.45938341560E+02  0.00000000000E+00 0.  1.
         22    1    4    4    0    0 -0.10691831965E+02 -0.11065932402E+02  0.22503673546E+02  0.27261427948E+02  0.00000000000E+00 0.  1.
         22    1    4    4    0    0 -0.26186255796E+02 -0.54282007682E+01  0.60031920256E+02  0.65719227063E+02  0.00000000000E+00 0.  1.
<mgrwt>
<rscale>  0 0.91640785E+02</rscale>
<asrwt>0</asrwt>
<pdfrwt beam="1">  1        2 0.18717249E-01 0.91640785E+02</pdfrwt>
<pdfrwt beam="2">  1       -2 0.26549043E-02 0.91640785E+02</pdfrwt>
<totfact> 0.12863967E+05</totfact>
</mgrwt>
</event>
<event>
 7    1  0.3891761E-009  0.9054808E+02  0.7818608E-02  0.1301530E+00
         -2   -1    0    0    0  501 -0.00000000000E+00  0.00000000000E+00  0.79053808083E+01  0.79053812196E+01  0.25500000000E-02 0. -1.
          2   -1    0    0  501    0  0.00000000000E+00 -0.00000000000E+00 -0.25928398288E+03  0.25928398289E+03  0.25500000000E-02 0.  1.
         23    2    1    2    0    0 -0.17763568394E-14  0.71054273576E-14 -0.25137860207E+03  0.26718936411E+03  0.90548079577E+02 0.  0.
    9000005    2    3    3    0    0  0.57782744636E+01 -0.43445850889E+02 -0.14260655845E+03  0.14991921494E+03  0.14771935463E+02 0.  0.
         22    1    3    3    0    0 -0.57782744636E+01  0.43445850889E+02 -0.10877204361E+03  0.11727014917E+03  0.00000000000E+00 0.  1.
         22    1    4    4    0    0  0.10372022639E+02 -0.32561431463E+02 -0.98586316972E+02  0.10434120742E+03  0.00000000000E+00 0.  1.
         22    1    4    4    0    0 -0.45937481755E+01 -0.10884419426E+02 -0.44020241482E+02  0.45578007511E+02  0.00000000000E+00 0.  1.
<mgrwt>
<rscale>  0 0.90548080E+02</rscale>
<asrwt>0</asrwt>
<pdfrwt beam="2">  1        2 0.39889837E-01 0.90548080E+02</pdfrwt>
<pdfrwt beam="1">  1       -2 0.12162127E-02 0.90548080E+02</pdfrwt>
<totfact> 0.17332444E+05</totfact>
</mgrwt>
</event>
<event>
 7    1  0.3891761E-009  0.8319120E+02  0.7818608E-02  0.1320232E+00
         -2   -1    0    0    0  501 -0.00000000000E+00  0.00000000000E+00  0.39551109930E+01  0.39551118150E+01  0.25500000000E-02 0.  1.
          2   -1    0    0  501    0  0.00000000000E+00 -0.00000000000E+00 -0.43745766566E+03  0.43745766567E+03  0.25500000000E-02 0. -1.
         23    2    1    2    0    0  0.35527136788E-14  0.00000000000E+00 -0.43350255467E+03  0.44141277749E+03  0.83191196781E+02 0.  0.
    9000005    2    3    3    0    0 -0.26572884544E+02 -0.31142911659E+02 -0.18643348889E+03  0.19097491612E+03  0.61622778196E+01 0.  0.
         22    1    3    3    0    0  0.26572884544E+02  0.31142911659E+02 -0.24706906578E+03  0.25043786137E+03  0.00000000000E+00 0. -1.
         22    1    4    4    0    0 -0.18413755560E+01 -0.48288429635E+01 -0.18916438402E+02  0.19609692250E+02  0.00000000000E+00 0.  1.
         22    1    4    4    0    0 -0.24731508988E+02 -0.26314068695E+02 -0.16751705048E+03  0.17136522387E+03  0.00000000000E+00 0.  1.
<mgrwt>
<rscale>  0 0.83191197E+02</rscale>
<asrwt>0</asrwt>
<pdfrwt beam="2">  1        2 0.67301141E-01 0.83191197E+02</pdfrwt>
<pdfrwt beam="1">  1       -2 0.60847903E-03 0.83191197E+02</pdfrwt>
<totfact> 0.26237088E+05</totfact>
</mgrwt>
</event>
<event>
 7    1  0.3891761E-009  0.9172702E+02  0.7818608E-02  0.1298723E+00
          2   -1    0    0  501    0  0.00000000000E+00  0.00000000000E+00  0.59964671902E+02  0.59964671956E+02  0.25500000000E-02 0. -1.
         -2   -1    0    0    0  501 -0.00000000000E+00 -0.00000000000E+00 -0.35078347866E+02  0.35078347958E+02  0.25500000000E-02 0.  1.
         23    2    1    2    0    0  0.00000000000E+00  0.00000000000E+00  0.24886324037E+02  0.95043019914E+02  0.91727021702E+02 0.  0.
    9000005    2    3    3    0    0 -0.20148802980E+02 -0.11491653837E+02  0.53297420325E+02  0.58365741366E+02  0.52832170554E+01 0.  0.
         22    1    3    3    0    0  0.20148802980E+02  0.11491653837E+02 -0.28411096289E+02  0.36677278549E+02  0.00000000000E+00 0.  1.
         22    1    4    4    0    0 -0.80510806203E+00  0.24711091333E+00  0.44928649491E+01  0.45711156456E+01  0.00000000000E+00 0. -1.
         22    1    4    4    0    0 -0.19343694918E+02 -0.11738764750E+02  0.48804555376E+02  0.53794625720E+02  0.00000000000E+00 0. -1.
<mgrwt>
<rscale>  0 0.91727022E+02</rscale>
<asrwt>0</asrwt>
<pdfrwt beam="1">  1        2 0.92253341E-02 0.91727022E+02</pdfrwt>
<pdfrwt beam="2">  1       -2 0.53966690E-02 0.91727022E+02</pdfrwt>
<totfact> 0.10426535E+05</totfact>
</mgrwt>
</event>
<event>
 7    1  0.3891761E-009  0.8756438E+02  0.7818608E-02  0.1308859E+00
         -2   -1    0    0    0  501 -0.00000000000E+00  0.00000000000E+00  0.23862263703E+01  0.23862277328E+01  0.25500000000E-02 0. -1.
          2   -1    0    0  501    0  0.00000000000E+00 -0.00000000000E+00 -0.80330995673E+03  0.80330995673E+03  0.25500000000E-02 0.  1.
         23    2    1    2    0    0  0.00000000000E+00  0.17763568394E-14 -0.80092373036E+03  0.80569618447E+03  0.87564375239E+02 0.  0.
    9000005    2    3    3    0    0 -0.76377339664E+01  0.11144945106E+02 -0.78293549506E+03  0.78319904263E+03  0.15172546694E+02 0.  0.
         22    1    3    3    0    0  0.76377339664E+01 -0.11144945106E+02 -0.17988235303E+02  0.22497141838E+02  0.00000000000E+00 0. -1.
         22    1    4    4    0    0 -0.63658249489E+01  0.31216674744E+01 -0.63575619161E+03  0.63579572483E+03  0.00000000000E+00 0. -1.
         22    1    4    4    0    0 -0.12719090175E+01  0.80232776320E+01 -0.14717930344E+03  0.14740331780E+03  0.00000000000E+00 0. -1.
<mgrwt>
<rscale>  0 0.87564375E+02</rscale>
<asrwt>0</asrwt>
<pdfrwt beam="2">  1        2 0.12358593E+00 0.87564375E+02</pdfrwt>
<pdfrwt beam="1">  1       -2 0.36711249E-03 0.87564375E+02</pdfrwt>
<totfact> 0.27127280E+05</totfact>
</mgrwt>
</event>
<event>
 7    1  0.3891761E-009  0.9044427E+02  0.7818608E-02  0.1301779E+00
         -2   -1    0    0    0  501 -0.00000000000E+00  0.00000000000E+00  0.23196017318E+02  0.23196017458E+02  0.25500000000E-02 0.  1.
          2   -1    0    0  501    0  0.00000000000E+00 -0.00000000000E+00 -0.88163480514E+02  0.88163480551E+02  0.25500000000E-02 0. -1.
         23    2    1    2    0    0  0.00000000000E+00  0.00000000000E+00 -0.64967463196E+02  0.11135949801E+03  0.90444273023E+02 0.  0.
    9000005    2    3    3    0    0 -0.25601782602E+01 -0.21749689670E+02 -0.80951395344E+02  0.84246962156E+02  0.80510068244E+01 0.  0.
         22    1    3    3    0    0  0.25601782602E+01  0.21749689670E+02  0.15983932148E+02  0.27112535853E+02  0.00000000000E+00 0.  1.
         22    1    4    4    0    0 -0.90385496157E+00 -0.58820613220E+01 -0.11076996592E+02  0.12574396712E+02  0.00000000000E+00 0. -1.
         22    1    4    4    0    0 -0.16563232986E+01 -0.15867628348E+02 -0.69874398752E+02  0.71672565444E+02  0.00000000000E+00 0. -1.
<mgrwt>
<rscale>  0 0.90444273E+02</rscale>
<asrwt>0</asrwt>
<pdfrwt beam="2">  1        2 0.13563612E-01 0.90444273E+02</pdfrwt>
<pdfrwt beam="1">  1       -2 0.35686181E-02 0.90444273E+02</pdfrwt>
<totfact> 0.12080169E+05</totfact>
</mgrwt>
</event>
<event>
 7    1  0.3891761E-009  0.8901645E+02  0.7818608E-02  0.1305251E+00
         -2   -1    0    0    0  501 -0.00000000000E+00  0.00000000000E+00  0.41356078839E+01  0.41356086701E+01  0.25500000000E-02 0.  1.
          2   -1    0    0  501    0  0.00000000000E+00 -0.00000000000E+00 -0.47900621203E+03  0.47900621204E+03  0.25500000000E-02 0. -1.
         23    2    1    2    0    0 -0.71054273576E-14  0.00000000000E+00 -0.47487060415E+03  0.48314182071E+03  0.89016449232E+02 0.  0.
    9000005    2    3    3    0    0  0.44050815202E+02 -0.47987417747E+01 -0.23589631607E+03  0.24009406284E+03  0.58808871010E+01 0.  0.
         22    1    3    3    0    0 -0.44050815202E+02  0.47987417747E+01 -0.23897428808E+03  0.24304775787E+03  0.00000000000E+00 0.  1.
         22    1    4    4    0    0  0.36391408301E+02 -0.17498095003E+01 -0.19525399113E+03  0.19862406069E+03  0.00000000000E+00 0.  1.
         22    1    4    4    0    0  0.76594069010E+01 -0.30489322744E+01 -0.40642324940E+02  0.41470002154E+02  0.00000000000E+00 0.  1.
<mgrwt>
<rscale>  0 0.89016449E+02</rscale>
<asrwt>0</asrwt>
<pdfrwt beam="2">  1        2 0.73693220E-01 0.89016449E+02</pdfrwt>
<pdfrwt beam="1">  1       -2 0.63624781E-03 0.89016449E+02</pdfrwt>
<totfact> 0.22638422E+05</totfact>
</mgrwt>
</event>
<event>
 7    1  0.3891761E-009  0.9025331E+02  0.7818608E-02  0.1302239E+00
         -2   -1    0    0    0  501 -0.00000000000E+00  0.00000000000E+00  0.19010523252E+02  0.19010523423E+02  0.25500000000E-02 0.  1.
          2   -1    0    0  501    0  0.00000000000E+00 -0.00000000000E+00 -0.10712040089E+03  0.10712040092E+03  0.25500000000E-02 0. -1.
         23    2    1    2    0    0 -0.35527136788E-14  0.00000000000E+00 -0.88109877643E+02  0.12613092435E+03  0.90253307632E+02 0.  0.
    9000005    2    3    3    0    0  0.23227164087E+02 -0.22352283509E+02 -0.18612896453E+01  0.34055169335E+02  0.10824251924E+02 0.  0.
         22    1    3    3    0    0 -0.23227164087E+02  0.22352283509E+02 -0.86248587997E+02  0.92075755013E+02  0.00000000000E+00 0. -1.
         22    1    4    4    0    0  0.47416934434E+01 -0.53430953112E+01  0.41009063744E+01  0.82370964124E+01  0.00000000000E+00 0.  1.
         22    1    4    4    0    0  0.18485470644E+02 -0.17009188197E+02 -0.59621960197E+01  0.25818072923E+02  0.00000000000E+00 0.  1.
<mgrwt>
<rscale>  0 0.90253308E+02</rscale>
<asrwt>0</asrwt>
<pdfrwt beam="2">  1        2 0.16480061E-01 0.90253308E+02</pdfrwt>
<pdfrwt beam="1">  1       -2 0.29246960E-02 0.90253308E+02</pdfrwt>
<totfact> 0.12884506E+05</totfact>
</mgrwt>
</event>
<event>
 7    1  0.3891761E-009  0.9272682E+02  0.7818608E-02  0.1296380E+00
         -2   -1    0    0    0  501 -0.00000000000E+00  0.00000000000E+00  0.82473795940E+01  0.82473799882E+01  0.25500000000E-02 0.  1.
          2   -1    0    0  501    0  0.00000000000E+00 -0.00000000000E+00 -0.26063620127E+03  0.26063620129E+03  0.25500000000E-02 0. -1.
         23    2    1    2    0    0  0.35527136788E-14 -0.88817841970E-15 -0.25238882168E+03  0.26888358128E+03  0.92726819045E+02 0.  0.
    9000005    2    3    3    0    0  0.28604282757E+02 -0.67132935735E+01 -0.23018737907E+03  0.23205726790E+03  0.10357609788E+01 0.  0.
         22    1    3    3    0    0 -0.28604282757E+02  0.67132935735E+01 -0.22201442611E+02  0.36826313373E+02  0.00000000000E+00 0.  1.
         22    1    4    4    0    0  0.17419759100E+01 -0.35481789079E+00 -0.12138807184E+02  0.12268293103E+02  0.00000000000E+00 0.  1.
         22    1    4    4    0    0  0.26862306847E+02 -0.63584756827E+01 -0.21804857189E+03  0.21978897480E+03  0.00000000000E+00 0.  1.
<mgrwt>
<rscale>  0 0.92726819E+02</rscale>
<asrwt>0</asrwt>
<pdfrwt beam="2">  1        2 0.40097871E-01 0.92726819E+02</pdfrwt>
<pdfrwt beam="1">  1       -2 0.12688279E-02 0.92726819E+02</pdfrwt>
<totfact> 0.16294687E+05</totfact>
</mgrwt>
</event>
<event>
 7    1  0.3891761E-009  0.8966009E+02  0.7818608E-02  0.1303677E+00
         -2   -1    0    0    0  501 -0.00000000000E+00  0.00000000000E+00  0.23054583572E+02  0.23054583713E+02  0.25500000000E-02 0. -1.
          2   -1    0    0  501    0  0.00000000000E+00 -0.00000000000E+00 -0.87172811034E+02  0.87172811071E+02  0.25500000000E-02 0.  1.
         23    2    1    2    0    0  0.71054273576E-14  0.00000000000E+00 -0.64118227462E+02  0.11022739478E+03  0.89660088491E+02 0.  0.
    9000005    2    3    3    0    0  0.39044658128E+02  0.13246711728E+02 -0.51684041940E+02  0.67162679884E+02  0.11816288673E+02 0.  0.
         22    1    3    3    0    0 -0.39044658128E+02 -0.13246711728E+02 -0.12434185522E+02  0.43064714901E+02  0.00000000000E+00 0.  1.
         22    1    4    4    0    0 -0.17894146838E+00 -0.10624885276E+01 -0.80279096917E+00  0.13436425345E+01  0.00000000000E+00 0. -1.
         22    1    4    4    0    0  0.39223599596E+02  0.14309200255E+02 -0.50881250971E+02  0.65819037349E+02  0.00000000000E+00 0. -1.
<mgrwt>
<rscale>  0 0.89660088E+02</rscale>
<asrwt>0</asrwt>
<pdfrwt beam="2">  1        2 0.13411201E-01 0.89660088E+02</pdfrwt>
<pdfrwt beam="1">  1       -2 0.35468591E-02 0.89660088E+02</pdfrwt>
<totfact> 0.12333261E+05</totfact>
</mgrwt>
</event>
<event>
 7    1  0.3891761E-009  0.8393289E+02  0.7818608E-02  0.1318247E+00
         -2   -1    0    0    0  501 -0.00000000000E+00  0.00000000000E+00  0.45482330529E+02  0.45482330601E+02  0.25500000000E-02 0.  1.
          2   -1    0    0  501    0  0.00000000000E+00 -0.00000000000E+00 -0.38722349609E+02  0.38722349693E+02  0.25500000000E-02 0. -1.
         23    2    1    2    0    0  0.55511151231E-16  0.00000000000E+00  0.67599809204E+01  0.84204680293E+02  0.83932894870E+02 0.  0.
    9000005    2    3    3    0    0 -0.19037016346E+00 -0.16795029204E+02  0.40802144443E+02  0.46244462379E+02  0.13842906587E+02 0.  0.
         22    1    3    3    0    0  0.19037016346E+00  0.16795029204E+02 -0.34042163523E+02  0.37960217914E+02  0.00000000000E+00 0. -1.
         22    1    4    4    0    0  0.63967954638E+00 -0.17183587891E+02  0.41609794564E+02  0.45022881809E+02  0.00000000000E+00 0.  1.
         22    1    4    4    0    0 -0.83004970984E+00  0.38855868608E+00 -0.80765012026E+00  0.12215805705E+01  0.00000000000E+00 0.  1.
<mgrwt>
<rscale>  0 0.83932895E+02</rscale>
<asrwt>0</asrwt>
<pdfrwt beam="2">  1        2 0.59572846E-02 0.83932895E+02</pdfrwt>
<pdfrwt beam="1">  1       -2 0.69972816E-02 0.83932895E+02</pdfrwt>
<totfact> 0.12001658E+05</totfact>
</mgrwt>
</event>
<event>
 7    1  0.3891761E-009  0.9177863E+02  0.7818608E-02  0.1298601E+00
         -2   -1    0    0    0  501 -0.00000000000E+00  0.00000000000E+00  0.89818610955E+02  0.89818610991E+02  0.25500000000E-02 0.  1.
          2   -1    0    0  501    0  0.00000000000E+00 -0.00000000000E+00 -0.23445356596E+02  0.23445356735E+02  0.25500000000E-02 0. -1.
         23    2    1    2    0    0  0.17763568394E-14  0.71054273576E-14  0.66373254359E+02  0.11326396773E+03  0.91778633084E+02 0.  0.
    9000005    2    3    3    0    0  0.10523796611E+02  0.35807626481E+02  0.66085678550E+02  0.75940796516E+02  0.25983180553E+01 0.  0.
         22    1    3    3    0    0 -0.10523796611E+02 -0.35807626481E+02  0.28757580889E+00  0.37323171210E+02  0.00000000000E+00 0. -1.
         22    1    4    4    0    0  0.80186035132E+01  0.27648279994E+02  0.48679573121E+02  0.56554630475E+02  0.00000000000E+00 0.  1.
         22    1    4    4    0    0  0.25051930975E+01  0.81593464875E+01  0.17406105428E+02  0.19386166040E+02  0.00000000000E+00 0.  1.
<mgrwt>
<rscale>  0 0.91778633E+02</rscale>
<asrwt>0</asrwt>
<pdfrwt beam="2">  1        2 0.36069779E-02 0.91778633E+02</pdfrwt>
<pdfrwt beam="1">  1       -2 0.13818248E-01 0.91778633E+02</pdfrwt>
<totfact> 0.81021389E+04</totfact>
</mgrwt>
</event>
<event>
 7    1  0.3891761E-009  0.1223478E+03  0.7818608E-02  0.1239273E+00
          2   -1    0    0  501    0  0.00000000000E+00  0.00000000000E+00  0.36565182742E+03  0.36565182743E+03  0.25500000000E-02 0. -1.
         -2   -1    0    0    0  501 -0.00000000000E+00 -0.00000000000E+00 -0.10234459322E+02  0.10234459639E+02  0.25500000000E-02 0.  1.
         23    2    1    2    0    0  0.00000000000E+00  0.00000000000E+00  0.35541736810E+03  0.37588628707E+03  0.12234784534E+03 0.  0.
    9000005    2    3    3    0    0 -0.22008689753E+02  0.54411655146E+02  0.12678842591E+03  0.13984348619E+03  0.59904127360E+01 0.  0.
         22    1    3    3    0    0  0.22008689753E+02 -0.54411655146E+02  0.22862894218E+03  0.23604280087E+03  0.00000000000E+00 0. -1.
         22    1    4    4    0    0 -0.60240697895E+01  0.20170980965E+02  0.50391221508E+02  0.54611657135E+02  0.00000000000E+00 0.  1.
         22    1    4    4    0    0 -0.15984619963E+02  0.34240674181E+02  0.76397204406E+02  0.85231829059E+02  0.00000000000E+00 0.  1.
<mgrwt>
<rscale>  0 0.12234785E+03</rscale>
<asrwt>0</asrwt>
<pdfrwt beam="1">  1        2 0.56254116E-01 0.12234785E+03</pdfrwt>
<pdfrwt beam="2">  1       -2 0.15745326E-02 0.12234785E+03</pdfrwt>
<totfact> 0.87291445E+04</totfact>
</mgrwt>
</event>
<event>
 7    1  0.3891761E-009  0.9269069E+02  0.7818608E-02  0.1296464E+00
          2   -1    0    0  501    0  0.00000000000E+00  0.00000000000E+00  0.53616307194E+02  0.53616307255E+02  0.25500000000E-02 0. -1.
         -2   -1    0    0    0  501 -0.00000000000E+00 -0.00000000000E+00 -0.40060407541E+02  0.40060407622E+02  0.25500000000E-02 0.  1.
         23    2    1    2    0    0  0.00000000000E+00  0.00000000000E+00  0.13555899653E+02  0.93676714877E+02  0.92690692600E+02 0.  0.
    9000005    2    3    3    0    0  0.12255532156E+02 -0.11592840176E+02  0.50027639152E+02  0.53492392140E+02  0.86069347607E+01 0.  0.
         22    1    3    3    0    0 -0.12255532156E+02  0.11592840176E+02 -0.36471739498E+02  0.40184322737E+02  0.00000000000E+00 0.  1.
         22    1    4    4    0    0  0.13404927061E+02 -0.10911042693E+02  0.43091032332E+02  0.46428224063E+02  0.00000000000E+00 0. -1.
         22    1    4    4    0    0 -0.11493949046E+01 -0.68179748273E+00  0.69366068193E+01  0.70641680770E+01  0.00000000000E+00 0. -1.
<mgrwt>
<rscale>  0 0.92690693E+02</rscale>
<asrwt>0</asrwt>
<pdfrwt beam="1">  1        2 0.82486626E-02 0.92690693E+02</pdfrwt>
<pdfrwt beam="2">  1       -2 0.61631397E-02 0.92690693E+02</pdfrwt>
<totfact> 0.98232206E+04</totfact>
</mgrwt>
</event>
<event>
 7    1  0.3891761E-009  0.9414961E+02  0.7818608E-02  0.1293103E+00
         -2   -1    0    0    0  501 -0.00000000000E+00  0.00000000000E+00  0.43929407931E+01  0.43929415332E+01  0.25500000000E-02 0.  1.
          2   -1    0    0  501    0  0.00000000000E+00 -0.00000000000E+00 -0.50445412480E+03  0.50445412481E+03  0.25500000000E-02 0. -1.
         23    2    1    2    0    0  0.00000000000E+00  0.00000000000E+00 -0.50006118401E+03  0.50884706634E+03  0.94149610579E+02 0.  0.
    9000005    2    3    3    0    0 -0.37427656376E+02 -0.43167740660E+01 -0.40087803981E+03  0.40274918656E+03  0.91782610557E+01 0.  0.
         22    1    3    3    0    0  0.37427656376E+02  0.43167740660E+01 -0.99183144202E+02  0.10609787978E+03  0.00000000000E+00 0.  1.
         22    1    4    4    0    0 -0.34206678493E+02 -0.14196711319E+01 -0.34087385144E+03  0.34258881318E+03  0.00000000000E+00 0.  1.
         22    1    4    4    0    0 -0.32209778833E+01 -0.28971029341E+01 -0.60004188363E+02  0.60160373378E+02  0.00000000000E+00 0.  1.
<mgrwt>
<rscale>  0 0.94149611E+02</rscale>
<asrwt>0</asrwt>
<pdfrwt beam="2">  1        2 0.77608281E-01 0.94149611E+02</pdfrwt>
<pdfrwt beam="1">  1       -2 0.67583750E-03 0.94149611E+02</pdfrwt>
<totfact> 0.19849022E+05</totfact>
</mgrwt>
</event>
<event>
 7    1  0.3891761E-009  0.9531071E+02  0.7818608E-02  0.1290478E+00
         -2   -1    0    0    0  501 -0.00000000000E+00  0.00000000000E+00  0.47026595289E+02  0.47026595359E+02  0.25500000000E-02 0.  1.
          2   -1    0    0  501    0  0.00000000000E+00 -0.00000000000E+00 -0.48292516772E+02  0.48292516839E+02  0.25500000000E-02 0. -1.
         23    2    1    2    0    0  0.88817841970E-15  0.00000000000E+00 -0.12659214825E+01  0.95319112198E+02  0.95310705553E+02 0.  0.
    9000005    2    3    3    0    0  0.72468312636E+01  0.39426371049E+02 -0.26336692762E+02  0.48038049709E+02  0.26603640235E+01 0.  0.
         22    1    3    3    0    0 -0.72468312636E+01 -0.39426371049E+02  0.25070771280E+02  0.47281062489E+02  0.00000000000E+00 0. -1.
         22    1    4    4    0    0  0.68628106155E+01  0.31527520162E+02 -0.21288988647E+02  0.38656225045E+02  0.00000000000E+00 0. -1.
         22    1    4    4    0    0  0.38402064813E+00  0.78988508876E+01 -0.50477041152E+01  0.93818246646E+01  0.00000000000E+00 0. -1.
<mgrwt>
<rscale>  0 0.95310706E+02</rscale>
<asrwt>0</asrwt>
<pdfrwt beam="2">  1        2 0.74296180E-02 0.95310706E+02</pdfrwt>
<pdfrwt beam="1">  1       -2 0.72348608E-02 0.95310706E+02</pdfrwt>
<totfact> 0.88180016E+04</totfact>
</mgrwt>
</event>
<event>
 7    1  0.3891761E-009  0.9034090E+02  0.7818608E-02  0.1302028E+00
         -2   -1    0    0    0  501 -0.00000000000E+00  0.00000000000E+00  0.86106723424E+02  0.86106723462E+02  0.25500000000E-02 0.  1.
          2   -1    0    0  501    0  0.00000000000E+00 -0.00000000000E+00 -0.23695820355E+02  0.23695820492E+02  0.25500000000E-02 0. -1.
         23    2    1    2    0    0  0.35527136788E-14 -0.17763568394E-14  0.62410903069E+02  0.10980254395E+03  0.90340897919E+02 0.  0.
    9000005    2    3    3    0    0 -0.29537933484E+02  0.13761830942E+02 -0.68041483554E+01  0.33300250857E+02  0.85601803758E+00 0.  0.
         22    1    3    3    0    0  0.29537933484E+02 -0.13761830942E+02  0.69215051425E+02  0.76502293097E+02  0.00000000000E+00 0.  1.
         22    1    4    4    0    0 -0.17233470775E+02  0.84147711105E+01 -0.42435434485E+01  0.19642009795E+02  0.00000000000E+00 0.  1.
         22    1    4    4    0    0 -0.12304462709E+02  0.53470598313E+01 -0.25606049069E+01  0.13658241061E+02  0.00000000000E+00 0.  1.
<mgrwt>
<rscale>  0 0.90340898E+02</rscale>
<asrwt>0</asrwt>
<pdfrwt beam="2">  1        2 0.36455108E-02 0.90340898E+02</pdfrwt>
<pdfrwt beam="1">  1       -2 0.13247188E-01 0.90340898E+02</pdfrwt>
<totfact> 0.85263279E+04</totfact>
</mgrwt>
</event>
<event>
 7    1  0.3891761E-009  0.9082722E+02  0.7818608E-02  0.1300861E+00
         -2   -1    0    0    0  501 -0.00000000000E+00  0.00000000000E+00  0.94554083263E+01  0.94554086702E+01  0.25500000000E-02 0.  1.
          2   -1    0    0  501    0  0.00000000000E+00 -0.00000000000E+00 -0.21811814315E+03  0.21811814317E+03  0.25500000000E-02 0. -1.
         23    2    1    2    0    0  0.00000000000E+00  0.00000000000E+00 -0.20866273483E+03  0.22757355184E+03  0.90827223842E+02 0.  0.
    9000005    2    3    3    0    0  0.25412058923E+01  0.45205636335E+02 -0.11004783711E+03  0.11906131596E+03  0.38811366205E+01 0.  0.
         22    1    3    3    0    0 -0.25412058923E+01 -0.45205636335E+02 -0.98614897719E+02  0.10851223588E+03  0.00000000000E+00 0.  1.
         22    1    4    4    0    0 -0.10213244861E+00  0.25964994505E+02 -0.60001269409E+02  0.65378465120E+02  0.00000000000E+00 0. -1.
         22    1    4    4    0    0  0.26433383409E+01  0.19240641829E+02 -0.50046567699E+02  0.53682850837E+02  0.00000000000E+00 0. -1.
<mgrwt>
<rscale>  0 0.90827224E+02</rscale>
<asrwt>0</asrwt>
<pdfrwt beam="2">  1        2 0.33556634E-01 0.90827224E+02</pdfrwt>
<pdfrwt beam="1">  1       -2 0.14546784E-02 0.90827224E+02</pdfrwt>
<totfact> 0.16129318E+05</totfact>
</mgrwt>
</event>
<event>
 7    1  0.3891761E-009  0.9287921E+02  0.7818608E-02  0.1296025E+00
          2   -1    0    0  501    0  0.00000000000E+00  0.00000000000E+00  0.27597255572E+02  0.27597255690E+02  0.25500000000E-02 0. -1.
         -2   -1    0    0    0  501 -0.00000000000E+00 -0.00000000000E+00 -0.78146783790E+02  0.78146783831E+02  0.25500000000E-02 0.  1.
         23    2    1    2    0    0 -0.35527136788E-14  0.00000000000E+00 -0.50549528217E+02  0.10574403952E+03  0.92879206991E+02 0.  0.
    9000005    2    3    3    0    0  0.12968469633E+02  0.24565089872E+02  0.14979438598E+02  0.34570516797E+02  0.14110712451E+02 0.  0.
         22    1    3    3    0    0 -0.12968469633E+02 -0.24565089872E+02 -0.65528966815E+02  0.71173522724E+02  0.00000000000E+00 0.  1.
         22    1    4    4    0    0  0.99946192170E+00  0.14830325484E+01  0.72177286364E+01  0.74359879196E+01  0.00000000000E+00 0. -1.
         22    1    4    4    0    0  0.11969007711E+02  0.23082057324E+02  0.77617099618E+01  0.27134528878E+02  0.00000000000E+00 0. -1.
<mgrwt>
<rscale>  0 0.92879207E+02</rscale>
<asrwt>0</asrwt>
<pdfrwt beam="1">  1        2 0.42457317E-02 0.92879207E+02</pdfrwt>
<pdfrwt beam="2">  1       -2 0.12022582E-01 0.92879207E+02</pdfrwt>
<totfact> 0.81827983E+04</totfact>
</mgrwt>
</event>
<event>
 7    1  0.3891761E-009  0.9132023E+02  0.7818608E-02  0.1299686E+00
         -2   -1    0    0    0  501 -0.00000000000E+00  0.00000000000E+00  0.59734738163E+01  0.59734743606E+01  0.25500000000E-02 0.  1.
          2   -1    0    0  501    0  0.00000000000E+00 -0.00000000000E+00 -0.34901737610E+03  0.34901737611E+03  0.25500000000E-02 0. -1.
         23    2    1    2    0    0  0.00000000000E+00 -0.71054273576E-14 -0.34304390228E+03  0.35499085047E+03  0.91320233373E+02 0.  0.
    9000005    2    3    3    0    0  0.18146497227E+02 -0.33175371949E+02 -0.26828705273E+03  0.27121443839E+03  0.12224085398E+02 0.  0.
         22    1    3    3    0    0 -0.18146497227E+02  0.33175371949E+02 -0.74756849554E+02  0.83776412079E+02  0.00000000000E+00 0.  1.
         22    1    4    4    0    0  0.14051439950E+02 -0.28932900030E+02 -0.18978972313E+03  0.19249596015E+03  0.00000000000E+00 0. -1.
         22    1    4    4    0    0  0.40950572766E+01 -0.42424719188E+01 -0.78497329604E+02  0.78718478244E+02  0.00000000000E+00 0. -1.
<mgrwt>
<rscale>  0 0.91320233E+02</rscale>
<asrwt>0</asrwt>
<pdfrwt beam="2">  1        2 0.53694965E-01 0.91320233E+02</pdfrwt>
<pdfrwt beam="1">  1       -2 0.91899629E-03 0.91320233E+02</pdfrwt>
<totfact> 0.18920788E+05</totfact>
</mgrwt>
</event>
<event>
 7    1  0.3891761E-009  0.9326201E+02  0.7818608E-02  0.1295139E+00
          2   -1    0    0  501    0  0.00000000000E+00  0.00000000000E+00  0.86240830276E+03  0.86240830277E+03  0.25500000000E-02 0. -1.
         -2   -1    0    0    0  501 -0.00000000000E+00 -0.00000000000E+00 -0.25213693603E+01  0.25213706498E+01  0.25500000000E-02 0.  1.
         23    2    1    2    0    0  0.00000000000E+00  0.00000000000E+00  0.85988693340E+03  0.86492967342E+03  0.93262005768E+02 0.  0.
    9000005    2    3    3    0    0  0.65822199256E+01  0.16840550911E+02  0.82786891760E+03  0.82815899067E+03  0.12387062419E+02 0.  0.
         22    1    3    3    0    0 -0.65822199256E+01 -0.16840550911E+02  0.32018015800E+02  0.36770682750E+02  0.00000000000E+00 0.  1.
         22    1    4    4    0    0  0.52252625465E+01  0.11192181004E+02  0.73756635926E+03  0.73766977883E+03  0.00000000000E+00 0. -1.
         22    1    4    4    0    0  0.13569573791E+01  0.56483699071E+01  0.90302558341E+02  0.90489211837E+02  0.00000000000E+00 0. -1.
<mgrwt>
<rscale>  0 0.93262006E+02</rscale>
<asrwt>0</asrwt>
<pdfrwt beam="1">  1        2 0.13267832E+00 0.93262006E+02</pdfrwt>
<pdfrwt beam="2">  1       -2 0.38790274E-03 0.93262006E+02</pdfrwt>
<totfact> 0.23234627E+05</totfact>
</mgrwt>
</event>
<event>
 7    1  0.3891761E-009  0.9197946E+02  0.7818608E-02  0.1298128E+00
         -2   -1    0    0    0  501 -0.00000000000E+00  0.00000000000E+00  0.85307412166E+02  0.85307412204E+02  0.25500000000E-02 0.  1.
          2   -1    0    0  501    0  0.00000000000E+00 -0.00000000000E+00 -0.24793336025E+02  0.24793336156E+02  0.25500000000E-02 0. -1.
         23    2    1    2    0    0  0.00000000000E+00  0.00000000000E+00  0.60514076141E+02  0.11010074836E+03  0.91979461721E+02 0.  0.
    9000005    2    3    3    0    0 -0.36163961293E+02 -0.90148854214E+01 -0.81297710807E+00  0.38336497401E+02  0.89401255939E+01 0.  0.
         22    1    3    3    0    0  0.36163961293E+02  0.90148854214E+01  0.61327053249E+02  0.71764250960E+02  0.00000000000E+00 0. -1.
         22    1    4    4    0    0 -0.10054164725E+02 -0.58555343529E+01 -0.27808935666E+01  0.11962728782E+02  0.00000000000E+00 0.  1.
         22    1    4    4    0    0 -0.26109796568E+02 -0.31593510685E+01  0.19679164585E+01  0.26373768620E+02  0.00000000000E+00 0.  1.
<mgrwt>
<rscale>  0 0.91979462E+02</rscale>
<asrwt>0</asrwt>
<pdfrwt beam="2">  1        2 0.38143594E-02 0.91979462E+02</pdfrwt>
<pdfrwt beam="1">  1       -2 0.13124217E-01 0.91979462E+02</pdfrwt>
<totfact> 0.81779254E+04</totfact>
</mgrwt>
</event>
<event>
 7    1  0.3891761E-009  0.9315447E+02  0.7818608E-02  0.1295388E+00
          2   -1    0    0  501    0  0.00000000000E+00  0.00000000000E+00  0.37680670810E+02  0.37680670896E+02  0.25500000000E-02 0. -1.
         -2   -1    0    0    0  501 -0.00000000000E+00 -0.00000000000E+00 -0.57574319758E+02  0.57574319814E+02  0.25500000000E-02 0.  1.
         23    2    1    2    0    0  0.00000000000E+00 -0.35527136788E-14 -0.19893648948E+02  0.95254990710E+02  0.93154473788E+02 0.  0.
    9000005    2    3    3    0    0 -0.34779573752E+02  0.20398871920E+02  0.11766954883E+02  0.43989733850E+02  0.13072977129E+02 0.  0.
         22    1    3    3    0    0  0.34779573752E+02 -0.20398871920E+02 -0.31660603831E+02  0.51265256860E+02  0.00000000000E+00 0.  1.
         22    1    4    4    0    0 -0.35522723550E+02  0.20790492935E+02  0.10513927146E+02  0.42481185823E+02  0.00000000000E+00 0. -1.
         22    1    4    4    0    0  0.74314979775E+00 -0.39162101499E+00  0.12530277371E+01  0.15085480275E+01  0.00000000000E+00 0. -1.
<mgrwt>
<rscale>  0 0.93154474E+02</rscale>
<asrwt>0</asrwt>
<pdfrwt beam="1">  1        2 0.57970263E-02 0.93154474E+02</pdfrwt>
<pdfrwt beam="2">  1       -2 0.88575876E-02 0.93154474E+02</pdfrwt>
<totfact> 0.88219967E+04</totfact>
</mgrwt>
</event>
<event>
 7    1  0.3891761E-009  0.8997727E+02  0.7818608E-02  0.1302907E+00
         -2   -1    0    0    0  501 -0.00000000000E+00  0.00000000000E+00  0.30268276525E+01  0.30268287266E+01  0.25500000000E-02 0.  1.
          2   -1    0    0  501    0  0.00000000000E+00 -0.00000000000E+00 -0.66867922804E+03  0.66867922805E+03  0.25500000000E-02 0. -1.
         23    2    1    2    0    0 -0.44408920985E-15  0.00000000000E+00 -0.66565240039E+03  0.67170605677E+03  0.89977266917E+02 0.  0.
    9000005    2    3    3    0    0 -0.18145446410E+01 -0.12347960992E+02 -0.65530502696E+03  0.65549393632E+03  0.95842302846E+01 0.  0.
         22    1    3    3    0    0  0.18145446410E+01  0.12347960992E+02 -0.10347373425E+02  0.16212120456E+02  0.00000000000E+00 0.  1.
         22    1    4    4    0    0 -0.41157937830E+01 -0.41355513821E+01 -0.40834942827E+03  0.40839110925E+03  0.00000000000E+00 0. -1.
         22    1    4    4    0    0  0.23012491420E+01 -0.82124096095E+01 -0.24695559869E+03  0.24710282707E+03  0.00000000000E+00 0. -1.
<mgrwt>
<rscale>  0 0.89977267E+02</rscale>
<asrwt>0</asrwt>
<pdfrwt beam="2">  1        2 0.10287361E+00 0.89977267E+02</pdfrwt>
<pdfrwt beam="1">  1       -2 0.46566641E-03 0.89977267E+02</pdfrwt>
<totfact> 0.24287195E+05</totfact>
</mgrwt>
</event>
<event>
 6    1  0.5095304E-009  0.2600686E+03  0.7818608E-02  0.1107102E+00
          2   -1    0    0  501    0  0.00000000000E+00  0.00000000000E+00  0.49448773568E+03  0.49448773569E+03  0.25500000000E-02 0. -1.
         -2   -1    0    0    0  501 -0.00000000000E+00 -0.00000000000E+00 -0.34194815781E+02  0.34194815876E+02  0.25500000000E-02 0.  1.
    9000005    2    1    2    0    0  0.12642848732E+03 -0.14230127578E+02  0.17999507377E+03  0.22086191957E+03  0.13967891698E+02 0.  0.
         22    1    1    2    0    0 -0.12642848732E+03  0.14230127578E+02  0.28029784613E+03  0.30782063199E+03  0.00000000000E+00 0.  1.
         22    1    3    3    0    0  0.73303420921E+01  0.17833608529E+01  0.75248372022E+01  0.10655396100E+02  0.00000000000E+00 0. -1.
         22    1    3    3    0    0  0.11909814522E+03 -0.16013488431E+02  0.17247023656E+03  0.21020652347E+03  0.00000000000E+00 0. -1.
<mgrwt>
<rscale>  0 0.26006858E+03</rscale>
<asrwt>0</asrwt>
<pdfrwt beam="1">  1        2 0.76075037E-01 0.26006858E+03</pdfrwt>
<pdfrwt beam="2">  1       -2 0.52607408E-02 0.26006858E+03</pdfrwt>
<totfact> 0.11315728E+04</totfact>
</mgrwt>
</event>
<event>
 6    1  0.3970725E-009  0.3024356E+03  0.7818608E-02  0.1084029E+00
          2   -1    0    0  501    0  0.00000000000E+00  0.00000000000E+00  0.23046612366E+03  0.23046612368E+03  0.25500000000E-02 0. -1.
         -2   -1    0    0    0  501 -0.00000000000E+00 -0.00000000000E+00 -0.99219898040E+02  0.99219898073E+02  0.25500000000E-02 0.  1.
    9000005    2    1    2    0    0 -0.11304507408E+03  0.27029394816E+00  0.17476225698E+03  0.20855424715E+03  0.13182022130E+02 0.  0.
         22    1    1    2    0    0  0.11304507408E+03 -0.27029394816E+00 -0.43516031359E+02  0.12113177460E+03  0.00000000000E+00 0.  1.
         22    1    3    3    0    0 -0.18114868752E+00  0.87058843390E+00  0.86351955347E+00  0.12395180868E+01  0.00000000000E+00 0. -1.
         22    1    3    3    0    0 -0.11286392539E+03 -0.60029448574E+00  0.17389873743E+03  0.20731472906E+03  0.00000000000E+00 0. -1.
<mgrwt>
<rscale>  0 0.30243561E+03</rscale>
<asrwt>0</asrwt>
<pdfrwt beam="1">  1        2 0.35456327E-01 0.30243561E+03</pdfrwt>
<pdfrwt beam="2">  1       -2 0.15264600E-01 0.30243561E+03</pdfrwt>
<totfact> 0.48373255E+03</totfact>
</mgrwt>
</event>
