<event>
 7    1  0.2911475E-009  0.9112980E+02  0.7818608E-02  0.1300139E+00
          1   -1    0    0  501    0  0.00000000000E+00  0.00000000000E+00  0.44073137755E+02  0.44073138043E+02  0.50400000000E-02 0. -1.
         -1   -1    0    0    0  501 -0.00000000000E+00 -0.00000000000E+00 -0.47107154278E+02  0.47107154547E+02  0.50400000000E-02 0.  1.
         23    2    1    2    0    0  0.00000000000E+00  0.00000000000E+00 -0.30340165232E+01  0.91180292590E+02  0.91129800288E+02 0.  0.
    9000005    2    3    3    0    0  0.37151885004E+02 -0.25323055719E+02  0.40882598066E+01  0.45658357983E+02  0.68155759252E+01 0.  0.
         22    1    3    3    0    0 -0.37151885004E+02  0.25323055719E+02 -0.71222763298E+01  0.45521934607E+02  0.00000000000E+00 0. -1.
         22    1    4    4    0    0  0.20235546691E+02 -0.12033903120E+02  0.52255855697E+01  0.24116362055E+02  0.00000000000E+00 0.  1.
         22    1    4    4    0    0  0.16916338312E+02 -0.13289152599E+02 -0.11373257631E+01  0.21541995928E+02  0.00000000000E+00 0.  1.
<mgrwt>
<rscale>  0 0.91129800E+02</rscale>
<asrwt>0</asrwt>
<pdfrwt beam="1">  1        1 0.67804828E-02 0.91129800E+02</pdfrwt>
<pdfrwt beam="2">  1       -1 0.72472546E-02 0.91129800E+02</pdfrwt>
<totfact> 0.92136781E+04</totfact>
</mgrwt>
</event>
<event>
 7    1  0.2911475E-009  0.9052059E+02  0.7818608E-02  0.1301596E+00
          1   -1    0    0  501    0  0.00000000000E+00  0.00000000000E+00  0.29409664304E+01  0.29409707490E+01  0.50400000000E-02 0. -1.
         -1   -1    0    0    0  501 -0.00000000000E+00 -0.00000000000E+00 -0.69653727409E+03  0.69653727410E+03  0.50400000000E-02 0.  1.
         23    2    1    2    0    0  0.35527136788E-14 -0.35527136788E-14 -0.69359630766E+03  0.69947824485E+03  0.90520588981E+02 0.  0.
    9000005    2    3    3    0    0 -0.23474207434E+02  0.31592543142E+02 -0.51228076129E+03  0.51393996160E+03  0.12392681309E+02 0.  0.
         22    1    3    3    0    0  0.23474207434E+02 -0.31592543142E+02 -0.18131554637E+03  0.18553828325E+03  0.00000000000E+00 0. -1.
         22    1    4    4    0    0 -0.44431718059E+00 -0.44713277022E+00 -0.13729696759E+01  0.15107584857E+01  0.00000000000E+00 0.  1.
         22    1    4    4    0    0 -0.23029890253E+02  0.32039675912E+02 -0.51090779161E+03  0.51242920312E+03  0.00000000000E+00 0.  1.
<mgrwt>
<rscale>  0 0.90520589E+02</rscale>
<asrwt>0</asrwt>
<pdfrwt beam="1">  1        1 0.45245726E-03 0.90520589E+02</pdfrwt>
<pdfrwt beam="2">  1       -1 0.10715945E+00 0.90520589E+02</pdfrwt>
<totfact> 0.37709601E+04</totfact>
</mgrwt>
</event>
<event>
 7    1  0.2911475E-009  0.8916159E+02  0.7818608E-02  0.1304895E+00
         -1   -1    0    0    0  501 -0.00000000000E+00  0.00000000000E+00  0.10523371185E+02  0.10523372392E+02  0.50400000000E-02 0.  1.
          1   -1    0    0  501    0  0.00000000000E+00 -0.00000000000E+00 -0.18886029164E+03  0.18886029171E+03  0.50400000000E-02 0. -1.
         23    2    1    2    0    0  0.00000000000E+00  0.35527136788E-14 -0.17833692046E+03  0.19938366410E+03  0.89161585408E+02 0.  0.
    9000005    2    3    3    0    0  0.15829912976E+02  0.30065001951E+02 -0.31502061486E+02  0.48668813154E+02  0.14892380898E+02 0.  0.
         22    1    3    3    0    0 -0.15829912976E+02 -0.30065001951E+02 -0.14683485897E+03  0.15071485095E+03  0.00000000000E+00 0. -1.
         22    1    4    4    0    0  0.26596716870E+01  0.19890322941E+02 -0.13694119471E+02  0.24294602451E+02  0.00000000000E+00 0. -1.
         22    1    4    4    0    0  0.13170241289E+02  0.10174679010E+02 -0.17807942015E+02  0.24374210703E+02  0.00000000000E+00 0. -1.
<mgrwt>
<rscale>  0 0.89161585E+02</rscale>
<asrwt>0</asrwt>
<pdfrwt beam="2">  1        1 0.29055427E-01 0.89161585E+02</pdfrwt>
<pdfrwt beam="1">  1       -1 0.16189804E-02 0.89161585E+02</pdfrwt>
<totfact> 0.12432891E+05</totfact>
</mgrwt>
</event>
<event>
 7    1  0.2911475E-009  0.9143500E+02  0.7818608E-02  0.1299413E+00
         -1   -1    0    0    0  501 -0.00000000000E+00  0.00000000000E+00  0.16438998251E+02  0.16438999024E+02  0.50400000000E-02 0.  1.
          1   -1    0    0  501    0  0.00000000000E+00 -0.00000000000E+00 -0.12714216413E+03  0.12714216423E+03  0.50400000000E-02 0. -1.
         23    2    1    2    0    0  0.00000000000E+00  0.00000000000E+00 -0.11070316588E+03  0.14358116326E+03  0.91435001536E+02 0.  0.
    9000005    2    3    3    0    0  0.11194688680E+02  0.96401469279E+01 -0.12299083253E+03  0.12436553839E+03  0.11035794723E+02 0.  0.
         22    1    3    3    0    0 -0.11194688680E+02 -0.96401469279E+01  0.12287666647E+02  0.19215624868E+02  0.00000000000E+00 0.  1.
         22    1    4    4    0    0  0.11654730906E+02  0.57514175940E+01 -0.67699987708E+02  0.68936201610E+02  0.00000000000E+00 0.  1.
         22    1    4    4    0    0 -0.46004222545E+00  0.38887293339E+01 -0.55290844821E+02  0.55429336779E+02  0.00000000000E+00 0.  1.
<mgrwt>
<rscale>  0 0.91435002E+02</rscale>
<asrwt>0</asrwt>
<pdfrwt beam="2">  1        1 0.19560332E-01 0.91435002E+02</pdfrwt>
<pdfrwt beam="1">  1       -1 0.25290768E-02 0.91435002E+02</pdfrwt>
<totfact> 0.10800608E+05</totfact>
</mgrwt>
</event>
<event>
 7    1  0.2911475E-009  0.8569194E+02  0.7818608E-02  0.1313633E+00
          1   -1    0    0  501    0  0.00000000000E+00  0.00000000000E+00  0.14058193189E+03  0.14058193198E+03  0.50400000000E-02 0. -1.
         -1   -1    0    0    0  501 -0.00000000000E+00 -0.00000000000E+00 -0.13058412905E+02  0.13058413878E+02  0.50400000000E-02 0.  1.
         23    2    1    2    0    0  0.00000000000E+00  0.00000000000E+00  0.12752351899E+03  0.15364034586E+03  0.85691936501E+02 0.  0.
    9000005    2    3    3    0    0  0.19166787157E+02 -0.81841960646E+01  0.13039087939E+03  0.13260303256E+03  0.12142323523E+02 0.  0.
         22    1    3    3    0    0 -0.19166787157E+02  0.81841960646E+01 -0.28673604060E+01  0.21037313299E+02  0.00000000000E+00 0.  1.
         22    1    4    4    0    0  0.16919892401E+02 -0.81784700724E+01  0.80616212630E+02  0.82777677367E+02  0.00000000000E+00 0.  1.
         22    1    4    4    0    0  0.22468947555E+01 -0.57259921752E-02  0.49774666764E+02  0.49825355195E+02  0.00000000000E+00 0.  1.
<mgrwt>
<rscale>  0 0.85691937E+02</rscale>
<asrwt>0</asrwt>
<pdfrwt beam="1">  1        1 0.21627988E-01 0.85691937E+02</pdfrwt>
<pdfrwt beam="2">  1       -1 0.20089868E-02 0.85691937E+02</pdfrwt>
<totfact> 0.13093984E+05</totfact>
</mgrwt>
</event>
<event>
 7    1  0.2911475E-009  0.9113213E+02  0.7818608E-02  0.1300133E+00
         -1   -1    0    0    0  501 -0.00000000000E+00  0.00000000000E+00  0.37192733112E+01  0.37192767260E+01  0.50400000000E-02 0.  1.
          1   -1    0    0  501    0  0.00000000000E+00 -0.00000000000E+00 -0.55824491600E+03  0.55824491602E+03  0.50400000000E-02 0. -1.
         23    2    1    2    0    0  0.00000000000E+00  0.00000000000E+00 -0.55452564268E+03  0.56196419274E+03  0.91132132271E+02 0.  0.
    9000005    2    3    3    0    0  0.40292746682E+02  0.18050081042E+02 -0.34192105199E+03  0.34482363264E+03  0.66348299148E+01 0.  0.
         22    1    3    3    0    0 -0.40292746682E+02 -0.18050081042E+02 -0.21260459069E+03  0.21714056011E+03  0.00000000000E+00 0.  1.
         22    1    4    4    0    0  0.28818452892E+02  0.10070121487E+02 -0.22132074264E+03  0.22341616257E+03  0.00000000000E+00 0. -1.
         22    1    4    4    0    0  0.11474293790E+02  0.79799595546E+01 -0.12060030935E+03  0.12140747007E+03  0.00000000000E+00 0. -1.
<mgrwt>
<rscale>  0 0.91132132E+02</rscale>
<asrwt>0</asrwt>
<pdfrwt beam="2">  1        1 0.85883767E-01 0.91132132E+02</pdfrwt>
<pdfrwt beam="1">  1       -1 0.57219660E-03 0.91132132E+02</pdfrwt>
<totfact> 0.14102773E+05</totfact>
</mgrwt>
</event>
<event>
 7    1  0.2911475E-009  0.9249989E+02  0.7818608E-02  0.1296908E+00
          1   -1    0    0  501    0  0.00000000000E+00  0.00000000000E+00  0.11787942278E+02  0.11787943355E+02  0.50400000000E-02 0. -1.
         -1   -1    0    0    0  501 -0.00000000000E+00 -0.00000000000E+00 -0.18146147967E+03  0.18146147974E+03  0.50400000000E-02 0.  1.
         23    2    1    2    0    0  0.00000000000E+00  0.00000000000E+00 -0.16967353739E+03  0.19324942309E+03  0.92499893165E+02 0.  0.
    9000005    2    3    3    0    0 -0.15632210765E+02  0.28034746864E+02 -0.16534045325E+02  0.36782119560E+02  0.70168810296E+01 0.  0.
         22    1    3    3    0    0  0.15632210765E+02 -0.28034746864E+02 -0.15313949207E+03  0.15646730353E+03  0.00000000000E+00 0.  1.
         22    1    4    4    0    0 -0.94354152677E+01  0.11164041020E+02 -0.51041390563E+01  0.15482735827E+02  0.00000000000E+00 0.  1.
         22    1    4    4    0    0 -0.61967954975E+01  0.16870705844E+02 -0.11429906269E+02  0.21299383733E+02  0.00000000000E+00 0.  1.
<mgrwt>
<rscale>  0 0.92499893E+02</rscale>
<asrwt>0</asrwt>
<pdfrwt beam="1">  1        1 0.18135298E-02 0.92499893E+02</pdfrwt>
<pdfrwt beam="2">  1       -1 0.27917149E-01 0.92499893E+02</pdfrwt>
<totfact> 0.68688353E+04</totfact>
</mgrwt>
</event>
<event>
 7    1  0.2911475E-009  0.9192897E+02  0.7818608E-02  0.1298247E+00
          1   -1    0    0  501    0  0.00000000000E+00  0.00000000000E+00  0.12324056541E+03  0.12324056552E+03  0.50400000000E-02 0. -1.
         -1   -1    0    0    0  501 -0.00000000000E+00 -0.00000000000E+00 -0.17143170252E+02  0.17143170993E+02  0.50400000000E-02 0.  1.
         23    2    1    2    0    0  0.55511151231E-16  0.00000000000E+00  0.10609739516E+03  0.14038373651E+03  0.91928973758E+02 0.  0.
    9000005    2    3    3    0    0 -0.43084220986E+00 -0.44944185094E+02  0.43234329687E+02  0.63105470486E+02  0.96399036790E+01 0.  0.
         22    1    3    3    0    0  0.43084220986E+00  0.44944185094E+02  0.62863065473E+02  0.77278266022E+02  0.00000000000E+00 0. -1.
         22    1    4    4    0    0 -0.39994482528E+01 -0.36058780883E+02  0.35946005399E+02  0.51071974401E+02  0.00000000000E+00 0.  1.
         22    1    4    4    0    0  0.35686060429E+01 -0.88854042112E+01  0.72883242877E+01  0.12033496084E+02  0.00000000000E+00 0.  1.
<mgrwt>
<rscale>  0 0.91928974E+02</rscale>
<asrwt>0</asrwt>
<pdfrwt beam="1">  1        1 0.18960087E-01 0.91928974E+02</pdfrwt>
<pdfrwt beam="2">  1       -1 0.26374108E-02 0.91928974E+02</pdfrwt>
<totfact> 0.10585437E+05</totfact>
</mgrwt>
</event>
<event>
 7    1  0.2911475E-009  0.9245113E+02  0.7818608E-02  0.1297022E+00
         -1   -1    0    0    0  501 -0.00000000000E+00  0.00000000000E+00  0.11510252792E+03  0.11510252803E+03  0.50400000000E-02 0.  1.
          1   -1    0    0  501    0  0.00000000000E+00 -0.00000000000E+00 -0.18564341262E+02  0.18564341946E+02  0.50400000000E-02 0. -1.
         23    2    1    2    0    0  0.00000000000E+00  0.00000000000E+00  0.96538186655E+02  0.13366686997E+03  0.92451125714E+02 0.  0.
    9000005    2    3    3    0    0 -0.10038211477E+02  0.27555291590E+02  0.99918011859E+02  0.10414597902E+03  0.16480497790E+01 0.  0.
         22    1    3    3    0    0  0.10038211477E+02 -0.27555291590E+02 -0.33798252033E+01  0.29520890953E+02  0.00000000000E+00 0. -1.
         22    1    4    4    0    0 -0.44735349136E+01  0.13500809948E+02  0.45924727791E+02  0.48076657606E+02  0.00000000000E+00 0. -1.
         22    1    4    4    0    0 -0.55646765639E+01  0.14054481642E+02  0.53993284068E+02  0.56069321415E+02  0.00000000000E+00 0. -1.
<mgrwt>
<rscale>  0 0.92451126E+02</rscale>
<asrwt>0</asrwt>
<pdfrwt beam="2">  1        1 0.28560526E-02 0.92451126E+02</pdfrwt>
<pdfrwt beam="1">  1       -1 0.17708081E-01 0.92451126E+02</pdfrwt>
<totfact> 0.76402821E+04</totfact>
</mgrwt>
</event>
<event>
 7    1  0.2911475E-009  0.9488485E+02  0.7818608E-02  0.1291436E+00
          1   -1    0    0  501    0  0.00000000000E+00  0.00000000000E+00  0.41524092673E+03  0.41524092676E+03  0.50400000000E-02 0. -1.
         -1   -1    0    0    0  501 -0.00000000000E+00 -0.00000000000E+00 -0.54204274026E+01  0.54204297457E+01  0.50400000000E-02 0.  1.
         23    2    1    2    0    0  0.00000000000E+00 -0.35527136788E-14  0.40982049933E+03  0.42066135651E+03  0.94884852262E+02 0.  0.
    9000005    2    3    3    0    0 -0.33476788209E+02  0.24423598281E+02  0.30069081956E+03  0.30392877961E+03  0.15508920284E+02 0.  0.
         22    1    3    3    0    0  0.33476788209E+02 -0.24423598281E+02  0.10912967977E+03  0.11673257689E+03  0.00000000000E+00 0.  1.
         22    1    4    4    0    0 -0.14772122276E+01  0.71942125706E+01  0.34869930167E+02  0.35634967102E+02  0.00000000000E+00 0. -1.
         22    1    4    4    0    0 -0.31999575981E+02  0.17229385710E+02  0.26582088939E+03  0.26829381251E+03  0.00000000000E+00 0. -1.
<mgrwt>
<rscale>  0 0.94884852E+02</rscale>
<asrwt>0</asrwt>
<pdfrwt beam="1">  1        1 0.63883251E-01 0.94884852E+02</pdfrwt>
<pdfrwt beam="2">  1       -1 0.83391168E-03 0.94884852E+02</pdfrwt>
<totfact> 0.12204862E+05</totfact>
</mgrwt>
</event>
<event>
 7    1  0.2911475E-009  0.9034501E+02  0.7818608E-02  0.1302018E+00
          1   -1    0    0  501    0  0.00000000000E+00  0.00000000000E+00  0.90649574330E+01  0.90649588340E+01  0.50400000000E-02 0. -1.
         -1   -1    0    0    0  501 -0.00000000000E+00 -0.00000000000E+00 -0.22510365400E+03  0.22510365406E+03  0.50400000000E-02 0.  1.
         23    2    1    2    0    0  0.00000000000E+00  0.35527136788E-14 -0.21603869657E+03  0.23416861289E+03  0.90345010093E+02 0.  0.
    9000005    2    3    3    0    0 -0.36210647359E+02  0.26310774177E+02 -0.12190564041E+03  0.12993570023E+03  0.43397247515E+01 0.  0.
         22    1    3    3    0    0  0.36210647359E+02 -0.26310774177E+02 -0.94133056160E+02  0.10423291266E+03  0.00000000000E+00 0. -1.
         22    1    4    4    0    0 -0.30764861779E+02  0.22019979274E+02 -0.98158461365E+02  0.10519714704E+03  0.00000000000E+00 0. -1.
         22    1    4    4    0    0 -0.54457855799E+01  0.42907949035E+01 -0.23747179045E+02  0.24738553193E+02  0.00000000000E+00 0. -1.
<mgrwt>
<rscale>  0 0.90345010E+02</rscale>
<asrwt>0</asrwt>
<pdfrwt beam="1">  1        1 0.13946091E-02 0.90345010E+02</pdfrwt>
<pdfrwt beam="2">  1       -1 0.34631327E-01 0.90345010E+02</pdfrwt>
<totfact> 0.68633926E+04</totfact>
</mgrwt>
</event>
<event>
 7    1  0.2911475E-009  0.8860388E+02  0.7818608E-02  0.1306268E+00
         -1   -1    0    0    0  501 -0.00000000000E+00  0.00000000000E+00  0.10422282024E+02  0.10422283243E+02  0.50400000000E-02 0.  1.
          1   -1    0    0  501    0  0.00000000000E+00 -0.00000000000E+00 -0.18831403062E+03  0.18831403069E+03  0.50400000000E-02 0. -1.
         23    2    1    2    0    0 -0.17763568394E-14  0.00000000000E+00 -0.17789174860E+03  0.19873631393E+03  0.88603883978E+02 0.  0.
    9000005    2    3    3    0    0 -0.14511624768E+02  0.11938982932E+02 -0.17877538922E+03  0.17992388752E+03  0.76706546109E+01 0.  0.
         22    1    3    3    0    0  0.14511624768E+02 -0.11938982932E+02  0.88364062062E+00  0.18812426415E+02  0.00000000000E+00 0.  1.
         22    1    4    4    0    0 -0.13687892063E+02  0.95500579593E+01 -0.12770619530E+03  0.12879221371E+03  0.00000000000E+00 0.  1.
         22    1    4    4    0    0 -0.82373270527E+00  0.23889249725E+01 -0.51069193922E+02  0.51131673804E+02  0.00000000000E+00 0.  1.
<mgrwt>
<rscale>  0 0.88603884E+02</rscale>
<asrwt>0</asrwt>
<pdfrwt beam="2">  1        1 0.28971387E-01 0.88603884E+02</pdfrwt>
<pdfrwt beam="1">  1       -1 0.16034282E-02 0.88603884E+02</pdfrwt>
<totfact> 0.12636350E+05</totfact>
</mgrwt>
</event>
<event>
 7    1  0.2911475E-009  0.9048855E+02  0.7818608E-02  0.1301673E+00
          1   -1    0    0  501    0  0.00000000000E+00  0.00000000000E+00  0.53285921995E+01  0.53285945831E+01  0.50400000000E-02 0. -1.
         -1   -1    0    0    0  501 -0.00000000000E+00 -0.00000000000E+00 -0.38416225987E+03  0.38416225990E+03  0.50400000000E-02 0.  1.
         23    2    1    2    0    0  0.00000000000E+00  0.00000000000E+00 -0.37883366767E+03  0.38949085449E+03  0.90488551584E+02 0.  0.
    9000005    2    3    3    0    0  0.43603322231E+02 -0.39379251593E+01 -0.22155998103E+03  0.22623715782E+03  0.13329269391E+02 0.  0.
         22    1    3    3    0    0 -0.43603322231E+02  0.39379251593E+01 -0.15727368664E+03  0.16325369666E+03  0.00000000000E+00 0. -1.
         22    1    4    4    0    0  0.23243361945E+02 -0.27577967535E+01 -0.85044034327E+02  0.88206275809E+02  0.00000000000E+00 0.  1.
         22    1    4    4    0    0  0.20359960286E+02 -0.11801284058E+01 -0.13651594670E+03  0.13803088201E+03  0.00000000000E+00 0.  1.
<mgrwt>
<rscale>  0 0.90488552E+02</rscale>
<asrwt>0</asrwt>
<pdfrwt beam="1">  1        1 0.81978390E-03 0.90488552E+02</pdfrwt>
<pdfrwt beam="2">  1       -1 0.59101865E-01 0.90488552E+02</pdfrwt>
<totfact> 0.55458368E+04</totfact>
</mgrwt>
</event>
<event>
 7    1  0.2911475E-009  0.9201100E+02  0.7818608E-02  0.1298054E+00
         -1   -1    0    0    0  501 -0.00000000000E+00  0.00000000000E+00  0.23118395795E+02  0.23118396345E+02  0.50400000000E-02 0.  1.
          1   -1    0    0  501    0  0.00000000000E+00 -0.00000000000E+00 -0.91550724310E+02  0.91550724449E+02  0.50400000000E-02 0. -1.
         23    2    1    2    0    0  0.00000000000E+00  0.00000000000E+00 -0.68432328514E+02  0.11466912079E+03  0.92010997591E+02 0.  0.
    9000005    2    3    3    0    0 -0.31505249206E+01  0.42500222549E+02 -0.53439848522E+02  0.69492033898E+02  0.12535176158E+02 0.  0.
         22    1    3    3    0    0  0.31505249206E+01 -0.42500222549E+02 -0.14992479993E+02  0.45177086895E+02  0.00000000000E+00 0.  1.
         22    1    4    4    0    0 -0.62313637445E-01  0.42171326246E+01 -0.74072508254E+00  0.42821448143E+01  0.00000000000E+00 0.  1.
         22    1    4    4    0    0 -0.30882112831E+01  0.38283089924E+02 -0.52699123439E+02  0.65209889084E+02  0.00000000000E+00 0.  1.
<mgrwt>
<rscale>  0 0.92010998E+02</rscale>
<asrwt>0</asrwt>
<pdfrwt beam="2">  1        1 0.14084727E-01 0.92010998E+02</pdfrwt>
<pdfrwt beam="1">  1       -1 0.35566764E-02 0.92010998E+02</pdfrwt>
<totfact> 0.10041103E+05</totfact>
</mgrwt>
</event>
<event>
 7    1  0.2911475E-009  0.1049804E+03  0.7818608E-02  0.1270158E+00
         -1   -1    0    0    0  501 -0.00000000000E+00  0.00000000000E+00  0.12741063445E+02  0.12741064442E+02  0.50400000000E-02 0.  1.
          1   -1    0    0  501    0  0.00000000000E+00 -0.00000000000E+00 -0.21624738515E+03  0.21624738521E+03  0.50400000000E-02 0. -1.
         23    2    1    2    0    0 -0.71054273576E-14  0.35527136788E-14 -0.20350632171E+03  0.22898844965E+03  0.10498041293E+03 0.  0.
    9000005    2    3    3    0    0  0.45737443323E+02 -0.22351745101E+02 -0.12494391699E+03  0.13537453154E+03  0.11125069181E+02 0.  0.
         22    1    3    3    0    0 -0.45737443323E+02  0.22351745101E+02 -0.78562404715E+02  0.93613918118E+02  0.00000000000E+00 0.  1.
         22    1    4    4    0    0  0.37423399491E+02 -0.17164164607E+02 -0.88035471841E+02  0.97187260885E+02  0.00000000000E+00 0.  1.
         22    1    4    4    0    0  0.83140438324E+01 -0.51875804942E+01 -0.36908445152E+02  0.38187270651E+02  0.00000000000E+00 0.  1.
<mgrwt>
<rscale>  0 0.10498041E+03</rscale>
<asrwt>0</asrwt>
<pdfrwt beam="2">  1        1 0.33268826E-01 0.10498041E+03</pdfrwt>
<pdfrwt beam="1">  1       -1 0.19601638E-02 0.10498041E+03</pdfrwt>
<totfact> 0.82162297E+04</totfact>
</mgrwt>
</event>
<event>
 7    1  0.2911475E-009  0.9136158E+02  0.7818608E-02  0.1299588E+00
          1   -1    0    0  501    0  0.00000000000E+00  0.00000000000E+00  0.22475993210E+03  0.22475993215E+03  0.50400000000E-02 0.  1.
         -1   -1    0    0    0  501 -0.00000000000E+00 -0.00000000000E+00 -0.92842816373E+01  0.92842830053E+01  0.50400000000E-02 0. -1.
         23    2    1    2    0    0  0.00000000000E+00  0.00000000000E+00  0.21547565046E+03  0.23404421516E+03  0.91361582234E+02 0.  0.
    9000005    2    3    3    0    0  0.13224602507E+02 -0.42868624590E+02  0.11042408632E+03  0.11981444577E+03  0.12223481115E+02 0.  0.
         22    1    3    3    0    0 -0.13224602507E+02  0.42868624590E+02  0.10505156414E+03  0.11422976939E+03  0.00000000000E+00 0. -1.
         22    1    4    4    0    0  0.88352293662E+01 -0.38302523048E+02  0.85581375343E+02  0.94177047923E+02  0.00000000000E+00 0.  1.
         22    1    4    4    0    0  0.43893731406E+01 -0.45661015421E+01  0.24842710976E+02  0.25637397850E+02  0.00000000000E+00 0.  1.
<mgrwt>
<rscale>  0 0.91361582E+02</rscale>
<asrwt>0</asrwt>
<pdfrwt beam="1">  1        1 0.34578450E-01 0.91361582E+02</pdfrwt>
<pdfrwt beam="2">  1       -1 0.14283512E-02 0.91361582E+02</pdfrwt>
<totfact> 0.12047346E+05</totfact>
</mgrwt>
</event>
<event>
 7    1  0.2911475E-009  0.9865696E+02  0.7818608E-02  0.1283146E+00
         -1   -1    0    0    0  501 -0.00000000000E+00  0.00000000000E+00  0.61140693340E+01  0.61140714113E+01  0.50400000000E-02 0.  1.
          1   -1    0    0  501    0  0.00000000000E+00 -0.00000000000E+00 -0.39798345476E+03  0.39798345479E+03  0.50400000000E-02 0. -1.
         23    2    1    2    0    0  0.00000000000E+00  0.35527136788E-14 -0.39186938543E+03  0.40409752620E+03  0.98656958444E+02 0.  0.
    9000005    2    3    3    0    0  0.45243780682E+02 -0.17550357511E+02 -0.18897475629E+03  0.19548006463E+03  0.12082318298E+02 0.  0.
         22    1    3    3    0    0 -0.45243780682E+02  0.17550357511E+02 -0.20289462914E+03  0.20861746157E+03  0.00000000000E+00 0. -1.
         22    1    4    4    0    0  0.24890723847E+02 -0.11910898910E+02 -0.84478706201E+02  0.88871083305E+02  0.00000000000E+00 0. -1.
         22    1    4    4    0    0  0.20353056835E+02 -0.56394586015E+01 -0.10449605008E+03  0.10660898133E+03  0.00000000000E+00 0. -1.
<mgrwt>
<rscale>  0 0.98656958E+02</rscale>
<asrwt>0</asrwt>
<pdfrwt beam="2">  1        1 0.61228204E-01 0.98656958E+02</pdfrwt>
<pdfrwt beam="1">  1       -1 0.94062653E-03 0.98656958E+02</pdfrwt>
<totfact> 0.10921982E+05</totfact>
</mgrwt>
</event>
<event>
 7    1  0.2911475E-009  0.9156421E+02  0.7818608E-02  0.1299107E+00
          1   -1    0    0  501    0  0.00000000000E+00  0.00000000000E+00  0.11545303477E+03  0.11545303488E+03  0.50400000000E-02 0. -1.
         -1   -1    0    0    0  501 -0.00000000000E+00 -0.00000000000E+00 -0.18154578305E+02  0.18154579005E+02  0.50400000000E-02 0.  1.
         23    2    1    2    0    0  0.00000000000E+00  0.00000000000E+00  0.97298456465E+02  0.13360761388E+03  0.91564211663E+02 0.  0.
    9000005    2    3    3    0    0 -0.17958554810E+02 -0.51284703794E+01  0.10963205139E+03  0.11122618267E+03  0.18072413961E+01 0.  0.
         22    1    3    3    0    0  0.17958554810E+02  0.51284703794E+01 -0.12333594923E+02  0.22381431210E+02  0.00000000000E+00 0.  1.
         22    1    4    4    0    0 -0.13301260451E+02 -0.45266742208E+01  0.80050097532E+02  0.81273811428E+02  0.00000000000E+00 0.  1.
         22    1    4    4    0    0 -0.46572943590E+01 -0.60179615866E+00  0.29581953856E+02  0.29952371246E+02  0.00000000000E+00 0.  1.
<mgrwt>
<rscale>  0 0.91564212E+02</rscale>
<asrwt>0</asrwt>
<pdfrwt beam="1">  1        1 0.17762006E-01 0.91564212E+02</pdfrwt>
<pdfrwt beam="2">  1       -1 0.27930121E-02 0.91564212E+02</pdfrwt>
<totfact> 0.10579543E+05</totfact>
</mgrwt>
</event>
<event>
 7    1  0.2911475E-009  0.9111020E+02  0.7818608E-02  0.1300185E+00
          1   -1    0    0  501    0  0.00000000000E+00  0.00000000000E+00  0.34670194780E+03  0.34670194784E+03  0.50400000000E-02 0. -1.
         -1   -1    0    0    0  501 -0.00000000000E+00 -0.00000000000E+00 -0.59857371131E+01  0.59857392349E+01  0.50400000000E-02 0.  1.
         23    2    1    2    0    0  0.00000000000E+00  0.00000000000E+00  0.34071621069E+03  0.35268768707E+03  0.91110199138E+02 0.  0.
    9000005    2    3    3    0    0 -0.44876221097E+02  0.34412931911E+01  0.18253476689E+03  0.18822770142E+03  0.92200184183E+01 0.  0.
         22    1    3    3    0    0  0.44876221097E+02 -0.34412931911E+01  0.15818144380E+03  0.16445998565E+03  0.00000000000E+00 0.  1.
         22    1    4    4    0    0 -0.40009640025E+02  0.10867658716E+00  0.16142531237E+03  0.16630969479E+03  0.00000000000E+00 0. -1.
         22    1    4    4    0    0 -0.48665810720E+01  0.33326166040E+01  0.21109454511E+02  0.21918006628E+02  0.00000000000E+00 0. -1.
<mgrwt>
<rscale>  0 0.91110199E+02</rscale>
<asrwt>0</asrwt>
<pdfrwt beam="1">  1        1 0.53338769E-01 0.91110199E+02</pdfrwt>
<pdfrwt beam="2">  1       -1 0.92088266E-03 0.91110199E+02</pdfrwt>
<totfact> 0.13186553E+05</totfact>
</mgrwt>
</event>
<event>
 7    1  0.2911475E-009  0.9088445E+02  0.7818608E-02  0.1300724E+00
          1   -1    0    0  501    0  0.00000000000E+00  0.00000000000E+00  0.13310582195E+02  0.13310583149E+02  0.50400000000E-02 0. -1.
         -1   -1    0    0    0  501 -0.00000000000E+00 -0.00000000000E+00 -0.15513939314E+03  0.15513939322E+03  0.50400000000E-02 0.  1.
         23    2    1    2    0    0  0.44408920985E-15 -0.35527136788E-14 -0.14182881094E+03  0.16844997637E+03  0.90884448202E+02 0.  0.
    9000005    2    3    3    0    0 -0.30663130124E+01  0.29754494326E+02 -0.86795808746E+01  0.31982215795E+02  0.72660026785E+01 0.  0.
         22    1    3    3    0    0  0.30663130124E+01 -0.29754494326E+02 -0.13314923007E+03  0.13646776057E+03  0.00000000000E+00 0.  1.
         22    1    4    4    0    0 -0.20799877096E+00 -0.38471235685E+00  0.12247398336E+00  0.45416622820E+00  0.00000000000E+00 0.  1.
         22    1    4    4    0    0 -0.28583142415E+01  0.30139206683E+02 -0.88020548580E+01  0.31528049567E+02  0.00000000000E+00 0.  1.
<mgrwt>
<rscale>  0 0.90884448E+02</rscale>
<asrwt>0</asrwt>
<pdfrwt beam="1">  1        1 0.20477821E-02 0.90884448E+02</pdfrwt>
<pdfrwt beam="2">  1       -1 0.23867598E-01 0.90884448E+02</pdfrwt>
<totfact> 0.74815922E+04</totfact>
</mgrwt>
</event>
<event>
 7    1  0.2911475E-009  0.9156983E+02  0.7818608E-02  0.1299094E+00
         -1   -1    0    0    0  501 -0.00000000000E+00  0.00000000000E+00  0.33510921039E+03  0.33510921043E+03  0.50400000000E-02 0.  1.
          1   -1    0    0  501    0  0.00000000000E+00 -0.00000000000E+00 -0.62554474372E+01  0.62554494675E+01  0.50400000000E-02 0. -1.
         23    2    1    2    0    0  0.00000000000E+00 -0.71054273576E-14  0.32885376296E+03  0.34136465990E+03  0.91569829187E+02 0.  0.
    9000005    2    3    3    0    0  0.16285257769E+02 -0.41548789457E+02  0.14838786479E+03  0.15546293337E+03  0.12579893032E+02 0.  0.
         22    1    3    3    0    0 -0.16285257769E+02  0.41548789457E+02  0.18046589817E+03  0.18590172653E+03  0.00000000000E+00 0.  1.
         22    1    4    4    0    0  0.13831196129E+02 -0.37159492521E+02  0.11376053314E+03  0.12047235687E+03  0.00000000000E+00 0.  1.
         22    1    4    4    0    0  0.24540616404E+01 -0.43892969357E+01  0.34627331654E+02  0.34990576497E+02  0.00000000000E+00 0.  1.
<mgrwt>
<rscale>  0 0.91569829E+02</rscale>
<asrwt>0</asrwt>
<pdfrwt beam="2">  1        1 0.96237685E-03 0.91569829E+02</pdfrwt>
<pdfrwt beam="1">  1       -1 0.51555254E-01 0.91569829E+02</pdfrwt>
<totfact> 0.57235176E+04</totfact>
</mgrwt>
</event>
<event>
 7    1  0.2911475E-009  0.7888314E+02  0.7818608E-02  0.1332251E+00
          1   -1    0    0  501    0  0.00000000000E+00  0.00000000000E+00  0.93957749673E+02  0.93957749808E+02  0.50400000000E-02 0. -1.
         -1   -1    0    0    0  501 -0.00000000000E+00 -0.00000000000E+00 -0.16556775818E+02  0.16556776585E+02  0.50400000000E-02 0.  1.
         23    2    1    2    0    0  0.00000000000E+00  0.00000000000E+00  0.77400973855E+02  0.11051452639E+03  0.78883140087E+02 0.  0.
    9000005    2    3    3    0    0 -0.32360889017E+02  0.19707756151E+02  0.51472751346E+02  0.64602703155E+02  0.94043784097E+01 0.  0.
         22    1    3    3    0    0  0.32360889017E+02 -0.19707756151E+02  0.25928222509E+02  0.45911823238E+02  0.00000000000E+00 0.  1.
         22    1    4    4    0    0 -0.26713594113E+02  0.19764012052E+02  0.45923040170E+02  0.56684723703E+02  0.00000000000E+00 0.  1.
         22    1    4    4    0    0 -0.56472949043E+01 -0.56255900726E-01  0.55497111761E+01  0.79179794519E+01  0.00000000000E+00 0.  1.
<mgrwt>
<rscale>  0 0.78883140E+02</rscale>
<asrwt>0</asrwt>
<pdfrwt beam="1">  1        1 0.14455038E-01 0.78883140E+02</pdfrwt>
<pdfrwt beam="2">  1       -1 0.25471964E-02 0.78883140E+02</pdfrwt>
<totfact> 0.15294103E+05</totfact>
</mgrwt>
</event>
<event>
 7    1  0.2911475E-009  0.9353942E+02  0.7818608E-02  0.1294500E+00
          1   -1    0    0  501    0  0.00000000000E+00  0.00000000000E+00  0.51452873136E+02  0.51452873382E+02  0.50400000000E-02 0. -1.
         -1   -1    0    0    0  501 -0.00000000000E+00 -0.00000000000E+00 -0.42512798304E+02  0.42512798603E+02  0.50400000000E-02 0.  1.
         23    2    1    2    0    0  0.00000000000E+00  0.00000000000E+00  0.89400748318E+01  0.93965671985E+02  0.93539417219E+02 0.  0.
    9000005    2    3    3    0    0  0.17493856593E+02  0.34441727647E+02 -0.21078530254E+02  0.45043445205E+02  0.96093650429E+01 0.  0.
         22    1    3    3    0    0 -0.17493856593E+02 -0.34441727647E+02  0.30018605086E+02  0.48922226780E+02  0.00000000000E+00 0. -1.
         22    1    4    4    0    0  0.16072424175E+02  0.30818952074E+02 -0.15069517150E+02  0.37884310380E+02  0.00000000000E+00 0. -1.
         22    1    4    4    0    0  0.14214324178E+01  0.36227755724E+01 -0.60090131042E+01  0.71591348257E+01  0.00000000000E+00 0. -1.
<mgrwt>
<rscale>  0 0.93539417E+02</rscale>
<asrwt>0</asrwt>
<pdfrwt beam="1">  1        1 0.79158267E-02 0.93539417E+02</pdfrwt>
<pdfrwt beam="2">  1       -1 0.65404306E-02 0.93539417E+02</pdfrwt>
<totfact> 0.87658608E+04</totfact>
</mgrwt>
</event>
<event>
 7    1  0.2911475E-009  0.9096516E+02  0.7818608E-02  0.1300531E+00
          1   -1    0    0  501    0  0.00000000000E+00  0.00000000000E+00  0.16691211741E+03  0.16691211749E+03  0.50400000000E-02 0. -1.
         -1   -1    0    0    0  501 -0.00000000000E+00 -0.00000000000E+00 -0.12393737270E+02  0.12393738295E+02  0.50400000000E-02 0.  1.
         23    2    1    2    0    0  0.00000000000E+00  0.71054273576E-14  0.15451838014E+03  0.17930585579E+03  0.90965158806E+02 0.  0.
    9000005    2    3    3    0    0 -0.16925932474E+02 -0.39094744778E+02  0.57078462977E+02  0.72960081460E+02  0.15822019196E+02 0.  0.
         22    1    3    3    0    0  0.16925932474E+02  0.39094744778E+02  0.97439917167E+02  0.10634577433E+03  0.00000000000E+00 0. -1.
         22    1    4    4    0    0 -0.19430698442E+02 -0.38053092147E+02  0.53406993515E+02  0.68395152022E+02  0.00000000000E+00 0. -1.
         22    1    4    4    0    0  0.25047659679E+01 -0.10416526313E+01  0.36714694624E+01  0.45649294377E+01  0.00000000000E+00 0. -1.
<mgrwt>
<rscale>  0 0.90965159E+02</rscale>
<asrwt>0</asrwt>
<pdfrwt beam="1">  1        1 0.25678786E-01 0.90965159E+02</pdfrwt>
<pdfrwt beam="2">  1       -1 0.19067290E-02 0.90965159E+02</pdfrwt>
<totfact> 0.11509857E+05</totfact>
</mgrwt>
</event>
<event>
 7    1  0.2911475E-009  0.9059567E+02  0.7818608E-02  0.1301416E+00
         -1   -1    0    0    0  501 -0.00000000000E+00  0.00000000000E+00  0.42972134405E+02  0.42972134701E+02  0.50400000000E-02 0.  1.
          1   -1    0    0  501    0  0.00000000000E+00 -0.00000000000E+00 -0.47749407923E+02  0.47749408189E+02  0.50400000000E-02 0. -1.
         23    2    1    2    0    0  0.00000000000E+00  0.00000000000E+00 -0.47772735173E+01  0.90721542889E+02  0.90595673197E+02 0.  0.
    9000005    2    3    3    0    0 -0.20502071180E+02  0.26821320714E+02  0.27570193136E+02  0.43966043038E+02  0.57601409121E+01 0.  0.
         22    1    3    3    0    0  0.20502071180E+02 -0.26821320714E+02 -0.32347466653E+02  0.46755499852E+02  0.00000000000E+00 0. -1.
         22    1    4    4    0    0 -0.12189937746E+02  0.11819566615E+02  0.15536961048E+02  0.23015079748E+02  0.00000000000E+00 0. -1.
         22    1    4    4    0    0 -0.83121334345E+01  0.15001754099E+02  0.12033232088E+02  0.20950963289E+02  0.00000000000E+00 0. -1.
<mgrwt>
<rscale>  0 0.90595673E+02</rscale>
<asrwt>0</asrwt>
<pdfrwt beam="2">  1        1 0.73460628E-02 0.90595673E+02</pdfrwt>
<pdfrwt beam="1">  1       -1 0.66110977E-02 0.90595673E+02</pdfrwt>
<totfact> 0.94799012E+04</totfact>
</mgrwt>
</event>
<event>
 7    1  0.2911475E-009  0.9324927E+02  0.7818608E-02  0.1295169E+00
         -1   -1    0    0    0  501 -0.00000000000E+00  0.00000000000E+00  0.75868664072E+02  0.75868664239E+02  0.50400000000E-02 0.  1.
          1   -1    0    0  501    0  0.00000000000E+00 -0.00000000000E+00 -0.28652891299E+02  0.28652891742E+02  0.50400000000E-02 0. -1.
         23    2    1    2    0    0  0.00000000000E+00  0.00000000000E+00  0.47215772773E+02  0.10452155598E+03  0.93249270594E+02 0.  0.
    9000005    2    3    3    0    0  0.15808835708E+02 -0.38305612128E+02  0.12090331443E+01  0.42603389841E+02  0.98156944659E+01 0.  0.
         22    1    3    3    0    0 -0.15808835708E+02  0.38305612128E+02  0.46006739628E+02  0.61918166140E+02  0.00000000000E+00 0.  1.
         22    1    4    4    0    0  0.13882659476E+02 -0.23321293016E+02  0.33434639126E+01  0.27345743600E+02  0.00000000000E+00 0. -1.
         22    1    4    4    0    0  0.19261762318E+01 -0.14984319112E+02 -0.21344307683E+01  0.15257646241E+02  0.00000000000E+00 0. -1.
<mgrwt>
<rscale>  0 0.93249271E+02</rscale>
<asrwt>0</asrwt>
<pdfrwt beam="2">  1        1 0.44081372E-02 0.93249271E+02</pdfrwt>
<pdfrwt beam="1">  1       -1 0.11672102E-01 0.93249271E+02</pdfrwt>
<totfact> 0.80632378E+04</totfact>
</mgrwt>
</event>
<event>
 7    1  0.2911475E-009  0.9109779E+02  0.7818608E-02  0.1300215E+00
         -1   -1    0    0    0  501 -0.00000000000E+00  0.00000000000E+00  0.49016092372E+02  0.49016092631E+02  0.50400000000E-02 0.  1.
          1   -1    0    0  501    0  0.00000000000E+00 -0.00000000000E+00 -0.42326953916E+02  0.42326954216E+02  0.50400000000E-02 0. -1.
         23    2    1    2    0    0  0.00000000000E+00  0.00000000000E+00  0.66891384561E+01  0.91343046847E+02  0.91097791598E+02 0.  0.
    9000005    2    3    3    0    0 -0.25478636711E+02 -0.27983830885E+02 -0.21984360579E+02  0.43862258453E+02  0.28861543421E+01 0.  0.
         22    1    3    3    0    0  0.25478636711E+02  0.27983830885E+02  0.28673499035E+02  0.47480788394E+02  0.00000000000E+00 0.  1.
         22    1    4    4    0    0 -0.22559291929E+02 -0.23300109037E+02 -0.18553234290E+02  0.37363608446E+02  0.00000000000E+00 0.  1.
         22    1    4    4    0    0 -0.29193447819E+01 -0.46837218480E+01 -0.34311262886E+01  0.64986500070E+01  0.00000000000E+00 0.  1.
<mgrwt>
<rscale>  0 0.91097792E+02</rscale>
<asrwt>0</asrwt>
<pdfrwt beam="2">  1        1 0.65118391E-02 0.91097792E+02</pdfrwt>
<pdfrwt beam="1">  1       -1 0.75409373E-02 0.91097792E+02</pdfrwt>
<totfact> 0.91667631E+04</totfact>
</mgrwt>
</event>
<event>
 7    1  0.2911475E-009  0.8965068E+02  0.7818608E-02  0.1303700E+00
         -1   -1    0    0    0  501 -0.00000000000E+00  0.00000000000E+00  0.18063660577E+02  0.18063661280E+02  0.50400000000E-02 0.  1.
          1   -1    0    0  501    0  0.00000000000E+00 -0.00000000000E+00 -0.11123498114E+03  0.11123498126E+03  0.50400000000E-02 0. -1.
         23    2    1    2    0    0 -0.44408920985E-15  0.35527136788E-14 -0.93171320566E+02  0.12929864254E+03  0.89650677555E+02 0.  0.
    9000005    2    3    3    0    0 -0.32591176133E+01  0.28550457738E+02  0.25000443994E+00  0.31557686687E+02  0.13041265359E+02 0.  0.
         22    1    3    3    0    0  0.32591176133E+01 -0.28550457738E+02 -0.93421325006E+02  0.97740955851E+02  0.00000000000E+00 0. -1.
         22    1    4    4    0    0  0.89902773116E+00  0.55318419132E+01  0.52036838574E+01  0.76477350570E+01  0.00000000000E+00 0. -1.
         22    1    4    4    0    0 -0.41581453445E+01  0.23018615825E+02 -0.49536794175E+01  0.23909951630E+02  0.00000000000E+00 0. -1.
<mgrwt>
<rscale>  0 0.89650678E+02</rscale>
<asrwt>0</asrwt>
<pdfrwt beam="2">  1        1 0.17113074E-01 0.89650678E+02</pdfrwt>
<pdfrwt beam="1">  1       -1 0.27790248E-02 0.89650678E+02</pdfrwt>
<totfact> 0.11132415E+05</totfact>
</mgrwt>
</event>
<event>
 7    1  0.2911475E-009  0.9186942E+02  0.7818608E-02  0.1298387E+00
          1   -1    0    0  501    0  0.00000000000E+00  0.00000000000E+00  0.92327051193E+03  0.92327051194E+03  0.50400000000E-02 0. -1.
         -1   -1    0    0    0  501 -0.00000000000E+00 -0.00000000000E+00 -0.22853488316E+01  0.22853543891E+01  0.50400000000E-02 0.  1.
         23    2    1    2    0    0  0.00000000000E+00  0.00000000000E+00  0.92098516310E+03  0.92555586633E+03  0.91869423945E+02 0.  0.
    9000005    2    3    3    0    0 -0.15910440045E+02  0.33073391582E+02  0.73803043894E+03  0.73895623497E+03  0.45163109870E+01 0.  0.
         22    1    3    3    0    0  0.15910440045E+02 -0.33073391582E+02  0.18295472416E+03  0.18659963136E+03  0.00000000000E+00 0.  1.
         22    1    4    4    0    0 -0.89708600866E+01  0.14046422286E+02  0.31259768853E+03  0.31304167963E+03  0.00000000000E+00 0. -1.
         22    1    4    4    0    0 -0.69395799585E+01  0.19026969296E+02  0.42543275041E+03  0.42591455534E+03  0.00000000000E+00 0. -1.
<mgrwt>
<rscale>  0 0.91869424E+02</rscale>
<asrwt>0</asrwt>
<pdfrwt beam="1">  1        1 0.14204155E+00 0.91869424E+02</pdfrwt>
<pdfrwt beam="2">  1       -1 0.35159273E-03 0.91869424E+02</pdfrwt>
<totfact> 0.13578135E+05</totfact>
</mgrwt>
</event>
<event>
 7    1  0.2911475E-009  0.9070632E+02  0.7818608E-02  0.1301150E+00
          1   -1    0    0  501    0  0.00000000000E+00  0.00000000000E+00  0.32512376224E+01  0.32512415289E+01  0.50400000000E-02 0. -1.
         -1   -1    0    0    0  501 -0.00000000000E+00 -0.00000000000E+00 -0.63265383963E+03  0.63265383965E+03  0.50400000000E-02 0.  1.
         23    2    1    2    0    0  0.00000000000E+00 -0.88817841970E-15 -0.62940260201E+03  0.63590508118E+03  0.90706322025E+02 0.  0.
    9000005    2    3    3    0    0  0.42587303602E+02 -0.70082644891E+01 -0.39591777006E+03  0.39846464454E+03  0.12664837311E+02 0.  0.
         22    1    3    3    0    0 -0.42587303602E+02  0.70082644891E+01 -0.23348483195E+03  0.23744043664E+03  0.00000000000E+00 0. -1.
         22    1    4    4    0    0  0.27829973035E+02 -0.78781652941E+00 -0.20600277012E+03  0.20787561028E+03  0.00000000000E+00 0. -1.
         22    1    4    4    0    0  0.14757330567E+02 -0.62204479597E+01 -0.18991499994E+03  0.19058903426E+03  0.00000000000E+00 0. -1.
<mgrwt>
<rscale>  0 0.90706322E+02</rscale>
<asrwt>0</asrwt>
<pdfrwt beam="1">  1        1 0.50019121E-03 0.90706322E+02</pdfrwt>
<pdfrwt beam="2">  1       -1 0.97331262E-01 0.90706322E+02</pdfrwt>
<totfact> 0.40540893E+04</totfact>
</mgrwt>
</event>
<event>
 7    1  0.2911475E-009  0.9161900E+02  0.7818608E-02  0.1298978E+00
          1   -1    0    0  501    0  0.00000000000E+00  0.00000000000E+00  0.29761712523E+02  0.29761712949E+02  0.50400000000E-02 0. -1.
         -1   -1    0    0    0  501 -0.00000000000E+00 -0.00000000000E+00 -0.70510405298E+02  0.70510405479E+02  0.50400000000E-02 0.  1.
         23    2    1    2    0    0  0.00000000000E+00  0.00000000000E+00 -0.40748692776E+02  0.10027211843E+03  0.91619003330E+02 0.  0.
    9000005    2    3    3    0    0  0.20150858638E+02 -0.22621596855E+02 -0.57348321206E+02  0.65727344407E+02  0.10651765562E+02 0.  0.
         22    1    3    3    0    0 -0.20150858638E+02  0.22621596855E+02  0.16599628430E+02  0.34544774021E+02  0.00000000000E+00 0. -1.
         22    1    4    4    0    0  0.12460819866E+02 -0.62901244592E+01 -0.22418925798E+02  0.26409201642E+02  0.00000000000E+00 0.  1.
         22    1    4    4    0    0  0.76900387716E+01 -0.16331472396E+02 -0.34929395408E+02  0.39318142765E+02  0.00000000000E+00 0.  1.
<mgrwt>
<rscale>  0 0.91619003E+02</rscale>
<asrwt>0</asrwt>
<pdfrwt beam="1">  1        1 0.45787251E-02 0.91619003E+02</pdfrwt>
<pdfrwt beam="2">  1       -1 0.10847755E-01 0.91619003E+02</pdfrwt>
<totfact> 0.85376601E+04</totfact>
</mgrwt>
</event>
<event>
 7    1  0.2911475E-009  0.9067740E+02  0.7818608E-02  0.1301220E+00
         -1   -1    0    0    0  501 -0.00000000000E+00  0.00000000000E+00  0.13817282027E+02  0.13817282946E+02  0.50400000000E-02 0.  1.
          1   -1    0    0  501    0  0.00000000000E+00 -0.00000000000E+00 -0.14877005495E+03  0.14877005503E+03  0.50400000000E-02 0. -1.
         23    2    1    2    0    0  0.00000000000E+00  0.00000000000E+00 -0.13495277292E+03  0.16258733798E+03  0.90677403759E+02 0.  0.
    9000005    2    3    3    0    0 -0.43300439505E+02  0.79458623273E+01 -0.79248850044E+02  0.91587395632E+02  0.13030963740E+02 0.  0.
         22    1    3    3    0    0  0.43300439505E+02 -0.79458623273E+01 -0.55703922878E+02  0.70999942348E+02  0.00000000000E+00 0. -1.
         22    1    4    4    0    0 -0.31386883002E+02 -0.31990284243E+00 -0.52849651411E+02  0.61468076403E+02  0.00000000000E+00 0.  1.
         22    1    4    4    0    0 -0.11913556504E+02  0.82657651697E+01 -0.26399198632E+02  0.30119319229E+02  0.00000000000E+00 0.  1.
<mgrwt>
<rscale>  0 0.90677404E+02</rscale>
<asrwt>0</asrwt>
<pdfrwt beam="2">  1        1 0.22887700E-01 0.90677404E+02</pdfrwt>
<pdfrwt beam="1">  1       -1 0.21257359E-02 0.90677404E+02</pdfrwt>
<totfact> 0.11363383E+05</totfact>
</mgrwt>
</event>
<event>
 7    1  0.2911475E-009  0.8976116E+02  0.7818608E-02  0.1303431E+00
          1   -1    0    0  501    0  0.00000000000E+00  0.00000000000E+00  0.19324397967E+03  0.19324397974E+03  0.50400000000E-02 0. -1.
         -1   -1    0    0    0  501 -0.00000000000E+00 -0.00000000000E+00 -0.10423435733E+02  0.10423436952E+02  0.50400000000E-02 0.  1.
         23    2    1    2    0    0  0.00000000000E+00  0.88817841970E-15  0.18282054394E+03  0.20366741669E+03  0.89761157162E+02 0.  0.
    9000005    2    3    3    0    0 -0.42425890590E+02  0.56306090640E+01  0.11963456923E+03  0.12735144621E+03  0.86197880191E+01 0.  0.
         22    1    3    3    0    0  0.42425890590E+02 -0.56306090640E+01  0.63185974709E+02  0.76315970482E+02  0.00000000000E+00 0.  1.
         22    1    4    4    0    0 -0.10822490867E+02  0.35798651462E+01  0.23190911604E+02  0.25841055010E+02  0.00000000000E+00 0. -1.
         22    1    4    4    0    0 -0.31603399723E+02  0.20507439178E+01  0.96443657629E+02  0.10151039120E+03  0.00000000000E+00 0. -1.
<mgrwt>
<rscale>  0 0.89761157E+02</rscale>
<asrwt>0</asrwt>
<pdfrwt beam="1">  1        1 0.29729844E-01 0.89761157E+02</pdfrwt>
<pdfrwt beam="2">  1       -1 0.16036056E-02 0.89761157E+02</pdfrwt>
<totfact> 0.12265779E+05</totfact>
</mgrwt>
</event>
<event>
 7    1  0.2911475E-009  0.9063781E+02  0.7818608E-02  0.1301314E+00
         -1   -1    0    0    0  501 -0.00000000000E+00  0.00000000000E+00  0.70411880077E+02  0.70411880257E+02  0.50400000000E-02 0.  1.
          1   -1    0    0  501    0  0.00000000000E+00 -0.00000000000E+00 -0.29168420362E+02  0.29168420797E+02  0.50400000000E-02 0. -1.
         23    2    1    2    0    0  0.00000000000E+00  0.00000000000E+00  0.41243459715E+02  0.99580301054E+02  0.90637814343E+02 0.  0.
    9000005    2    3    3    0    0  0.18702672448E+02  0.16369707545E+02  0.61402262566E+02  0.67578197777E+02  0.13372272983E+02 0.  0.
         22    1    3    3    0    0 -0.18702672448E+02 -0.16369707545E+02 -0.20158802851E+02  0.32002103278E+02  0.00000000000E+00 0. -1.
         22    1    4    4    0    0  0.16184151660E+02  0.18015301064E+02  0.47080381909E+02  0.52943745599E+02  0.00000000000E+00 0.  1.
         22    1    4    4    0    0  0.25185207882E+01 -0.16455935185E+01  0.14321880657E+02  0.14634452178E+02  0.00000000000E+00 0.  1.
<mgrwt>
<rscale>  0 0.90637814E+02</rscale>
<asrwt>0</asrwt>
<pdfrwt beam="2">  1        1 0.44874494E-02 0.90637814E+02</pdfrwt>
<pdfrwt beam="1">  1       -1 0.10832597E-01 0.90637814E+02</pdfrwt>
<totfact> 0.87773466E+04</totfact>
</mgrwt>
</event>
<event>
 7    1  0.2911475E-009  0.9059849E+02  0.7818608E-02  0.1301409E+00
         -1   -1    0    0    0  501 -0.00000000000E+00  0.00000000000E+00  0.69662042368E+01  0.69662060600E+01  0.50400000000E-02 0.  1.
          1   -1    0    0  501    0  0.00000000000E+00 -0.00000000000E+00 -0.29456807060E+03  0.29456807064E+03  0.50400000000E-02 0. -1.
         23    2    1    2    0    0  0.00000000000E+00  0.00000000000E+00 -0.28760186636E+03  0.30153427670E+03  0.90598490557E+02 0.  0.
    9000005    2    3    3    0    0  0.35239827364E+02  0.17606480384E+02 -0.75853807801E+02  0.86153047510E+02  0.10803418583E+02 0.  0.
         22    1    3    3    0    0 -0.35239827364E+02 -0.17606480384E+02 -0.21174805856E+03  0.21538122919E+03  0.00000000000E+00 0. -1.
         22    1    4    4    0    0  0.62595415595E+01  0.28408546849E+01 -0.61057823295E+01  0.91941771644E+01  0.00000000000E+00 0. -1.
         22    1    4    4    0    0  0.28980285805E+02  0.14765625699E+02 -0.69748025472E+02  0.76958870345E+02  0.00000000000E+00 0. -1.
<mgrwt>
<rscale>  0 0.90598491E+02</rscale>
<asrwt>0</asrwt>
<pdfrwt beam="2">  1        1 0.45318155E-01 0.90598491E+02</pdfrwt>
<pdfrwt beam="1">  1       -1 0.10717241E-02 0.90598491E+02</pdfrwt>
<totfact> 0.12985757E+05</totfact>
</mgrwt>
</event>
<event>
 7    1  0.2911475E-009  0.9442184E+02  0.7818608E-02  0.1292484E+00
         -1   -1    0    0    0  501 -0.00000000000E+00  0.00000000000E+00  0.45562485185E+02  0.45562485464E+02  0.50400000000E-02 0.  1.
          1   -1    0    0  501    0  0.00000000000E+00 -0.00000000000E+00 -0.48918997765E+02  0.48918998024E+02  0.50400000000E-02 0. -1.
         23    2    1    2    0    0  0.00000000000E+00  0.00000000000E+00 -0.33565125796E+01  0.94481483488E+02  0.94421843582E+02 0.  0.
    9000005    2    3    3    0    0 -0.32532147295E+02 -0.20715419002E+02 -0.26994738230E+02  0.49246155436E+02  0.14456788756E+02 0.  0.
         22    1    3    3    0    0  0.32532147295E+02  0.20715419002E+02  0.23638225650E+02  0.45235328051E+02  0.00000000000E+00 0.  1.
         22    1    4    4    0    0 -0.21162543662E+01 -0.99648645387E-01  0.16259569638E+01  0.26706176146E+01  0.00000000000E+00 0. -1.
         22    1    4    4    0    0 -0.30415892928E+02 -0.20615770357E+02 -0.28620695194E+02  0.46575537822E+02  0.00000000000E+00 0. -1.
<mgrwt>
<rscale>  0 0.94421844E+02</rscale>
<asrwt>0</asrwt>
<pdfrwt beam="2">  1        1 0.75259997E-02 0.94421844E+02</pdfrwt>
<pdfrwt beam="1">  1       -1 0.70096131E-02 0.94421844E+02</pdfrwt>
<totfact> 0.84714545E+04</totfact>
</mgrwt>
</event>
<event>
 7    1  0.2911475E-009  0.9263353E+02  0.7818608E-02  0.1296597E+00
         -1   -1    0    0    0  501 -0.00000000000E+00  0.00000000000E+00  0.86700213179E+01  0.86700227828E+01  0.50400000000E-02 0.  1.
          1   -1    0    0  501    0  0.00000000000E+00 -0.00000000000E+00 -0.24743218974E+03  0.24743218979E+03  0.50400000000E-02 0. -1.
         23    2    1    2    0    0  0.00000000000E+00  0.00000000000E+00 -0.23876216842E+03  0.25610221257E+03  0.92633526412E+02 0.  0.
    9000005    2    3    3    0    0  0.10140712381E+01 -0.31990180610E+02 -0.21047772931E+03  0.21338910578E+03  0.14478809832E+02 0.  0.
         22    1    3    3    0    0 -0.10140712381E+01  0.31990180610E+02 -0.28284439104E+02  0.42713106786E+02  0.00000000000E+00 0.  1.
         22    1    4    4    0    0 -0.27649021909E+01 -0.30640745961E+02 -0.19433306904E+03  0.19675325085E+03  0.00000000000E+00 0.  1.
         22    1    4    4    0    0  0.37789734290E+01 -0.13494346486E+01 -0.16144660271E+02  0.16635854932E+02  0.00000000000E+00 0.  1.
<mgrwt>
<rscale>  0 0.92633526E+02</rscale>
<asrwt>0</asrwt>
<pdfrwt beam="2">  1        1 0.38066485E-01 0.92633526E+02</pdfrwt>
<pdfrwt beam="1">  1       -1 0.13338497E-02 0.92633526E+02</pdfrwt>
<totfact> 0.11829604E+05</totfact>
</mgrwt>
</event>
<event>
 7    1  0.2911475E-009  0.9138579E+02  0.7818608E-02  0.1299530E+00
          1   -1    0    0  501    0  0.00000000000E+00  0.00000000000E+00  0.47933362347E+02  0.47933362612E+02  0.50400000000E-02 0. -1.
         -1   -1    0    0    0  501 -0.00000000000E+00 -0.00000000000E+00 -0.43557146076E+02  0.43557146368E+02  0.50400000000E-02 0.  1.
         23    2    1    2    0    0  0.00000000000E+00  0.22204460493E-15  0.43762162705E+01  0.91490508980E+02  0.91385786447E+02 0.  0.
    9000005    2    3    3    0    0 -0.10950622305E+02  0.14037665208E+01 -0.41747704940E+02  0.44063693810E+02  0.87665018712E+01 0.  0.
         22    1    3    3    0    0  0.10950622305E+02 -0.14037665208E+01  0.46123921211E+02  0.47426815170E+02  0.00000000000E+00 0. -1.
         22    1    4    4    0    0 -0.38921198666E+01  0.61873691079E+00 -0.38611726448E+01  0.55172535390E+01  0.00000000000E+00 0.  1.
         22    1    4    4    0    0 -0.70585024386E+01  0.78502960999E+00 -0.37886532296E+02  0.38546440271E+02  0.00000000000E+00 0.  1.
<mgrwt>
<rscale>  0 0.91385786E+02</rscale>
<asrwt>0</asrwt>
<pdfrwt beam="1">  1        1 0.73743635E-02 0.91385786E+02</pdfrwt>
<pdfrwt beam="2">  1       -1 0.67010995E-02 0.91385786E+02</pdfrwt>
<totfact> 0.92575638E+04</totfact>
</mgrwt>
</event>
<event>
 7    1  0.2911475E-009  0.9011405E+02  0.7818608E-02  0.1302576E+00
          1   -1    0    0  501    0  0.00000000000E+00  0.00000000000E+00  0.43608817368E+03  0.43608817371E+03  0.50400000000E-02 0. -1.
         -1   -1    0    0    0  501 -0.00000000000E+00 -0.00000000000E+00 -0.46553312260E+01  0.46553339542E+01  0.50400000000E-02 0.  1.
         23    2    1    2    0    0  0.00000000000E+00  0.00000000000E+00  0.43143284246E+03  0.44074350767E+03  0.90114049956E+02 0.  0.
    9000005    2    3    3    0    0 -0.42275985883E+02 -0.11502027537E+02  0.24646147960E+03  0.25065415842E+03  0.12833183023E+02 0.  0.
         22    1    3    3    0    0  0.42275985883E+02  0.11502027537E+02  0.18497136285E+03  0.19008934924E+03  0.00000000000E+00 0.  1.
         22    1    4    4    0    0 -0.37062592019E+02 -0.94521156156E+01  0.18349861144E+03  0.18744257419E+03  0.00000000000E+00 0. -1.
         22    1    4    4    0    0 -0.52133938638E+01 -0.20499119218E+01  0.62962868159E+02  0.63211584233E+02  0.00000000000E+00 0. -1.
<mgrwt>
<rscale>  0 0.90114050E+02</rscale>
<asrwt>0</asrwt>
<pdfrwt beam="1">  1        1 0.67090476E-01 0.90114050E+02</pdfrwt>
<pdfrwt beam="2">  1       -1 0.71620515E-03 0.90114050E+02</pdfrwt>
<totfact> 0.14104549E+05</totfact>
</mgrwt>
</event>
<event>
 7    1  0.2911475E-009  0.9362849E+02  0.7818608E-02  0.1294295E+00
          1   -1    0    0  501    0  0.00000000000E+00  0.00000000000E+00  0.13241758731E+02  0.13241759690E+02  0.50400000000E-02 0. -1.
         -1   -1    0    0    0  501 -0.00000000000E+00 -0.00000000000E+00 -0.16550472117E+03  0.16550472125E+03  0.50400000000E-02 0.  1.
         23    2    1    2    0    0  0.00000000000E+00  0.00000000000E+00 -0.15226296244E+03  0.17874648094E+03  0.93628493083E+02 0.  0.
    9000005    2    3    3    0    0  0.28171382435E+02  0.10917032427E+02 -0.92286319714E+01  0.32556097951E+02  0.78691473780E+01 0.  0.
         22    1    3    3    0    0 -0.28171382435E+02 -0.10917032427E+02 -0.14303433047E+03  0.14619038299E+03  0.00000000000E+00 0.  1.
         22    1    4    4    0    0  0.24046267033E+02  0.77237029678E+01 -0.47896826959E+01  0.25706411770E+02  0.00000000000E+00 0. -1.
         22    1    4    4    0    0  0.41251154016E+01  0.31933294597E+01 -0.44389492754E+01  0.68496861815E+01  0.00000000000E+00 0. -1.
<mgrwt>
<rscale>  0 0.93628493E+02</rscale>
<asrwt>0</asrwt>
<pdfrwt beam="1">  1        1 0.20371938E-02 0.93628493E+02</pdfrwt>
<pdfrwt beam="2">  1       -1 0.25462263E-01 0.93628493E+02</pdfrwt>
<totfact> 0.68156332E+04</totfact>
</mgrwt>
</event>
<event>
 7    1  0.2911475E-009  0.8850855E+02  0.7818608E-02  0.1306504E+00
          1   -1    0    0  501    0  0.00000000000E+00  0.00000000000E+00  0.16866422213E+02  0.16866422966E+02  0.50400000000E-02 0. -1.
         -1   -1    0    0    0  501 -0.00000000000E+00 -0.00000000000E+00 -0.11611478674E+03  0.11611478685E+03  0.50400000000E-02 0.  1.
         23    2    1    2    0    0  0.00000000000E+00 -0.35527136788E-14 -0.99248364531E+02  0.13298120982E+03  0.88508554971E+02 0.  0.
    9000005    2    3    3    0    0  0.15935382157E+02  0.19369288563E+02  0.19205536698E+01  0.28749469194E+02  0.13918969382E+02 0.  0.
         22    1    3    3    0    0 -0.15935382157E+02 -0.19369288563E+02 -0.10116891820E+03  0.10423174063E+03  0.00000000000E+00 0.  1.
         22    1    4    4    0    0  0.13731774524E+02  0.97017565144E+01  0.62401693276E+01  0.17933918264E+02  0.00000000000E+00 0.  1.
         22    1    4    4    0    0  0.22036076323E+01  0.96675320484E+01 -0.43196156578E+01  0.10815550931E+02  0.00000000000E+00 0.  1.
<mgrwt>
<rscale>  0 0.88508555E+02</rscale>
<asrwt>0</asrwt>
<pdfrwt beam="1">  1        1 0.25948343E-02 0.88508555E+02</pdfrwt>
<pdfrwt beam="2">  1       -1 0.17863813E-01 0.88508555E+02</pdfrwt>
<totfact> 0.85351761E+04</totfact>
</mgrwt>
</event>
<event>
 7    1  0.2911475E-009  0.9133386E+02  0.7818608E-02  0.1299653E+00
         -1   -1    0    0    0  501 -0.00000000000E+00  0.00000000000E+00  0.27342001364E+02  0.27342001829E+02  0.50400000000E-02 0.  1.
          1   -1    0    0  501    0  0.00000000000E+00 -0.00000000000E+00 -0.76273434440E+02  0.76273434607E+02  0.50400000000E-02 0. -1.
         23    2    1    2    0    0  0.00000000000E+00  0.00000000000E+00 -0.48931433076E+02  0.10361543644E+03  0.91333857494E+02 0.  0.
    9000005    2    3    3    0    0  0.38847291007E+02  0.44119604378E+01  0.54686266065E+00  0.40554520152E+02  0.10760698512E+02 0.  0.
         22    1    3    3    0    0 -0.38847291007E+02 -0.44119604378E+01 -0.49478295737E+02  0.63060916283E+02  0.00000000000E+00 0. -1.
         22    1    4    4    0    0  0.23480778631E+01  0.19330484161E+01 -0.23690541204E+01  0.38551995091E+01  0.00000000000E+00 0.  1.
         22    1    4    4    0    0  0.36499213144E+02  0.24789120217E+01  0.29159167810E+01  0.36699320643E+02  0.00000000000E+00 0.  1.
<mgrwt>
<rscale>  0 0.91333857E+02</rscale>
<asrwt>0</asrwt>
<pdfrwt beam="2">  1        1 0.11734374E-01 0.91333857E+02</pdfrwt>
<pdfrwt beam="1">  1       -1 0.42064618E-02 0.91333857E+02</pdfrwt>
<totfact> 0.99519600E+04</totfact>
</mgrwt>
</event>
<event>
 7    1  0.2911475E-009  0.9868350E+02  0.7818608E-02  0.1283089E+00
         -1   -1    0    0    0  501 -0.00000000000E+00  0.00000000000E+00  0.17581746469E+02  0.17581747191E+02  0.50400000000E-02 0.  1.
          1   -1    0    0  501    0  0.00000000000E+00 -0.00000000000E+00 -0.13847363205E+03  0.13847363214E+03  0.50400000000E-02 0. -1.
         23    2    1    2    0    0 -0.44408920985E-15  0.35527136788E-14 -0.12089188558E+03  0.15605537934E+03  0.98683501252E+02 0.  0.
    9000005    2    3    3    0    0  0.31672501532E+01 -0.25085147730E+02  0.60411892960E+01  0.26628559824E+02  0.57695857781E+01 0.  0.
         22    1    3    3    0    0 -0.31672501532E+01  0.25085147730E+02 -0.12693307488E+03  0.12942681951E+03  0.00000000000E+00 0. -1.
         22    1    4    4    0    0  0.45897673086E+01 -0.20109945453E+02  0.37312983556E+01  0.20961833353E+02  0.00000000000E+00 0. -1.
         22    1    4    4    0    0 -0.14225171555E+01 -0.49752022767E+01  0.23098909404E+01  0.56667264720E+01  0.00000000000E+00 0. -1.
<mgrwt>
<rscale>  0 0.98683501E+02</rscale>
<asrwt>0</asrwt>
<pdfrwt beam="2">  1        1 0.21303635E-01 0.98683501E+02</pdfrwt>
<pdfrwt beam="1">  1       -1 0.27048842E-02 0.98683501E+02</pdfrwt>
<totfact> 0.89132663E+04</totfact>
</mgrwt>
</event>
<event>
 7    1  0.2911475E-009  0.9152199E+02  0.7818608E-02  0.1299207E+00
         -1   -1    0    0    0  501 -0.00000000000E+00  0.00000000000E+00  0.19081759337E+01  0.19081825897E+01  0.50400000000E-02 0.  1.
          1   -1    0    0  501    0  0.00000000000E+00 -0.00000000000E+00 -0.10974172077E+04  0.10974172077E+04  0.50400000000E-02 0. -1.
         23    2    1    2    0    0 -0.22204460493E-15  0.35527136788E-14 -0.10955090317E+04  0.10993253903E+04  0.91521992326E+02 0.  0.
    9000005    2    3    3    0    0 -0.18633708884E+01  0.23721889980E+02 -0.10152237571E+04  0.10155881492E+04  0.13183764326E+02 0.  0.
         22    1    3    3    0    0  0.18633708884E+01 -0.23721889980E+02 -0.80285274630E+02  0.83737241045E+02  0.00000000000E+00 0.  1.
         22    1    4    4    0    0 -0.31470559803E-01  0.24903840242E+02 -0.90367650557E+03  0.90401959546E+03  0.00000000000E+00 0.  1.
         22    1    4    4    0    0 -0.18319003286E+01 -0.11819502613E+01 -0.11154725154E+03  0.11156855378E+03  0.00000000000E+00 0.  1.
<mgrwt>
<rscale>  0 0.91521992E+02</rscale>
<asrwt>0</asrwt>
<pdfrwt beam="2">  1        1 0.16883291E+00 0.91521992E+02</pdfrwt>
<pdfrwt beam="1">  1       -1 0.29356692E-03 0.91521992E+02</pdfrwt>
<totfact> 0.13080072E+05</totfact>
</mgrwt>
</event>
<event>
 7    1  0.2911475E-009  0.9094786E+02  0.7818608E-02  0.1300572E+00
          1   -1    0    0  501    0  0.00000000000E+00  0.00000000000E+00  0.87032597154E+02  0.87032597300E+02  0.50400000000E-02 0. -1.
         -1   -1    0    0    0  501 -0.00000000000E+00 -0.00000000000E+00 -0.23759814848E+02  0.23759815382E+02  0.50400000000E-02 0.  1.
         23    2    1    2    0    0  0.00000000000E+00  0.00000000000E+00  0.63272782307E+02  0.11079241268E+03  0.90947862686E+02 0.  0.
    9000005    2    3    3    0    0 -0.10406642566E+02  0.27379904345E+02  0.73343731534E+02  0.79818530301E+02  0.11564491027E+02 0.  0.
         22    1    3    3    0    0  0.10406642566E+02 -0.27379904345E+02 -0.10070949227E+02  0.30973882381E+02  0.00000000000E+00 0.  1.
         22    1    4    4    0    0 -0.24875927412E+01  0.86737401013E+01  0.37967500565E+02  0.39025030226E+02  0.00000000000E+00 0.  1.
         22    1    4    4    0    0 -0.79190498243E+01  0.18706164243E+02  0.35376230969E+02  0.40793500075E+02  0.00000000000E+00 0.  1.
<mgrwt>
<rscale>  0 0.90947863E+02</rscale>
<asrwt>0</asrwt>
<pdfrwt beam="1">  1        1 0.13389630E-01 0.90947863E+02</pdfrwt>
<pdfrwt beam="2">  1       -1 0.36553562E-02 0.90947863E+02</pdfrwt>
<totfact> 0.10281116E+05</totfact>
</mgrwt>
</event>
<event>
 7    1  0.2911475E-009  0.9057215E+02  0.7818608E-02  0.1301472E+00
         -1   -1    0    0    0  501 -0.00000000000E+00  0.00000000000E+00  0.23453152596E+02  0.23453153137E+02  0.50400000000E-02 0.  1.
          1   -1    0    0  501    0  0.00000000000E+00 -0.00000000000E+00 -0.87443624756E+02  0.87443624901E+02  0.50400000000E-02 0. -1.
         23    2    1    2    0    0  0.00000000000E+00  0.00000000000E+00 -0.63990472160E+02  0.11089677804E+03  0.90572152740E+02 0.  0.
    9000005    2    3    3    0    0 -0.26853916337E+02  0.35720598538E+02 -0.32198540477E+02  0.56053174011E+02  0.10397996217E+02 0.  0.
         22    1    3    3    0    0  0.26853916337E+02 -0.35720598538E+02 -0.31791931683E+02  0.54843604027E+02  0.00000000000E+00 0.  1.
         22    1    4    4    0    0 -0.23578703858E+02  0.28705699609E+02 -0.30645229008E+02  0.48157061025E+02  0.00000000000E+00 0. -1.
         22    1    4    4    0    0 -0.32752124794E+01  0.70148989281E+01 -0.15533114693E+01  0.78961129854E+01  0.00000000000E+00 0. -1.
<mgrwt>
<rscale>  0 0.90572153E+02</rscale>
<asrwt>0</asrwt>
<pdfrwt beam="2">  1        1 0.13452865E-01 0.90572153E+02</pdfrwt>
<pdfrwt beam="1">  1       -1 0.36081774E-02 0.90572153E+02</pdfrwt>
<totfact> 0.10405955E+05</totfact>
</mgrwt>
</event>
<event>
 7    1  0.2911475E-009  0.9126779E+02  0.7818608E-02  0.1299810E+00
          1   -1    0    0  501    0  0.00000000000E+00  0.00000000000E+00  0.84978817699E+02  0.84978817848E+02  0.50400000000E-02 0. -1.
         -1   -1    0    0    0  501 -0.00000000000E+00 -0.00000000000E+00 -0.24505547899E+02  0.24505548417E+02  0.50400000000E-02 0.  1.
         23    2    1    2    0    0  0.35527136788E-14  0.00000000000E+00  0.60473269800E+02  0.10948436627E+03  0.91267793313E+02 0.  0.
    9000005    2    3    3    0    0 -0.30834365984E+02 -0.26037576523E+02  0.54266671725E+02  0.68652572569E+02  0.11814844197E+02 0.  0.
         22    1    3    3    0    0  0.30834365984E+02  0.26037576523E+02  0.62065980754E+01  0.40831793697E+02  0.00000000000E+00 0.  1.
         22    1    4    4    0    0 -0.30901094104E+01 -0.64041106323E+01  0.45974827659E+01  0.84674823260E+01  0.00000000000E+00 0.  1.
         22    1    4    4    0    0 -0.27744256574E+02 -0.19633465890E+02  0.49669188959E+02  0.60185090243E+02  0.00000000000E+00 0.  1.
<mgrwt>
<rscale>  0 0.91267793E+02</rscale>
<asrwt>0</asrwt>
<pdfrwt beam="1">  1        1 0.13073664E-01 0.91267793E+02</pdfrwt>
<pdfrwt beam="2">  1       -1 0.37700843E-02 0.91267793E+02</pdfrwt>
<totfact> 0.10143747E+05</totfact>
</mgrwt>
</event>
<event>
 7    1  0.2911475E-009  0.9366806E+02  0.7818608E-02  0.1294204E+00
          1   -1    0    0  501    0  0.00000000000E+00  0.00000000000E+00  0.26901322818E+02  0.26901323290E+02  0.50400000000E-02 0. -1.
         -1   -1    0    0    0  501 -0.00000000000E+00 -0.00000000000E+00 -0.81536010319E+02  0.81536010475E+02  0.50400000000E-02 0.  1.
         23    2    1    2    0    0  0.00000000000E+00  0.00000000000E+00 -0.54634687501E+02  0.10843733377E+03  0.93668064332E+02 0.  0.
    9000005    2    3    3    0    0  0.22562766910E+02  0.15032172878E+02 -0.70856714102E+02  0.76843049170E+02  0.12212108756E+02 0.  0.
         22    1    3    3    0    0 -0.22562766910E+02 -0.15032172878E+02  0.16222026601E+02  0.31594284596E+02  0.00000000000E+00 0. -1.
         22    1    4    4    0    0  0.16599315653E+02  0.14459525573E+02 -0.42528577277E+02  0.47888360227E+02  0.00000000000E+00 0. -1.
         22    1    4    4    0    0  0.59634512566E+01  0.57264730521E+00 -0.28328136825E+02  0.28954688943E+02  0.00000000000E+00 0. -1.
<mgrwt>
<rscale>  0 0.93668064E+02</rscale>
<asrwt>0</asrwt>
<pdfrwt beam="1">  1        1 0.41386652E-02 0.93668064E+02</pdfrwt>
<pdfrwt beam="2">  1       -1 0.12544001E-01 0.93668064E+02</pdfrwt>
<totfact> 0.78742008E+04</totfact>
</mgrwt>
</event>
<event>
 7    1  0.2911475E-009  0.9219115E+02  0.7818608E-02  0.1297631E+00
          1   -1    0    0  501    0  0.00000000000E+00  0.00000000000E+00  0.27694673463E+01  0.27694719323E+01  0.50400000000E-02 0. -1.
         -1   -1    0    0    0  501 -0.00000000000E+00 -0.00000000000E+00 -0.76722342104E+03  0.76722342106E+03  0.50400000000E-02 0.  1.
         23    2    1    2    0    0  0.00000000000E+00  0.00000000000E+00 -0.76445395369E+03  0.76999289299E+03  0.92191148900E+02 0.  0.
    9000005    2    3    3    0    0  0.39492155710E+02 -0.16827359246E+02 -0.50612909187E+03  0.50812551316E+03  0.13494039643E+02 0.  0.
         22    1    3    3    0    0 -0.39492155710E+02  0.16827359246E+02 -0.25832486182E+03  0.26186737983E+03  0.00000000000E+00 0.  1.
         22    1    4    4    0    0  0.22751957098E+02 -0.85679534430E+01 -0.20871254483E+03  0.21012374390E+03  0.00000000000E+00 0.  1.
         22    1    4    4    0    0  0.16740198611E+02 -0.82594058035E+01 -0.29741654704E+03  0.29800176927E+03  0.00000000000E+00 0.  1.
<mgrwt>
<rscale>  0 0.92191149E+02</rscale>
<asrwt>0</asrwt>
<pdfrwt beam="1">  1        1 0.42607286E-03 0.92191149E+02</pdfrwt>
<pdfrwt beam="2">  1       -1 0.11803420E+00 0.92191149E+02</pdfrwt>
<totfact> 0.33000688E+04</totfact>
</mgrwt>
</event>
<event>
 7    1  0.2911475E-009  0.9059887E+02  0.7818608E-02  0.1301408E+00
         -1   -1    0    0    0  501 -0.00000000000E+00  0.00000000000E+00  0.53630659448E+02  0.53630659685E+02  0.50400000000E-02 0.  1.
          1   -1    0    0  501    0  0.00000000000E+00 -0.00000000000E+00 -0.38262421159E+02  0.38262421491E+02  0.50400000000E-02 0. -1.
         23    2    1    2    0    0 -0.22204460493E-15  0.00000000000E+00  0.15368238289E+02  0.91893081176E+02  0.90598872067E+02 0.  0.
    9000005    2    3    3    0    0  0.15805144834E+01 -0.31208559922E+02 -0.25438258779E+02  0.40496170360E+02  0.40450668268E+01 0.  0.
         22    1    3    3    0    0 -0.15805144834E+01  0.31208559922E+02  0.40806497068E+02  0.51396910816E+02  0.00000000000E+00 0.  1.
         22    1    4    4    0    0  0.26518592228E+01 -0.14079739020E+02 -0.12288315269E+02  0.18875224511E+02  0.00000000000E+00 0. -1.
         22    1    4    4    0    0 -0.10713447395E+01 -0.17128820902E+02 -0.13149943511E+02  0.21620945848E+02  0.00000000000E+00 0. -1.
<mgrwt>
<rscale>  0 0.90598872E+02</rscale>
<asrwt>0</asrwt>
<pdfrwt beam="2">  1        1 0.58865264E-02 0.90598872E+02</pdfrwt>
<pdfrwt beam="1">  1       -1 0.82508707E-02 0.90598872E+02</pdfrwt>
<totfact> 0.91686205E+04</totfact>
</mgrwt>
</event>
<event>
 7    1  0.2911475E-009  0.1003778E+03  0.7818608E-02  0.1279504E+00
         -1   -1    0    0    0  501 -0.00000000000E+00  0.00000000000E+00  0.11689908483E+02  0.11689909570E+02  0.50400000000E-02 0.  1.
          1   -1    0    0  501    0  0.00000000000E+00 -0.00000000000E+00 -0.21547857236E+03  0.21547857242E+03  0.50400000000E-02 0. -1.
         23    2    1    2    0    0  0.00000000000E+00  0.00000000000E+00 -0.20378866388E+03  0.22716848199E+03  0.10037778481E+03 0.  0.
    9000005    2    3    3    0    0  0.17699632593E+02 -0.44192086641E+02 -0.73672268570E+02  0.88617069714E+02  0.12616036336E+02 0.  0.
         22    1    3    3    0    0 -0.17699632593E+02  0.44192086641E+02 -0.13011639531E+03  0.13855141227E+03  0.00000000000E+00 0. -1.
         22    1    4    4    0    0  0.15863251272E+02 -0.35886793508E+02 -0.67615195697E+02  0.78174928068E+02  0.00000000000E+00 0.  1.
         22    1    4    4    0    0  0.18363813211E+01 -0.83052931327E+01 -0.60570728731E+01  0.10442141647E+02  0.00000000000E+00 0.  1.
<mgrwt>
<rscale>  0 0.10037778E+03</rscale>
<asrwt>0</asrwt>
<pdfrwt beam="2">  1        1 0.33150547E-01 0.10037778E+03</pdfrwt>
<pdfrwt beam="1">  1       -1 0.17984477E-02 0.10037778E+03</pdfrwt>
<totfact> 0.92725036E+04</totfact>
</mgrwt>
</event>
<event>
 7    1  0.2911475E-009  0.9082134E+02  0.7818608E-02  0.1300875E+00
          1   -1    0    0  501    0  0.00000000000E+00  0.00000000000E+00  0.15763729509E+03  0.15763729517E+03  0.50400000000E-02 0. -1.
         -1   -1    0    0    0  501 -0.00000000000E+00 -0.00000000000E+00 -0.13081477858E+02  0.13081478829E+02  0.50400000000E-02 0.  1.
         23    2    1    2    0    0  0.35527136788E-14  0.35527136788E-14  0.14455581723E+03  0.17071877400E+03  0.90821338356E+02 0.  0.
    9000005    2    3    3    0    0 -0.30526054996E+02 -0.31930694975E+02  0.73757117408E+02  0.87268997417E+02  0.14978525514E+02 0.  0.
         22    1    3    3    0    0  0.30526054996E+02  0.31930694975E+02  0.70798699826E+02  0.83449776586E+02  0.00000000000E+00 0. -1.
         22    1    4    4    0    0 -0.32501310691E+01 -0.65637328886E+01  0.44051851751E+01  0.85470227463E+01  0.00000000000E+00 0.  1.
         22    1    4    4    0    0 -0.27275923927E+02 -0.25366962086E+02  0.69351932233E+02  0.78721974671E+02  0.00000000000E+00 0.  1.
<mgrwt>
<rscale>  0 0.90821338E+02</rscale>
<asrwt>0</asrwt>
<pdfrwt beam="1">  1        1 0.24251892E-01 0.90821338E+02</pdfrwt>
<pdfrwt beam="2">  1       -1 0.20125351E-02 0.90821338E+02</pdfrwt>
<totfact> 0.11436382E+05</totfact>
</mgrwt>
</event>
<event>
 7    1  0.2911475E-009  0.9879592E+02  0.7818608E-02  0.1282849E+00
          1   -1    0    0  501    0  0.00000000000E+00  0.00000000000E+00  0.37815017883E+02  0.37815018218E+02  0.50400000000E-02 0. -1.
         -1   -1    0    0    0  501 -0.00000000000E+00 -0.00000000000E+00 -0.64528817184E+02  0.64528817380E+02  0.50400000000E-02 0.  1.
         23    2    1    2    0    0  0.00000000000E+00  0.00000000000E+00 -0.26713799301E+02  0.10234383560E+03  0.98795919005E+02 0.  0.
    9000005    2    3    3    0    0  0.43158237604E+02 -0.15714839651E+02 -0.31339664200E+02  0.56181206943E+02  0.80351604262E+01 0.  0.
         22    1    3    3    0    0 -0.43158237604E+02  0.15714839651E+02  0.46258648991E+01  0.46162628656E+02  0.00000000000E+00 0. -1.
         22    1    4    4    0    0  0.14671919355E+02 -0.94677751316E+01 -0.11426488388E+02  0.20867884904E+02  0.00000000000E+00 0. -1.
         22    1    4    4    0    0  0.28486318249E+02 -0.62470645199E+01 -0.19913175812E+02  0.35313322039E+02  0.00000000000E+00 0. -1.
<mgrwt>
<rscale>  0 0.98795919E+02</rscale>
<asrwt>0</asrwt>
<pdfrwt beam="1">  1        1 0.58176951E-02 0.98795919E+02</pdfrwt>
<pdfrwt beam="2">  1       -1 0.99275104E-02 0.98795919E+02</pdfrwt>
<totfact> 0.71478552E+04</totfact>
</mgrwt>
</event>
<event>
 7    1  0.2911475E-009  0.8531135E+02  0.7818608E-02  0.1314620E+00
         -1   -1    0    0    0  501 -0.00000000000E+00  0.00000000000E+00  0.10563698421E+03  0.10563698433E+03  0.50400000000E-02 0.  1.
          1   -1    0    0  501    0  0.00000000000E+00 -0.00000000000E+00 -0.17224143072E+02  0.17224143809E+02  0.50400000000E-02 0. -1.
         23    2    1    2    0    0  0.00000000000E+00  0.00000000000E+00  0.88412841135E+02  0.12286112814E+03  0.85311349359E+02 0.  0.
    9000005    2    3    3    0    0  0.35639284462E+02  0.81920663792E+01  0.75764131212E+02  0.84166704621E+02  0.25616478673E+01 0.  0.
         22    1    3    3    0    0 -0.35639284462E+02 -0.81920663792E+01  0.12648709923E+02  0.38694423516E+02  0.00000000000E+00 0. -1.
         22    1    4    4    0    0  0.12628148281E+02  0.41298653931E+01  0.28137902287E+02  0.31116996357E+02  0.00000000000E+00 0.  1.
         22    1    4    4    0    0  0.23011136181E+02  0.40622009861E+01  0.47626228925E+02  0.53049708263E+02  0.00000000000E+00 0.  1.
<mgrwt>
<rscale>  0 0.85311349E+02</rscale>
<asrwt>0</asrwt>
<pdfrwt beam="2">  1        1 0.26498682E-02 0.85311349E+02</pdfrwt>
<pdfrwt beam="1">  1       -1 0.16251844E-01 0.85311349E+02</pdfrwt>
<totfact> 0.95561302E+04</totfact>
</mgrwt>
</event>
<event>
 7    1  0.2911475E-009  0.9283512E+02  0.7818608E-02  0.1296128E+00
          1   -1    0    0  501    0  0.00000000000E+00  0.00000000000E+00  0.22405247140E+03  0.22405247146E+03  0.50400000000E-02 0. -1.
         -1   -1    0    0    0  501 -0.00000000000E+00 -0.00000000000E+00 -0.96164510478E+01  0.96164523686E+01  0.50400000000E-02 0.  1.
         23    2    1    2    0    0  0.00000000000E+00  0.00000000000E+00  0.21443602035E+03  0.23366892383E+03  0.92835118017E+02 0.  0.
    9000005    2    3    3    0    0  0.26977980716E+02  0.20729612748E+02  0.18498353751E+03  0.18866917901E+03  0.14819637966E+02 0.  0.
         22    1    3    3    0    0 -0.26977980716E+02 -0.20729612748E+02  0.29452482845E+02  0.44999744821E+02  0.00000000000E+00 0.  1.
         22    1    4    4    0    0  0.18033141805E+02  0.49844393548E+01  0.82166745069E+02  0.84269880944E+02  0.00000000000E+00 0.  1.
         22    1    4    4    0    0  0.89448389105E+01  0.15745173393E+02  0.10281679244E+03  0.10439929806E+03  0.00000000000E+00 0.  1.
<mgrwt>
<rscale>  0 0.92835118E+02</rscale>
<asrwt>0</asrwt>
<pdfrwt beam="1">  1        1 0.34469606E-01 0.92835118E+02</pdfrwt>
<pdfrwt beam="2">  1       -1 0.14794543E-02 0.92835118E+02</pdfrwt>
<totfact> 0.11534323E+05</totfact>
</mgrwt>
</event>
<event>
 7    1  0.2911475E-009  0.9243535E+02  0.7818608E-02  0.1297059E+00
          1   -1    0    0  501    0  0.00000000000E+00  0.00000000000E+00  0.30987433042E+02  0.30987433452E+02  0.50400000000E-02 0. -1.
         -1   -1    0    0    0  501 -0.00000000000E+00 -0.00000000000E+00 -0.68933539755E+02  0.68933539939E+02  0.50400000000E-02 0.  1.
         23    2    1    2    0    0  0.00000000000E+00  0.00000000000E+00 -0.37946106713E+02  0.99920973392E+02  0.92435349888E+02 0.  0.
    9000005    2    3    3    0    0 -0.17961165991E+02 -0.14313878066E+02 -0.61962328532E+02  0.66690422696E+02  0.89884221788E+01 0.  0.
         22    1    3    3    0    0  0.17961165991E+02  0.14313878066E+02  0.24016221819E+02  0.33230550695E+02  0.00000000000E+00 0. -1.
         22    1    4    4    0    0 -0.12678387601E+02 -0.14479685041E+02 -0.51265623026E+02  0.54759171791E+02  0.00000000000E+00 0. -1.
         22    1    4    4    0    0 -0.52827783903E+01  0.16580697499E+00 -0.10696705506E+02  0.11931250905E+02  0.00000000000E+00 0. -1.
<mgrwt>
<rscale>  0 0.92435350E+02</rscale>
<asrwt>0</asrwt>
<pdfrwt beam="1">  1        1 0.47672974E-02 0.92435350E+02</pdfrwt>
<pdfrwt beam="2">  1       -1 0.10605160E-01 0.92435350E+02</pdfrwt>
<totfact> 0.83772680E+04</totfact>
</mgrwt>
</event>
<event>
 7    1  0.2911475E-009  0.9944812E+02  0.7818608E-02  0.1281461E+00
          1   -1    0    0  501    0  0.00000000000E+00  0.00000000000E+00  0.20153091877E+02  0.20153092507E+02  0.50400000000E-02 0.  1.
         -1   -1    0    0    0  501 -0.00000000000E+00 -0.00000000000E+00 -0.12268499426E+03  0.12268499436E+03  0.50400000000E-02 0. -1.
         23    2    1    2    0    0  0.35527136788E-14  0.71054273576E-14 -0.10253190238E+03  0.14283808687E+03  0.99448117399E+02 0.  0.
    9000005    2    3    3    0    0  0.16188197946E+02  0.46629428193E+02 -0.47962164785E+02  0.69256719745E+02  0.77306308030E+01 0.  0.
         22    1    3    3    0    0 -0.16188197946E+02 -0.46629428193E+02 -0.54569737594E+02  0.73581367122E+02  0.00000000000E+00 0. -1.
         22    1    4    4    0    0  0.11590916490E+02  0.34996990904E+02 -0.40155834945E+02  0.54512657224E+02  0.00000000000E+00 0.  1.
         22    1    4    4    0    0  0.45972814559E+01  0.11632437289E+02 -0.78063298395E+01  0.14744062521E+02  0.00000000000E+00 0.  1.
<mgrwt>
<rscale>  0 0.99448117E+02</rscale>
<asrwt>0</asrwt>
<pdfrwt beam="1">  1        1 0.31004758E-02 0.99448117E+02</pdfrwt>
<pdfrwt beam="2">  1       -1 0.18874614E-01 0.99448117E+02</pdfrwt>
<totfact> 0.62415809E+04</totfact>
</mgrwt>
</event>
<event>
 7    1  0.2911475E-009  0.9109502E+02  0.7818608E-02  0.1300221E+00
          1   -1    0    0  501    0  0.00000000000E+00  0.00000000000E+00  0.78138456187E+02  0.78138456349E+02  0.50400000000E-02 0. -1.
         -1   -1    0    0    0  501 -0.00000000000E+00 -0.00000000000E+00 -0.26549993665E+02  0.26549994144E+02  0.50400000000E-02 0.  1.
         23    2    1    2    0    0  0.00000000000E+00  0.00000000000E+00  0.51588462521E+02  0.10468845049E+03  0.91095017434E+02 0.  0.
    9000005    2    3    3    0    0  0.27732937123E+02 -0.10801984455E+02 -0.11679476132E+02  0.34769706718E+02  0.13664687078E+02 0.  0.
         22    1    3    3    0    0 -0.27732937123E+02  0.10801984455E+02  0.63267938653E+02  0.69918743775E+02  0.00000000000E+00 0. -1.
         22    1    4    4    0    0  0.10814506749E+02 -0.67991314138E+01  0.16255132793E+01  0.12877268251E+02  0.00000000000E+00 0.  1.
         22    1    4    4    0    0  0.16918430374E+02 -0.40028530408E+01 -0.13304989411E+02  0.21892438467E+02  0.00000000000E+00 0.  1.
<mgrwt>
<rscale>  0 0.91095017E+02</rscale>
<asrwt>0</asrwt>
<pdfrwt beam="1">  1        1 0.12021301E-01 0.91095017E+02</pdfrwt>
<pdfrwt beam="2">  1       -1 0.40846145E-02 0.91095017E+02</pdfrwt>
<totfact> 0.10061942E+05</totfact>
</mgrwt>
</event>
<event>
 7    1  0.2911475E-009  0.1040357E+03  0.7818608E-02  0.1272031E+00
          1   -1    0    0  501    0  0.00000000000E+00  0.00000000000E+00  0.19118145993E+02  0.19118146658E+02  0.50400000000E-02 0. -1.
         -1   -1    0    0    0  501 -0.00000000000E+00 -0.00000000000E+00 -0.14153331181E+03  0.14153331190E+03  0.50400000000E-02 0.  1.
         23    2    1    2    0    0  0.00000000000E+00  0.00000000000E+00 -0.12241516582E+03  0.16065145856E+03  0.10403565886E+03 0.  0.
    9000005    2    3    3    0    0  0.13097010041E+02  0.45732933451E+02 -0.93370520862E+02  0.10491435893E+03  0.50927075463E+01 0.  0.
         22    1    3    3    0    0 -0.13097010041E+02 -0.45732933451E+02 -0.29044644955E+02  0.55737099625E+02  0.00000000000E+00 0. -1.
         22    1    4    4    0    0  0.97510099953E+01  0.37681642791E+02 -0.72304996480E+02  0.82115777506E+02  0.00000000000E+00 0. -1.
         22    1    4    4    0    0  0.33460000459E+01  0.80512906595E+01 -0.21065524382E+02  0.22798581427E+02  0.00000000000E+00 0. -1.
<mgrwt>
<rscale>  0 0.10403566E+03</rscale>
<asrwt>0</asrwt>
<pdfrwt beam="1">  1        1 0.29412534E-02 0.10403566E+03</pdfrwt>
<pdfrwt beam="2">  1       -1 0.21774355E-01 0.10403566E+03</pdfrwt>
<totfact> 0.53773859E+04</totfact>
</mgrwt>
</event>
<event>
 7    1  0.3880637E-009  0.9069916E+02  0.7818608E-02  0.1301167E+00
          1   -1    0    0  501    0  0.00000000000E+00  0.00000000000E+00  0.97697812685E+01  0.97697825685E+01  0.50400000000E-02 0. -1.
         -1   -1    0    0    0  501 -0.00000000000E+00 -0.00000000000E+00 -0.21050462593E+03  0.21050462599E+03  0.50400000000E-02 0.  1.
         23    2    1    2    0    0  0.00000000000E+00  0.00000000000E+00 -0.20073484466E+03  0.22027440856E+03  0.90699157685E+02 0.  0.
    9000005    2    3    3    0    0  0.19677806822E+02  0.18955868776E+02 -0.18739467996E+03  0.18986879992E+03  0.13669457336E+02 0.  0.
         22    1    3    3    0    0 -0.19677806822E+02 -0.18955868776E+02 -0.13340164702E+02  0.30405608638E+02  0.00000000000E+00 0. -1.
         22    1    4    4    0    0  0.27160913475E+01  0.24660802306E+01 -0.67566865172E+01  0.76884014335E+01  0.00000000000E+00 0.  1.
         22    1    4    4    0    0  0.16961715475E+02  0.16489788545E+02 -0.18063799344E+03  0.18218039849E+03  0.00000000000E+00 0.  1.
<mgrwt>
<rscale>  0 0.90699158E+02</rscale>
<asrwt>0</asrwt>
<pdfrwt beam="1">  1        1 0.15030435E-02 0.90699158E+02</pdfrwt>
<pdfrwt beam="2">  1       -1 0.32385324E-01 0.90699158E+02</pdfrwt>
<totfact> 0.69338947E+04</totfact>
</mgrwt>
</event>
<event>
 6    1  0.2911475E-009  0.1431074E+03  0.7818608E-02  0.1209208E+00
          1   -1    0    0  501    0  0.00000000000E+00  0.00000000000E+00  0.18677277378E+02  0.18677278058E+02  0.50400000000E-02 0. -1.
         -1   -1    0    0    0  501 -0.00000000000E+00 -0.00000000000E+00 -0.27412633015E+03  0.27412633020E+03  0.50400000000E-02 0.  1.
    9000005    2    1    2    0    0  0.55490409394E+02 -0.36587545795E+02 -0.18115025042E+03  0.19311335762E+03  0.77150255436E+01 0.  0.
         22    1    1    2    0    0 -0.55490409394E+02  0.36587545795E+02 -0.74298802350E+02  0.99690250640E+02  0.00000000000E+00 0. -1.
         22    1    3    3    0    0  0.55424575104E+02 -0.35972613475E+02 -0.17726632786E+03  0.18918050491E+03  0.00000000000E+00 0. -1.
         22    1    3    3    0    0  0.65834289810E-01 -0.61493231974E+00 -0.38839225646E+01  0.39328527050E+01  0.00000000000E+00 0. -1.
<mgrwt>
<rscale>  0 0.14310742E+03</rscale>
<asrwt>0</asrwt>
<pdfrwt beam="1">  1        1 0.28734275E-02 0.14310742E+03</pdfrwt>
<pdfrwt beam="2">  1       -1 0.42173279E-01 0.14310742E+03</pdfrwt>
<totfact> 0.19007010E+04</totfact>
</mgrwt>
</event>
<event>
 7    1  0.2911475E-009  0.9194042E+02  0.7818608E-02  0.1298220E+00
         -1   -1    0    0    0  501 -0.00000000000E+00  0.00000000000E+00  0.18057604250E+02  0.18057604953E+02  0.50400000000E-02 0.  1.
          1   -1    0    0  501    0  0.00000000000E+00 -0.00000000000E+00 -0.11702882527E+03  0.11702882538E+03  0.50400000000E-02 0. -1.
         23    2    1    2    0    0 -0.71054273576E-14  0.00000000000E+00 -0.98971221018E+02  0.13508643033E+03  0.91940421302E+02 0.  0.
    9000005    2    3    3    0    0  0.39797451444E+02  0.38490479239E+01 -0.82121923603E+02  0.91698054757E+02  0.81160703966E+01 0.  0.
         22    1    3    3    0    0 -0.39797451444E+02 -0.38490479239E+01 -0.16849297415E+02  0.43388375572E+02  0.00000000000E+00 0.  1.
         22    1    4    4    0    0  0.33940133126E+02  0.55009260947E+01 -0.73500740633E+02  0.81145250619E+02  0.00000000000E+00 0. -1.
         22    1    4    4    0    0  0.58573183182E+01 -0.16518781708E+01 -0.86211829700E+01  0.10552804138E+02  0.00000000000E+00 0. -1.
<mgrwt>
<rscale>  0 0.91940421E+02</rscale>
<asrwt>0</asrwt>
<pdfrwt beam="2">  1        1 0.18004434E-01 0.91940421E+02</pdfrwt>
<pdfrwt beam="1">  1       -1 0.27780931E-02 0.91940421E+02</pdfrwt>
<totfact> 0.10486790E+05</totfact>
</mgrwt>
</event>
<event>
 7    1  0.2911475E-009  0.9047178E+02  0.7818608E-02  0.1301713E+00
         -1   -1    0    0    0  501 -0.00000000000E+00  0.00000000000E+00  0.11856619617E+03  0.11856619628E+03  0.50400000000E-02 0.  1.
          1   -1    0    0  501    0  0.00000000000E+00 -0.00000000000E+00 -0.17258592528E+02  0.17258593264E+02  0.50400000000E-02 0. -1.
         23    2    1    2    0    0  0.35527136788E-14  0.00000000000E+00  0.10130760364E+03  0.13582478954E+03  0.90471779567E+02 0.  0.
    9000005    2    3    3    0    0  0.27097775795E+02 -0.34926197590E+02  0.46563160583E+02  0.65460858603E+02  0.12761949478E+02 0.  0.
         22    1    3    3    0    0 -0.27097775795E+02  0.34926197590E+02  0.54744443059E+02  0.70363930938E+02  0.00000000000E+00 0. -1.
         22    1    4    4    0    0  0.96750720295E-01 -0.41975537385E+01  0.11762608232E+01  0.43603219621E+01  0.00000000000E+00 0.  1.
         22    1    4    4    0    0  0.27001025075E+02 -0.30728643851E+02  0.45386899760E+02  0.61100536641E+02  0.00000000000E+00 0.  1.
<mgrwt>
<rscale>  0 0.90471780E+02</rscale>
<asrwt>0</asrwt>
<pdfrwt beam="2">  1        1 0.26551681E-02 0.90471780E+02</pdfrwt>
<pdfrwt beam="1">  1       -1 0.18240954E-01 0.90471780E+02</pdfrwt>
<totfact> 0.80317523E+04</totfact>
</mgrwt>
</event>
<event>
 7    1  0.2911475E-009  0.9199779E+02  0.7818608E-02  0.1298085E+00
          1   -1    0    0  501    0  0.00000000000E+00  0.00000000000E+00  0.22319934342E+03  0.22319934348E+03  0.50400000000E-02 0. -1.
         -1   -1    0    0    0  501 -0.00000000000E+00 -0.00000000000E+00 -0.94798582316E+01  0.94798595714E+01  0.50400000000E-02 0.  1.
         23    2    1    2    0    0  0.17763568394E-14  0.88817841970E-15  0.21371948519E+03  0.23267920305E+03  0.91997789006E+02 0.  0.
    9000005    2    3    3    0    0  0.13286972930E+02  0.38555226029E+01  0.21778725910E+03  0.21825854118E+03  0.37539133007E+01 0.  0.
         22    1    3    3    0    0 -0.13286972930E+02 -0.38555226029E+01 -0.40677739146E+01  0.14420661871E+02  0.00000000000E+00 0.  1.
         22    1    4    4    0    0  0.91782345012E+01  0.44133480108E+01  0.15221543617E+03  0.15255574927E+03  0.00000000000E+00 0.  1.
         22    1    4    4    0    0  0.41087384285E+01 -0.55782540792E+00  0.65571822935E+02  0.65702791902E+02  0.00000000000E+00 0.  1.
<mgrwt>
<rscale>  0 0.91997789E+02</rscale>
<asrwt>0</asrwt>
<pdfrwt beam="1">  1        1 0.34338360E-01 0.91997789E+02</pdfrwt>
<pdfrwt beam="2">  1       -1 0.14584398E-02 0.91997789E+02</pdfrwt>
<totfact> 0.11809254E+05</totfact>
</mgrwt>
</event>
<event>
 7    1  0.2911475E-009  0.9058406E+02  0.7818608E-02  0.1301443E+00
         -1   -1    0    0    0  501 -0.00000000000E+00  0.00000000000E+00  0.77981957632E+01  0.77981973919E+01  0.50400000000E-02 0.  1.
          1   -1    0    0  501    0  0.00000000000E+00 -0.00000000000E+00 -0.26305673612E+03  0.26305673617E+03  0.50400000000E-02 0. -1.
         23    2    1    2    0    0 -0.71054273576E-14  0.11102230246E-15 -0.25525854035E+03  0.27085493356E+03  0.90584063768E+02 0.  0.
    9000005    2    3    3    0    0  0.42710477797E+02  0.81259711170E+00 -0.98635501333E+02  0.10851078805E+03  0.14858794455E+02 0.  0.
         22    1    3    3    0    0 -0.42710477797E+02 -0.81259711170E+00 -0.15662303902E+03  0.16234414551E+03  0.00000000000E+00 0. -1.
         22    1    4    4    0    0  0.40909537834E+02 -0.24270304234E+01 -0.94213801487E+02  0.10274103928E+03  0.00000000000E+00 0.  1.
         22    1    4    4    0    0  0.18009399629E+01  0.32396275351E+01 -0.44216998457E+01  0.57697487676E+01  0.00000000000E+00 0.  1.
<mgrwt>
<rscale>  0 0.90584064E+02</rscale>
<asrwt>0</asrwt>
<pdfrwt beam="2">  1        1 0.40470261E-01 0.90584064E+02</pdfrwt>
<pdfrwt beam="1">  1       -1 0.11997228E-02 0.90584064E+02</pdfrwt>
<totfact> 0.12709746E+05</totfact>
</mgrwt>
</event>
<event>
 6    1  0.2911475E-009  0.3406799E+03  0.7818608E-02  0.1066507E+00
         -1   -1    0    0    0  501 -0.00000000000E+00  0.00000000000E+00  0.44679286376E+02  0.44679286660E+02  0.50400000000E-02 0.  1.
          1   -1    0    0  501    0  0.00000000000E+00 -0.00000000000E+00 -0.64942185354E+03  0.64942185356E+03  0.50400000000E-02 0. -1.
    9000005    2    1    2    0    0 -0.13429020637E+03 -0.50551923456E+01 -0.51562883612E+03  0.53285390286E+03  0.87787195714E+00 0.  0.
         22    1    1    2    0    0  0.13429020637E+03  0.50551923456E+01 -0.89113731046E+02  0.16124723736E+03  0.00000000000E+00 0.  1.
         22    1    3    3    0    0 -0.46496773530E+02 -0.21289753976E+01 -0.17929124499E+03  0.18523453515E+03  0.00000000000E+00 0.  1.
         22    1    3    3    0    0 -0.87793432836E+02 -0.29262169481E+01 -0.33633759114E+03  0.34761936771E+03  0.00000000000E+00 0.  1.
<mgrwt>
<rscale>  0 0.34067994E+03</rscale>
<asrwt>0</asrwt>
<pdfrwt beam="2">  1        1 0.99911048E-01 0.34067994E+03</pdfrwt>
<pdfrwt beam="1">  1       -1 0.68737368E-02 0.34067994E+03</pdfrwt>
<totfact> 0.34243403E+03</totfact>
</mgrwt>
</event>
<event>
 7    1  0.2911475E-009  0.9098257E+02  0.7818608E-02  0.1300490E+00
          1   -1    0    0  501    0  0.00000000000E+00  0.00000000000E+00  0.85107510782E+03  0.85107510784E+03  0.50400000000E-02 0. -1.
         -1   -1    0    0    0  501 -0.00000000000E+00 -0.00000000000E+00 -0.24315774034E+01  0.24315826266E+01  0.50400000000E-02 0.  1.
         23    2    1    2    0    0  0.00000000000E+00  0.00000000000E+00  0.84864353042E+03  0.85350669047E+03  0.90982574951E+02 0.  0.
    9000005    2    3    3    0    0  0.22999964701E+02  0.16838828906E+02  0.75536969167E+03  0.75597437002E+03  0.10066404853E+02 0.  0.
         22    1    3    3    0    0 -0.22999964701E+02 -0.16838828906E+02  0.93273838756E+02  0.97532320445E+02  0.00000000000E+00 0.  1.
         22    1    4    4    0    0  0.22852756661E+02  0.15292180676E+02  0.63549622949E+03  0.63609084019E+03  0.00000000000E+00 0.  1.
         22    1    4    4    0    0  0.14720804076E+00  0.15466482296E+01  0.11987346218E+03  0.11988352984E+03  0.00000000000E+00 0.  1.
<mgrwt>
<rscale>  0 0.90982575E+02</rscale>
<asrwt>0</asrwt>
<pdfrwt beam="1">  1        1 0.13093460E+00 0.90982575E+02</pdfrwt>
<pdfrwt beam="2">  1       -1 0.37408932E-03 0.90982575E+02</pdfrwt>
<totfact> 0.14114926E+05</totfact>
</mgrwt>
</event>
<event>
 7    1  0.2911475E-009  0.9041556E+02  0.7818608E-02  0.1301848E+00
          1   -1    0    0  501    0  0.00000000000E+00  0.00000000000E+00  0.12680557449E+02  0.12680558451E+02  0.50400000000E-02 0. -1.
         -1   -1    0    0    0  501 -0.00000000000E+00 -0.00000000000E+00 -0.16117139747E+03  0.16117139755E+03  0.50400000000E-02 0.  1.
         23    2    1    2    0    0  0.00000000000E+00  0.00000000000E+00 -0.14849084002E+03  0.17385195600E+03  0.90415557481E+02 0.  0.
    9000005    2    3    3    0    0  0.80600735663E+01  0.26016240225E+02 -0.14259684497E+03  0.14598533225E+03  0.15363837304E+02 0.  0.
         22    1    3    3    0    0 -0.80600735663E+01 -0.26016240225E+02 -0.58939950515E+01  0.27866623746E+02  0.00000000000E+00 0. -1.
         22    1    4    4    0    0  0.41136507092E+01  0.15729934344E+02 -0.11691382953E+03  0.11803896175E+03  0.00000000000E+00 0. -1.
         22    1    4    4    0    0  0.39464228571E+01  0.10286305881E+02 -0.25683015438E+02  0.27946370498E+02  0.00000000000E+00 0. -1.
<mgrwt>
<rscale>  0 0.90415557E+02</rscale>
<asrwt>0</asrwt>
<pdfrwt beam="1">  1        1 0.19508552E-02 0.90415557E+02</pdfrwt>
<pdfrwt beam="2">  1       -1 0.24795598E-01 0.90415557E+02</pdfrwt>
<totfact> 0.75129385E+04</totfact>
</mgrwt>
</event>
<event>
 7    1  0.2911475E-009  0.9162934E+02  0.7818608E-02  0.1298953E+00
          1   -1    0    0  501    0  0.00000000000E+00  0.00000000000E+00  0.11271161717E+03  0.11271161728E+03  0.50400000000E-02 0. -1.
         -1   -1    0    0    0  501 -0.00000000000E+00 -0.00000000000E+00 -0.18622605847E+02  0.18622606529E+02  0.50400000000E-02 0.  1.
         23    2    1    2    0    0  0.35527136788E-14 -0.88817841970E-15  0.94089011319E+02  0.13133422381E+03  0.91629341873E+02 0.  0.
    9000005    2    3    3    0    0  0.18475224495E+02 -0.74454344381E+01  0.10616570780E+03  0.10804012558E+03  0.21777990801E+01 0.  0.
         22    1    3    3    0    0 -0.18475224495E+02  0.74454344381E+01 -0.12076696483E+02  0.23294098224E+02  0.00000000000E+00 0.  1.
         22    1    4    4    0    0  0.10383778100E+02 -0.52731330956E+01  0.59756844456E+02  0.60881107411E+02  0.00000000000E+00 0.  1.
         22    1    4    4    0    0  0.80914463954E+01 -0.21723013426E+01  0.46408863346E+02  0.47159018172E+02  0.00000000000E+00 0.  1.
<mgrwt>
<rscale>  0 0.91629342E+02</rscale>
<asrwt>0</asrwt>
<pdfrwt beam="1">  1        1 0.17340249E-01 0.91629342E+02</pdfrwt>
<pdfrwt beam="2">  1       -1 0.28650164E-02 0.91629342E+02</pdfrwt>
<totfact> 0.10515583E+05</totfact>
</mgrwt>
</event>
<event>
 7    1  0.2911475E-009  0.9122820E+02  0.7818608E-02  0.1299904E+00
         -1   -1    0    0    0  501 -0.00000000000E+00  0.00000000000E+00  0.69746889851E+01  0.69746908060E+01  0.50400000000E-02 0.  1.
          1   -1    0    0  501    0  0.00000000000E+00 -0.00000000000E+00 -0.29831380164E+03  0.29831380169E+03  0.50400000000E-02 0. -1.
         23    2    1    2    0    0  0.00000000000E+00 -0.88817841970E-15 -0.29133911266E+03  0.30528849249E+03  0.91228203334E+02 0.  0.
    9000005    2    3    3    0    0  0.44610181281E+02  0.49060528903E+01 -0.14478264055E+03  0.15201443355E+03  0.11499450977E+02 0.  0.
         22    1    3    3    0    0 -0.44610181281E+02 -0.49060528903E+01 -0.14655647211E+03  0.15327405894E+03  0.00000000000E+00 0.  1.
         22    1    4    4    0    0  0.33396380877E+02  0.91730573108E+00 -0.11929314772E+03  0.12388306906E+03  0.00000000000E+00 0. -1.
         22    1    4    4    0    0  0.11213800404E+02  0.39887471592E+01 -0.25489492829E+02  0.28131364490E+02  0.00000000000E+00 0. -1.
<mgrwt>
<rscale>  0 0.91228203E+02</rscale>
<asrwt>0</asrwt>
<pdfrwt beam="2">  1        1 0.45894421E-01 0.91228203E+02</pdfrwt>
<pdfrwt beam="1">  1       -1 0.10730295E-02 0.91228203E+02</pdfrwt>
<totfact> 0.12779213E+05</totfact>
</mgrwt>
</event>
<event>
 7    1  0.2911475E-009  0.9198826E+02  0.7818608E-02  0.1298107E+00
          1   -1    0    0  501    0  0.00000000000E+00  0.00000000000E+00  0.12939264730E+02  0.12939265712E+02  0.50400000000E-02 0. -1.
         -1   -1    0    0    0  501 -0.00000000000E+00 -0.00000000000E+00 -0.16349149012E+03  0.16349149019E+03  0.50400000000E-02 0.  1.
         23    2    1    2    0    0  0.00000000000E+00  0.88817841970E-15 -0.15055222539E+03  0.17643075591E+03  0.91988255016E+02 0.  0.
    9000005    2    3    3    0    0  0.21336251989E+02 -0.64310481755E+01 -0.15187858020E+03  0.15410692902E+03  0.13610599490E+02 0.  0.
         22    1    3    3    0    0 -0.21336251989E+02  0.64310481755E+01  0.13263548182E+01  0.22323826883E+02  0.00000000000E+00 0. -1.
         22    1    4    4    0    0  0.13644094360E+02  0.11549900272E+01 -0.11034127443E+03  0.11118764390E+03  0.00000000000E+00 0.  1.
         22    1    4    4    0    0  0.76921576299E+01 -0.75860382027E+01 -0.41537305772E+02  0.42919285122E+02  0.00000000000E+00 0.  1.
<mgrwt>
<rscale>  0 0.91988255E+02</rscale>
<asrwt>0</asrwt>
<pdfrwt beam="1">  1        1 0.19906563E-02 0.91988255E+02</pdfrwt>
<pdfrwt beam="2">  1       -1 0.25152536E-01 0.91988255E+02</pdfrwt>
<totfact> 0.71583915E+04</totfact>
</mgrwt>
</event>
<event>
 7    1  0.2911475E-009  0.9166360E+02  0.7818608E-02  0.1298872E+00
          1   -1    0    0  501    0  0.00000000000E+00  0.00000000000E+00  0.55734669878E+02  0.55734670106E+02  0.50400000000E-02 0. -1.
         -1   -1    0    0    0  501 -0.00000000000E+00 -0.00000000000E+00 -0.37688463183E+02  0.37688463520E+02  0.50400000000E-02 0.  1.
         23    2    1    2    0    0  0.35527136788E-14 -0.17763568394E-14  0.18046206695E+02  0.93423133626E+02  0.91663604121E+02 0.  0.
    9000005    2    3    3    0    0 -0.22655017338E+02  0.10047619758E+02  0.47554168551E+02  0.54888418287E+02  0.11710467200E+02 0.  0.
         22    1    3    3    0    0  0.22655017338E+02 -0.10047619758E+02 -0.29507961856E+02  0.38534715340E+02  0.00000000000E+00 0.  1.
         22    1    4    4    0    0 -0.24077604358E+02  0.95006240267E+01  0.45066719329E+02  0.51971165848E+02  0.00000000000E+00 0. -1.
         22    1    4    4    0    0  0.14225870198E+01  0.54699573156E+00  0.24874492224E+01  0.29172524391E+01  0.00000000000E+00 0. -1.
<mgrwt>
<rscale>  0 0.91663604E+02</rscale>
<asrwt>0</asrwt>
<pdfrwt beam="1">  1        1 0.85745646E-02 0.91663604E+02</pdfrwt>
<pdfrwt beam="2">  1       -1 0.57982252E-02 0.91663604E+02</pdfrwt>
<totfact> 0.93901867E+04</totfact>
</mgrwt>
</event>
<event>
 7    1  0.2911475E-009  0.8224212E+02  0.7818608E-02  0.1322806E+00
          1   -1    0    0  501    0  0.00000000000E+00  0.00000000000E+00  0.81717311246E+01  0.81717326788E+01  0.50400000000E-02 0. -1.
         -1   -1    0    0    0  501 -0.00000000000E+00 -0.00000000000E+00 -0.20692571613E+03  0.20692571619E+03  0.50400000000E-02 0.  1.
         23    2    1    2    0    0  0.00000000000E+00  0.00000000000E+00 -0.19875398501E+03  0.21509744887E+03  0.82242117890E+02 0.  0.
    9000005    2    3    3    0    0  0.27799691014E+02  0.27427704146E+02 -0.13175688869E+03  0.13754931743E+03  0.59021379902E+01 0.  0.
         22    1    3    3    0    0 -0.27799691014E+02 -0.27427704146E+02 -0.66997096313E+02  0.77548131439E+02  0.00000000000E+00 0. -1.
         22    1    4    4    0    0  0.21063530987E+02  0.18537428278E+02 -0.10130051402E+03  0.10511471223E+03  0.00000000000E+00 0. -1.
         22    1    4    4    0    0  0.67361600274E+01  0.88902758687E+01 -0.30456374670E+02  0.32434605208E+02  0.00000000000E+00 0. -1.
<mgrwt>
<rscale>  0 0.82242118E+02</rscale>
<asrwt>0</asrwt>
<pdfrwt beam="1">  1        1 0.12571897E-02 0.82242118E+02</pdfrwt>
<pdfrwt beam="2">  1       -1 0.31834722E-01 0.82242118E+02</pdfrwt>
<totfact> 0.89853874E+04</totfact>
</mgrwt>
</event>
<event>
 7    1  0.2911475E-009  0.8516376E+02  0.7818608E-02  0.1315005E+00
         -1   -1    0    0    0  501 -0.00000000000E+00  0.00000000000E+00  0.28211904163E+01  0.28211949182E+01  0.50400000000E-02 0.  1.
          1   -1    0    0  501    0  0.00000000000E+00 -0.00000000000E+00 -0.64271281883E+03  0.64271281885E+03  0.50400000000E-02 0. -1.
         23    2    1    2    0    0  0.00000000000E+00  0.00000000000E+00 -0.63989162841E+03  0.64553401377E+03  0.85163764698E+02 0.  0.
    9000005    2    3    3    0    0  0.61464733097E+01  0.38422111344E+02 -0.45003493407E+03  0.45173101544E+03  0.39281868081E+01 0.  0.
         22    1    3    3    0    0 -0.61464733097E+01 -0.38422111344E+02 -0.18985669434E+03  0.19380299833E+03  0.00000000000E+00 0.  1.
         22    1    4    4    0    0  0.29011476143E+01  0.28965594984E+02 -0.33486360925E+03  0.33612655228E+03  0.00000000000E+00 0. -1.
         22    1    4    4    0    0  0.32453256954E+01  0.94565163605E+01 -0.11517132482E+03  0.11560446316E+03  0.00000000000E+00 0. -1.
<mgrwt>
<rscale>  0 0.85163765E+02</rscale>
<asrwt>0</asrwt>
<pdfrwt beam="2">  1        1 0.98878779E-01 0.85163765E+02</pdfrwt>
<pdfrwt beam="1">  1       -1 0.43403015E-03 0.85163765E+02</pdfrwt>
<totfact> 0.17002758E+05</totfact>
</mgrwt>
</event>
<event>
 6    1  0.2911475E-009  0.1647647E+03  0.7818608E-02  0.1183420E+00
          1   -1    0    0  501    0  0.00000000000E+00  0.00000000000E+00  0.41291827902E+03  0.41291827905E+03  0.50400000000E-02 0. -1.
         -1   -1    0    0    0  501 -0.00000000000E+00 -0.00000000000E+00 -0.16436310528E+02  0.16436311301E+02  0.50400000000E-02 0.  1.
    9000005    2    1    2    0    0  0.30954097921E+02 -0.73714209569E+02  0.24377992852E+03  0.25698912431E+03  0.14927008963E+02 0.  0.
         22    1    1    2    0    0 -0.30954097921E+02  0.73714209569E+02  0.15270203997E+03  0.17236546604E+03  0.00000000000E+00 0.  1.
         22    1    3    3    0    0  0.25786188913E+02 -0.42762062154E+02  0.15212427114E+03  0.16011032249E+03  0.00000000000E+00 0. -1.
         22    1    3    3    0    0  0.51679090077E+01 -0.30952147415E+02  0.91655657382E+02  0.96878801826E+02  0.00000000000E+00 0. -1.
<mgrwt>
<rscale>  0 0.16476472E+03</rscale>
<asrwt>0</asrwt>
<pdfrwt beam="1">  1        1 0.63525889E-01 0.16476472E+03</pdfrwt>
<pdfrwt beam="2">  1       -1 0.25286632E-02 0.16476472E+03</pdfrwt>
<totfact> 0.26854594E+04</totfact>
</mgrwt>
</event>
<event>
 7    1  0.2911475E-009  0.9112893E+02  0.7818608E-02  0.1300141E+00
         -1   -1    0    0    0  501 -0.00000000000E+00  0.00000000000E+00  0.10712688041E+03  0.10712688053E+03  0.50400000000E-02 0.  1.
          1   -1    0    0  501    0  0.00000000000E+00 -0.00000000000E+00 -0.19380012703E+02  0.19380013359E+02  0.50400000000E-02 0. -1.
         23    2    1    2    0    0  0.00000000000E+00  0.00000000000E+00  0.87746867708E+02  0.12650689389E+03  0.91128927398E+02 0.  0.
    9000005    2    3    3    0    0  0.36518404143E+02  0.44543992657E+01  0.79610589127E+02  0.88828855947E+02  0.14116806785E+02 0.  0.
         22    1    3    3    0    0 -0.36518404143E+02 -0.44543992657E+01  0.81362785810E+01  0.37678037941E+02  0.00000000000E+00 0. -1.
         22    1    4    4    0    0  0.23332748798E+02  0.68364326204E+01  0.37986719722E+02  0.45101495016E+02  0.00000000000E+00 0.  1.
         22    1    4    4    0    0  0.13185655345E+02 -0.23820333547E+01  0.41623869405E+02  0.43727360931E+02  0.00000000000E+00 0.  1.
<mgrwt>
<rscale>  0 0.91128927E+02</rscale>
<asrwt>0</asrwt>
<pdfrwt beam="2">  1        1 0.29815405E-02 0.91128927E+02</pdfrwt>
<pdfrwt beam="1">  1       -1 0.16481058E-01 0.91128927E+02</pdfrwt>
<totfact> 0.80427134E+04</totfact>
</mgrwt>
</event>
<event>
 7    1  0.2911475E-009  0.8684652E+02  0.7818608E-02  0.1310673E+00
          1   -1    0    0  501    0  0.00000000000E+00  0.00000000000E+00  0.54844453694E+01  0.54844476851E+01  0.50400000000E-02 0. -1.
         -1   -1    0    0    0  501 -0.00000000000E+00 -0.00000000000E+00 -0.34380488253E+03  0.34380488257E+03  0.50400000000E-02 0.  1.
         23    2    1    2    0    0  0.00000000000E+00  0.00000000000E+00 -0.33832043717E+03  0.34928933026E+03  0.86846519950E+02 0.  0.
    9000005    2    3    3    0    0 -0.37888547160E+02  0.94546826292E+01 -0.10273281240E+03  0.11048719045E+03  0.11333820288E+02 0.  0.
         22    1    3    3    0    0  0.37888547160E+02 -0.94546826292E+01 -0.23558762477E+03  0.23880213980E+03  0.00000000000E+00 0.  1.
         22    1    4    4    0    0 -0.18755856012E+02  0.67524940299E+01 -0.66507214856E+02  0.69430453968E+02  0.00000000000E+00 0. -1.
         22    1    4    4    0    0 -0.19132691148E+02  0.27021885994E+01 -0.36225597540E+02  0.41056736486E+02  0.00000000000E+00 0. -1.
<mgrwt>
<rscale>  0 0.86846520E+02</rscale>
<asrwt>0</asrwt>
<pdfrwt beam="1">  1        1 0.84376128E-03 0.86846520E+02</pdfrwt>
<pdfrwt beam="2">  1       -1 0.52893042E-01 0.86846520E+02</pdfrwt>
<totfact> 0.64996317E+04</totfact>
</mgrwt>
</event>
<event>
 7    1  0.2911475E-009  0.9070508E+02  0.7818608E-02  0.1301153E+00
          1   -1    0    0  501    0  0.00000000000E+00  0.00000000000E+00  0.11591510246E+04  0.11591510246E+04  0.50400000000E-02 0. -1.
         -1   -1    0    0    0  501 -0.00000000000E+00 -0.00000000000E+00 -0.17744441666E+01  0.17744513242E+01  0.50400000000E-02 0.  1.
         23    2    1    2    0    0  0.00000000000E+00 -0.35527136788E-14  0.11573765804E+04  0.11609254759E+04  0.90705081111E+02 0.  0.
    9000005    2    3    3    0    0  0.86441614020E+01 -0.30887333066E+02  0.98840348119E+03  0.98893519383E+03  0.47567949608E+01 0.  0.
         22    1    3    3    0    0 -0.86441614020E+01  0.30887333066E+02  0.16897309922E+03  0.17199028208E+03  0.00000000000E+00 0.  1.
         22    1    4    4    0    0  0.61174108905E+01 -0.13213249021E+02  0.45653545042E+03  0.45676758877E+03  0.00000000000E+00 0. -1.
         22    1    4    4    0    0  0.25267505115E+01 -0.17674084045E+02  0.53186803078E+03  0.53216760506E+03  0.00000000000E+00 0. -1.
<mgrwt>
<rscale>  0 0.90705081E+02</rscale>
<asrwt>0</asrwt>
<pdfrwt beam="1">  1        1 0.17833130E+00 0.90705081E+02</pdfrwt>
<pdfrwt beam="2">  1       -1 0.27299139E-03 0.90705081E+02</pdfrwt>
<totfact> 0.13107944E+05</totfact>
</mgrwt>
</event>
<event>
 7    1  0.2911475E-009  0.9033193E+02  0.7818608E-02  0.1302050E+00
          1   -1    0    0  501    0  0.00000000000E+00  0.00000000000E+00  0.75445061497E+02  0.75445061666E+02  0.50400000000E-02 0. -1.
         -1   -1    0    0    0  501 -0.00000000000E+00 -0.00000000000E+00 -0.27039070585E+02  0.27039071054E+02  0.50400000000E-02 0.  1.
         23    2    1    2    0    0  0.00000000000E+00  0.00000000000E+00  0.48405990913E+02  0.10248413272E+03  0.90331929588E+02 0.  0.
    9000005    2    3    3    0    0  0.23915091440E+02 -0.17936952650E+02 -0.13496237935E+02  0.33741483620E+02  0.79166539380E+01 0.  0.
         22    1    3    3    0    0 -0.23915091440E+02  0.17936952650E+02  0.61902228848E+02  0.68742649100E+02  0.00000000000E+00 0. -1.
         22    1    4    4    0    0  0.18601994808E+02 -0.98675385334E+01 -0.11025950049E+02  0.23769183873E+02  0.00000000000E+00 0.  1.
         22    1    4    4    0    0  0.53130966326E+01 -0.80694141161E+01 -0.24702878860E+01  0.99722997470E+01  0.00000000000E+00 0.  1.
<mgrwt>
<rscale>  0 0.90331930E+02</rscale>
<asrwt>0</asrwt>
<pdfrwt beam="1">  1        1 0.11606933E-01 0.90331930E+02</pdfrwt>
<pdfrwt beam="2">  1       -1 0.41598571E-02 0.90331930E+02</pdfrwt>
<totfact> 0.10240695E+05</totfact>
</mgrwt>
</event>
<event>
 7    1  0.2911475E-009  0.9112084E+02  0.7818608E-02  0.1300160E+00
          1   -1    0    0  501    0  0.00000000000E+00  0.00000000000E+00  0.10803222871E+03  0.10803222883E+03  0.50400000000E-02 0. -1.
         -1   -1    0    0    0  501 -0.00000000000E+00 -0.00000000000E+00 -0.19214191474E+02  0.19214192135E+02  0.50400000000E-02 0.  1.
         23    2    1    2    0    0  0.00000000000E+00 -0.88817841970E-15  0.88818037236E+02  0.12724642096E+03  0.91120842342E+02 0.  0.
    9000005    2    3    3    0    0  0.40046621858E+02  0.65321477981E+01  0.20560382370E+02  0.47839190025E+02  0.14814111583E+02 0.  0.
         22    1    3    3    0    0 -0.40046621858E+02 -0.65321477981E+01  0.68257654867E+02  0.79407230937E+02  0.00000000000E+00 0. -1.
         22    1    4    4    0    0  0.24607194393E+02  0.65715433462E+01  0.50716469125E+01  0.25969613017E+02  0.00000000000E+00 0. -1.
         22    1    4    4    0    0  0.15439427465E+02 -0.39395548132E-01  0.15488735457E+02  0.21869577008E+02  0.00000000000E+00 0. -1.
<mgrwt>
<rscale>  0 0.91120842E+02</rscale>
<asrwt>0</asrwt>
<pdfrwt beam="1">  1        1 0.16620343E-01 0.91120842E+02</pdfrwt>
<pdfrwt beam="2">  1       -1 0.29560295E-02 0.91120842E+02</pdfrwt>
<totfact> 0.10599213E+05</totfact>
</mgrwt>
</event>
<event>
 7    1  0.2911475E-009  0.8806440E+02  0.7818608E-02  0.1307608E+00
          1   -1    0    0  501    0  0.00000000000E+00  0.00000000000E+00  0.45770562922E+02  0.45770563199E+02  0.50400000000E-02 0. -1.
         -1   -1    0    0    0  501 -0.00000000000E+00 -0.00000000000E+00 -0.42359863870E+02  0.42359864170E+02  0.50400000000E-02 0.  1.
         23    2    1    2    0    0  0.00000000000E+00  0.00000000000E+00  0.34106990517E+01  0.88130427369E+02  0.88064404616E+02 0.  0.
    9000005    2    3    3    0    0 -0.23215496225E+02  0.25245493120E+02 -0.25721529170E+02  0.43130639492E+02  0.47287220505E+01 0.  0.
         22    1    3    3    0    0  0.23215496225E+02 -0.25245493120E+02  0.29132228222E+02  0.44999787878E+02  0.00000000000E+00 0. -1.
         22    1    4    4    0    0 -0.97222062684E+01  0.93101369768E+01 -0.74541731831E+01  0.15387158383E+02  0.00000000000E+00 0. -1.
         22    1    4    4    0    0 -0.13493289957E+02  0.15935356143E+02 -0.18267355987E+02  0.27743481109E+02  0.00000000000E+00 0. -1.
<mgrwt>
<rscale>  0 0.88064405E+02</rscale>
<asrwt>0</asrwt>
<pdfrwt beam="1">  1        1 0.70416251E-02 0.88064405E+02</pdfrwt>
<pdfrwt beam="2">  1       -1 0.65169022E-02 0.88064405E+02</pdfrwt>
<totfact> 0.10196432E+05</totfact>
</mgrwt>
</event>
<event>
 7    1  0.2911475E-009  0.9103237E+02  0.7818608E-02  0.1300371E+00
          1   -1    0    0  501    0  0.00000000000E+00  0.00000000000E+00  0.76639093590E+02  0.76639093756E+02  0.50400000000E-02 0. -1.
         -1   -1    0    0    0  501 -0.00000000000E+00 -0.00000000000E+00 -0.27032195800E+02  0.27032196270E+02  0.50400000000E-02 0.  1.
         23    2    1    2    0    0  0.00000000000E+00  0.00000000000E+00  0.49606897790E+02  0.10367129003E+03  0.91032368239E+02 0.  0.
    9000005    2    3    3    0    0 -0.25662749633E+02 -0.26477686631E+02 -0.49141585851E+01  0.37851914487E+02  0.69981331577E+01 0.  0.
         22    1    3    3    0    0  0.25662749633E+02  0.26477686631E+02  0.54521056375E+02  0.65819375539E+02  0.00000000000E+00 0.  1.
         22    1    4    4    0    0 -0.19260600416E+02 -0.15996157142E+02 -0.51789661172E+01  0.25566960354E+02  0.00000000000E+00 0. -1.
         22    1    4    4    0    0 -0.64021492170E+01 -0.10481529489E+02  0.26480753212E+00  0.12284954133E+02  0.00000000000E+00 0. -1.
<mgrwt>
<rscale>  0 0.91032368E+02</rscale>
<asrwt>0</asrwt>
<pdfrwt beam="1">  1        1 0.11790630E-01 0.91032368E+02</pdfrwt>
<pdfrwt beam="2">  1       -1 0.41587994E-02 0.91032368E+02</pdfrwt>
<totfact> 0.10050437E+05</totfact>
</mgrwt>
</event>
<event>
 7    1  0.2911475E-009  0.9188470E+02  0.7818608E-02  0.1298351E+00
          1   -1    0    0  501    0  0.00000000000E+00  0.00000000000E+00  0.31885479967E+02  0.31885480365E+02  0.50400000000E-02 0. -1.
         -1   -1    0    0    0  501 -0.00000000000E+00 -0.00000000000E+00 -0.66196256410E+02  0.66196256602E+02  0.50400000000E-02 0.  1.
         23    2    1    2    0    0  0.17763568394E-14  0.00000000000E+00 -0.34310776443E+02  0.98081736967E+02  0.91884698108E+02 0.  0.
    9000005    2    3    3    0    0  0.11984810288E+02  0.41603511734E+02 -0.29778026675E+02  0.54549752327E+02  0.14644341573E+02 0.  0.
         22    1    3    3    0    0 -0.11984810288E+02 -0.41603511734E+02 -0.45327497685E+01  0.43531984640E+02  0.00000000000E+00 0. -1.
         22    1    4    4    0    0  0.34056997652E+01  0.33592135685E+02 -0.24279875791E+02  0.41587771510E+02  0.00000000000E+00 0.  1.
         22    1    4    4    0    0  0.85791105228E+01  0.80113760490E+01 -0.54981508836E+01  0.12961980817E+02  0.00000000000E+00 0.  1.
<mgrwt>
<rscale>  0 0.91884698E+02</rscale>
<asrwt>0</asrwt>
<pdfrwt beam="1">  1        1 0.49054585E-02 0.91884698E+02</pdfrwt>
<pdfrwt beam="2">  1       -1 0.10184039E-01 0.91884698E+02</pdfrwt>
<totfact> 0.85615484E+04</totfact>
</mgrwt>
</event>
<event>
 7    1  0.2911475E-009  0.9243202E+02  0.7818608E-02  0.1297067E+00
         -1   -1    0    0    0  501 -0.00000000000E+00  0.00000000000E+00  0.14084875521E+03  0.14084875530E+03  0.50400000000E-02 0.  1.
          1   -1    0    0  501    0  0.00000000000E+00 -0.00000000000E+00 -0.15164630220E+02  0.15164631057E+02  0.50400000000E-02 0. -1.
         23    2    1    2    0    0  0.71054273576E-14  0.00000000000E+00  0.12568412499E+03  0.15601338636E+03  0.92432015278E+02 0.  0.
    9000005    2    3    3    0    0 -0.43856389544E+02 -0.99574936755E+01  0.57392628989E+02  0.74243813715E+02  0.13989118219E+02 0.  0.
         22    1    3    3    0    0  0.43856389544E+02  0.99574936755E+01  0.68291496003E+02  0.81769572645E+02  0.00000000000E+00 0. -1.
         22    1    4    4    0    0 -0.35340223686E+02 -0.12918951046E+02  0.50045792415E+02  0.62613193855E+02  0.00000000000E+00 0.  1.
         22    1    4    4    0    0 -0.85161658584E+01  0.29614573703E+01  0.73468365743E+01  0.11630619860E+02  0.00000000000E+00 0.  1.
<mgrwt>
<rscale>  0 0.92432015E+02</rscale>
<asrwt>0</asrwt>
<pdfrwt beam="2">  1        1 0.23330202E-02 0.92432015E+02</pdfrwt>
<pdfrwt beam="1">  1       -1 0.21669039E-01 0.92432015E+02</pdfrwt>
<totfact> 0.73230995E+04</totfact>
</mgrwt>
</event>
<event>
 7    1  0.2911475E-009  0.9409141E+02  0.7818608E-02  0.1293236E+00
         -1   -1    0    0    0  501 -0.00000000000E+00  0.00000000000E+00  0.34664971608E+02  0.34664971974E+02  0.50400000000E-02 0.  1.
          1   -1    0    0  501    0  0.00000000000E+00 -0.00000000000E+00 -0.63848269090E+02  0.63848269289E+02  0.50400000000E-02 0. -1.
         23    2    1    2    0    0  0.00000000000E+00  0.00000000000E+00 -0.29183297482E+02  0.98513241263E+02  0.94091412212E+02 0.  0.
    9000005    2    3    3    0    0  0.34965864739E+02 -0.27830626991E+02 -0.47965393900E+01  0.47602834999E+02  0.15680166266E+02 0.  0.
         22    1    3    3    0    0 -0.34965864739E+02  0.27830626991E+02 -0.24386758092E+02  0.50910406264E+02  0.00000000000E+00 0. -1.
         22    1    4    4    0    0  0.30511263781E+02 -0.29651825340E+02 -0.41771618363E+01  0.42750633264E+02  0.00000000000E+00 0.  1.
         22    1    4    4    0    0  0.44546009583E+01  0.18211983484E+01 -0.61937755375E+00  0.48522017349E+01  0.00000000000E+00 0.  1.
<mgrwt>
<rscale>  0 0.94091412E+02</rscale>
<asrwt>0</asrwt>
<pdfrwt beam="2">  1        1 0.98228107E-02 0.94091412E+02</pdfrwt>
<pdfrwt beam="1">  1       -1 0.53330726E-02 0.94091412E+02</pdfrwt>
<totfact> 0.89147628E+04</totfact>
</mgrwt>
</event>
<event>
 7    1  0.3032900E-009  0.9244851E+02  0.7818608E-02  0.1297028E+00
         -1   -1    0    0    0  501 -0.00000000000E+00  0.00000000000E+00  0.29990634906E+02  0.29990635330E+02  0.50400000000E-02 0.  1.
          1   -1    0    0  501    0  0.00000000000E+00 -0.00000000000E+00 -0.71244968378E+02  0.71244968556E+02  0.50400000000E-02 0. -1.
         23    2    1    2    0    0  0.00000000000E+00 -0.44408920985E-15 -0.41254333472E+02  0.10123560389E+03  0.92448512503E+02 0.  0.
    9000005    2    3    3    0    0  0.41898847486E+02  0.33562149430E+01 -0.37311730729E+01  0.44890549394E+02  0.15312157685E+02 0.  0.
         22    1    3    3    0    0 -0.41898847486E+02 -0.33562149430E+01 -0.37523160399E+02  0.56345054492E+02  0.00000000000E+00 0.  1.
         22    1    4    4    0    0  0.13500322551E+02 -0.54427403222E+01 -0.42219226833E+01  0.15156080045E+02  0.00000000000E+00 0.  1.
         22    1    4    4    0    0  0.28398524935E+02  0.87989552651E+01  0.49074961040E+00  0.29734469349E+02  0.00000000000E+00 0.  1.
<mgrwt>
<rscale>  0 0.92448513E+02</rscale>
<asrwt>0</asrwt>
<pdfrwt beam="2">  1        1 0.10960764E-01 0.92448513E+02</pdfrwt>
<pdfrwt beam="1">  1       -1 0.46139439E-02 0.92448513E+02</pdfrwt>
<totfact> 0.95223349E+04</totfact>
</mgrwt>
</event>
<event>
 7    1  0.2911475E-009  0.1028993E+03  0.7818608E-02  0.1274315E+00
         -1   -1    0    0    0  501 -0.00000000000E+00  0.00000000000E+00  0.52953469385E+02  0.52953469625E+02  0.50400000000E-02 0.  1.
          1   -1    0    0  501    0  0.00000000000E+00 -0.00000000000E+00 -0.49988570969E+02  0.49988571223E+02  0.50400000000E-02 0. -1.
         23    2    1    2    0    0  0.00000000000E+00  0.00000000000E+00  0.29648984161E+01  0.10294204085E+03  0.10289933504E+03 0.  0.
    9000005    2    3    3    0    0 -0.23511867682E+02 -0.78078168346E+01 -0.42729705736E+02  0.50963518609E+02  0.12557171304E+02 0.  0.
         22    1    3    3    0    0  0.23511867682E+02  0.78078168346E+01  0.45694604152E+02  0.51978522239E+02  0.00000000000E+00 0.  1.
         22    1    4    4    0    0 -0.12589894748E+02  0.98080064075E+00 -0.13159004174E+02  0.18238059396E+02  0.00000000000E+00 0.  1.
         22    1    4    4    0    0 -0.10921972934E+02 -0.87886174754E+01 -0.29570701561E+02  0.32725459213E+02  0.00000000000E+00 0.  1.
<mgrwt>
<rscale>  0 0.10289934E+03</rscale>
<asrwt>0</asrwt>
<pdfrwt beam="2">  1        1 0.76905494E-02 0.10289934E+03</pdfrwt>
<pdfrwt beam="1">  1       -1 0.81466877E-02 0.10289934E+03</pdfrwt>
<totfact> 0.66627310E+04</totfact>
</mgrwt>
</event>
<event>
 7    1  0.2911475E-009  0.9133529E+02  0.7818608E-02  0.1299650E+00
         -1   -1    0    0    0  501 -0.00000000000E+00  0.00000000000E+00  0.70198355521E+02  0.70198355702E+02  0.50400000000E-02 0.  1.
          1   -1    0    0  501    0  0.00000000000E+00 -0.00000000000E+00 -0.29709152318E+02  0.29709152745E+02  0.50400000000E-02 0. -1.
         23    2    1    2    0    0  0.00000000000E+00  0.00000000000E+00  0.40489203204E+02  0.99907508447E+02  0.91335287091E+02 0.  0.
    9000005    2    3    3    0    0 -0.15046835833E+02  0.35954030341E+02  0.44562050565E+02  0.60719657626E+02  0.13490771116E+02 0.  0.
         22    1    3    3    0    0  0.15046835833E+02 -0.35954030341E+02 -0.40728473613E+01  0.39187850821E+02  0.00000000000E+00 0. -1.
         22    1    4    4    0    0 -0.10689535351E+02  0.27930309600E+02  0.41369533238E+02  0.51047102177E+02  0.00000000000E+00 0.  1.
         22    1    4    4    0    0 -0.43573004818E+01  0.80237207413E+01  0.31925173267E+01  0.96725554485E+01  0.00000000000E+00 0.  1.
<mgrwt>
<rscale>  0 0.91335287E+02</rscale>
<asrwt>0</asrwt>
<pdfrwt beam="2">  1        1 0.45706389E-02 0.91335287E+02</pdfrwt>
<pdfrwt beam="1">  1       -1 0.10799747E-01 0.91335287E+02</pdfrwt>
<totfact> 0.86117173E+04</totfact>
</mgrwt>
</event>
<event>
 7    1  0.2911475E-009  0.9103795E+02  0.7818608E-02  0.1300357E+00
         -1   -1    0    0    0  501 -0.00000000000E+00  0.00000000000E+00  0.22358295751E+02  0.22358296320E+02  0.50400000000E-02 0.  1.
          1   -1    0    0  501    0  0.00000000000E+00 -0.00000000000E+00 -0.92671515915E+02  0.92671516052E+02  0.50400000000E-02 0. -1.
         23    2    1    2    0    0 -0.88817841970E-15  0.00000000000E+00 -0.70313220163E+02  0.11502981237E+03  0.91037952550E+02 0.  0.
    9000005    2    3    3    0    0 -0.67133887520E+01 -0.30333041645E+02 -0.76169026551E+02  0.83415678310E+02  0.13830827101E+02 0.  0.
         22    1    3    3    0    0  0.67133887520E+01  0.30333041645E+02  0.58558063874E+01  0.31614134061E+02  0.00000000000E+00 0.  1.
         22    1    4    4    0    0 -0.56108100656E+01 -0.31154866060E+01 -0.10292326030E+02  0.12129279512E+02  0.00000000000E+00 0.  1.
         22    1    4    4    0    0 -0.11025786864E+01 -0.27217555039E+02 -0.65876700521E+02  0.71286398798E+02  0.00000000000E+00 0.  1.
<mgrwt>
<rscale>  0 0.91037953E+02</rscale>
<asrwt>0</asrwt>
<pdfrwt beam="2">  1        1 0.14257156E-01 0.91037953E+02</pdfrwt>
<pdfrwt beam="1">  1       -1 0.34397379E-02 0.91037953E+02</pdfrwt>
<totfact> 0.10358108E+05</totfact>
</mgrwt>
</event>
<event>
 7    1  0.2911475E-009  0.9105114E+02  0.7818608E-02  0.1300326E+00
          1   -1    0    0  501    0  0.00000000000E+00  0.00000000000E+00  0.43176951308E+03  0.43176951311E+03  0.50400000000E-02 0. -1.
         -1   -1    0    0    0  501 -0.00000000000E+00 -0.00000000000E+00 -0.48001933292E+01  0.48001959751E+01  0.50400000000E-02 0.  1.
         23    2    1    2    0    0  0.00000000000E+00  0.00000000000E+00  0.42696931975E+03  0.43656970908E+03  0.91051144318E+02 0.  0.
    9000005    2    3    3    0    0 -0.40463088908E+02  0.17603307054E+02  0.23309556204E+03  0.23773768975E+03  0.15444419776E+02 0.  0.
         22    1    3    3    0    0  0.40463088908E+02 -0.17603307054E+02  0.19387375771E+03  0.19883201933E+03  0.00000000000E+00 0. -1.
         22    1    4    4    0    0 -0.33622717540E+02  0.12374471402E+02  0.15101477125E+03  0.15520655854E+03  0.00000000000E+00 0. -1.
         22    1    4    4    0    0 -0.68403713682E+01  0.52288356519E+01  0.82080790793E+02  0.82531131217E+02  0.00000000000E+00 0. -1.
<mgrwt>
<rscale>  0 0.91051144E+02</rscale>
<asrwt>0</asrwt>
<pdfrwt beam="1">  1        1 0.66426082E-01 0.91051144E+02</pdfrwt>
<pdfrwt beam="2">  1       -1 0.73849146E-03 0.91051144E+02</pdfrwt>
<totfact> 0.13702636E+05</totfact>
</mgrwt>
</event>
<event>
 7    1  0.2911475E-009  0.9477518E+02  0.7818608E-02  0.1291683E+00
          1   -1    0    0  501    0  0.00000000000E+00  0.00000000000E+00  0.26846996098E+03  0.26846996103E+03  0.50400000000E-02 0. -1.
         -1   -1    0    0    0  501 -0.00000000000E+00 -0.00000000000E+00 -0.83643759928E+01  0.83643775113E+01  0.50400000000E-02 0.  1.
         23    2    1    2    0    0  0.00000000000E+00 -0.17763568394E-14  0.26010558499E+03  0.27683433854E+03  0.94775184793E+02 0.  0.
    9000005    2    3    3    0    0 -0.42473590123E+02 -0.14461673994E+02  0.97914376444E+02  0.10855143982E+03  0.13529379136E+02 0.  0.
         22    1    3    3    0    0  0.42473590123E+02  0.14461673994E+02  0.16219120854E+03  0.16828289872E+03  0.00000000000E+00 0. -1.
         22    1    4    4    0    0 -0.31088000639E+02 -0.96328055780E+01  0.55176441664E+02  0.64060084622E+02  0.00000000000E+00 0.  1.
         22    1    4    4    0    0 -0.11385589484E+02 -0.48288684160E+01  0.42737934779E+02  0.44491355197E+02  0.00000000000E+00 0.  1.
<mgrwt>
<rscale>  0 0.94775185E+02</rscale>
<asrwt>0</asrwt>
<pdfrwt beam="1">  1        1 0.41303061E-01 0.94775185E+02</pdfrwt>
<pdfrwt beam="2">  1       -1 0.12868275E-02 0.94775185E+02</pdfrwt>
<totfact> 0.11306556E+05</totfact>
</mgrwt>
</event>
<event>
 7    1  0.2911475E-009  0.9292853E+02  0.7818608E-02  0.1295911E+00
         -1   -1    0    0    0  501 -0.00000000000E+00  0.00000000000E+00  0.43833654387E+01  0.43833683362E+01  0.50400000000E-02 0.  1.
          1   -1    0    0  501    0  0.00000000000E+00 -0.00000000000E+00 -0.49252732529E+03  0.49252732531E+03  0.50400000000E-02 0. -1.
         23    2    1    2    0    0  0.35527136788E-14  0.00000000000E+00 -0.48814395985E+03  0.49691069365E+03  0.92928531283E+02 0.  0.
    9000005    2    3    3    0    0 -0.31597005723E+02  0.28588024473E+02 -0.33894003443E+03  0.34174156891E+03  0.95554729598E+01 0.  0.
         22    1    3    3    0    0  0.31597005723E+02 -0.28588024473E+02 -0.14920392542E+03  0.15516912474E+03  0.00000000000E+00 0.  1.
         22    1    4    4    0    0 -0.29684377515E+02  0.27107766844E+02 -0.33124647812E+03  0.33367682352E+03  0.00000000000E+00 0.  1.
         22    1    4    4    0    0 -0.19126282086E+01  0.14802576287E+01 -0.76935563153E+01  0.80647453828E+01  0.00000000000E+00 0.  1.
<mgrwt>
<rscale>  0 0.92928531E+02</rscale>
<asrwt>0</asrwt>
<pdfrwt beam="2">  1        1 0.75773391E-01 0.92928531E+02</pdfrwt>
<pdfrwt beam="1">  1       -1 0.67436453E-03 0.92928531E+02</pdfrwt>
<totfact> 0.13216770E+05</totfact>
</mgrwt>
</event>
<event>
 7    1  0.2911475E-009  0.8874108E+02  0.7818608E-02  0.1305929E+00
          1   -1    0    0  501    0  0.00000000000E+00  0.00000000000E+00  0.23096110535E+03  0.23096110541E+03  0.50400000000E-02 0. -1.
         -1   -1    0    0    0  501 -0.00000000000E+00 -0.00000000000E+00 -0.85241396922E+01  0.85241411821E+01  0.50400000000E-02 0.  1.
         23    2    1    2    0    0 -0.35527136788E-14  0.00000000000E+00  0.22243696566E+03  0.23948524659E+03  0.88741082041E+02 0.  0.
    9000005    2    3    3    0    0 -0.28595753464E+02  0.32327834067E+02  0.11802639428E+03  0.12650572018E+03  0.14514183407E+02 0.  0.
         22    1    3    3    0    0  0.28595753464E+02 -0.32327834067E+02  0.10441057138E+03  0.11297952641E+03  0.00000000000E+00 0.  1.
         22    1    4    4    0    0 -0.97632845986E+01  0.57479777662E+01  0.17628438733E+02  0.20955257734E+02  0.00000000000E+00 0. -1.
         22    1    4    4    0    0 -0.18832468865E+02  0.26579856301E+02  0.10039795555E+03  0.10555046244E+03  0.00000000000E+00 0. -1.
<mgrwt>
<rscale>  0 0.88741082E+02</rscale>
<asrwt>0</asrwt>
<pdfrwt beam="1">  1        1 0.35532475E-01 0.88741082E+02</pdfrwt>
<pdfrwt beam="2">  1       -1 0.13114063E-02 0.88741082E+02</pdfrwt>
<totfact> 0.13090187E+05</totfact>
</mgrwt>
</event>
<event>
 7    1  0.2911475E-009  0.9067869E+02  0.7818608E-02  0.1301216E+00
          1   -1    0    0  501    0  0.00000000000E+00  0.00000000000E+00  0.14186284034E+03  0.14186284043E+03  0.50400000000E-02 0. -1.
         -1   -1    0    0    0  501 -0.00000000000E+00 -0.00000000000E+00 -0.14490448905E+02  0.14490449781E+02  0.50400000000E-02 0.  1.
         23    2    1    2    0    0  0.00000000000E+00  0.00000000000E+00  0.12737239144E+03  0.15635329021E+03  0.90678692426E+02 0.  0.
    9000005    2    3    3    0    0  0.40951196869E+02  0.16694816663E+02  0.78328905755E+02  0.90315566780E+02  0.81096669237E+01 0.  0.
         22    1    3    3    0    0 -0.40951196869E+02 -0.16694816663E+02  0.49043485685E+02  0.66037723435E+02  0.00000000000E+00 0. -1.
         22    1    4    4    0    0  0.13833506700E+02  0.30856504790E+01  0.19297944727E+02  0.23943638345E+02  0.00000000000E+00 0.  1.
         22    1    4    4    0    0  0.27117690168E+02  0.13609166184E+02  0.59030961027E+02  0.66371928434E+02  0.00000000000E+00 0.  1.
<mgrwt>
<rscale>  0 0.90678692E+02</rscale>
<asrwt>0</asrwt>
<pdfrwt beam="1">  1        1 0.21825052E-01 0.90678692E+02</pdfrwt>
<pdfrwt beam="2">  1       -1 0.22293000E-02 0.90678692E+02</pdfrwt>
<totfact> 0.11264932E+05</totfact>
</mgrwt>
</event>
<event>
 7    1  0.2911475E-009  0.9516220E+02  0.7818608E-02  0.1290811E+00
          1   -1    0    0  501    0  0.00000000000E+00  0.00000000000E+00  0.94186850489E+03  0.94186850490E+03  0.50400000000E-02 0. -1.
         -1   -1    0    0    0  501 -0.00000000000E+00 -0.00000000000E+00 -0.24036885155E+01  0.24036937993E+01  0.50400000000E-02 0.  1.
         23    2    1    2    0    0 -0.35527136788E-14  0.00000000000E+00  0.93946481637E+03  0.94427219870E+03  0.95162198574E+02 0.  0.
    9000005    2    3    3    0    0 -0.20323706025E+02 -0.29909881822E+02  0.77058702457E+03  0.77156619816E+03  0.14226090712E+02 0.  0.
         22    1    3    3    0    0  0.20323706025E+02  0.29909881822E+02  0.16887779180E+03  0.17270600053E+03  0.00000000000E+00 0.  1.
         22    1    4    4    0    0 -0.43865550927E+01 -0.92494465094E+01  0.11332056098E+03  0.11378200063E+03  0.00000000000E+00 0.  1.
         22    1    4    4    0    0 -0.15937150932E+02 -0.20660435313E+02  0.65726646359E+03  0.65778419753E+03  0.00000000000E+00 0.  1.
<mgrwt>
<rscale>  0 0.95162199E+02</rscale>
<asrwt>0</asrwt>
<pdfrwt beam="1">  1        1 0.14490291E+00 0.95162199E+02</pdfrwt>
<pdfrwt beam="2">  1       -1 0.36979848E-03 0.95162199E+02</pdfrwt>
<totfact> 0.12318638E+05</totfact>
</mgrwt>
</event>
<event>
 7    1  0.2911475E-009  0.9067175E+02  0.7818608E-02  0.1301233E+00
         -1   -1    0    0    0  501 -0.00000000000E+00  0.00000000000E+00  0.30949973595E+02  0.30949974005E+02  0.50400000000E-02 0.  1.
          1   -1    0    0  501    0  0.00000000000E+00 -0.00000000000E+00 -0.66408507787E+02  0.66408507978E+02  0.50400000000E-02 0. -1.
         23    2    1    2    0    0  0.00000000000E+00  0.00000000000E+00 -0.35458534192E+02  0.97358481983E+02  0.90671750656E+02 0.  0.
    9000005    2    3    3    0    0  0.34296671084E+02 -0.18393629935E+02 -0.40490732599E+02  0.58116791265E+02  0.14949071238E+02 0.  0.
         22    1    3    3    0    0 -0.34296671084E+02  0.18393629935E+02  0.50321984062E+01  0.39241690719E+02  0.00000000000E+00 0.  1.
         22    1    4    4    0    0  0.42540973536E+00 -0.54087338350E+00 -0.76294014108E+01  0.76603709666E+01  0.00000000000E+00 0. -1.
         22    1    4    4    0    0  0.33871261349E+02 -0.17852756552E+02 -0.32861331188E+02  0.50456420298E+02  0.00000000000E+00 0. -1.
<mgrwt>
<rscale>  0 0.90671751E+02</rscale>
<asrwt>0</asrwt>
<pdfrwt beam="2">  1        1 0.10216694E-01 0.90671751E+02</pdfrwt>
<pdfrwt beam="1">  1       -1 0.47615345E-02 0.90671751E+02</pdfrwt>
<totfact> 0.99383832E+04</totfact>
</mgrwt>
</event>
<event>
 7    1  0.2911475E-009  0.9261122E+02  0.7818608E-02  0.1296649E+00
         -1   -1    0    0    0  501 -0.00000000000E+00  0.00000000000E+00  0.96019483212E+02  0.96019483344E+02  0.50400000000E-02 0.  1.
          1   -1    0    0  501    0  0.00000000000E+00 -0.00000000000E+00 -0.22330984836E+02  0.22330985404E+02  0.50400000000E-02 0. -1.
         23    2    1    2    0    0  0.35527136788E-14  0.00000000000E+00  0.73688498377E+02  0.11835046875E+03  0.92611223186E+02 0.  0.
    9000005    2    3    3    0    0 -0.18864830497E+02 -0.36746332287E+02  0.61025548889E+02  0.75147169616E+02  0.14724290062E+02 0.  0.
         22    1    3    3    0    0  0.18864830497E+02  0.36746332287E+02  0.12662949488E+02  0.43203299133E+02  0.00000000000E+00 0. -1.
         22    1    4    4    0    0 -0.13161820732E+00 -0.11045924657E+02  0.23434542549E+02  0.25907673754E+02  0.00000000000E+00 0. -1.
         22    1    4    4    0    0 -0.18733212289E+02 -0.25700407631E+02  0.37591006340E+02  0.49239495861E+02  0.00000000000E+00 0. -1.
<mgrwt>
<rscale>  0 0.92611223E+02</rscale>
<asrwt>0</asrwt>
<pdfrwt beam="2">  1        1 0.34355362E-02 0.92611223E+02</pdfrwt>
<pdfrwt beam="1">  1       -1 0.14772228E-01 0.92611223E+02</pdfrwt>
<totfact> 0.78750930E+04</totfact>
</mgrwt>
</event>
<event>
 7    1  0.2911475E-009  0.9168069E+02  0.7818608E-02  0.1298832E+00
         -1   -1    0    0    0  501 -0.00000000000E+00  0.00000000000E+00  0.37891102511E+02  0.37891102846E+02  0.50400000000E-02 0.  1.
          1   -1    0    0  501    0  0.00000000000E+00 -0.00000000000E+00 -0.55457277131E+02  0.55457277360E+02  0.50400000000E-02 0. -1.
         23    2    1    2    0    0  0.00000000000E+00  0.00000000000E+00 -0.17566174619E+02  0.93348380206E+02  0.91680693694E+02 0.  0.
    9000005    2    3    3    0    0  0.35254793731E+02  0.85107335035E+01 -0.37039297424E+02  0.52183643142E+02  0.59908256645E+01 0.  0.
         22    1    3    3    0    0 -0.35254793731E+02 -0.85107335035E+01  0.19473122804E+02  0.41164737064E+02  0.00000000000E+00 0.  1.
         22    1    4    4    0    0  0.28247420073E+02  0.43477802288E+01 -0.27954063162E+02  0.39978113775E+02  0.00000000000E+00 0. -1.
         22    1    4    4    0    0  0.70073736576E+01  0.41629532747E+01 -0.90852342615E+01  0.12205529367E+02  0.00000000000E+00 0. -1.
<mgrwt>
<rscale>  0 0.91680694E+02</rscale>
<asrwt>0</asrwt>
<pdfrwt beam="2">  1        1 0.85318888E-02 0.91680694E+02</pdfrwt>
<pdfrwt beam="1">  1       -1 0.58294004E-02 0.91680694E+02</pdfrwt>
<totfact> 0.93782391E+04</totfact>
</mgrwt>
</event>
<event>
 7    1  0.2911475E-009  0.9191198E+02  0.7818608E-02  0.1298287E+00
          1   -1    0    0  501    0  0.00000000000E+00  0.00000000000E+00  0.72448570076E+03  0.72448570077E+03  0.50400000000E-02 0. -1.
         -1   -1    0    0    0  501 -0.00000000000E+00 -0.00000000000E+00 -0.29151046591E+01  0.29151090160E+01  0.50400000000E-02 0.  1.
         23    2    1    2    0    0  0.35527136788E-14 -0.35527136788E-14  0.72157059610E+03  0.72740080979E+03  0.91911984696E+02 0.  0.
    9000005    2    3    3    0    0  0.29869219089E+02 -0.17635868282E+02  0.59627307602E+03  0.59739056928E+03  0.11433152828E+02 0.  0.
         22    1    3    3    0    0 -0.29869219089E+02  0.17635868282E+02  0.12529752008E+03  0.13001024051E+03  0.00000000000E+00 0.  1.
         22    1    4    4    0    0  0.16429151288E+02 -0.56047200641E+01  0.21919295896E+03  0.21987924676E+03  0.00000000000E+00 0.  1.
         22    1    4    4    0    0  0.13440067801E+02 -0.12031148218E+02  0.37708011706E+03  0.37751132252E+03  0.00000000000E+00 0.  1.
<mgrwt>
<rscale>  0 0.91911985E+02</rscale>
<asrwt>0</asrwt>
<pdfrwt beam="1">  1        1 0.11145942E+00 0.91911985E+02</pdfrwt>
<pdfrwt beam="2">  1       -1 0.44847766E-03 0.91911985E+02</pdfrwt>
<totfact> 0.13909991E+05</totfact>
</mgrwt>
</event>
<event>
 7    1  0.2911475E-009  0.8828347E+02  0.7818608E-02  0.1307063E+00
         -1   -1    0    0    0  501 -0.00000000000E+00  0.00000000000E+00  0.25954193402E+02  0.25954193892E+02  0.50400000000E-02 0.  1.
          1   -1    0    0  501    0  0.00000000000E+00 -0.00000000000E+00 -0.75074290372E+02  0.75074290541E+02  0.50400000000E-02 0. -1.
         23    2    1    2    0    0 -0.11102230246E-15  0.00000000000E+00 -0.49120096970E+02  0.10102848443E+03  0.88283468104E+02 0.  0.
    9000005    2    3    3    0    0 -0.90551857509E+00 -0.27497516371E+02  0.14402028781E+02  0.31804255796E+02  0.68672325754E+01 0.  0.
         22    1    3    3    0    0  0.90551857509E+00  0.27497516371E+02 -0.63522125751E+02  0.69224228637E+02  0.00000000000E+00 0. -1.
         22    1    4    4    0    0 -0.18948320136E+01 -0.24858107524E+01  0.28733923796E+01  0.42457069169E+01  0.00000000000E+00 0.  1.
         22    1    4    4    0    0  0.98931343856E+00 -0.25011705619E+02  0.11528636402E+02  0.27558548879E+02  0.00000000000E+00 0.  1.
<mgrwt>
<rscale>  0 0.88283468E+02</rscale>
<asrwt>0</asrwt>
<pdfrwt beam="2">  1        1 0.11549891E-01 0.88283468E+02</pdfrwt>
<pdfrwt beam="1">  1       -1 0.39929529E-02 0.88283468E+02</pdfrwt>
<totfact> 0.10896695E+05</totfact>
</mgrwt>
</event>
<event>
 7    1  0.2911475E-009  0.8157506E+02  0.7818608E-02  0.1324640E+00
          1   -1    0    0  501    0  0.00000000000E+00  0.00000000000E+00  0.11202386014E+04  0.11202386014E+04  0.50400000000E-02 0. -1.
         -1   -1    0    0    0  501 -0.00000000000E+00 -0.00000000000E+00 -0.14850565254E+01  0.14850650778E+01  0.50400000000E-02 0.  1.
         23    2    1    2    0    0  0.35527136788E-14  0.00000000000E+00  0.11187535449E+04  0.11217236665E+04  0.81575056189E+02 0.  0.
    9000005    2    3    3    0    0  0.27435054539E+02  0.51205989215E+01  0.96069041971E+03  0.96121555365E+03  0.15177460341E+02 0.  0.
         22    1    3    3    0    0 -0.27435054539E+02 -0.51205989215E+01  0.15806312518E+03  0.16050811285E+03  0.00000000000E+00 0.  1.
         22    1    4    4    0    0  0.11653060528E+01  0.42924096153E+01  0.24950691673E+03  0.24954655721E+03  0.00000000000E+00 0. -1.
         22    1    4    4    0    0  0.26269748487E+02  0.82818930621E+00  0.71118350298E+03  0.71166899644E+03  0.00000000000E+00 0. -1.
<mgrwt>
<rscale>  0 0.81575056E+02</rscale>
<asrwt>0</asrwt>
<pdfrwt beam="1">  1        1 0.17234459E+00 0.81575056E+02</pdfrwt>
<pdfrwt beam="2">  1       -1 0.22847064E-03 0.81575056E+02</pdfrwt>
<totfact> 0.17567590E+05</totfact>
</mgrwt>
</event>
<event>
 7    1  0.2911475E-009  0.9207571E+02  0.7818608E-02  0.1297902E+00
         -1   -1    0    0    0  501 -0.00000000000E+00  0.00000000000E+00  0.12414855634E+03  0.12414855645E+03  0.50400000000E-02 0.  1.
          1   -1    0    0  501    0  0.00000000000E+00 -0.00000000000E+00 -0.17072160827E+02  0.17072161570E+02  0.50400000000E-02 0. -1.
         23    2    1    2    0    0 -0.33306690739E-15  0.00000000000E+00  0.10707639552E+03  0.14122071802E+03  0.92075711890E+02 0.  0.
    9000005    2    3    3    0    0 -0.32163682302E+00 -0.42968823149E+02  0.32740723486E+02  0.55359112223E+02  0.12093515561E+02 0.  0.
         22    1    3    3    0    0  0.32163682302E+00  0.42968823149E+02  0.74335672031E+02  0.85861605793E+02  0.00000000000E+00 0.  1.
         22    1    4    4    0    0 -0.57734890316E+01 -0.14152262907E+02  0.12137743950E+02  0.19517800829E+02  0.00000000000E+00 0. -1.
         22    1    4    4    0    0  0.54518522086E+01 -0.28816560242E+02  0.20602979536E+02  0.35841311394E+02  0.00000000000E+00 0. -1.
<mgrwt>
<rscale>  0 0.92075712E+02</rscale>
<asrwt>0</asrwt>
<pdfrwt beam="2">  1        1 0.26264864E-02 0.92075712E+02</pdfrwt>
<pdfrwt beam="1">  1       -1 0.19099778E-01 0.92075712E+02</pdfrwt>
<totfact> 0.76024680E+04</totfact>
</mgrwt>
</event>
<event>
 7    1  0.2911475E-009  0.9278690E+02  0.7818608E-02  0.1296240E+00
         -1   -1    0    0    0  501 -0.00000000000E+00  0.00000000000E+00  0.48018980558E+02  0.48018980823E+02  0.50400000000E-02 0.  1.
          1   -1    0    0  501    0  0.00000000000E+00 -0.00000000000E+00 -0.44822941373E+02  0.44822941657E+02  0.50400000000E-02 0. -1.
         23    2    1    2    0    0  0.44408920985E-15  0.00000000000E+00  0.31960391852E+01  0.92841922479E+02  0.92786895105E+02 0.  0.
    9000005    2    3    3    0    0 -0.35788073244E+00 -0.40506452869E+02  0.21965989370E+02  0.48196521456E+02  0.14124418176E+02 0.  0.
         22    1    3    3    0    0  0.35788073244E+00  0.40506452869E+02 -0.18769950184E+02  0.44645401024E+02  0.00000000000E+00 0. -1.
         22    1    4    4    0    0  0.66662361385E+01 -0.17454282605E+02  0.78335908857E+01  0.20259709566E+02  0.00000000000E+00 0. -1.
         22    1    4    4    0    0 -0.70241168710E+01 -0.23052170264E+02  0.14132398484E+02  0.27936811890E+02  0.00000000000E+00 0. -1.
<mgrwt>
<rscale>  0 0.92786895E+02</rscale>
<asrwt>0</asrwt>
<pdfrwt beam="2">  1        1 0.68958372E-02 0.92786895E+02</pdfrwt>
<pdfrwt beam="1">  1       -1 0.73875355E-02 0.92786895E+02</pdfrwt>
<totfact> 0.87800814E+04</totfact>
</mgrwt>
</event>
<event>
 7    1  0.2911475E-009  0.9206745E+02  0.7818608E-02  0.1297921E+00
          1   -1    0    0  501    0  0.00000000000E+00  0.00000000000E+00  0.56196954345E+02  0.56196954571E+02  0.50400000000E-02 0. -1.
         -1   -1    0    0    0  501 -0.00000000000E+00 -0.00000000000E+00 -0.37708513965E+02  0.37708514302E+02  0.50400000000E-02 0.  1.
         23    2    1    2    0    0  0.00000000000E+00  0.00000000000E+00  0.18488440380E+02  0.93905468872E+02  0.92067446236E+02 0.  0.
    9000005    2    3    3    0    0 -0.43675251019E+02  0.44476942832E+01  0.22292591834E+02  0.49839823475E+02  0.77290890409E+01 0.  0.
         22    1    3    3    0    0  0.43675251019E+02 -0.44476942832E+01 -0.38041514543E+01  0.44065645397E+02  0.00000000000E+00 0. -1.
         22    1    4    4    0    0 -0.47685751295E+01 -0.19130062358E+01  0.29913031103E+01  0.59453171422E+01  0.00000000000E+00 0. -1.
         22    1    4    4    0    0 -0.38906675889E+02  0.63607005191E+01  0.19301288724E+02  0.43894506333E+02  0.00000000000E+00 0. -1.
<mgrwt>
<rscale>  0 0.92067446E+02</rscale>
<asrwt>0</asrwt>
<pdfrwt beam="1">  1        1 0.86456853E-02 0.92067446E+02</pdfrwt>
<pdfrwt beam="2">  1       -1 0.58013099E-02 0.92067446E+02</pdfrwt>
<totfact> 0.92874276E+04</totfact>
</mgrwt>
</event>
<event>
 7    1  0.2911475E-009  0.1265612E+03  0.7818608E-02  0.1232649E+00
          1   -1    0    0  501    0  0.00000000000E+00  0.00000000000E+00  0.50345350754E+03  0.50345350757E+03  0.50400000000E-02 0.  1.
         -1   -1    0    0    0  501 -0.00000000000E+00 -0.00000000000E+00 -0.79539351868E+01  0.79539367836E+01  0.50400000000E-02 0. -1.
         23    2    1    2    0    0  0.00000000000E+00  0.00000000000E+00  0.49549957236E+03  0.51140744435E+03  0.12656124183E+03 0.  0.
    9000005    2    3    3    0    0 -0.17891589202E+02  0.42234384818E+02  0.42189165024E+03  0.42467810431E+03  0.15971083765E+02 0.  0.
         22    1    3    3    0    0  0.17891589202E+02 -0.42234384818E+02  0.73607922119E+02  0.86729340040E+02  0.00000000000E+00 0.  1.
         22    1    4    4    0    0 -0.13239590377E+02  0.18883351071E+02  0.26343849107E+03  0.26444603661E+03  0.00000000000E+00 0.  1.
         22    1    4    4    0    0 -0.46519988248E+01  0.23351033747E+02  0.15845315916E+03  0.16023206770E+03  0.00000000000E+00 0.  1.
<mgrwt>
<rscale>  0 0.12656124E+03</rscale>
<asrwt>0</asrwt>
<pdfrwt beam="1">  1        1 0.77454412E-01 0.12656124E+03</pdfrwt>
<pdfrwt beam="2">  1       -1 0.12236820E-02 0.12656124E+03</pdfrwt>
<totfact> 0.57627536E+04</totfact>
</mgrwt>
</event>
<event>
 7    1  0.2911475E-009  0.8779043E+02  0.7818608E-02  0.1308292E+00
          1   -1    0    0  501    0  0.00000000000E+00  0.00000000000E+00  0.21200627064E+02  0.21200627663E+02  0.50400000000E-02 0. -1.
         -1   -1    0    0    0  501 -0.00000000000E+00 -0.00000000000E+00 -0.90883617253E+02  0.90883617393E+02  0.50400000000E-02 0.  1.
         23    2    1    2    0    0  0.00000000000E+00  0.00000000000E+00 -0.69682990189E+02  0.11208424506E+03  0.87790425834E+02 0.  0.
    9000005    2    3    3    0    0 -0.55430814533E+01 -0.26512770050E+02 -0.78844000981E+02  0.83490944329E+02  0.45506666095E+01 0.  0.
         22    1    3    3    0    0  0.55430814533E+01  0.26512770050E+02  0.91610107919E+01  0.28593300727E+02  0.00000000000E+00 0. -1.
         22    1    4    4    0    0 -0.62098466569E+01 -0.25209869601E+02 -0.75537808035E+02  0.79875278801E+02  0.00000000000E+00 0.  1.
         22    1    4    4    0    0  0.66676520357E+00 -0.13029004490E+01 -0.33061929454E+01  0.36156655278E+01  0.00000000000E+00 0.  1.
<mgrwt>
<rscale>  0 0.87790426E+02</rscale>
<asrwt>0</asrwt>
<pdfrwt beam="1">  1        1 0.32616350E-02 0.87790426E+02</pdfrwt>
<pdfrwt beam="2">  1       -1 0.13982095E-01 0.87790426E+02</pdfrwt>
<totfact> 0.91240512E+04</totfact>
</mgrwt>
</event>
<event>
 7    1  0.2911475E-009  0.9133637E+02  0.7818608E-02  0.1299647E+00
         -1   -1    0    0    0  501 -0.00000000000E+00  0.00000000000E+00  0.41089386462E+03  0.41089386465E+03  0.50400000000E-02 0.  1.
          1   -1    0    0  501    0  0.00000000000E+00 -0.00000000000E+00 -0.50757212251E+01  0.50757237274E+01  0.50400000000E-02 0. -1.
         23    2    1    2    0    0  0.00000000000E+00  0.00000000000E+00  0.40581814339E+03  0.41596958838E+03  0.91336372531E+02 0.  0.
    9000005    2    3    3    0    0 -0.22028508453E+02 -0.16647177652E+02  0.36809217042E+03  0.36921883709E+03  0.82655934273E+01 0.  0.
         22    1    3    3    0    0  0.22028508453E+02  0.16647177652E+02  0.37725972978E+02  0.46750751284E+02  0.00000000000E+00 0. -1.
         22    1    4    4    0    0 -0.20100490061E+02 -0.16004670309E+02  0.35818481577E+03  0.35910519548E+03  0.00000000000E+00 0.  1.
         22    1    4    4    0    0 -0.19280183928E+01 -0.64250734337E+00  0.99073546413E+01  0.10113641609E+02  0.00000000000E+00 0.  1.
<mgrwt>
<rscale>  0 0.91336373E+02</rscale>
<asrwt>0</asrwt>
<pdfrwt beam="2">  1        1 0.78088055E-03 0.91336373E+02</pdfrwt>
<pdfrwt beam="1">  1       -1 0.63214427E-01 0.91336373E+02</pdfrwt>
<totfact> 0.52322459E+04</totfact>
</mgrwt>
</event>
<event>
 7    1  0.2911475E-009  0.9125365E+02  0.7818608E-02  0.1299844E+00
          1   -1    0    0  501    0  0.00000000000E+00  0.00000000000E+00  0.16386107368E+04  0.16386107368E+04  0.50400000000E-02 0. -1.
         -1   -1    0    0    0  501 -0.00000000000E+00 -0.00000000000E+00 -0.12704659675E+01  0.12704759644E+01  0.50400000000E-02 0.  1.
         23    2    1    2    0    0  0.44408920985E-15  0.00000000000E+00  0.16373402709E+04  0.16398812128E+04  0.91253654794E+02 0.  0.
    9000005    2    3    3    0    0 -0.28265022813E+01  0.16714619756E+02  0.15792920408E+04  0.15794083706E+04  0.89489330888E+01 0.  0.
         22    1    3    3    0    0  0.28265022813E+01 -0.16714619756E+02  0.58048230034E+02  0.60472842159E+02  0.00000000000E+00 0.  1.
         22    1    4    4    0    0 -0.41068407300E+01  0.17261057554E+02  0.14865594677E+04  0.14866653495E+04  0.00000000000E+00 0.  1.
         22    1    4    4    0    0  0.12803384487E+01 -0.54643779787E+00  0.92732573083E+02  0.92743021147E+02  0.00000000000E+00 0.  1.
<mgrwt>
<rscale>  0 0.91253655E+02</rscale>
<asrwt>0</asrwt>
<pdfrwt beam="1">  1        1 0.25209230E+00 0.91253655E+02</pdfrwt>
<pdfrwt beam="2">  1       -1 0.19545836E-03 0.91253655E+02</pdfrwt>
<totfact> 0.10178713E+05</totfact>
</mgrwt>
</event>
<event>
 7    1  0.2911475E-009  0.8854808E+02  0.7818608E-02  0.1306406E+00
          1   -1    0    0  501    0  0.00000000000E+00  0.00000000000E+00  0.62686983791E+02  0.62686983994E+02  0.50400000000E-02 0. -1.
         -1   -1    0    0    0  501 -0.00000000000E+00 -0.00000000000E+00 -0.31269502133E+02  0.31269502539E+02  0.50400000000E-02 0.  1.
         23    2    1    2    0    0  0.71054273576E-14  0.00000000000E+00  0.31417481659E+02  0.93956486533E+02  0.88548084157E+02 0.  0.
    9000005    2    3    3    0    0 -0.40843957122E+02 -0.76596650507E+01  0.28402440974E+02  0.52291275956E+02  0.14169671336E+02 0.  0.
         22    1    3    3    0    0  0.40843957122E+02  0.76596650507E+01  0.30150406850E+01  0.41665210577E+02  0.00000000000E+00 0.  1.
         22    1    4    4    0    0 -0.56277935619E+01 -0.11526731366E+01  0.11143669978E+02  0.12537228415E+02  0.00000000000E+00 0. -1.
         22    1    4    4    0    0 -0.35216163560E+02 -0.65069919140E+01  0.17258770996E+02  0.39754047542E+02  0.00000000000E+00 0. -1.
<mgrwt>
<rscale>  0 0.88548084E+02</rscale>
<asrwt>0</asrwt>
<pdfrwt beam="1">  1        1 0.96441514E-02 0.88548084E+02</pdfrwt>
<pdfrwt beam="2">  1       -1 0.48106927E-02 0.88548084E+02</pdfrwt>
<totfact> 0.10517454E+05</totfact>
</mgrwt>
</event>
<event>
 7    1  0.2911475E-009  0.9134342E+02  0.7818608E-02  0.1299631E+00
          1   -1    0    0  501    0  0.00000000000E+00  0.00000000000E+00  0.83218133450E+02  0.83218133603E+02  0.50400000000E-02 0. -1.
         -1   -1    0    0    0  501 -0.00000000000E+00 -0.00000000000E+00 -0.25065513006E+02  0.25065513512E+02  0.50400000000E-02 0.  1.
         23    2    1    2    0    0  0.00000000000E+00  0.00000000000E+00  0.58152620445E+02  0.10828364712E+03  0.91343423233E+02 0.  0.
    9000005    2    3    3    0    0  0.41971083595E+02 -0.17147931283E+02  0.26118981280E+02  0.52769888068E+02  0.68437196138E+01 0.  0.
         22    1    3    3    0    0 -0.41971083595E+02  0.17147931283E+02  0.32033639165E+02  0.55513759047E+02  0.00000000000E+00 0. -1.
         22    1    4    4    0    0  0.25413564891E+02 -0.73978181262E+01  0.12881835132E+02  0.29436689180E+02  0.00000000000E+00 0. -1.
         22    1    4    4    0    0  0.16557518704E+02 -0.97501131572E+01  0.13237146148E+02  0.23333198888E+02  0.00000000000E+00 0. -1.
<mgrwt>
<rscale>  0 0.91343423E+02</rscale>
<asrwt>0</asrwt>
<pdfrwt beam="1">  1        1 0.12802790E-01 0.91343423E+02</pdfrwt>
<pdfrwt beam="2">  1       -1 0.38562329E-02 0.91343423E+02</pdfrwt>
<totfact> 0.10086926E+05</totfact>
</mgrwt>
</event>
<event>
 7    1  0.2911475E-009  0.9476052E+02  0.7818608E-02  0.1291716E+00
          1   -1    0    0  501    0  0.00000000000E+00  0.00000000000E+00  0.12713093831E+02  0.12713094830E+02  0.50400000000E-02 0. -1.
         -1   -1    0    0    0  501 -0.00000000000E+00 -0.00000000000E+00 -0.17658084961E+03  0.17658084968E+03  0.50400000000E-02 0.  1.
         23    2    1    2    0    0  0.00000000000E+00  0.00000000000E+00 -0.16386775578E+03  0.18929394451E+03  0.94760519439E+02 0.  0.
    9000005    2    3    3    0    0  0.30806798635E+02  0.28210550941E+02 -0.37642714221E+02  0.56336601190E+02  0.34561066449E+01 0.  0.
         22    1    3    3    0    0 -0.30806798635E+02 -0.28210550941E+02 -0.12622504155E+03  0.13295734332E+03  0.00000000000E+00 0.  1.
         22    1    4    4    0    0  0.55413475215E+01  0.38377501177E+01 -0.72940486972E+01  0.99316667643E+01  0.00000000000E+00 0. -1.
         22    1    4    4    0    0  0.25265451114E+02  0.24372800824E+02 -0.30348665524E+02  0.46404934426E+02  0.00000000000E+00 0. -1.
<mgrwt>
<rscale>  0 0.94760519E+02</rscale>
<asrwt>0</asrwt>
<pdfrwt beam="1">  1        1 0.19558608E-02 0.94760519E+02</pdfrwt>
<pdfrwt beam="2">  1       -1 0.27166283E-01 0.94760519E+02</pdfrwt>
<totfact> 0.64965336E+04</totfact>
</mgrwt>
</event>
<event>
 7    1  0.2911475E-009  0.9187256E+02  0.7818608E-02  0.1298379E+00
          1   -1    0    0  501    0  0.00000000000E+00  0.00000000000E+00  0.82664400565E+02  0.82664400718E+02  0.50400000000E-02 0. -1.
         -1   -1    0    0    0  501 -0.00000000000E+00 -0.00000000000E+00 -0.25526611010E+02  0.25526611508E+02  0.50400000000E-02 0.  1.
         23    2    1    2    0    0  0.00000000000E+00  0.00000000000E+00  0.57137789554E+02  0.10819101223E+03  0.91872564629E+02 0.  0.
    9000005    2    3    3    0    0 -0.19294941315E+02 -0.18597910048E+02 -0.13692077584E+02  0.32460918490E+02  0.12168041014E+02 0.  0.
         22    1    3    3    0    0  0.19294941315E+02  0.18597910048E+02  0.70829867139E+02  0.75730093737E+02  0.00000000000E+00 0. -1.
         22    1    4    4    0    0 -0.53798250542E+01 -0.47496181349E+01  0.18622206474E+01  0.74141254225E+01  0.00000000000E+00 0.  1.
         22    1    4    4    0    0 -0.13915116261E+02 -0.13848291913E+02 -0.15554298232E+02  0.25046793067E+02  0.00000000000E+00 0.  1.
<mgrwt>
<rscale>  0 0.91872565E+02</rscale>
<asrwt>0</asrwt>
<pdfrwt beam="1">  1        1 0.12717600E-01 0.91872565E+02</pdfrwt>
<pdfrwt beam="2">  1       -1 0.39271710E-02 0.91872565E+02</pdfrwt>
<totfact> 0.99176353E+04</totfact>
</mgrwt>
</event>
<event>
 7    1  0.2911475E-009  0.9510337E+02  0.7818608E-02  0.1290943E+00
          1   -1    0    0  501    0  0.00000000000E+00  0.00000000000E+00  0.13739601327E+02  0.13739602251E+02  0.50400000000E-02 0. -1.
         -1   -1    0    0    0  501 -0.00000000000E+00 -0.00000000000E+00 -0.16457264640E+03  0.16457264647E+03  0.50400000000E-02 0.  1.
         23    2    1    2    0    0  0.00000000000E+00  0.00000000000E+00 -0.15083304507E+03  0.17831224872E+03  0.95103367765E+02 0.  0.
    9000005    2    3    3    0    0  0.25953148660E+02 -0.24459399499E+02 -0.13393269902E+03  0.13884770963E+03  0.83000273256E+01 0.  0.
         22    1    3    3    0    0 -0.25953148660E+02  0.24459399499E+02 -0.16900346047E+02  0.39464539092E+02  0.00000000000E+00 0. -1.
         22    1    4    4    0    0  0.89537140453E+01 -0.82835280729E+01 -0.31927415265E+02  0.34178146205E+02  0.00000000000E+00 0.  1.
         22    1    4    4    0    0  0.16999434615E+02 -0.16175871426E+02 -0.10200528376E+03  0.10466956343E+03  0.00000000000E+00 0.  1.
<mgrwt>
<rscale>  0 0.95103368E+02</rscale>
<asrwt>0</asrwt>
<pdfrwt beam="1">  1        1 0.21137850E-02 0.95103368E+02</pdfrwt>
<pdfrwt beam="2">  1       -1 0.25318867E-01 0.95103368E+02</pdfrwt>
<totfact> 0.65529141E+04</totfact>
</mgrwt>
</event>
<event>
 7    1  0.2911475E-009  0.9321628E+02  0.7818608E-02  0.1295245E+00
          1   -1    0    0  501    0  0.00000000000E+00  0.00000000000E+00  0.58872106675E+03  0.58872106677E+03  0.50400000000E-02 0. -1.
         -1   -1    0    0    0  501 -0.00000000000E+00 -0.00000000000E+00 -0.36898932665E+01  0.36898967086E+01  0.50400000000E-02 0.  1.
         23    2    1    2    0    0  0.00000000000E+00  0.00000000000E+00  0.58503117349E+03  0.59241096348E+03  0.93216284543E+02 0.  0.
    9000005    2    3    3    0    0  0.81658235241E+01  0.11502467308E+02  0.57468886998E+03  0.57491951787E+03  0.81343293772E+01 0.  0.
         22    1    3    3    0    0 -0.81658235241E+01 -0.11502467308E+02  0.10342303505E+02  0.17491445617E+02  0.00000000000E+00 0.  1.
         22    1    4    4    0    0  0.30154045545E+01  0.40006714678E+01  0.85908169350E+02  0.86054120168E+02  0.00000000000E+00 0. -1.
         22    1    4    4    0    0  0.51504189696E+01  0.75017958401E+01  0.48878070063E+03  0.48886539770E+03  0.00000000000E+00 0. -1.
<mgrwt>
<rscale>  0 0.93216285E+02</rscale>
<asrwt>0</asrwt>
<pdfrwt beam="1">  1        1 0.90572468E-01 0.93216285E+02</pdfrwt>
<pdfrwt beam="2">  1       -1 0.56767618E-03 0.93216285E+02</pdfrwt>
<totfact> 0.13336363E+05</totfact>
</mgrwt>
</event>
<event>
 6    1  0.3043074E-009  0.2044775E+03  0.7818608E-02  0.1146015E+00
          1   -1    0    0  501    0  0.00000000000E+00  0.00000000000E+00  0.49667641747E+02  0.49667642003E+02  0.50400000000E-02 0. -1.
         -1   -1    0    0    0  501 -0.00000000000E+00 -0.00000000000E+00 -0.21045413990E+03  0.21045413996E+03  0.50400000000E-02 0.  1.
    9000005    2    1    2    0    0 -0.91539663313E-01  0.61637654739E+02  0.22544944224E+02  0.66706098459E+02  0.11925611107E+02 0.  0.
         22    1    1    2    0    0  0.91539663313E-01 -0.61637654739E+02 -0.18333144238E+03  0.19341568350E+03  0.00000000000E+00 0.  1.
         22    1    3    3    0    0  0.51200733148E-01  0.54969251575E+02  0.15742165253E+02  0.57178990959E+02  0.00000000000E+00 0.  1.
         22    1    3    3    0    0 -0.14274039646E+00  0.66684031644E+01  0.68027789719E+01  0.95271075004E+01  0.00000000000E+00 0.  1.
<mgrwt>
<rscale>  0 0.20447749E+03</rscale>
<asrwt>0</asrwt>
<pdfrwt beam="1">  1        1 0.76411758E-02 0.20447749E+03</pdfrwt>
<pdfrwt beam="2">  1       -1 0.32377560E-01 0.20447749E+03</pdfrwt>
<totfact> 0.80750526E+03</totfact>
</mgrwt>
</event>
<event>
 7    1  0.2911475E-009  0.9227688E+02  0.7818608E-02  0.1297430E+00
         -1   -1    0    0    0  501 -0.00000000000E+00  0.00000000000E+00  0.14564177765E+01  0.14564264970E+01  0.50400000000E-02 0.  1.
          1   -1    0    0  501    0  0.00000000000E+00 -0.00000000000E+00 -0.14616337909E+04  0.14616337909E+04  0.50400000000E-02 0. -1.
         23    2    1    2    0    0 -0.17763568394E-14  0.17763568394E-14 -0.14601773731E+04  0.14630902174E+04  0.92276883813E+02 0.  0.
    9000005    2    3    3    0    0 -0.12549334897E+02  0.14717285874E+02 -0.13937654798E+04  0.13939192417E+04  0.73861555591E+01 0.  0.
         22    1    3    3    0    0  0.12549334897E+02 -0.14717285874E+02 -0.66411893292E+02  0.69170975708E+02  0.00000000000E+00 0.  1.
         22    1    4    4    0    0 -0.10896567311E+02  0.93586722252E+01 -0.81473326245E+03  0.81485987069E+03  0.00000000000E+00 0. -1.
         22    1    4    4    0    0 -0.16527675861E+01  0.53586136484E+01 -0.57903221736E+03  0.57905937098E+03  0.00000000000E+00 0. -1.
<mgrwt>
<rscale>  0 0.92276884E+02</rscale>
<asrwt>0</asrwt>
<pdfrwt beam="2">  1        1 0.22486556E+00 0.92276884E+02</pdfrwt>
<pdfrwt beam="1">  1       -1 0.22406611E-03 0.92276884E+02</pdfrwt>
<totfact> 0.10928379E+05</totfact>
</mgrwt>
</event>
<event>
 7    1  0.2911475E-009  0.8945928E+02  0.7818608E-02  0.1304166E+00
         -1   -1    0    0    0  501 -0.00000000000E+00  0.00000000000E+00  0.79567887838E+02  0.79567887997E+02  0.50400000000E-02 0.  1.
          1   -1    0    0  501    0  0.00000000000E+00 -0.00000000000E+00 -0.25145077981E+02  0.25145078486E+02  0.50400000000E-02 0. -1.
         23    2    1    2    0    0  0.00000000000E+00 -0.17763568394E-14  0.54422809857E+02  0.10471296648E+03  0.89459281894E+02 0.  0.
    9000005    2    3    3    0    0 -0.22451021155E+02 -0.14797183229E+02  0.68898248607E+02  0.74175394389E+02  0.56582231508E+01 0.  0.
         22    1    3    3    0    0  0.22451021155E+02  0.14797183229E+02 -0.14475438750E+02  0.30537572094E+02  0.00000000000E+00 0. -1.
         22    1    4    4    0    0 -0.85650759781E+01 -0.30694445591E+01  0.18901746873E+02  0.20977560660E+02  0.00000000000E+00 0. -1.
         22    1    4    4    0    0 -0.13885945177E+02 -0.11727738669E+02  0.49996501734E+02  0.53197833728E+02  0.00000000000E+00 0. -1.
<mgrwt>
<rscale>  0 0.89459282E+02</rscale>
<asrwt>0</asrwt>
<pdfrwt beam="2">  1        1 0.38684736E-02 0.89459282E+02</pdfrwt>
<pdfrwt beam="1">  1       -1 0.12241213E-01 0.89459282E+02</pdfrwt>
<totfact> 0.88949395E+04</totfact>
</mgrwt>
</event>
<event>
 7    1  0.2911475E-009  0.9027152E+02  0.7818608E-02  0.1302195E+00
          1   -1    0    0  501    0  0.00000000000E+00  0.00000000000E+00  0.11880726481E+03  0.11880726491E+03  0.50400000000E-02 0.  1.
         -1   -1    0    0    0  501 -0.00000000000E+00 -0.00000000000E+00 -0.17147410508E+02  0.17147411249E+02  0.50400000000E-02 0. -1.
         23    2    1    2    0    0  0.00000000000E+00  0.00000000000E+00  0.10165985430E+03  0.13595467616E+03  0.90271523718E+02 0.  0.
    9000005    2    3    3    0    0  0.21333125291E+02 -0.35706939719E+02  0.28188035588E+02  0.51526032187E+02  0.11413976692E+02 0.  0.
         22    1    3    3    0    0 -0.21333125291E+02  0.35706939719E+02  0.73471818711E+02  0.84428643975E+02  0.00000000000E+00 0.  1.
         22    1    4    4    0    0  0.20963840725E+02 -0.31307530138E+02  0.21123521065E+02  0.43195453504E+02  0.00000000000E+00 0. -1.
         22    1    4    4    0    0  0.36928456625E+00 -0.43994095808E+01  0.70645145230E+01  0.83305786832E+01  0.00000000000E+00 0. -1.
<mgrwt>
<rscale>  0 0.90271524E+02</rscale>
<asrwt>0</asrwt>
<pdfrwt beam="1">  1        1 0.18278041E-01 0.90271524E+02</pdfrwt>
<pdfrwt beam="2">  1       -1 0.26380632E-02 0.90271524E+02</pdfrwt>
<totfact> 0.11049971E+05</totfact>
</mgrwt>
</event>
<event>
 7    1  0.2911475E-009  0.9178186E+02  0.7818608E-02  0.1298593E+00
          1   -1    0    0  501    0  0.00000000000E+00  0.00000000000E+00  0.64589996540E+02  0.64589996737E+02  0.50400000000E-02 0. -1.
         -1   -1    0    0    0  501 -0.00000000000E+00 -0.00000000000E+00 -0.32605319177E+02  0.32605319566E+02  0.50400000000E-02 0.  1.
         23    2    1    2    0    0  0.35527136788E-14  0.00000000000E+00  0.31984677364E+02  0.97195316303E+02  0.91781860546E+02 0.  0.
    9000005    2    3    3    0    0 -0.22294816303E+02 -0.36958072608E+02  0.30572796628E+02  0.54010233553E+02  0.10929385613E+02 0.  0.
         22    1    3    3    0    0  0.22294816303E+02  0.36958072608E+02  0.14118807357E+01  0.43185082750E+02  0.00000000000E+00 0.  1.
         22    1    4    4    0    0  0.93671049061E-02 -0.40440999849E+01  0.61126581801E+01  0.73293534815E+01  0.00000000000E+00 0. -1.
         22    1    4    4    0    0 -0.22304183408E+02 -0.32913972623E+02  0.24460138448E+02  0.46680880072E+02  0.00000000000E+00 0. -1.
<mgrwt>
<rscale>  0 0.91781861E+02</rscale>
<asrwt>0</asrwt>
<pdfrwt beam="1">  1        1 0.99369226E-02 0.91781861E+02</pdfrwt>
<pdfrwt beam="2">  1       -1 0.50162030E-02 0.91781861E+02</pdfrwt>
<totfact> 0.95687498E+04</totfact>
</mgrwt>
</event>
<event>
 7    1  0.2911475E-009  0.9017762E+02  0.7818608E-02  0.1302422E+00
          1   -1    0    0  501    0  0.00000000000E+00  0.00000000000E+00  0.75896829092E+02  0.75896829260E+02  0.50400000000E-02 0. -1.
         -1   -1    0    0    0  501 -0.00000000000E+00 -0.00000000000E+00 -0.26786370056E+02  0.26786370530E+02  0.50400000000E-02 0.  1.
         23    2    1    2    0    0  0.35527136788E-14  0.00000000000E+00  0.49110459037E+02  0.10268319979E+03  0.90177615472E+02 0.  0.
    9000005    2    3    3    0    0  0.30097500949E+02  0.32903510349E+02  0.17945586051E+02  0.48279616591E+02  0.45140627826E+01 0.  0.
         22    1    3    3    0    0 -0.30097500949E+02 -0.32903510349E+02  0.31164872986E+02  0.54403583199E+02  0.00000000000E+00 0.  1.
         22    1    4    4    0    0  0.26662194526E+02  0.28971209440E+02  0.17344322176E+02  0.43023587776E+02  0.00000000000E+00 0.  1.
         22    1    4    4    0    0  0.34353064233E+01  0.39323009085E+01  0.60126387477E+00  0.52560288150E+01  0.00000000000E+00 0.  1.
<mgrwt>
<rscale>  0 0.90177615E+02</rscale>
<asrwt>0</asrwt>
<pdfrwt beam="1">  1        1 0.11676435E-01 0.90177615E+02</pdfrwt>
<pdfrwt beam="2">  1       -1 0.41209801E-02 0.90177615E+02</pdfrwt>
<totfact> 0.10298379E+05</totfact>
</mgrwt>
</event>
<event>
 7    1  0.2911475E-009  0.9234342E+02  0.7818608E-02  0.1297274E+00
         -1   -1    0    0    0  501 -0.00000000000E+00  0.00000000000E+00  0.91541540229E+01  0.91541554103E+01  0.50400000000E-02 0.  1.
          1   -1    0    0  501    0  0.00000000000E+00 -0.00000000000E+00 -0.23288080408E+03  0.23288080413E+03  0.50400000000E-02 0. -1.
         23    2    1    2    0    0  0.00000000000E+00  0.00000000000E+00 -0.22372665006E+03  0.24203495954E+03  0.92343422592E+02 0.  0.
    9000005    2    3    3    0    0 -0.26946316024E+02  0.29402657875E+02 -0.17233052886E+03  0.17697974061E+03  0.57790284011E+01 0.  0.
         22    1    3    3    0    0  0.26946316024E+02 -0.29402657875E+02 -0.51396121193E+02  0.65055218938E+02  0.00000000000E+00 0.  1.
         22    1    4    4    0    0 -0.21330088065E+02  0.26287241592E+02 -0.14253542800E+03  0.14650030704E+03  0.00000000000E+00 0.  1.
         22    1    4    4    0    0 -0.56162279597E+01  0.31154162825E+01 -0.29795100862E+02  0.30479433566E+02  0.00000000000E+00 0.  1.
<mgrwt>
<rscale>  0 0.92343423E+02</rscale>
<asrwt>0</asrwt>
<pdfrwt beam="2">  1        1 0.35827812E-01 0.92343423E+02</pdfrwt>
<pdfrwt beam="1">  1       -1 0.14083317E-02 0.92343423E+02</pdfrwt>
<totfact> 0.11788748E+05</totfact>
</mgrwt>
</event>
<event>
 7    1  0.2911475E-009  0.9105814E+02  0.7818608E-02  0.1300309E+00
          1   -1    0    0  501    0  0.00000000000E+00  0.00000000000E+00  0.15871382691E+03  0.15871382699E+03  0.50400000000E-02 0. -1.
         -1   -1    0    0    0  501 -0.00000000000E+00 -0.00000000000E+00 -0.13060590177E+02  0.13060591149E+02  0.50400000000E-02 0.  1.
         23    2    1    2    0    0  0.00000000000E+00  0.00000000000E+00  0.14565323674E+03  0.17177441814E+03  0.91058142723E+02 0.  0.
    9000005    2    3    3    0    0  0.31745259978E+02 -0.16560504357E+02  0.21880393449E+02  0.42926722892E+02  0.90520762893E+01 0.  0.
         22    1    3    3    0    0 -0.31745259978E+02  0.16560504357E+02  0.12377284329E+03  0.12884769525E+03  0.00000000000E+00 0. -1.
         22    1    4    4    0    0  0.24014776220E+02 -0.10113405702E+02  0.11548273495E+02  0.28501808232E+02  0.00000000000E+00 0.  1.
         22    1    4    4    0    0  0.77304837578E+01 -0.64470986552E+01  0.10332119954E+02  0.14424914660E+02  0.00000000000E+00 0.  1.
<mgrwt>
<rscale>  0 0.91058143E+02</rscale>
<asrwt>0</asrwt>
<pdfrwt beam="1">  1        1 0.24417510E-01 0.91058143E+02</pdfrwt>
<pdfrwt beam="2">  1       -1 0.20093218E-02 0.91058143E+02</pdfrwt>
<totfact> 0.11370859E+05</totfact>
</mgrwt>
</event>
<event>
 7    1  0.2911475E-009  0.9186642E+02  0.7818608E-02  0.1298394E+00
          1   -1    0    0  501    0  0.00000000000E+00  0.00000000000E+00  0.29722216618E+02  0.29722217045E+02  0.50400000000E-02 0. -1.
         -1   -1    0    0    0  501 -0.00000000000E+00 -0.00000000000E+00 -0.70985944714E+02  0.70985944893E+02  0.50400000000E-02 0.  1.
         23    2    1    2    0    0  0.00000000000E+00  0.00000000000E+00 -0.41263728096E+02  0.10070816194E+03  0.91866417284E+02 0.  0.
    9000005    2    3    3    0    0  0.13796704379E+02 -0.19526532723E+02  0.21178488609E+02  0.33845130606E+02  0.11195086156E+02 0.  0.
         22    1    3    3    0    0 -0.13796704379E+02  0.19526532723E+02 -0.62442216705E+02  0.66863031333E+02  0.00000000000E+00 0.  1.
         22    1    4    4    0    0  0.89419808324E+01 -0.47427751480E+01  0.12302140340E+02  0.15930963381E+02  0.00000000000E+00 0.  1.
         22    1    4    4    0    0  0.48547235469E+01 -0.14783757575E+02  0.88763482694E+01  0.17914167225E+02  0.00000000000E+00 0.  1.
<mgrwt>
<rscale>  0 0.91866417E+02</rscale>
<asrwt>0</asrwt>
<pdfrwt beam="1">  1        1 0.45726488E-02 0.91866417E+02</pdfrwt>
<pdfrwt beam="2">  1       -1 0.10920915E-01 0.91866417E+02</pdfrwt>
<totfact> 0.84698043E+04</totfact>
</mgrwt>
</event>
<event>
 7    1  0.2911475E-009  0.1016751E+03  0.7818608E-02  0.1276812E+00
          1   -1    0    0  501    0  0.00000000000E+00  0.00000000000E+00  0.98250947375E+01  0.98250960302E+01  0.50400000000E-02 0. -1.
         -1   -1    0    0    0  501 -0.00000000000E+00 -0.00000000000E+00 -0.26304647486E+03  0.26304647491E+03  0.50400000000E-02 0.  1.
         23    2    1    2    0    0  0.00000000000E+00  0.00000000000E+00 -0.25322138013E+03  0.27287157094E+03  0.10167510450E+03 0.  0.
    9000005    2    3    3    0    0  0.18988991210E+02  0.46300170685E+02 -0.10662732721E+03  0.11797126771E+03  0.65989016828E+01 0.  0.
         22    1    3    3    0    0 -0.18988991210E+02 -0.46300170685E+02 -0.14659405291E+03  0.15490030323E+03  0.00000000000E+00 0. -1.
         22    1    4    4    0    0  0.55653139266E+01  0.75116153465E+01 -0.22500567057E+02  0.24365397639E+02  0.00000000000E+00 0.  1.
         22    1    4    4    0    0  0.13423677283E+02  0.38788555338E+02 -0.84126760156E+02  0.93605870069E+02  0.00000000000E+00 0.  1.
<mgrwt>
<rscale>  0 0.10167510E+03</rscale>
<asrwt>0</asrwt>
<pdfrwt beam="1">  1        1 0.15115533E-02 0.10167510E+03</pdfrwt>
<pdfrwt beam="2">  1       -1 0.40468683E-01 0.10167510E+03</pdfrwt>
<totfact> 0.47814725E+04</totfact>
</mgrwt>
</event>
<event>
 7    1  0.2911475E-009  0.9121610E+02  0.7818608E-02  0.1299933E+00
          1   -1    0    0  501    0  0.00000000000E+00  0.00000000000E+00  0.10809561691E+03  0.10809561703E+03  0.50400000000E-02 0. -1.
         -1   -1    0    0    0  501 -0.00000000000E+00 -0.00000000000E+00 -0.19243096315E+02  0.19243096975E+02  0.50400000000E-02 0.  1.
         23    2    1    2    0    0 -0.35527136788E-14  0.00000000000E+00  0.88852520593E+02  0.12733871400E+03  0.91216104213E+02 0.  0.
    9000005    2    3    3    0    0  0.26045100416E+02 -0.32210672043E+02  0.67710242964E+02  0.80832041872E+02  0.15273092086E+02 0.  0.
         22    1    3    3    0    0 -0.26045100416E+02  0.32210672043E+02  0.21142277629E+02  0.46506672129E+02  0.00000000000E+00 0.  1.
         22    1    4    4    0    0  0.74925244273E+01 -0.62738157089E+00  0.11746009157E+02  0.13946335040E+02  0.00000000000E+00 0. -1.
         22    1    4    4    0    0  0.18552575989E+02 -0.31583290472E+02  0.55964233807E+02  0.66885706832E+02  0.00000000000E+00 0. -1.
<mgrwt>
<rscale>  0 0.91216104E+02</rscale>
<asrwt>0</asrwt>
<pdfrwt beam="1">  1        1 0.16630095E-01 0.91216104E+02</pdfrwt>
<pdfrwt beam="2">  1       -1 0.29604764E-02 0.91216104E+02</pdfrwt>
<totfact> 0.10570152E+05</totfact>
</mgrwt>
</event>
<event>
 7    1  0.2996497E-009  0.9233718E+02  0.7818608E-02  0.1297289E+00
          1   -1    0    0  501    0  0.00000000000E+00  0.00000000000E+00  0.24246172772E+02  0.24246173296E+02  0.50400000000E-02 0. -1.
         -1   -1    0    0    0  501 -0.00000000000E+00 -0.00000000000E+00 -0.87912375503E+02  0.87912375647E+02  0.50400000000E-02 0.  1.
         23    2    1    2    0    0  0.00000000000E+00  0.00000000000E+00 -0.63666202731E+02  0.11215854894E+03  0.92337179569E+02 0.  0.
    9000005    2    3    3    0    0 -0.97085186357E+01  0.24695108078E+02  0.11077809295E+02  0.32844167959E+02  0.15871919009E+02 0.  0.
         22    1    3    3    0    0  0.97085186357E+01 -0.24695108078E+02 -0.74744012026E+02  0.79314380984E+02  0.00000000000E+00 0.  1.
         22    1    4    4    0    0 -0.13954657356E+02  0.21203668673E+02  0.84677260587E+01  0.26758744584E+02  0.00000000000E+00 0.  1.
         22    1    4    4    0    0  0.42461387200E+01  0.34914394051E+01  0.26100832368E+01  0.60854233749E+01  0.00000000000E+00 0.  1.
<mgrwt>
<rscale>  0 0.92337180E+02</rscale>
<asrwt>0</asrwt>
<pdfrwt beam="1">  1        1 0.37301805E-02 0.92337180E+02</pdfrwt>
<pdfrwt beam="2">  1       -1 0.13524981E-01 0.92337180E+02</pdfrwt>
<totfact> 0.80623340E+04</totfact>
</mgrwt>
</event>
<event>
 7    1  0.2911475E-009  0.9333225E+02  0.7818608E-02  0.1294977E+00
         -1   -1    0    0    0  501 -0.00000000000E+00  0.00000000000E+00  0.52650349889E+02  0.52650350131E+02  0.50400000000E-02 0.  1.
          1   -1    0    0  501    0  0.00000000000E+00 -0.00000000000E+00 -0.41362067320E+02  0.41362067627E+02  0.50400000000E-02 0. -1.
         23    2    1    2    0    0  0.00000000000E+00  0.00000000000E+00  0.11288282569E+02  0.94012417758E+02  0.93332252568E+02 0.  0.
    9000005    2    3    3    0    0  0.39694485810E+02 -0.11385994685E+02  0.26107100453E+02  0.50138844367E+02  0.11270756040E+02 0.  0.
         22    1    3    3    0    0 -0.39694485810E+02  0.11385994685E+02 -0.14818817884E+02  0.43873573391E+02  0.00000000000E+00 0. -1.
         22    1    4    4    0    0  0.26135661421E+02 -0.57276033181E+01  0.10606012497E+02  0.28781343589E+02  0.00000000000E+00 0.  1.
         22    1    4    4    0    0  0.13558824388E+02 -0.56583913673E+01  0.15501087956E+02  0.21357500778E+02  0.00000000000E+00 0.  1.
<mgrwt>
<rscale>  0 0.93332253E+02</rscale>
<asrwt>0</asrwt>
<pdfrwt beam="2">  1        1 0.63633951E-02 0.93332253E+02</pdfrwt>
<pdfrwt beam="1">  1       -1 0.81000538E-02 0.93332253E+02</pdfrwt>
<totfact> 0.85298203E+04</totfact>
</mgrwt>
</event>
<event>
 7    1  0.2911475E-009  0.9093179E+02  0.7818608E-02  0.1300611E+00
         -1   -1    0    0    0  501 -0.00000000000E+00  0.00000000000E+00  0.50853092583E+01  0.50853117559E+01  0.50400000000E-02 0.  1.
          1   -1    0    0  501    0  0.00000000000E+00 -0.00000000000E+00 -0.40649384925E+03  0.40649384928E+03  0.50400000000E-02 0. -1.
         23    2    1    2    0    0  0.00000000000E+00  0.00000000000E+00 -0.40140853999E+03  0.41157916103E+03  0.90931786641E+02 0.  0.
    9000005    2    3    3    0    0  0.38256885395E+02  0.21736912879E+02 -0.22404014718E+03  0.22883444995E+03  0.15334121232E+02 0.  0.
         22    1    3    3    0    0 -0.38256885395E+02 -0.21736912879E+02 -0.17736839281E+03  0.18274471108E+03  0.00000000000E+00 0.  1.
         22    1    4    4    0    0  0.12234313841E+02  0.14746648467E+02 -0.77181864558E+02  0.79524727556E+02  0.00000000000E+00 0.  1.
         22    1    4    4    0    0  0.26022571554E+02  0.69902644122E+01 -0.14685828263E+03  0.14930972240E+03  0.00000000000E+00 0.  1.
<mgrwt>
<rscale>  0 0.90931787E+02</rscale>
<asrwt>0</asrwt>
<pdfrwt beam="2">  1        1 0.62537490E-01 0.90931787E+02</pdfrwt>
<pdfrwt beam="1">  1       -1 0.78235578E-03 0.90931787E+02</pdfrwt>
<totfact> 0.13621478E+05</totfact>
</mgrwt>
</event>
<event>
 7    1  0.2911475E-009  0.8983769E+02  0.7818608E-02  0.1303245E+00
         -1   -1    0    0    0  501 -0.00000000000E+00  0.00000000000E+00  0.71007607097E+01  0.71007624983E+01  0.50400000000E-02 0.  1.
          1   -1    0    0  501    0  0.00000000000E+00 -0.00000000000E+00 -0.28415301836E+03  0.28415301841E+03  0.50400000000E-02 0. -1.
         23    2    1    2    0    0  0.00000000000E+00  0.00000000000E+00 -0.27705225766E+03  0.29125378091E+03  0.89837694880E+02 0.  0.
    9000005    2    3    3    0    0 -0.27691551986E+02 -0.44154835085E+01 -0.25146625571E+03  0.25329377509E+03  0.11667912978E+02 0.  0.
         22    1    3    3    0    0  0.27691551986E+02  0.44154835085E+01 -0.25586001943E+02  0.37960005814E+02  0.00000000000E+00 0.  1.
         22    1    4    4    0    0 -0.64934110782E+01 -0.63036342310E+01 -0.81113965242E+02  0.81617250316E+02  0.00000000000E+00 0.  1.
         22    1    4    4    0    0 -0.21198140908E+02  0.18881507225E+01 -0.17035229047E+03  0.17167652478E+03  0.00000000000E+00 0.  1.
<mgrwt>
<rscale>  0 0.89837695E+02</rscale>
<asrwt>0</asrwt>
<pdfrwt beam="2">  1        1 0.43715841E-01 0.89837695E+02</pdfrwt>
<pdfrwt beam="1">  1       -1 0.10924251E-02 0.89837695E+02</pdfrwt>
<totfact> 0.13188973E+05</totfact>
</mgrwt>
</event>
<event>
 7    1  0.2911475E-009  0.9100780E+02  0.7818608E-02  0.1300429E+00
          1   -1    0    0  501    0  0.00000000000E+00  0.00000000000E+00  0.11163558842E+03  0.11163558854E+03  0.50400000000E-02 0. -1.
         -1   -1    0    0    0  501 -0.00000000000E+00 -0.00000000000E+00 -0.18547892890E+02  0.18547893575E+02  0.50400000000E-02 0.  1.
         23    2    1    2    0    0  0.00000000000E+00  0.00000000000E+00  0.93087695533E+02  0.13018348211E+03  0.91007801617E+02 0.  0.
    9000005    2    3    3    0    0 -0.16134049897E+02 -0.13277850508E+02  0.10435106844E+03  0.10644590748E+03  0.22308861206E+01 0.  0.
         22    1    3    3    0    0  0.16134049897E+02  0.13277850508E+02 -0.11263372912E+02  0.23737574635E+02  0.00000000000E+00 0.  1.
         22    1    4    4    0    0 -0.10733768966E+02 -0.93782033157E+01  0.75755780069E+02  0.77085035562E+02  0.00000000000E+00 0. -1.
         22    1    4    4    0    0 -0.54002809311E+01 -0.38996471925E+01  0.28595288375E+02  0.29360871915E+02  0.00000000000E+00 0. -1.
<mgrwt>
<rscale>  0 0.91007802E+02</rscale>
<asrwt>0</asrwt>
<pdfrwt beam="1">  1        1 0.17174706E-01 0.91007802E+02</pdfrwt>
<pdfrwt beam="2">  1       -1 0.28535221E-02 0.91007802E+02</pdfrwt>
<totfact> 0.10694509E+05</totfact>
</mgrwt>
</event>
<event>
 7    1  0.2911475E-009  0.9428111E+02  0.7818608E-02  0.1292803E+00
          1   -1    0    0  501    0  0.00000000000E+00  0.00000000000E+00  0.87809755613E+03  0.87809755615E+03  0.50400000000E-02 0. -1.
         -1   -1    0    0    0  501 -0.00000000000E+00 -0.00000000000E+00 -0.25307318912E+01  0.25307369098E+01  0.50400000000E-02 0.  1.
         23    2    1    2    0    0  0.00000000000E+00 -0.17763568394E-14  0.87556682424E+03  0.88062829306E+03  0.94281105319E+02 0.  0.
    9000005    2    3    3    0    0  0.28064855063E+02  0.10162990688E+02  0.77829797224E+03  0.77888276717E+03  0.44394733730E+01 0.  0.
         22    1    3    3    0    0 -0.28064855063E+02 -0.10162990688E+02  0.97268851999E+02  0.10174552589E+03  0.00000000000E+00 0.  1.
         22    1    4    4    0    0  0.25527916290E+02  0.84308214252E+01  0.72285808402E+03  0.72335783876E+03  0.00000000000E+00 0.  1.
         22    1    4    4    0    0  0.25369387722E+01  0.17321692623E+01  0.55439888222E+02  0.55524928409E+02  0.00000000000E+00 0.  1.
<mgrwt>
<rscale>  0 0.94281105E+02</rscale>
<asrwt>0</asrwt>
<pdfrwt beam="1">  1        1 0.13509223E+00 0.94281105E+02</pdfrwt>
<pdfrwt beam="2">  1       -1 0.38934288E-03 0.94281105E+02</pdfrwt>
<totfact> 0.12788262E+05</totfact>
</mgrwt>
</event>
<event>
 7    1  0.2911475E-009  0.9123753E+02  0.7818608E-02  0.1299882E+00
         -1   -1    0    0    0  501 -0.00000000000E+00  0.00000000000E+00  0.10024499696E+03  0.10024499708E+03  0.50400000000E-02 0.  1.
          1   -1    0    0  501    0  0.00000000000E+00 -0.00000000000E+00 -0.20759855744E+02  0.20759856356E+02  0.50400000000E-02 0. -1.
         23    2    1    2    0    0  0.00000000000E+00  0.00000000000E+00  0.79485141213E+02  0.12100485344E+03  0.91237530010E+02 0.  0.
    9000005    2    3    3    0    0 -0.16722757000E+02  0.31274226563E+02  0.76453258619E+02  0.85411031492E+02  0.13864187616E+02 0.  0.
         22    1    3    3    0    0  0.16722757000E+02 -0.31274226563E+02  0.30318825936E+01  0.35593821948E+02  0.00000000000E+00 0. -1.
         22    1    4    4    0    0 -0.11130261145E+02  0.28784494241E+02  0.54619409433E+02  0.62735234986E+02  0.00000000000E+00 0.  1.
         22    1    4    4    0    0 -0.55924958557E+01  0.24897323219E+01  0.21833849186E+02  0.22675796506E+02  0.00000000000E+00 0.  1.
<mgrwt>
<rscale>  0 0.91237530E+02</rscale>
<asrwt>0</asrwt>
<pdfrwt beam="2">  1        1 0.31938240E-02 0.91237530E+02</pdfrwt>
<pdfrwt beam="1">  1       -1 0.15422308E-01 0.91237530E+02</pdfrwt>
<totfact> 0.81194138E+04</totfact>
</mgrwt>
</event>
<event>
 7    1  0.2911475E-009  0.9138132E+02  0.7818608E-02  0.1299541E+00
         -1   -1    0    0    0  501 -0.00000000000E+00  0.00000000000E+00  0.26111657843E+01  0.26111706483E+01  0.50400000000E-02 0.  1.
          1   -1    0    0  501    0  0.00000000000E+00 -0.00000000000E+00 -0.79950291627E+03  0.79950291629E+03  0.50400000000E-02 0. -1.
         23    2    1    2    0    0  0.00000000000E+00  0.00000000000E+00 -0.79689175049E+03  0.80211408693E+03  0.91381324493E+02 0.  0.
    9000005    2    3    3    0    0 -0.26376231846E+02  0.21946301449E+02 -0.65988972889E+03  0.66088059347E+03  0.11461185912E+02 0.  0.
         22    1    3    3    0    0  0.26376231846E+02 -0.21946301449E+02 -0.13700202160E+03  0.14123349346E+03  0.00000000000E+00 0.  1.
         22    1    4    4    0    0 -0.48541454160E+01  0.10589593557E+02 -0.24672175745E+03  0.24699661499E+03  0.00000000000E+00 0.  1.
         22    1    4    4    0    0 -0.21522086430E+02  0.11356707892E+02 -0.41316797144E+03  0.41388397848E+03  0.00000000000E+00 0.  1.
<mgrwt>
<rscale>  0 0.91381324E+02</rscale>
<asrwt>0</asrwt>
<pdfrwt beam="2">  1        1 0.12300025E+00 0.91381324E+02</pdfrwt>
<pdfrwt beam="1">  1       -1 0.40171882E-03 0.91381324E+02</pdfrwt>
<totfact> 0.14047175E+05</totfact>
</mgrwt>
</event>
<event>
 7    1  0.2911475E-009  0.9044828E+02  0.7818608E-02  0.1301770E+00
          1   -1    0    0  501    0  0.00000000000E+00  0.00000000000E+00  0.33497828276E+03  0.33497828280E+03  0.50400000000E-02 0. -1.
         -1   -1    0    0    0  501 -0.00000000000E+00 -0.00000000000E+00 -0.61055380779E+01  0.61055401581E+01  0.50400000000E-02 0.  1.
         23    2    1    2    0    0  0.00000000000E+00  0.00000000000E+00  0.32887274468E+03  0.34108382296E+03  0.90448284050E+02 0.  0.
    9000005    2    3    3    0    0 -0.43915485420E+02  0.54060140741E+01  0.13365320503E+03  0.14091273735E+03  0.59519313609E+01 0.  0.
         22    1    3    3    0    0  0.43915485420E+02 -0.54060140741E+01  0.19521953966E+03  0.20017108560E+03  0.00000000000E+00 0. -1.
         22    1    4    4    0    0 -0.39722808537E+02  0.43909306089E+01  0.12517765653E+03  0.13140253987E+03  0.00000000000E+00 0. -1.
         22    1    4    4    0    0 -0.41926768829E+01  0.10150834651E+01  0.84755484942E+01  0.95101974828E+01  0.00000000000E+00 0. -1.
<mgrwt>
<rscale>  0 0.90448284E+02</rscale>
<asrwt>0</asrwt>
<pdfrwt beam="1">  1        1 0.51535138E-01 0.90448284E+02</pdfrwt>
<pdfrwt beam="2">  1       -1 0.93931340E-03 0.90448284E+02</pdfrwt>
<totfact> 0.13361127E+05</totfact>
</mgrwt>
</event>
<event>
 7    1  0.2911475E-009  0.9361944E+02  0.7818608E-02  0.1294316E+00
          1   -1    0    0  501    0  0.00000000000E+00  0.00000000000E+00  0.78791264951E+02  0.78791265113E+02  0.50400000000E-02 0. -1.
         -1   -1    0    0    0  501 -0.00000000000E+00 -0.00000000000E+00 -0.27809554860E+02  0.27809555317E+02  0.50400000000E-02 0.  1.
         23    2    1    2    0    0  0.00000000000E+00  0.00000000000E+00  0.50981710091E+02  0.10660082043E+03  0.93619443239E+02 0.  0.
    9000005    2    3    3    0    0 -0.24708480147E+02 -0.22741787640E+02 -0.10355696831E+02  0.36672461489E+02  0.10484802266E+02 0.  0.
         22    1    3    3    0    0  0.24708480147E+02  0.22741787640E+02  0.61337406923E+02  0.69928358941E+02  0.00000000000E+00 0. -1.
         22    1    4    4    0    0 -0.89197296506E+01 -0.14264822061E+02 -0.78932254849E+01  0.18583587760E+02  0.00000000000E+00 0. -1.
         22    1    4    4    0    0 -0.15788750496E+02 -0.84769655790E+01 -0.24624713466E+01  0.18088873729E+02  0.00000000000E+00 0. -1.
<mgrwt>
<rscale>  0 0.93619443E+02</rscale>
<asrwt>0</asrwt>
<pdfrwt beam="1">  1        1 0.12121733E-01 0.93619443E+02</pdfrwt>
<pdfrwt beam="2">  1       -1 0.42783931E-02 0.93619443E+02</pdfrwt>
<totfact> 0.93445852E+04</totfact>
</mgrwt>
</event>
<event>
 7    1  0.2911475E-009  0.9538481E+02  0.7818608E-02  0.1290312E+00
          1   -1    0    0  501    0  0.00000000000E+00  0.00000000000E+00  0.50439391478E+02  0.50439391730E+02  0.50400000000E-02 0. -1.
         -1   -1    0    0    0  501 -0.00000000000E+00 -0.00000000000E+00 -0.45095026233E+02  0.45095026515E+02  0.50400000000E-02 0.  1.
         23    2    1    2    0    0 -0.35527136788E-14  0.00000000000E+00  0.53443652444E+01  0.95534418245E+02  0.95384814460E+02 0.  0.
    9000005    2    3    3    0    0 -0.21766093604E+02 -0.28471606186E+02  0.33078176970E+02  0.50218201474E+02  0.11971080903E+02 0.  0.
         22    1    3    3    0    0  0.21766093604E+02  0.28471606186E+02 -0.27733811725E+02  0.45316216771E+02  0.00000000000E+00 0.  1.
         22    1    4    4    0    0 -0.17293729715E+02 -0.28028350883E+02  0.26604829824E+02  0.42337672476E+02  0.00000000000E+00 0. -1.
         22    1    4    4    0    0 -0.44723638895E+01 -0.44325530320E+00  0.64733471455E+01  0.78805289981E+01  0.00000000000E+00 0. -1.
<mgrwt>
<rscale>  0 0.95384814E+02</rscale>
<asrwt>0</asrwt>
<pdfrwt beam="1">  1        1 0.77599064E-02 0.95384814E+02</pdfrwt>
<pdfrwt beam="2">  1       -1 0.69376964E-02 0.95384814E+02</pdfrwt>
<totfact> 0.82719939E+04</totfact>
</mgrwt>
</event>
<event>
 7    1  0.2911475E-009  0.8938069E+02  0.7818608E-02  0.1304358E+00
         -1   -1    0    0    0  501 -0.00000000000E+00  0.00000000000E+00  0.89685645501E+01  0.89685659662E+01  0.50400000000E-02 0.  1.
          1   -1    0    0  501    0  0.00000000000E+00 -0.00000000000E+00 -0.22269190638E+03  0.22269190644E+03  0.50400000000E-02 0. -1.
         23    2    1    2    0    0  0.00000000000E+00 -0.22204460493E-15 -0.21372334183E+03  0.23166047240E+03  0.89380689364E+02 0.  0.
    9000005    2    3    3    0    0 -0.37134161045E+02  0.11708857215E+01 -0.42607383356E+02  0.56557679352E+02  0.17507390900E+01 0.  0.
         22    1    3    3    0    0  0.37134161045E+02 -0.11708857215E+01 -0.17111595847E+03  0.17510279305E+03  0.00000000000E+00 0. -1.
         22    1    4    4    0    0 -0.14298597089E+02  0.11856667987E+01 -0.17100789704E+02  0.22322470584E+02  0.00000000000E+00 0. -1.
         22    1    4    4    0    0 -0.22835563956E+02 -0.14781077247E-01 -0.25506593651E+02  0.34235208767E+02  0.00000000000E+00 0. -1.
<mgrwt>
<rscale>  0 0.89380689E+02</rscale>
<asrwt>0</asrwt>
<pdfrwt beam="2">  1        1 0.34260289E-01 0.89380689E+02</pdfrwt>
<pdfrwt beam="1">  1       -1 0.13797794E-02 0.89380689E+02</pdfrwt>
<totfact> 0.12751250E+05</totfact>
</mgrwt>
</event>
<event>
 7    1  0.4961502E-009  0.9178832E+02  0.7818608E-02  0.1298578E+00
         -1   -1    0    0    0  501 -0.00000000000E+00  0.00000000000E+00  0.36737954147E+01  0.36737988719E+01  0.50400000000E-02 0.  1.
          1   -1    0    0  501    0  0.00000000000E+00 -0.00000000000E+00 -0.57332343178E+03  0.57332343180E+03  0.50400000000E-02 0. -1.
         23    2    1    2    0    0  0.00000000000E+00  0.88817841970E-15 -0.56964963637E+03  0.57699723067E+03  0.91788321667E+02 0.  0.
    9000005    2    3    3    0    0  0.36983743436E+02  0.55808758406E+01 -0.44559992364E+03  0.44743151499E+03  0.15385876761E+02 0.  0.
         22    1    3    3    0    0 -0.36983743436E+02 -0.55808758406E+01 -0.12404971272E+03  0.12956571568E+03  0.00000000000E+00 0.  1.
         22    1    4    4    0    0  0.26917948552E+02 -0.30065645766E+01 -0.31551747861E+03  0.31667790371E+03  0.00000000000E+00 0. -1.
         22    1    4    4    0    0  0.10065794885E+02  0.85874404172E+01 -0.13008244503E+03  0.13075361128E+03  0.00000000000E+00 0. -1.
<mgrwt>
<rscale>  0 0.91788322E+02</rscale>
<asrwt>0</asrwt>
<pdfrwt beam="2">  1        1 0.88203534E-01 0.91788322E+02</pdfrwt>
<pdfrwt beam="1">  1       -1 0.56520002E-03 0.91788322E+02</pdfrwt>
<totfact> 0.13867155E+05</totfact>
</mgrwt>
</event>
<event>
 7    1  0.2911475E-009  0.9232487E+02  0.7818608E-02  0.1297317E+00
          1   -1    0    0  501    0  0.00000000000E+00  0.00000000000E+00  0.54977072498E+01  0.54977095600E+01  0.50400000000E-02 0. -1.
         -1   -1    0    0    0  501 -0.00000000000E+00 -0.00000000000E+00 -0.38761064933E+03  0.38761064936E+03  0.50400000000E-02 0.  1.
         23    2    1    2    0    0  0.00000000000E+00  0.00000000000E+00 -0.38211294208E+03  0.39310835892E+03  0.92324868533E+02 0.  0.
    9000005    2    3    3    0    0  0.29255660006E+02 -0.34741870550E+02 -0.17108281503E+03  0.17724588943E+03  0.91588487502E+01 0.  0.
         22    1    3    3    0    0 -0.29255660006E+02  0.34741870550E+02 -0.21103012705E+03  0.21586246949E+03  0.00000000000E+00 0.  1.
         22    1    4    4    0    0  0.29930687745E+02 -0.33670565902E+02 -0.16557412515E+03  0.17159354299E+03  0.00000000000E+00 0.  1.
         22    1    4    4    0    0 -0.67502773961E+00 -0.10713046482E+01 -0.55086898837E+01  0.56523464449E+01  0.00000000000E+00 0.  1.
<mgrwt>
<rscale>  0 0.92324869E+02</rscale>
<asrwt>0</asrwt>
<pdfrwt beam="1">  1        1 0.84580160E-03 0.92324869E+02</pdfrwt>
<pdfrwt beam="2">  1       -1 0.59632386E-01 0.92324869E+02</pdfrwt>
<totfact> 0.52384570E+04</totfact>
</mgrwt>
</event>
<event>
 7    1  0.2911475E-009  0.8946561E+02  0.7818608E-02  0.1304151E+00
          1   -1    0    0  501    0  0.00000000000E+00  0.00000000000E+00  0.36726106689E+01  0.36726141272E+01  0.50400000000E-02 0. -1.
         -1   -1    0    0    0  501 -0.00000000000E+00 -0.00000000000E+00 -0.54485032231E+03  0.54485032234E+03  0.50400000000E-02 0.  1.
         23    2    1    2    0    0  0.00000000000E+00  0.00000000000E+00 -0.54117771164E+03  0.54852293646E+03  0.89465614882E+02 0.  0.
    9000005    2    3    3    0    0  0.24883772328E+01 -0.22372754962E+02 -0.50670277863E+03  0.50734948394E+03  0.12209045991E+02 0.  0.
         22    1    3    3    0    0 -0.24883772328E+01  0.22372754962E+02 -0.34474933016E+02  0.41173452519E+02  0.00000000000E+00 0. -1.
         22    1    4    4    0    0  0.25058063569E+01 -0.19315328418E+02 -0.30382527297E+03  0.30444894067E+03  0.00000000000E+00 0.  1.
         22    1    4    4    0    0 -0.17429124076E-01 -0.30574265436E+01 -0.20287750565E+03  0.20290054327E+03  0.00000000000E+00 0.  1.
<mgrwt>
<rscale>  0 0.89465615E+02</rscale>
<asrwt>0</asrwt>
<pdfrwt beam="1">  1        1 0.56501773E-03 0.89465615E+02</pdfrwt>
<pdfrwt beam="2">  1       -1 0.83823063E-01 0.89465615E+02</pdfrwt>
<totfact> 0.46785224E+04</totfact>
</mgrwt>
</event>
<event>
 7    1  0.2911475E-009  0.9394417E+02  0.7818608E-02  0.1293572E+00
         -1   -1    0    0    0  501 -0.00000000000E+00  0.00000000000E+00  0.22417202191E+01  0.22417258847E+01  0.50400000000E-02 0.  1.
          1   -1    0    0  501    0  0.00000000000E+00 -0.00000000000E+00 -0.98423247061E+03  0.98423247063E+03  0.50400000000E-02 0. -1.
         23    2    1    2    0    0  0.00000000000E+00 -0.71054273576E-14 -0.98199075039E+03  0.98647419651E+03  0.93944167047E+02 0.  0.
    9000005    2    3    3    0    0 -0.42158990730E+01 -0.34388962256E+02 -0.82151936762E+03  0.82230526151E+03  0.95654169470E+01 0.  0.
         22    1    3    3    0    0  0.42158990730E+01  0.34388962256E+02 -0.16047138277E+03  0.16416893500E+03  0.00000000000E+00 0.  1.
         22    1    4    4    0    0 -0.63065204844E+01 -0.32532083825E+02 -0.75257538934E+03  0.75330460328E+03  0.00000000000E+00 0.  1.
         22    1    4    4    0    0  0.20906214114E+01 -0.18568784317E+01 -0.68943978278E+02  0.69000658230E+02  0.00000000000E+00 0.  1.
<mgrwt>
<rscale>  0 0.93944167E+02</rscale>
<asrwt>0</asrwt>
<pdfrwt beam="2">  1        1 0.15142004E+00 0.93944167E+02</pdfrwt>
<pdfrwt beam="1">  1       -1 0.34488126E-03 0.93944167E+02</pdfrwt>
<totfact> 0.12618176E+05</totfact>
</mgrwt>
</event>
<event>
 7    1  0.2911475E-009  0.8970386E+02  0.7818608E-02  0.1303570E+00
         -1   -1    0    0    0  501 -0.00000000000E+00  0.00000000000E+00  0.31229364588E+01  0.31229405257E+01  0.50400000000E-02 0.  1.
          1   -1    0    0  501    0  0.00000000000E+00 -0.00000000000E+00 -0.64416748349E+03  0.64416748351E+03  0.50400000000E-02 0. -1.
         23    2    1    2    0    0  0.00000000000E+00 -0.35527136788E-14 -0.64104454703E+03  0.64729042404E+03  0.89703855935E+02 0.  0.
    9000005    2    3    3    0    0 -0.30991524085E+02  0.10479666296E+02 -0.53850485039E+03  0.53965823852E+03  0.13162163287E+02 0.  0.
         22    1    3    3    0    0  0.30991524085E+02 -0.10479666296E+02 -0.10253969665E+03  0.10763218552E+03  0.00000000000E+00 0.  1.
         22    1    4    4    0    0 -0.24649332367E+02  0.10535745124E+02 -0.49108812487E+03  0.49181921262E+03  0.00000000000E+00 0.  1.
         22    1    4    4    0    0 -0.63421917181E+01 -0.56078828319E-01 -0.47416725517E+02  0.47839025903E+02  0.00000000000E+00 0.  1.
<mgrwt>
<rscale>  0 0.89703856E+02</rscale>
<asrwt>0</asrwt>
<pdfrwt beam="2">  1        1 0.99102585E-01 0.89703856E+02</pdfrwt>
<pdfrwt beam="1">  1       -1 0.48045259E-03 0.89703856E+02</pdfrwt>
<totfact> 0.14829439E+05</totfact>
</mgrwt>
</event>
<event>
 7    1  0.2911475E-009  0.9055303E+02  0.7818608E-02  0.1301518E+00
          1   -1    0    0  501    0  0.00000000000E+00  0.00000000000E+00  0.81499136338E+01  0.81499151922E+01  0.50400000000E-02 0. -1.
         -1   -1    0    0    0  501 -0.00000000000E+00 -0.00000000000E+00 -0.25153180200E+03  0.25153180205E+03  0.50400000000E-02 0.  1.
         23    2    1    2    0    0  0.00000000000E+00 -0.35527136788E-14 -0.24338188836E+03  0.25968171724E+03  0.90553026925E+02 0.  0.
    9000005    2    3    3    0    0 -0.30967138732E+02 -0.20866871385E+02 -0.51893343608E+02  0.64586220687E+02  0.91690124414E+01 0.  0.
         22    1    3    3    0    0  0.30967138732E+02  0.20866871385E+02 -0.19148854476E+03  0.19509549655E+03  0.00000000000E+00 0.  1.
         22    1    4    4    0    0 -0.17359467423E+01  0.55466019836E+00 -0.49969095406E+01  0.53188592748E+01  0.00000000000E+00 0. -1.
         22    1    4    4    0    0 -0.29231191990E+02 -0.21421531584E+02 -0.46896434067E+02  0.59267361412E+02  0.00000000000E+00 0. -1.
<mgrwt>
<rscale>  0 0.90553027E+02</rscale>
<asrwt>0</asrwt>
<pdfrwt beam="1">  1        1 0.12538332E-02 0.90553027E+02</pdfrwt>
<pdfrwt beam="2">  1       -1 0.38697195E-01 0.90553027E+02</pdfrwt>
<totfact> 0.65799127E+04</totfact>
</mgrwt>
</event>
<event>
 7    1  0.3715441E-009  0.9153423E+02  0.7818608E-02  0.1299178E+00
          1   -1    0    0  501    0  0.00000000000E+00  0.00000000000E+00  0.33718652187E+03  0.33718652191E+03  0.50400000000E-02 0. -1.
         -1   -1    0    0    0  501 -0.00000000000E+00 -0.00000000000E+00 -0.62120761402E+01  0.62120781847E+01  0.50400000000E-02 0.  1.
         23    2    1    2    0    0  0.71054273576E-14 -0.17763568394E-14  0.33097444573E+03  0.34339860009E+03  0.91534227583E+02 0.  0.
    9000005    2    3    3    0    0 -0.36139351313E+02  0.14926278996E+02  0.25134378874E+03  0.25468621059E+03  0.12748302250E+02 0.  0.
         22    1    3    3    0    0  0.36139351313E+02 -0.14926278996E+02  0.79630656991E+02  0.88712389500E+02  0.00000000000E+00 0.  1.
         22    1    4    4    0    0 -0.80112441195E+01  0.34778516591E+01  0.29258046510E+02  0.30533731676E+02  0.00000000000E+00 0. -1.
         22    1    4    4    0    0 -0.28128107194E+02  0.11448427336E+02  0.22208574223E+03  0.22415247892E+03  0.00000000000E+00 0. -1.
<mgrwt>
<rscale>  0 0.91534228E+02</rscale>
<asrwt>0</asrwt>
<pdfrwt beam="1">  1        1 0.51874845E-01 0.91534228E+02</pdfrwt>
<pdfrwt beam="2">  1       -1 0.95570426E-03 0.91534228E+02</pdfrwt>
<totfact> 0.12959173E+05</totfact>
</mgrwt>
</event>
<event>
 7    1  0.2911475E-009  0.8967240E+02  0.7818608E-02  0.1303647E+00
          1   -1    0    0  501    0  0.00000000000E+00  0.00000000000E+00  0.13617798389E+03  0.13617798398E+03  0.50400000000E-02 0. -1.
         -1   -1    0    0    0  501 -0.00000000000E+00 -0.00000000000E+00 -0.14762184763E+02  0.14762185623E+02  0.50400000000E-02 0.  1.
         23    2    1    2    0    0  0.00000000000E+00  0.00000000000E+00  0.12141579912E+03  0.15094016960E+03  0.89672395546E+02 0.  0.
    9000005    2    3    3    0    0 -0.25894226207E+02 -0.35281430892E+02  0.60820316264E+02  0.76193244184E+02  0.13820610410E+02 0.  0.
         22    1    3    3    0    0  0.25894226207E+02  0.35281430892E+02  0.60595482860E+02  0.74746925420E+02  0.00000000000E+00 0.  1.
         22    1    4    4    0    0 -0.15598550184E+02 -0.24807184907E+02  0.29400888180E+02  0.41510521758E+02  0.00000000000E+00 0.  1.
         22    1    4    4    0    0 -0.10295676023E+02 -0.10474245985E+02  0.31419428084E+02  0.34682722426E+02  0.00000000000E+00 0.  1.
<mgrwt>
<rscale>  0 0.89672396E+02</rscale>
<asrwt>0</asrwt>
<pdfrwt beam="1">  1        1 0.20950459E-01 0.89672396E+02</pdfrwt>
<pdfrwt beam="2">  1       -1 0.22711055E-02 0.89672396E+02</pdfrwt>
<totfact> 0.11523899E+05</totfact>
</mgrwt>
</event>
<event>
 7    1  0.2939768E-009  0.8978735E+02  0.7818608E-02  0.1303367E+00
         -1   -1    0    0    0  501 -0.00000000000E+00  0.00000000000E+00  0.19229586487E+02  0.19229587148E+02  0.50400000000E-02 0.  1.
          1   -1    0    0  501    0  0.00000000000E+00 -0.00000000000E+00 -0.10480942102E+03  0.10480942114E+03  0.50400000000E-02 0. -1.
         23    2    1    2    0    0  0.00000000000E+00  0.00000000000E+00 -0.85579834536E+02  0.12403900829E+03  0.89787345984E+02 0.  0.
    9000005    2    3    3    0    0 -0.19590488800E+02 -0.21158580020E+01  0.10268557546E+02  0.26186167908E+02  0.13856695462E+02 0.  0.
         22    1    3    3    0    0  0.19590488800E+02  0.21158580020E+01 -0.95848392082E+02  0.97852840384E+02  0.00000000000E+00 0. -1.
         22    1    4    4    0    0 -0.49986479612E+01  0.29667287959E+01 -0.23170145212E+01  0.62575168781E+01  0.00000000000E+00 0.  1.
         22    1    4    4    0    0 -0.14591840839E+02 -0.50825867980E+01  0.12585572067E+02  0.19928651030E+02  0.00000000000E+00 0.  1.
<mgrwt>
<rscale>  0 0.89787346E+02</rscale>
<asrwt>0</asrwt>
<pdfrwt beam="2">  1        1 0.16124526E-01 0.89787346E+02</pdfrwt>
<pdfrwt beam="1">  1       -1 0.29583980E-02 0.89787346E+02</pdfrwt>
<totfact> 0.10976212E+05</totfact>
</mgrwt>
</event>
<event>
 7    1  0.2911475E-009  0.8435569E+02  0.7818608E-02  0.1317126E+00
         -1   -1    0    0    0  501 -0.00000000000E+00  0.00000000000E+00  0.66700729060E+01  0.66700748101E+01  0.50400000000E-02 0.  1.
          1   -1    0    0  501    0  0.00000000000E+00 -0.00000000000E+00 -0.26670931042E+03  0.26670931047E+03  0.50400000000E-02 0. -1.
         23    2    1    2    0    0  0.00000000000E+00  0.00000000000E+00 -0.26003923751E+03  0.27337938528E+03  0.84355694816E+02 0.  0.
    9000005    2    3    3    0    0 -0.22012263255E+02 -0.32686796280E+02 -0.84281241105E+02  0.93257649536E+02  0.63792797536E+01 0.  0.
         22    1    3    3    0    0  0.22012263255E+02  0.32686796280E+02 -0.17575799641E+03  0.18012173574E+03  0.00000000000E+00 0. -1.
         22    1    4    4    0    0 -0.14122302870E+02 -0.16790378621E+02 -0.51555333094E+02  0.56029533490E+02  0.00000000000E+00 0. -1.
         22    1    4    4    0    0 -0.78899603851E+01 -0.15896417659E+02 -0.32725908010E+02  0.37228116047E+02  0.00000000000E+00 0. -1.
<mgrwt>
<rscale>  0 0.84355695E+02</rscale>
<asrwt>0</asrwt>
<pdfrwt beam="2">  1        1 0.41032193E-01 0.84355695E+02</pdfrwt>
<pdfrwt beam="1">  1       -1 0.10261654E-02 0.84355695E+02</pdfrwt>
<totfact> 0.15398199E+05</totfact>
</mgrwt>
</event>
<event>
 7    1  0.2911475E-009  0.8949033E+02  0.7818608E-02  0.1304091E+00
          1   -1    0    0  501    0  0.00000000000E+00  0.00000000000E+00  0.11078078625E+03  0.11078078636E+03  0.50400000000E-02 0. -1.
         -1   -1    0    0    0  501 -0.00000000000E+00 -0.00000000000E+00 -0.18072896646E+02  0.18072897349E+02  0.50400000000E-02 0.  1.
         23    2    1    2    0    0  0.00000000000E+00  0.00000000000E+00  0.92707889604E+02  0.12885368371E+03  0.89490329153E+02 0.  0.
    9000005    2    3    3    0    0 -0.42496946924E+01  0.13960547442E+02  0.10688864452E+03  0.10850545038E+03  0.11631579573E+02 0.  0.
         22    1    3    3    0    0  0.42496946924E+01 -0.13960547442E+02 -0.14180754920E+02  0.20348233338E+02  0.00000000000E+00 0.  1.
         22    1    4    4    0    0  0.31917545476E+01  0.17026080440E+01  0.35977234958E+02  0.36158644976E+02  0.00000000000E+00 0.  1.
         22    1    4    4    0    0 -0.74414492400E+01  0.12257939398E+02  0.70911409566E+02  0.72346805401E+02  0.00000000000E+00 0.  1.
<mgrwt>
<rscale>  0 0.89490329E+02</rscale>
<asrwt>0</asrwt>
<pdfrwt beam="1">  1        1 0.17043198E-01 0.89490329E+02</pdfrwt>
<pdfrwt beam="2">  1       -1 0.27804458E-02 0.89490329E+02</pdfrwt>
<totfact> 0.11178803E+05</totfact>
</mgrwt>
</event>
<event>
 7    1  0.3223104E-009  0.8942341E+02  0.7818608E-02  0.1304254E+00
          1   -1    0    0  501    0  0.00000000000E+00  0.00000000000E+00  0.27282021328E+02  0.27282021793E+02  0.50400000000E-02 0. -1.
         -1   -1    0    0    0  501 -0.00000000000E+00 -0.00000000000E+00 -0.73276701584E+02  0.73276701757E+02  0.50400000000E-02 0.  1.
         23    2    1    2    0    0 -0.17763568394E-14 -0.35527136788E-14 -0.45994680256E+02  0.10055872355E+03  0.89423410079E+02 0.  0.
    9000005    2    3    3    0    0  0.11441566196E+02  0.30779224882E+02 -0.56330200661E+02  0.66133542310E+02  0.11058200152E+02 0.  0.
         22    1    3    3    0    0 -0.11441566196E+02 -0.30779224882E+02  0.10335520405E+02  0.34425181240E+02  0.00000000000E+00 0. -1.
         22    1    4    4    0    0  0.11316689892E+02  0.14684057870E+02 -0.29195886936E+02  0.34584517340E+02  0.00000000000E+00 0.  1.
         22    1    4    4    0    0  0.12487630386E+00  0.16095167013E+02 -0.27134313725E+02  0.31549024970E+02  0.00000000000E+00 0.  1.
<mgrwt>
<rscale>  0 0.89423410E+02</rscale>
<asrwt>0</asrwt>
<pdfrwt beam="1">  1        1 0.41972341E-02 0.89423410E+02</pdfrwt>
<pdfrwt beam="2">  1       -1 0.11273339E-01 0.89423410E+02</pdfrwt>
<totfact> 0.90258030E+04</totfact>
</mgrwt>
</event>
<event>
 7    1  0.2911475E-009  0.8905787E+02  0.7818608E-02  0.1305149E+00
         -1   -1    0    0    0  501 -0.00000000000E+00  0.00000000000E+00  0.58228902531E+01  0.58228924343E+01  0.50400000000E-02 0.  1.
          1   -1    0    0  501    0  0.00000000000E+00 -0.00000000000E+00 -0.34052256705E+03  0.34052256708E+03  0.50400000000E-02 0. -1.
         23    2    1    2    0    0  0.00000000000E+00  0.16653345369E-15 -0.33469967679E+03  0.34634545952E+03  0.89057867049E+02 0.  0.
    9000005    2    3    3    0    0  0.14078463558E+02  0.19770217149E+00 -0.33145641579E+03  0.33189689681E+03  0.96929007041E+01 0.  0.
         22    1    3    3    0    0 -0.14078463558E+02 -0.19770217149E+00 -0.32432610042E+01  0.14448562705E+02  0.00000000000E+00 0.  1.
         22    1    4    4    0    0  0.84075815643E+01  0.48792665993E+01 -0.19644599349E+03  0.19668635700E+03  0.00000000000E+00 0. -1.
         22    1    4    4    0    0  0.56708819937E+01 -0.46815644278E+01 -0.13501042230E+03  0.13521053982E+03  0.00000000000E+00 0. -1.
<mgrwt>
<rscale>  0 0.89057867E+02</rscale>
<asrwt>0</asrwt>
<pdfrwt beam="2">  1        1 0.52388072E-01 0.89057867E+02</pdfrwt>
<pdfrwt beam="1">  1       -1 0.89582971E-03 0.89057867E+02</pdfrwt>
<totfact> 0.13963581E+05</totfact>
</mgrwt>
</event>
<event>
 7    1  0.2911475E-009  0.8595592E+02  0.7818608E-02  0.1312951E+00
         -1   -1    0    0    0  501 -0.00000000000E+00  0.00000000000E+00  0.11320589351E+01  0.11320701542E+01  0.50400000000E-02 0.  1.
          1   -1    0    0  501    0  0.00000000000E+00 -0.00000000000E+00 -0.16316251104E+04  0.16316251104E+04  0.50400000000E-02 0. -1.
         23    2    1    2    0    0  0.00000000000E+00 -0.17763568394E-14 -0.16304930514E+04  0.16327571805E+04  0.85955917778E+02 0.  0.
    9000005    2    3    3    0    0 -0.88601948234E+01  0.13920492067E+02 -0.15681279931E+04  0.15682460679E+04  0.99016963179E+01 0.  0.
         22    1    3    3    0    0  0.88601948234E+01 -0.13920492067E+02 -0.62365058303E+02  0.64511112600E+02  0.00000000000E+00 0.  1.
         22    1    4    4    0    0 -0.60381610899E+01  0.15513413055E+01 -0.66026532260E+03  0.66029475409E+03  0.00000000000E+00 0. -1.
         22    1    4    4    0    0 -0.28220337334E+01  0.12369150761E+02 -0.90786267053E+03  0.90795131384E+03  0.00000000000E+00 0. -1.
<mgrwt>
<rscale>  0 0.85955918E+02</rscale>
<asrwt>0</asrwt>
<pdfrwt beam="2">  1        1 0.25101737E+00 0.85955918E+02</pdfrwt>
<pdfrwt beam="1">  1       -1 0.17416508E-03 0.85955918E+02</pdfrwt>
<totfact> 0.11973202E+05</totfact>
</mgrwt>
</event>
<event>
 7    1  0.2911475E-009  0.9205899E+02  0.7818608E-02  0.1297941E+00
         -1   -1    0    0    0  501 -0.00000000000E+00  0.00000000000E+00  0.79541960125E+01  0.79541976093E+01  0.50400000000E-02 0.  1.
          1   -1    0    0  501    0  0.00000000000E+00 -0.00000000000E+00 -0.26636434660E+03  0.26636434665E+03  0.50400000000E-02 0. -1.
         23    2    1    2    0    0  0.00000000000E+00 -0.35527136788E-14 -0.25841015059E+03  0.27431854426E+03  0.92058990852E+02 0.  0.
    9000005    2    3    3    0    0  0.15751148523E+02  0.21361349706E+02 -0.24069109575E+03  0.24240662101E+03  0.11151699226E+02 0.  0.
         22    1    3    3    0    0 -0.15751148523E+02 -0.21361349706E+02 -0.17719054842E+02  0.31911923251E+02  0.00000000000E+00 0.  1.
         22    1    4    4    0    0  0.10635793491E+02  0.21103606432E+02 -0.19310844139E+03  0.19454910035E+03  0.00000000000E+00 0. -1.
         22    1    4    4    0    0  0.51153550318E+01  0.25774327416E+00 -0.47582654354E+02  0.47857520664E+02  0.00000000000E+00 0. -1.
<mgrwt>
<rscale>  0 0.92058991E+02</rscale>
<asrwt>0</asrwt>
<pdfrwt beam="2">  1        1 0.40979123E-01 0.92058991E+02</pdfrwt>
<pdfrwt beam="1">  1       -1 0.12237228E-02 0.92058991E+02</pdfrwt>
<totfact> 0.12203018E+05</totfact>
</mgrwt>
</event>
<event>
 7    1  0.2911475E-009  0.7769605E+02  0.7818608E-02  0.1335720E+00
         -1   -1    0    0    0  501 -0.00000000000E+00  0.00000000000E+00  0.83962405203E+01  0.83962420330E+01  0.50400000000E-02 0.  1.
          1   -1    0    0  501    0  0.00000000000E+00 -0.00000000000E+00 -0.17974340722E+03  0.17974340729E+03  0.50400000000E-02 0. -1.
         23    2    1    2    0    0  0.35527136788E-14  0.00000000000E+00 -0.17134716670E+03  0.18813964932E+03  0.77696049523E+02 0.  0.
    9000005    2    3    3    0    0 -0.25721643763E+02 -0.16906539609E+02 -0.33305495781E+02  0.46707909783E+02  0.11177600263E+02 0.  0.
         22    1    3    3    0    0  0.25721643763E+02  0.16906539609E+02 -0.13804167091E+03  0.14143173954E+03  0.00000000000E+00 0. -1.
         22    1    4    4    0    0 -0.26798226955E+02 -0.16504599613E+02 -0.31244757043E+02  0.44348411685E+02  0.00000000000E+00 0.  1.
         22    1    4    4    0    0  0.10765831914E+01 -0.40193999650E+00 -0.20607387381E+01  0.23594980982E+01  0.00000000000E+00 0.  1.
<mgrwt>
<rscale>  0 0.77696050E+02</rscale>
<asrwt>0</asrwt>
<pdfrwt beam="2">  1        1 0.27652829E-01 0.77696050E+02</pdfrwt>
<pdfrwt beam="1">  1       -1 0.12917296E-02 0.77696050E+02</pdfrwt>
<totfact> 0.17759431E+05</totfact>
</mgrwt>
</event>
<event>
 7    1  0.2911475E-009  0.9119948E+02  0.7818608E-02  0.1299973E+00
         -1   -1    0    0    0  501 -0.00000000000E+00  0.00000000000E+00  0.36839100992E+02  0.36839101336E+02  0.50400000000E-02 0.  1.
          1   -1    0    0  501    0  0.00000000000E+00 -0.00000000000E+00 -0.56443733366E+02  0.56443733591E+02  0.50400000000E-02 0. -1.
         23    2    1    2    0    0  0.22204460493E-15 -0.71054273576E-14 -0.19604632374E+02  0.93282834928E+02  0.91199482902E+02 0.  0.
    9000005    2    3    3    0    0 -0.11743161516E+01  0.45135054560E+02 -0.49087937289E+01  0.45801050609E+02  0.59234966466E+01 0.  0.
         22    1    3    3    0    0  0.11743161516E+01 -0.45135054560E+02 -0.14695838646E+02  0.47481784318E+02  0.00000000000E+00 0.  1.
         22    1    4    4    0    0  0.15769460289E+01  0.15359953936E+02  0.32713731834E+00  0.15444156258E+02  0.00000000000E+00 0. -1.
         22    1    4    4    0    0 -0.27512621804E+01  0.29775100624E+02 -0.52359310472E+01  0.30356894352E+02  0.00000000000E+00 0. -1.
<mgrwt>
<rscale>  0 0.91199483E+02</rscale>
<asrwt>0</asrwt>
<pdfrwt beam="2">  1        1 0.86836513E-02 0.91199483E+02</pdfrwt>
<pdfrwt beam="1">  1       -1 0.56675540E-02 0.91199483E+02</pdfrwt>
<totfact> 0.95420657E+04</totfact>
</mgrwt>
</event>
<event>
 7    1  0.2911475E-009  0.9127800E+02  0.7818608E-02  0.1299786E+00
         -1   -1    0    0    0  501 -0.00000000000E+00  0.00000000000E+00  0.85218702328E+02  0.85218702477E+02  0.50400000000E-02 0.  1.
          1   -1    0    0  501    0  0.00000000000E+00 -0.00000000000E+00 -0.24442034391E+02  0.24442034910E+02  0.50400000000E-02 0. -1.
         23    2    1    2    0    0  0.71054273576E-14 -0.11102230246E-15  0.60776667938E+02  0.10966073739E+03  0.91278003696E+02 0.  0.
    9000005    2    3    3    0    0  0.35495428108E+02  0.41238690179E+00  0.64213555944E+02  0.73996922692E+02  0.95952238784E+01 0.  0.
         22    1    3    3    0    0 -0.35495428108E+02 -0.41238690179E+00 -0.34368880068E+01  0.35663814696E+02  0.00000000000E+00 0. -1.
         22    1    4    4    0    0  0.10472974676E+02 -0.40752299525E+01  0.17095807509E+02  0.20458673762E+02  0.00000000000E+00 0. -1.
         22    1    4    4    0    0  0.25022453432E+02  0.44876168543E+01  0.47117748436E+02  0.53538248929E+02  0.00000000000E+00 0. -1.
<mgrwt>
<rscale>  0 0.91278004E+02</rscale>
<asrwt>0</asrwt>
<pdfrwt beam="2">  1        1 0.37603131E-02 0.91278004E+02</pdfrwt>
<pdfrwt beam="1">  1       -1 0.13110569E-01 0.91278004E+02</pdfrwt>
<totfact> 0.83501890E+04</totfact>
</mgrwt>
</event>
<event>
 7    1  0.2911475E-009  0.9098235E+02  0.7818608E-02  0.1300490E+00
          1   -1    0    0  501    0  0.00000000000E+00  0.00000000000E+00  0.44587160384E+03  0.44587160387E+03  0.50400000000E-02 0. -1.
         -1   -1    0    0    0  501 -0.00000000000E+00 -0.00000000000E+00 -0.46413505117E+01  0.46413532481E+01  0.50400000000E-02 0.  1.
         23    2    1    2    0    0 -0.17763568394E-14  0.44408920985E-15  0.44123025332E+03  0.45051295711E+03  0.90982350364E+02 0.  0.
    9000005    2    3    3    0    0  0.10753788498E+02  0.34147090711E+01  0.43849342702E+03  0.43890285706E+03  0.15229188760E+02 0.  0.
         22    1    3    3    0    0 -0.10753788498E+02 -0.34147090711E+01  0.27368263088E+01  0.11610100057E+02  0.00000000000E+00 0.  1.
         22    1    4    4    0    0  0.52539298915E+01  0.91542801124E+01  0.29572105595E+03  0.29590935699E+03  0.00000000000E+00 0.  1.
         22    1    4    4    0    0  0.54998586065E+01 -0.57395710414E+01  0.14277237107E+03  0.14299350007E+03  0.00000000000E+00 0.  1.
<mgrwt>
<rscale>  0 0.90982350E+02</rscale>
<asrwt>0</asrwt>
<pdfrwt beam="1">  1        1 0.68595621E-01 0.90982350E+02</pdfrwt>
<pdfrwt beam="2">  1       -1 0.71405425E-03 0.90982350E+02</pdfrwt>
<totfact> 0.13795491E+05</totfact>
</mgrwt>
</event>
<event>
 7    1  0.3788586E-009  0.9499737E+02  0.7818608E-02  0.1291182E+00
         -1   -1    0    0    0  501 -0.00000000000E+00  0.00000000000E+00  0.29648686606E+01  0.29648729444E+01  0.50400000000E-02 0.  1.
          1   -1    0    0  501    0  0.00000000000E+00 -0.00000000000E+00 -0.76095229608E+03  0.76095229609E+03  0.50400000000E-02 0. -1.
         23    2    1    2    0    0  0.00000000000E+00  0.88817841970E-15 -0.75798742741E+03  0.76391716904E+03  0.94997373805E+02 0.  0.
    9000005    2    3    3    0    0  0.34322624433E+02  0.50930815257E+01 -0.63452107134E+03  0.63566771247E+03  0.15889262851E+02 0.  0.
         22    1    3    3    0    0 -0.34322624433E+02 -0.50930815257E+01 -0.12346635607E+03  0.12824945656E+03  0.00000000000E+00 0.  1.
         22    1    4    4    0    0  0.93322240126E+01 -0.31365766243E+01 -0.27935577199E+03  0.27952920395E+03  0.00000000000E+00 0.  1.
         22    1    4    4    0    0  0.24990400420E+02  0.82296581500E+01 -0.35516529935E+03  0.35613850852E+03  0.00000000000E+00 0.  1.
<mgrwt>
<rscale>  0 0.94997374E+02</rscale>
<asrwt>0</asrwt>
<pdfrwt beam="2">  1        1 0.11706943E+00 0.94997374E+02</pdfrwt>
<pdfrwt beam="1">  1       -1 0.45613458E-03 0.94997374E+02</pdfrwt>
<totfact> 0.12718929E+05</totfact>
</mgrwt>
</event>
<event>
 7    1  0.2911475E-009  0.9081942E+02  0.7818608E-02  0.1300879E+00
          1   -1    0    0  501    0  0.00000000000E+00  0.00000000000E+00  0.20908086089E+03  0.20908086095E+03  0.50400000000E-02 0. -1.
         -1   -1    0    0    0  501 -0.00000000000E+00 -0.00000000000E+00 -0.98624129319E+01  0.98624142197E+01  0.50400000000E-02 0.  1.
         23    2    1    2    0    0  0.00000000000E+00  0.00000000000E+00  0.19921844796E+03  0.21894327517E+03  0.90819423778E+02 0.  0.
    9000005    2    3    3    0    0 -0.36760500275E+02 -0.14334079370E+02  0.54085258936E+02  0.68542335121E+02  0.14698171922E+02 0.  0.
         22    1    3    3    0    0  0.36760500275E+02  0.14334079370E+02  0.14513318902E+03  0.15040094005E+03  0.00000000000E+00 0.  1.
         22    1    4    4    0    0 -0.22826667277E+02 -0.56587026806E+01  0.20656377803E+02  0.31301175680E+02  0.00000000000E+00 0. -1.
         22    1    4    4    0    0 -0.13933832998E+02 -0.86753766896E+01  0.33428881133E+02  0.37241159441E+02  0.00000000000E+00 0. -1.
<mgrwt>
<rscale>  0 0.90819424E+02</rscale>
<asrwt>0</asrwt>
<pdfrwt beam="1">  1        1 0.32166288E-01 0.90819424E+02</pdfrwt>
<pdfrwt beam="2">  1       -1 0.15172943E-02 0.90819424E+02</pdfrwt>
<totfact> 0.12069535E+05</totfact>
</mgrwt>
</event>
<event>
 7    1  0.2911475E-009  0.8647746E+02  0.7818608E-02  0.1311613E+00
          1   -1    0    0  501    0  0.00000000000E+00  0.00000000000E+00  0.24647361325E+03  0.24647361330E+03  0.50400000000E-02 0. -1.
         -1   -1    0    0    0  501 -0.00000000000E+00 -0.00000000000E+00 -0.75853462402E+01  0.75853479146E+01  0.50400000000E-02 0.  1.
         23    2    1    2    0    0  0.00000000000E+00  0.00000000000E+00  0.23888826701E+03  0.25405896121E+03  0.86477463302E+02 0.  0.
    9000005    2    3    3    0    0 -0.55931819652E+00 -0.42486076690E+02  0.14136480372E+03  0.14768130641E+03  0.45145302860E+01 0.  0.
         22    1    3    3    0    0  0.55931819652E+00  0.42486076690E+02  0.97523463285E+02  0.10637765480E+03  0.00000000000E+00 0.  1.
         22    1    4    4    0    0  0.95229604631E+00 -0.26289618659E+02  0.81118257801E+02  0.85277327970E+02  0.00000000000E+00 0. -1.
         22    1    4    4    0    0 -0.15116142428E+01 -0.16196458030E+02  0.60246545919E+02  0.62403978443E+02  0.00000000000E+00 0. -1.
<mgrwt>
<rscale>  0 0.86477463E+02</rscale>
<asrwt>0</asrwt>
<pdfrwt beam="1">  1        1 0.37919024E-01 0.86477463E+02</pdfrwt>
<pdfrwt beam="2">  1       -1 0.11669763E-02 0.86477463E+02</pdfrwt>
<totfact> 0.14199219E+05</totfact>
</mgrwt>
</event>
<event>
 7    1  0.2911475E-009  0.9157069E+02  0.7818608E-02  0.1299092E+00
          1   -1    0    0  501    0  0.00000000000E+00  0.00000000000E+00  0.19971988395E+03  0.19971988402E+03  0.50400000000E-02 0. -1.
         -1   -1    0    0    0  501 -0.00000000000E+00 -0.00000000000E+00 -0.10496188907E+02  0.10496190117E+02  0.50400000000E-02 0.  1.
         23    2    1    2    0    0  0.00000000000E+00  0.35527136788E-14  0.18922369505E+03  0.21021607413E+03  0.91570688854E+02 0.  0.
    9000005    2    3    3    0    0 -0.30121386603E+02  0.27973923807E+02  0.13625093306E+03  0.14316421468E+03  0.15551117663E+02 0.  0.
         22    1    3    3    0    0  0.30121386603E+02 -0.27973923807E+02  0.52972761989E+02  0.67051859458E+02  0.00000000000E+00 0.  1.
         22    1    4    4    0    0 -0.20000404683E+02  0.26269973965E+02  0.11351196014E+03  0.11821629673E+03  0.00000000000E+00 0. -1.
         22    1    4    4    0    0 -0.10120981920E+02  0.17039498424E+01  0.22738972921E+02  0.24947917941E+02  0.00000000000E+00 0. -1.
<mgrwt>
<rscale>  0 0.91570689E+02</rscale>
<asrwt>0</asrwt>
<pdfrwt beam="1">  1        1 0.30726135E-01 0.91570689E+02</pdfrwt>
<pdfrwt beam="2">  1       -1 0.16147984E-02 0.91570689E+02</pdfrwt>
<totfact> 0.11701194E+05</totfact>
</mgrwt>
</event>
<event>
 7    1  0.2911475E-009  0.7821342E+02  0.7818608E-02  0.1334199E+00
          1   -1    0    0  501    0  0.00000000000E+00  0.00000000000E+00  0.17758393363E+03  0.17758393371E+03  0.50400000000E-02 0. -1.
         -1   -1    0    0    0  501 -0.00000000000E+00 -0.00000000000E+00 -0.86118968423E+01  0.86118983171E+01  0.50400000000E-02 0.  1.
         23    2    1    2    0    0 -0.35527136788E-14 -0.35527136788E-14  0.16897203679E+03  0.18619583202E+03  0.78213417296E+02 0.  0.
    9000005    2    3    3    0    0  0.18386598149E+02  0.18718729483E+02  0.15282124990E+03  0.15538502642E+03  0.10085345212E+02 0.  0.
         22    1    3    3    0    0 -0.18386598149E+02 -0.18718729483E+02  0.16150786890E+02  0.30810805606E+02  0.00000000000E+00 0.  1.
         22    1    4    4    0    0  0.19587310770E+02  0.17929928674E+02  0.14119613602E+03  0.14367147911E+03  0.00000000000E+00 0. -1.
         22    1    4    4    0    0 -0.12007126213E+01  0.78880080857E+00  0.11625113886E+02  0.11713547302E+02  0.00000000000E+00 0. -1.
<mgrwt>
<rscale>  0 0.78213417E+02</rscale>
<asrwt>0</asrwt>
<pdfrwt beam="1">  1        1 0.27320604E-01 0.78213417E+02</pdfrwt>
<pdfrwt beam="2">  1       -1 0.13249074E-02 0.78213417E+02</pdfrwt>
<totfact> 0.17412220E+05</totfact>
</mgrwt>
</event>
<event>
 7    1  0.2911475E-009  0.9018622E+02  0.7818608E-02  0.1302401E+00
         -1   -1    0    0    0  501 -0.00000000000E+00  0.00000000000E+00  0.52515332855E+01  0.52515357040E+01  0.50400000000E-02 0. -1.
          1   -1    0    0  501    0  0.00000000000E+00 -0.00000000000E+00 -0.38719891041E+03  0.38719891045E+03  0.50400000000E-02 0.  1.
         23    2    1    2    0    0  0.00000000000E+00 -0.33306690739E-15 -0.38194737713E+03  0.39245044615E+03  0.90186217287E+02 0.  0.
    9000005    2    3    3    0    0  0.13208994774E+02  0.80085408717E-01 -0.37841712874E+03  0.37877760408E+03  0.99230071756E+01 0.  0.
         22    1    3    3    0    0 -0.13208994774E+02 -0.80085408717E-01 -0.35302483872E+01  0.13672842070E+02  0.00000000000E+00 0. -1.
         22    1    4    4    0    0  0.39278377827E+01  0.46062071160E+01 -0.11678749779E+03  0.11694428029E+03  0.00000000000E+00 0.  1.
         22    1    4    4    0    0  0.92811569911E+01 -0.45261217073E+01 -0.26162963095E+03  0.26183332379E+03  0.00000000000E+00 0.  1.
<mgrwt>
<rscale>  0 0.90186217E+02</rscale>
<asrwt>0</asrwt>
<pdfrwt beam="2">  1        1 0.59569041E-01 0.90186217E+02</pdfrwt>
<pdfrwt beam="1">  1       -1 0.80792869E-03 0.90186217E+02</pdfrwt>
<totfact> 0.13811106E+05</totfact>
</mgrwt>
</event>
<event>
 7    1  0.2911475E-009  0.9139506E+02  0.7818608E-02  0.1299508E+00
         -1   -1    0    0    0  501 -0.00000000000E+00  0.00000000000E+00  0.13411449131E+03  0.13411449141E+03  0.50400000000E-02 0.  1.
          1   -1    0    0  501    0  0.00000000000E+00 -0.00000000000E+00 -0.15570756326E+02  0.15570757142E+02  0.50400000000E-02 0. -1.
         23    2    1    2    0    0  0.00000000000E+00  0.00000000000E+00  0.11854373499E+03  0.14968524855E+03  0.91395057464E+02 0.  0.
    9000005    2    3    3    0    0  0.33948576648E+02 -0.26724792603E+02  0.39547456725E+02  0.59645632962E+02  0.11264093481E+02 0.  0.
         22    1    3    3    0    0 -0.33948576648E+02  0.26724792603E+02  0.78996278260E+02  0.90039615587E+02  0.00000000000E+00 0.  1.
         22    1    4    4    0    0  0.14280651690E+02 -0.17008147484E+02  0.24361272298E+02  0.32964915918E+02  0.00000000000E+00 0. -1.
         22    1    4    4    0    0  0.19667924958E+02 -0.97166451189E+01  0.15186184427E+02  0.26680717044E+02  0.00000000000E+00 0. -1.
<mgrwt>
<rscale>  0 0.91395057E+02</rscale>
<asrwt>0</asrwt>
<pdfrwt beam="2">  1        1 0.23955011E-02 0.91395057E+02</pdfrwt>
<pdfrwt beam="1">  1       -1 0.20632998E-01 0.91395057E+02</pdfrwt>
<totfact> 0.76231685E+04</totfact>
</mgrwt>
</event>
<event>
 7    1  0.2911475E-009  0.9086345E+02  0.7818608E-02  0.1300774E+00
          1   -1    0    0  501    0  0.00000000000E+00  0.00000000000E+00  0.91254378732E+01  0.91254392650E+01  0.50400000000E-02 0. -1.
         -1   -1    0    0    0  501 -0.00000000000E+00 -0.00000000000E+00 -0.22618547374E+03  0.22618547380E+03  0.50400000000E-02 0.  1.
         23    2    1    2    0    0  0.00000000000E+00  0.00000000000E+00 -0.21706003587E+03  0.23531091306E+03  0.90863450491E+02 0.  0.
    9000005    2    3    3    0    0 -0.17683482986E+02 -0.32519107459E+02 -0.42587034084E+02  0.56954454609E+02  0.77431587442E+01 0.  0.
         22    1    3    3    0    0  0.17683482986E+02  0.32519107459E+02 -0.17447300178E+03  0.17835645845E+03  0.00000000000E+00 0.  1.
         22    1    4    4    0    0 -0.10549951523E+02 -0.16627562778E+02 -0.17081940850E+02  0.26068563909E+02  0.00000000000E+00 0. -1.
         22    1    4    4    0    0 -0.71335314629E+01 -0.15891544680E+02 -0.25505093234E+02  0.30885890700E+02  0.00000000000E+00 0. -1.
<mgrwt>
<rscale>  0 0.90863450E+02</rscale>
<asrwt>0</asrwt>
<pdfrwt beam="1">  1        1 0.14039138E-02 0.90863450E+02</pdfrwt>
<pdfrwt beam="2">  1       -1 0.34797761E-01 0.90863450E+02</pdfrwt>
<totfact> 0.67516870E+04</totfact>
</mgrwt>
</event>
<event>
 7    1  0.2911475E-009  0.1054323E+03  0.7818608E-02  0.1269270E+00
         -1   -1    0    0    0  501 -0.00000000000E+00  0.00000000000E+00  0.33272696590E+02  0.33272696972E+02  0.50400000000E-02 0.  1.
          1   -1    0    0  501    0  0.00000000000E+00 -0.00000000000E+00 -0.83521663515E+02  0.83521663667E+02  0.50400000000E-02 0. -1.
         23    2    1    2    0    0  0.00000000000E+00  0.00000000000E+00 -0.50248966924E+02  0.11679436064E+03  0.10543227210E+03 0.  0.
    9000005    2    3    3    0    0 -0.44341858929E+02 -0.14603069518E+02 -0.51261219160E+02  0.70098806812E+02  0.10328602713E+02 0.  0.
         22    1    3    3    0    0  0.44341858929E+02  0.14603069518E+02  0.10122522354E+01  0.46695553827E+02  0.00000000000E+00 0.  1.
         22    1    4    4    0    0 -0.13674189219E+02 -0.72443310063E+01 -0.11147692846E+02  0.19071833638E+02  0.00000000000E+00 0.  1.
         22    1    4    4    0    0 -0.30667669710E+02 -0.73587385118E+01 -0.40113526313E+02  0.51026973173E+02  0.00000000000E+00 0.  1.
<mgrwt>
<rscale>  0 0.10543227E+03</rscale>
<asrwt>0</asrwt>
<pdfrwt beam="2">  1        1 0.12849487E-01 0.10543227E+03</pdfrwt>
<pdfrwt beam="1">  1       -1 0.51188765E-02 0.10543227E+03</pdfrwt>
<totfact> 0.67827147E+04</totfact>
</mgrwt>
</event>
<event>
 7    1  0.2911475E-009  0.8928727E+02  0.7818608E-02  0.1304587E+00
         -1   -1    0    0    0  501 -0.00000000000E+00  0.00000000000E+00  0.92667516790E+01  0.92667530496E+01  0.50400000000E-02 0.  1.
          1   -1    0    0  501    0  0.00000000000E+00 -0.00000000000E+00 -0.21507581881E+03  0.21507581887E+03  0.50400000000E-02 0. -1.
         23    2    1    2    0    0 -0.71054273576E-14  0.00000000000E+00 -0.20580906713E+03  0.22434257192E+03  0.89287274916E+02 0.  0.
    9000005    2    3    3    0    0  0.43449196942E+02  0.43463627280E+01 -0.12605333693E+03  0.13341567775E+03  0.18909610548E+01 0.  0.
         22    1    3    3    0    0 -0.43449196942E+02 -0.43463627280E+01 -0.79755730207E+02  0.90926894177E+02  0.00000000000E+00 0.  1.
         22    1    4    4    0    0  0.82777597019E+01  0.15494167502E+01 -0.24909361759E+02  0.26294453811E+02  0.00000000000E+00 0. -1.
         22    1    4    4    0    0  0.35171437240E+02  0.27969459779E+01 -0.10114397517E+03  0.10712122393E+03  0.00000000000E+00 0. -1.
<mgrwt>
<rscale>  0 0.89287275E+02</rscale>
<asrwt>0</asrwt>
<pdfrwt beam="2">  1        1 0.33088584E-01 0.89287275E+02</pdfrwt>
<pdfrwt beam="1">  1       -1 0.14256544E-02 0.89287275E+02</pdfrwt>
<totfact> 0.12700774E+05</totfact>
</mgrwt>
</event>
<event>
 7    1  0.2911475E-009  0.9102919E+02  0.7818608E-02  0.1300378E+00
         -1   -1    0    0    0  501 -0.00000000000E+00  0.00000000000E+00  0.33010321747E+02  0.33010322132E+02  0.50400000000E-02 0.  1.
          1   -1    0    0  501    0  0.00000000000E+00 -0.00000000000E+00 -0.62755469667E+02  0.62755469870E+02  0.50400000000E-02 0. -1.
         23    2    1    2    0    0  0.00000000000E+00  0.00000000000E+00 -0.29745147920E+02  0.95765792002E+02  0.91029188137E+02 0.  0.
    9000005    2    3    3    0    0 -0.37053852867E+02 -0.20308577149E+02 -0.29464689050E+02  0.53510555932E+02  0.14483969663E+02 0.  0.
         22    1    3    3    0    0  0.37053852867E+02  0.20308577149E+02 -0.28045887022E+00  0.42255236070E+02  0.00000000000E+00 0.  1.
         22    1    4    4    0    0 -0.28684526692E+02 -0.13120403969E+02 -0.13990645915E+02  0.34506307322E+02  0.00000000000E+00 0. -1.
         22    1    4    4    0    0 -0.83693261753E+01 -0.71881731798E+01 -0.15474043135E+02  0.19004248610E+02  0.00000000000E+00 0. -1.
<mgrwt>
<rscale>  0 0.91029188E+02</rscale>
<asrwt>0</asrwt>
<pdfrwt beam="2">  1        1 0.96546877E-02 0.91029188E+02</pdfrwt>
<pdfrwt beam="1">  1       -1 0.50785111E-02 0.91029188E+02</pdfrwt>
<totfact> 0.97466724E+04</totfact>
</mgrwt>
</event>
<event>
 7    1  0.2911475E-009  0.9265299E+02  0.7818608E-02  0.1296551E+00
          1   -1    0    0  501    0  0.00000000000E+00  0.00000000000E+00  0.14303542785E+03  0.14303542794E+03  0.50400000000E-02 0. -1.
         -1   -1    0    0    0  501 -0.00000000000E+00 -0.00000000000E+00 -0.15004282660E+02  0.15004283506E+02  0.50400000000E-02 0.  1.
         23    2    1    2    0    0  0.00000000000E+00  0.00000000000E+00  0.12803114519E+03  0.15803971144E+03  0.92652988374E+02 0.  0.
    9000005    2    3    3    0    0  0.69079661225E+01 -0.36078020131E+02  0.11200545303E+03  0.11796270629E+03  0.45425802130E+01 0.  0.
         22    1    3    3    0    0 -0.69079661225E+01  0.36078020131E+02  0.16025692156E+02  0.40077005148E+02  0.00000000000E+00 0.  1.
         22    1    4    4    0    0  0.71568424925E+01 -0.34922124840E+02  0.10575786705E+03  0.11160421874E+03  0.00000000000E+00 0. -1.
         22    1    4    4    0    0 -0.24887636996E+00 -0.11558952914E+01  0.62475859847E+01  0.63584875567E+01  0.00000000000E+00 0. -1.
<mgrwt>
<rscale>  0 0.92652988E+02</rscale>
<asrwt>0</asrwt>
<pdfrwt beam="1">  1        1 0.22005450E-01 0.92652988E+02</pdfrwt>
<pdfrwt beam="2">  1       -1 0.23083513E-02 0.92652988E+02</pdfrwt>
<totfact> 0.10643518E+05</totfact>
</mgrwt>
</event>
<event>
 7    1  0.2911475E-009  0.9879878E+02  0.7818608E-02  0.1282842E+00
          1   -1    0    0  501    0  0.00000000000E+00  0.00000000000E+00  0.50161598991E+02  0.50161599244E+02  0.50400000000E-02 0. -1.
         -1   -1    0    0    0  501 -0.00000000000E+00 -0.00000000000E+00 -0.48648767089E+02  0.48648767350E+02  0.50400000000E-02 0.  1.
         23    2    1    2    0    0  0.00000000000E+00  0.00000000000E+00  0.15128319018E+01  0.98810366594E+02  0.98798784841E+02 0.  0.
    9000005    2    3    3    0    0  0.38332181273E+02  0.21816744965E+02  0.22469223704E+02  0.49979056562E+02  0.69075030905E+01 0.  0.
         22    1    3    3    0    0 -0.38332181273E+02 -0.21816744965E+02 -0.20956391802E+02  0.48831310032E+02  0.00000000000E+00 0.  1.
         22    1    4    4    0    0  0.21403091944E+02  0.82790211248E+01  0.10833421634E+02  0.25377107003E+02  0.00000000000E+00 0.  1.
         22    1    4    4    0    0  0.16929089330E+02  0.13537723840E+02  0.11635802070E+02  0.24601949559E+02  0.00000000000E+00 0.  1.
<mgrwt>
<rscale>  0 0.98798785E+02</rscale>
<asrwt>0</asrwt>
<pdfrwt beam="1">  1        1 0.77171691E-02 0.98798785E+02</pdfrwt>
<pdfrwt beam="2">  1       -1 0.74844258E-02 0.98798785E+02</pdfrwt>
<totfact> 0.74833088E+04</totfact>
</mgrwt>
</event>
<event>
 7    1  0.2911475E-009  0.9108971E+02  0.7818608E-02  0.1300234E+00
          1   -1    0    0  501    0  0.00000000000E+00  0.00000000000E+00  0.17025549994E+02  0.17025550740E+02  0.50400000000E-02 0. -1.
         -1   -1    0    0    0  501 -0.00000000000E+00 -0.00000000000E+00 -0.12183653100E+03  0.12183653110E+03  0.50400000000E-02 0.  1.
         23    2    1    2    0    0  0.00000000000E+00  0.00000000000E+00 -0.10481098101E+03  0.13886208184E+03  0.91089714209E+02 0.  0.
    9000005    2    3    3    0    0 -0.17955013044E+02  0.25717277494E+02 -0.10188405388E+03  0.10736084762E+03  0.12736966368E+02 0.  0.
         22    1    3    3    0    0  0.17955013044E+02 -0.25717277494E+02 -0.29269271269E+01  0.31501234222E+02  0.00000000000E+00 0. -1.
         22    1    4    4    0    0 -0.13474491634E+02  0.23720343854E+02 -0.95439007378E+02  0.99261376006E+02  0.00000000000E+00 0. -1.
         22    1    4    4    0    0 -0.44805214093E+01  0.19969336393E+01 -0.64450465020E+01  0.80994716168E+01  0.00000000000E+00 0. -1.
<mgrwt>
<rscale>  0 0.91089714E+02</rscale>
<asrwt>0</asrwt>
<pdfrwt beam="1">  1        1 0.26193155E-02 0.91089714E+02</pdfrwt>
<pdfrwt beam="2">  1       -1 0.18744081E-01 0.91089714E+02</pdfrwt>
<totfact> 0.78480096E+04</totfact>
</mgrwt>
</event>
<event>
 7    1  0.2911475E-009  0.9082202E+02  0.7818608E-02  0.1300873E+00
         -1   -1    0    0    0  501 -0.00000000000E+00  0.00000000000E+00  0.98003737413E+02  0.98003737543E+02  0.50400000000E-02 0.  1.
          1   -1    0    0  501    0  0.00000000000E+00 -0.00000000000E+00 -0.21041646316E+02  0.21041646920E+02  0.50400000000E-02 0. -1.
         23    2    1    2    0    0  0.00000000000E+00  0.71054273576E-14  0.76962091097E+02  0.11904538446E+03  0.90822024288E+02 0.  0.
    9000005    2    3    3    0    0  0.13174464458E+02  0.42054944824E+02  0.44487673415E+02  0.64302597707E+02  0.14611163134E+02 0.  0.
         22    1    3    3    0    0 -0.13174464458E+02 -0.42054944824E+02  0.32474417682E+02  0.54742786755E+02  0.00000000000E+00 0. -1.
         22    1    4    4    0    0  0.27747905111E+01  0.20003218781E+01 -0.16228479051E+00  0.34244833697E+01  0.00000000000E+00 0.  1.
         22    1    4    4    0    0  0.10399673947E+02  0.40054622946E+02  0.44649958205E+02  0.60878114337E+02  0.00000000000E+00 0.  1.
<mgrwt>
<rscale>  0 0.90822024E+02</rscale>
<asrwt>0</asrwt>
<pdfrwt beam="2">  1        1 0.32371764E-02 0.90822024E+02</pdfrwt>
<pdfrwt beam="1">  1       -1 0.15077498E-01 0.90822024E+02</pdfrwt>
<totfact> 0.82498445E+04</totfact>
</mgrwt>
</event>
<event>
 7    1  0.2911475E-009  0.8811058E+02  0.7818608E-02  0.1307493E+00
          1   -1    0    0  501    0  0.00000000000E+00  0.00000000000E+00  0.60065213369E+02  0.60065213580E+02  0.50400000000E-02 0. -1.
         -1   -1    0    0    0  501 -0.00000000000E+00 -0.00000000000E+00 -0.32312686619E+02  0.32312687012E+02  0.50400000000E-02 0.  1.
         23    2    1    2    0    0  0.88817841970E-15  0.00000000000E+00  0.27752526750E+02  0.92377900592E+02  0.88110576986E+02 0.  0.
    9000005    2    3    3    0    0 -0.49079475191E+01 -0.96268528070E+01  0.58114153637E+02  0.60150697315E+02  0.11139447505E+02 0.  0.
         22    1    3    3    0    0  0.49079475191E+01  0.96268528070E+01 -0.30361626888E+02  0.32227203277E+02  0.00000000000E+00 0.  1.
         22    1    4    4    0    0 -0.20125571289E+01  0.47219429033E+00  0.14603141547E+01  0.25309822354E+01  0.00000000000E+00 0. -1.
         22    1    4    4    0    0 -0.28953903902E+01 -0.10099047097E+02  0.56653839482E+02  0.57619715080E+02  0.00000000000E+00 0. -1.
<mgrwt>
<rscale>  0 0.88110577E+02</rscale>
<asrwt>0</asrwt>
<pdfrwt beam="1">  1        1 0.92408019E-02 0.88110577E+02</pdfrwt>
<pdfrwt beam="2">  1       -1 0.49711827E-02 0.88110577E+02</pdfrwt>
<totfact> 0.10594639E+05</totfact>
</mgrwt>
</event>
<event>
 7    1  0.2911475E-009  0.9114812E+02  0.7818608E-02  0.1300095E+00
          1   -1    0    0  501    0  0.00000000000E+00  0.00000000000E+00  0.25888577549E+02  0.25888578040E+02  0.50400000000E-02 0. -1.
         -1   -1    0    0    0  501 -0.00000000000E+00 -0.00000000000E+00 -0.80228238471E+02  0.80228238630E+02  0.50400000000E-02 0.  1.
         23    2    1    2    0    0  0.00000000000E+00  0.00000000000E+00 -0.54339660922E+02  0.10611681667E+03  0.91148121378E+02 0.  0.
    9000005    2    3    3    0    0  0.41881968997E+02  0.73563045057E+00 -0.10674521273E+02  0.45608264382E+02  0.14543998635E+02 0.  0.
         22    1    3    3    0    0 -0.41881968997E+02 -0.73563045057E+00 -0.43665139649E+02  0.60508552287E+02  0.00000000000E+00 0.  1.
         22    1    4    4    0    0  0.21963192276E+02  0.70664182209E+01 -0.26645853064E+01  0.23225333071E+02  0.00000000000E+00 0. -1.
         22    1    4    4    0    0  0.19918776722E+02 -0.63307877704E+01 -0.80099359668E+01  0.22382931311E+02  0.00000000000E+00 0. -1.
<mgrwt>
<rscale>  0 0.91148121E+02</rscale>
<asrwt>0</asrwt>
<pdfrwt beam="1">  1        1 0.39828582E-02 0.91148121E+02</pdfrwt>
<pdfrwt beam="2">  1       -1 0.12342806E-01 0.91148121E+02</pdfrwt>
<totfact> 0.84678169E+04</totfact>
</mgrwt>
</event>
<event>
 7    1  0.2911475E-009  0.9136005E+02  0.7818608E-02  0.1299591E+00
         -1   -1    0    0    0  501 -0.00000000000E+00  0.00000000000E+00  0.13846744556E+02  0.13846745473E+02  0.50400000000E-02 0.  1.
          1   -1    0    0  501    0  0.00000000000E+00 -0.00000000000E+00 -0.15069713321E+03  0.15069713330E+03  0.50400000000E-02 0. -1.
         23    2    1    2    0    0 -0.35527136788E-14 -0.71054273576E-14 -0.13685038866E+03  0.16454387877E+03  0.91360052348E+02 0.  0.
    9000005    2    3    3    0    0  0.17063734745E+02  0.40641266451E+02 -0.55649702945E+02  0.72151049274E+02  0.12884133314E+02 0.  0.
         22    1    3    3    0    0 -0.17063734745E+02 -0.40641266451E+02 -0.81200685710E+02  0.92392829494E+02  0.00000000000E+00 0. -1.
         22    1    4    4    0    0  0.12718597169E+02  0.32668537232E+02 -0.51167592491E+02  0.62025144580E+02  0.00000000000E+00 0.  1.
         22    1    4    4    0    0  0.43451375763E+01  0.79727292186E+01 -0.44821104544E+01  0.10125904694E+02  0.00000000000E+00 0.  1.
<mgrwt>
<rscale>  0 0.91360052E+02</rscale>
<asrwt>0</asrwt>
<pdfrwt beam="2">  1        1 0.23184173E-01 0.91360052E+02</pdfrwt>
<pdfrwt beam="1">  1       -1 0.21302686E-02 0.91360052E+02</pdfrwt>
<totfact> 0.11162170E+05</totfact>
</mgrwt>
</event>
<event>
 7    1  0.2911475E-009  0.8897763E+02  0.7818608E-02  0.1305347E+00
         -1   -1    0    0    0  501 -0.00000000000E+00  0.00000000000E+00  0.34238971028E+03  0.34238971032E+03  0.50400000000E-02 0.  1.
          1   -1    0    0  501    0  0.00000000000E+00 -0.00000000000E+00 -0.57807058894E+01  0.57807080865E+01  0.50400000000E-02 0. -1.
         23    2    1    2    0    0  0.71054273576E-14  0.00000000000E+00  0.33660900439E+03  0.34817041841E+03  0.88977628731E+02 0.  0.
    9000005    2    3    3    0    0 -0.38709358618E+02 -0.17240499093E+02  0.21529598799E+03  0.21966945653E+03  0.10327557081E+02 0.  0.
         22    1    3    3    0    0  0.38709358618E+02  0.17240499093E+02  0.12131301640E+03  0.12850096187E+03  0.00000000000E+00 0.  1.
         22    1    4    4    0    0 -0.31138620569E+02 -0.14486858940E+02  0.19127024537E+03  0.19432907537E+03  0.00000000000E+00 0. -1.
         22    1    4    4    0    0 -0.75707380486E+01 -0.27536401532E+01  0.24025742621E+02  0.25340381157E+02  0.00000000000E+00 0. -1.
<mgrwt>
<rscale>  0 0.88977629E+02</rscale>
<asrwt>0</asrwt>
<pdfrwt beam="2">  1        1 0.88933970E-03 0.88977629E+02</pdfrwt>
<pdfrwt beam="1">  1       -1 0.52675330E-01 0.88977629E+02</pdfrwt>
<totfact> 0.61122893E+04</totfact>
</mgrwt>
</event>
<event>
 7    1  0.2911475E-009  0.1084430E+03  0.7818608E-02  0.1263481E+00
          1   -1    0    0  501    0  0.00000000000E+00  0.00000000000E+00  0.50862013611E+02  0.50862013861E+02  0.50400000000E-02 0. -1.
         -1   -1    0    0    0  501 -0.00000000000E+00 -0.00000000000E+00 -0.57802900692E+02  0.57802900912E+02  0.50400000000E-02 0.  1.
         23    2    1    2    0    0 -0.35527136788E-14  0.00000000000E+00 -0.69408870812E+01  0.10866491477E+03  0.10844301632E+03 0.  0.
    9000005    2    3    3    0    0  0.23799562427E+02  0.22938548061E+02  0.38493594367E+02  0.52478721956E+02  0.13403853623E+02 0.  0.
         22    1    3    3    0    0 -0.23799562427E+02 -0.22938548061E+02 -0.45434481448E+02  0.56186192817E+02  0.00000000000E+00 0.  1.
         22    1    4    4    0    0  0.30295858587E+01  0.10858052606E+02  0.89232109336E+01  0.14377043863E+02  0.00000000000E+00 0. -1.
         22    1    4    4    0    0  0.20769976569E+02  0.12080495454E+02  0.29570383433E+02  0.38101678093E+02  0.00000000000E+00 0. -1.
<mgrwt>
<rscale>  0 0.10844302E+03</rscale>
<asrwt>0</asrwt>
<pdfrwt beam="1">  1        1 0.78249253E-02 0.10844302E+03</pdfrwt>
<pdfrwt beam="2">  1       -1 0.88927539E-02 0.10844302E+03</pdfrwt>
<totfact> 0.57502784E+04</totfact>
</mgrwt>
</event>
<event>
 7    1  0.2911475E-009  0.9300451E+02  0.7818608E-02  0.1295735E+00
         -1   -1    0    0    0  501 -0.00000000000E+00  0.00000000000E+00  0.15489061189E+02  0.15489062009E+02  0.50400000000E-02 0.  1.
          1   -1    0    0  501    0  0.00000000000E+00 -0.00000000000E+00 -0.13961205807E+03  0.13961205816E+03  0.50400000000E-02 0. -1.
         23    2    1    2    0    0  0.00000000000E+00  0.00000000000E+00 -0.12412299688E+03  0.15510112017E+03  0.93004511307E+02 0.  0.
    9000005    2    3    3    0    0  0.39331645924E+02 -0.28481327744E+01 -0.21059888109E+02  0.44751246490E+02  0.20161705917E+01 0.  0.
         22    1    3    3    0    0 -0.39331645924E+02  0.28481327744E+01 -0.10306310878E+03  0.11034987368E+03  0.00000000000E+00 0. -1.
         22    1    4    4    0    0  0.30323587907E+02 -0.17077116140E+01 -0.16990971200E+02  0.34801283953E+02  0.00000000000E+00 0.  1.
         22    1    4    4    0    0  0.90080580175E+01 -0.11404211604E+01 -0.40689169091E+01  0.99499625368E+01  0.00000000000E+00 0.  1.
<mgrwt>
<rscale>  0 0.93004511E+02</rscale>
<asrwt>0</asrwt>
<pdfrwt beam="2">  1        1 0.21478777E-01 0.93004511E+02</pdfrwt>
<pdfrwt beam="1">  1       -1 0.23829326E-02 0.93004511E+02</pdfrwt>
<totfact> 0.10488389E+05</totfact>
</mgrwt>
</event>
<event>
 7    1  0.2911475E-009  0.9016383E+02  0.7818608E-02  0.1302455E+00
          1   -1    0    0  501    0  0.00000000000E+00  0.00000000000E+00  0.20554286058E+03  0.20554286064E+03  0.50400000000E-02 0. -1.
         -1   -1    0    0    0  501 -0.00000000000E+00 -0.00000000000E+00 -0.98878598435E+01  0.98878611280E+01  0.50400000000E-02 0.  1.
         23    2    1    2    0    0  0.00000000000E+00  0.00000000000E+00  0.19565500074E+03  0.21543072177E+03  0.90163831823E+02 0.  0.
    9000005    2    3    3    0    0  0.21915969706E+02 -0.44449307269E+01  0.19120689774E+03  0.19263044200E+03  0.68075182257E+01 0.  0.
         22    1    3    3    0    0 -0.21915969706E+02  0.44449307269E+01  0.44481029962E+01  0.22800279770E+02  0.00000000000E+00 0.  1.
         22    1    4    4    0    0  0.21511241803E+02 -0.50194654657E+01  0.18952106380E+03  0.19080398890E+03  0.00000000000E+00 0.  1.
         22    1    4    4    0    0  0.40472790324E+00  0.57453473889E+00  0.16858339417E+01  0.18264530985E+01  0.00000000000E+00 0.  1.
<mgrwt>
<rscale>  0 0.90163832E+02</rscale>
<asrwt>0</asrwt>
<pdfrwt beam="1">  1        1 0.31621978E-01 0.90163832E+02</pdfrwt>
<pdfrwt beam="2">  1       -1 0.15212093E-02 0.90163832E+02</pdfrwt>
<totfact> 0.12265081E+05</totfact>
</mgrwt>
</event>
<event>
 7    1  0.3050562E-009  0.9264183E+02  0.7818608E-02  0.1296577E+00
         -1   -1    0    0    0  501 -0.00000000000E+00  0.00000000000E+00  0.75966163434E+01  0.75966180154E+01  0.50400000000E-02 0.  1.
          1   -1    0    0  501    0  0.00000000000E+00 -0.00000000000E+00 -0.28244508574E+03  0.28244508578E+03  0.50400000000E-02 0. -1.
         23    2    1    2    0    0  0.00000000000E+00  0.00000000000E+00 -0.27484846939E+03  0.29004170380E+03  0.92641830798E+02 0.  0.
    9000005    2    3    3    0    0  0.18540737313E+02 -0.41083247216E+02 -0.14849648203E+03  0.15589097941E+03  0.14805409329E+02 0.  0.
         22    1    3    3    0    0 -0.18540737313E+02  0.41083247216E+02 -0.12635198737E+03  0.13415072439E+03  0.00000000000E+00 0.  1.
         22    1    4    4    0    0 -0.40688916434E+00  0.10106418569E+01 -0.61763429645E+01  0.62716957970E+01  0.00000000000E+00 0. -1.
         22    1    4    4    0    0  0.18947626478E+02 -0.42093889073E+02 -0.14232013906E+03  0.14961928361E+03  0.00000000000E+00 0. -1.
<mgrwt>
<rscale>  0 0.92641831E+02</rscale>
<asrwt>0</asrwt>
<pdfrwt beam="2">  1        1 0.43453082E-01 0.92641831E+02</pdfrwt>
<pdfrwt beam="1">  1       -1 0.11687106E-02 0.92641831E+02</pdfrwt>
<totfact> 0.12136800E+05</totfact>
</mgrwt>
</event>
<event>
 7    1  0.2911475E-009  0.9130979E+02  0.7818608E-02  0.1299711E+00
         -1   -1    0    0    0  501 -0.00000000000E+00  0.00000000000E+00  0.23948459361E+01  0.23948512395E+01  0.50400000000E-02 0. -1.
          1   -1    0    0  501    0  0.00000000000E+00 -0.00000000000E+00 -0.87035535805E+03  0.87035535806E+03  0.50400000000E-02 0.  1.
         23    2    1    2    0    0 -0.35527136788E-14 -0.44408920985E-15 -0.86796051211E+03  0.87275020930E+03  0.91309787269E+02 0.  0.
    9000005    2    3    3    0    0  0.31018695290E+02 -0.38884193089E+01 -0.74831582193E+03  0.74908885256E+03  0.13426109590E+02 0.  0.
         22    1    3    3    0    0 -0.31018695290E+02  0.38884193089E+01 -0.11964469018E+03  0.12366135674E+03  0.00000000000E+00 0. -1.
         22    1    4    4    0    0  0.98245498372E+01 -0.73785909162E+01 -0.22964803918E+03  0.22997649290E+03  0.00000000000E+00 0.  1.
         22    1    4    4    0    0  0.21194145453E+02  0.34901716073E+01 -0.51866778275E+03  0.51911235967E+03  0.00000000000E+00 0.  1.
<mgrwt>
<rscale>  0 0.91309787E+02</rscale>
<asrwt>0</asrwt>
<pdfrwt beam="2">  1        1 0.13390057E+00 0.91309787E+02</pdfrwt>
<pdfrwt beam="1">  1       -1 0.36843894E-03 0.91309787E+02</pdfrwt>
<totfact> 0.13938422E+05</totfact>
</mgrwt>
</event>
<event>
 7    1  0.2911475E-009  0.1049923E+03  0.7818608E-02  0.1270135E+00
          1   -1    0    0  501    0  0.00000000000E+00  0.00000000000E+00  0.62270272862E+02  0.62270273066E+02  0.50400000000E-02 0. -1.
         -1   -1    0    0    0  501 -0.00000000000E+00 -0.00000000000E+00 -0.44256241472E+02  0.44256241759E+02  0.50400000000E-02 0.  1.
         23    2    1    2    0    0  0.35527136788E-14  0.00000000000E+00  0.18014031390E+02  0.10652651482E+03  0.10499234750E+03 0.  0.
    9000005    2    3    3    0    0  0.18605785376E+02  0.44333746644E+02  0.29510658748E+02  0.57091418167E+02  0.87689627456E+01 0.  0.
         22    1    3    3    0    0 -0.18605785376E+02 -0.44333746644E+02 -0.11496627358E+02  0.49435096658E+02  0.00000000000E+00 0.  1.
         22    1    4    4    0    0  0.87629816914E+01  0.31384352904E+02  0.20496391851E+02  0.38495058569E+02  0.00000000000E+00 0.  1.
         22    1    4    4    0    0  0.98428036849E+01  0.12949393740E+02  0.90142668975E+01  0.18596359598E+02  0.00000000000E+00 0.  1.
<mgrwt>
<rscale>  0 0.10499235E+03</rscale>
<asrwt>0</asrwt>
<pdfrwt beam="1">  1        1 0.95800420E-02 0.10499235E+03</pdfrwt>
<pdfrwt beam="2">  1       -1 0.68086526E-02 0.10499235E+03</pdfrwt>
<totfact> 0.65276355E+04</totfact>
</mgrwt>
</event>
<event>
 7    1  0.2911475E-009  0.8849748E+02  0.7818608E-02  0.1306532E+00
         -1   -1    0    0    0  501 -0.00000000000E+00  0.00000000000E+00  0.81741006087E+01  0.81741021624E+01  0.50400000000E-02 0.  1.
          1   -1    0    0  501    0  0.00000000000E+00 -0.00000000000E+00 -0.23953103019E+03  0.23953103024E+03  0.50400000000E-02 0. -1.
         23    2    1    2    0    0  0.17763568394E-14 -0.35527136788E-14 -0.23135692958E+03  0.24770513240E+03  0.88497478804E+02 0.  0.
    9000005    2    3    3    0    0  0.13570791559E+02 -0.18928324604E+02 -0.22071084430E+03  0.22209679416E+03  0.84416425788E+01 0.  0.
         22    1    3    3    0    0 -0.13570791559E+02  0.18928324604E+02 -0.10646085284E+02  0.25608338246E+02  0.00000000000E+00 0.  1.
         22    1    4    4    0    0 -0.18659933281E+00 -0.48076810350E+01 -0.57136604809E+02  0.57338819532E+02  0.00000000000E+00 0.  1.
         22    1    4    4    0    0  0.13757390892E+02 -0.14120643569E+02 -0.16357423949E+03  0.16475797463E+03  0.00000000000E+00 0.  1.
<mgrwt>
<rscale>  0 0.88497479E+02</rscale>
<asrwt>0</asrwt>
<pdfrwt beam="2">  1        1 0.36850923E-01 0.88497479E+02</pdfrwt>
<pdfrwt beam="1">  1       -1 0.12575542E-02 0.88497479E+02</pdfrwt>
<totfact> 0.13279928E+05</totfact>
</mgrwt>
</event>
<event>
 7    1  0.2911475E-009  0.8612609E+02  0.7818608E-02  0.1312514E+00
         -1   -1    0    0    0  501 -0.00000000000E+00  0.00000000000E+00  0.46379278435E+01  0.46379305820E+01  0.50400000000E-02 0.  1.
          1   -1    0    0  501    0  0.00000000000E+00 -0.00000000000E+00 -0.39983920031E+03  0.39983920034E+03  0.50400000000E-02 0. -1.
         23    2    1    2    0    0 -0.17763568394E-14 -0.17763568394E-14 -0.39520127247E+03  0.40447713092E+03  0.86126091756E+02 0.  0.
    9000005    2    3    3    0    0  0.86398122142E+01  0.81710865683E+01 -0.39164470704E+03  0.39206495269E+03  0.13709032298E+02 0.  0.
         22    1    3    3    0    0 -0.86398122142E+01 -0.81710865683E+01 -0.35565654260E+01  0.12412178231E+02  0.00000000000E+00 0.  1.
         22    1    4    4    0    0  0.67652769399E+01  0.86936811432E+01 -0.38456272061E+03  0.38472046364E+03  0.00000000000E+00 0. -1.
         22    1    4    4    0    0  0.18745352742E+01 -0.52259457487E+00 -0.70819864346E+01  0.73444890526E+01  0.00000000000E+00 0. -1.
<mgrwt>
<rscale>  0 0.86126092E+02</rscale>
<asrwt>0</asrwt>
<pdfrwt beam="2">  1        1 0.61513696E-01 0.86126092E+02</pdfrwt>
<pdfrwt beam="1">  1       -1 0.71352789E-03 0.86126092E+02</pdfrwt>
<totfact> 0.15684205E+05</totfact>
</mgrwt>
</event>
<event>
 7    1  0.2911475E-009  0.9173801E+02  0.7818608E-02  0.1298697E+00
          1   -1    0    0  501    0  0.00000000000E+00  0.00000000000E+00  0.23496735723E+03  0.23496735728E+03  0.50400000000E-02 0. -1.
         -1   -1    0    0    0  501 -0.00000000000E+00 -0.00000000000E+00 -0.89542881953E+01  0.89542896137E+01  0.50400000000E-02 0.  1.
         23    2    1    2    0    0  0.00000000000E+00  0.00000000000E+00  0.22601306903E+03  0.24392164689E+03  0.91738009847E+02 0.  0.
    9000005    2    3    3    0    0 -0.35150713583E+02 -0.24495784849E+02  0.15527893315E+03  0.16122379856E+03  0.67786429250E+01 0.  0.
         22    1    3    3    0    0  0.35150713583E+02  0.24495784849E+02  0.70734135879E+02  0.82697848335E+02  0.00000000000E+00 0.  1.
         22    1    4    4    0    0 -0.30474484636E+02 -0.21466940611E+02  0.12512694632E+03  0.13056138958E+03  0.00000000000E+00 0.  1.
         22    1    4    4    0    0 -0.46762289474E+01 -0.30288442382E+01  0.30151986830E+02  0.30662408979E+02  0.00000000000E+00 0.  1.
<mgrwt>
<rscale>  0 0.91738010E+02</rscale>
<asrwt>0</asrwt>
<pdfrwt beam="1">  1        1 0.36148827E-01 0.91738010E+02</pdfrwt>
<pdfrwt beam="2">  1       -1 0.13775828E-02 0.91738010E+02</pdfrwt>
<totfact> 0.12019300E+05</totfact>
</mgrwt>
</event>
<event>
 7    1  0.2911475E-009  0.9288102E+02  0.7818608E-02  0.1296021E+00
          1   -1    0    0  501    0  0.00000000000E+00  0.00000000000E+00  0.94581041356E+02  0.94581041490E+02  0.50400000000E-02 0. -1.
         -1   -1    0    0    0  501 -0.00000000000E+00 -0.00000000000E+00 -0.22802886931E+02  0.22802887488E+02  0.50400000000E-02 0.  1.
         23    2    1    2    0    0  0.35527136788E-14  0.00000000000E+00  0.71778154425E+02  0.11738392898E+03  0.92881017057E+02 0.  0.
    9000005    2    3    3    0    0  0.22277877008E+02  0.39195766395E+02  0.49923896321E+02  0.67281828177E+02  0.13553861952E+01 0.  0.
         22    1    3    3    0    0 -0.22277877008E+02 -0.39195766395E+02  0.21854258104E+02  0.50102100800E+02  0.00000000000E+00 0.  1.
         22    1    4    4    0    0  0.82044034079E+01  0.14538047427E+02  0.17517617239E+02  0.24197809239E+02  0.00000000000E+00 0. -1.
         22    1    4    4    0    0  0.14073473600E+02  0.24657718969E+02  0.32406279082E+02  0.43084018938E+02  0.00000000000E+00 0. -1.
<mgrwt>
<rscale>  0 0.92881017E+02</rscale>
<asrwt>0</asrwt>
<pdfrwt beam="1">  1        1 0.14550930E-01 0.92881017E+02</pdfrwt>
<pdfrwt beam="2">  1       -1 0.35081365E-02 0.92881017E+02</pdfrwt>
<totfact> 0.98381405E+04</totfact>
</mgrwt>
</event>
<event>
 6    1  0.2911475E-009  0.1450099E+03  0.7818608E-02  0.1206742E+00
         -1   -1    0    0    0  501 -0.00000000000E+00  0.00000000000E+00  0.40768191739E+03  0.40768191742E+03  0.50400000000E-02 0.  1.
          1   -1    0    0  501    0  0.00000000000E+00 -0.00000000000E+00 -0.12894784198E+02  0.12894785183E+02  0.50400000000E-02 0. -1.
    9000005    2    1    2    0    0 -0.38944361210E+02 -0.17450620224E+02  0.36681045237E+03  0.36954845468E+03  0.13962985773E+02 0.  0.
         22    1    1    2    0    0  0.38944361210E+02  0.17450620224E+02  0.27976680818E+02  0.51028247921E+02  0.00000000000E+00 0. -1.
         22    1    3    3    0    0 -0.30285526190E+02 -0.17501245143E+02  0.25261499624E+03  0.25502518111E+03  0.00000000000E+00 0.  1.
         22    1    3    3    0    0 -0.86588350202E+01  0.50624919478E-01  0.11419545614E+03  0.11452327357E+03  0.00000000000E+00 0.  1.
<mgrwt>
<rscale>  0 0.14500994E+03</rscale>
<asrwt>0</asrwt>
<pdfrwt beam="2">  1        1 0.19838130E-02 0.14500994E+03</pdfrwt>
<pdfrwt beam="1">  1       -1 0.62720296E-01 0.14500994E+03</pdfrwt>
<totfact> 0.15354550E+04</totfact>
</mgrwt>
</event>
<event>
 7    1  0.2911475E-009  0.9051424E+02  0.7818608E-02  0.1301611E+00
          1   -1    0    0  501    0  0.00000000000E+00  0.00000000000E+00  0.25336075183E+02  0.25336075685E+02  0.50400000000E-02 0. -1.
         -1   -1    0    0    0  501 -0.00000000000E+00 -0.00000000000E+00 -0.80841517166E+02  0.80841517323E+02  0.50400000000E-02 0.  1.
         23    2    1    2    0    0 -0.17763568394E-14  0.00000000000E+00 -0.55505441983E+02  0.10617759301E+03  0.90514237373E+02 0.  0.
    9000005    2    3    3    0    0 -0.13621174207E+02  0.42802398833E+02 -0.31033662516E+02  0.55026349397E+02  0.68723493878E+01 0.  0.
         22    1    3    3    0    0  0.13621174207E+02 -0.42802398833E+02 -0.24471779466E+02  0.51151243610E+02  0.00000000000E+00 0.  1.
         22    1    4    4    0    0 -0.16207325803E+00  0.64614471668E+01 -0.26272389506E+01  0.69770302948E+01  0.00000000000E+00 0.  1.
         22    1    4    4    0    0 -0.13459100949E+02  0.36340951666E+02 -0.28406423566E+02  0.48049319102E+02  0.00000000000E+00 0.  1.
<mgrwt>
<rscale>  0 0.90514237E+02</rscale>
<asrwt>0</asrwt>
<pdfrwt beam="1">  1        1 0.38978578E-02 0.90514237E+02</pdfrwt>
<pdfrwt beam="2">  1       -1 0.12437156E-01 0.90514237E+02</pdfrwt>
<totfact> 0.86092568E+04</totfact>
</mgrwt>
</event>
<event>
 7    1  0.2911475E-009  0.9270101E+02  0.7818608E-02  0.1296440E+00
          1   -1    0    0  501    0  0.00000000000E+00  0.00000000000E+00  0.50274174656E+02  0.50274174909E+02  0.50400000000E-02 0. -1.
         -1   -1    0    0    0  501 -0.00000000000E+00 -0.00000000000E+00 -0.42733062233E+02  0.42733062530E+02  0.50400000000E-02 0.  1.
         23    2    1    2    0    0  0.22204460493E-15 -0.17763568394E-14  0.75411124237E+01  0.93007237439E+02  0.92701013152E+02 0.  0.
    9000005    2    3    3    0    0 -0.15692054244E+01  0.15438155402E+02  0.47017690277E+02  0.50590268583E+02  0.10388119584E+02 0.  0.
         22    1    3    3    0    0  0.15692054244E+01 -0.15438155402E+02 -0.39476577853E+02  0.42416968855E+02  0.00000000000E+00 0.  1.
         22    1    4    4    0    0  0.15174483589E+01  0.84241385443E+00  0.16811449621E+02  0.16900803205E+02  0.00000000000E+00 0.  1.
         22    1    4    4    0    0 -0.30866537833E+01  0.14595741547E+02  0.30206240656E+02  0.33689465378E+02  0.00000000000E+00 0.  1.
<mgrwt>
<rscale>  0 0.92701013E+02</rscale>
<asrwt>0</asrwt>
<pdfrwt beam="1">  1        1 0.77344885E-02 0.92701013E+02</pdfrwt>
<pdfrwt beam="2">  1       -1 0.65743173E-02 0.92701013E+02</pdfrwt>
<totfact> 0.89582975E+04</totfact>
</mgrwt>
</event>
<event>
 7    1  0.2911475E-009  0.9300707E+02  0.7818608E-02  0.1295729E+00
          1   -1    0    0  501    0  0.00000000000E+00  0.00000000000E+00  0.98986194154E+02  0.98986194283E+02  0.50400000000E-02 0. -1.
         -1   -1    0    0    0  501 -0.00000000000E+00 -0.00000000000E+00 -0.21847275150E+02  0.21847275731E+02  0.50400000000E-02 0.  1.
         23    2    1    2    0    0  0.00000000000E+00  0.88817841970E-15  0.77138919004E+02  0.12083347001E+03  0.93007067744E+02 0.  0.
    9000005    2    3    3    0    0 -0.26606337545E+02 -0.70122941866E+01 -0.73622352253E+01  0.31965508782E+02  0.14509368590E+02 0.  0.
         22    1    3    3    0    0  0.26606337545E+02  0.70122941866E+01  0.84501154230E+02  0.88867961232E+02  0.00000000000E+00 0. -1.
         22    1    4    4    0    0 -0.41103859258E+01  0.41195061756E+01 -0.39228272110E-01  0.58195483026E+01  0.00000000000E+00 0. -1.
         22    1    4    4    0    0 -0.22495951619E+02 -0.11131800362E+02 -0.73230069532E+01  0.26145960479E+02  0.00000000000E+00 0. -1.
<mgrwt>
<rscale>  0 0.93007068E+02</rscale>
<asrwt>0</asrwt>
<pdfrwt beam="1">  1        1 0.15228645E-01 0.93007068E+02</pdfrwt>
<pdfrwt beam="2">  1       -1 0.33611194E-02 0.93007068E+02</pdfrwt>
<totfact> 0.98762566E+04</totfact>
</mgrwt>
</event>
<event>
 7    1  0.2911475E-009  0.9100833E+02  0.7818608E-02  0.1300428E+00
          1   -1    0    0  501    0  0.00000000000E+00  0.00000000000E+00  0.14420269556E+03  0.14420269565E+03  0.50400000000E-02 0. -1.
         -1   -1    0    0    0  501 -0.00000000000E+00 -0.00000000000E+00 -0.14359156701E+02  0.14359157586E+02  0.50400000000E-02 0.  1.
         23    2    1    2    0    0  0.00000000000E+00  0.00000000000E+00  0.12984353886E+03  0.15856185323E+03  0.91008333231E+02 0.  0.
    9000005    2    3    3    0    0  0.22956161284E+02 -0.34765906012E+02  0.93961072549E+02  0.10357817429E+03  0.12810209705E+02 0.  0.
         22    1    3    3    0    0 -0.22956161284E+02  0.34765906012E+02  0.35882466307E+02  0.54983678942E+02  0.00000000000E+00 0.  1.
         22    1    4    4    0    0  0.77191593631E+01 -0.38911280772E+01  0.25893474264E+02  0.27298320616E+02  0.00000000000E+00 0. -1.
         22    1    4    4    0    0  0.15237001921E+02 -0.30874777935E+02  0.68067598285E+02  0.76279853673E+02  0.00000000000E+00 0. -1.
<mgrwt>
<rscale>  0 0.91008333E+02</rscale>
<asrwt>0</asrwt>
<pdfrwt beam="1">  1        1 0.22185031E-01 0.91008333E+02</pdfrwt>
<pdfrwt beam="2">  1       -1 0.22091010E-02 0.91008333E+02</pdfrwt>
<totfact> 0.11188431E+05</totfact>
</mgrwt>
</event>
<event>
 7    1  0.2911475E-009  0.9099960E+02  0.7818608E-02  0.1300449E+00
         -1   -1    0    0    0  501 -0.00000000000E+00  0.00000000000E+00  0.44729817433E+02  0.44729817717E+02  0.50400000000E-02 0.  1.
          1   -1    0    0  501    0  0.00000000000E+00 -0.00000000000E+00 -0.46283040717E+02  0.46283040991E+02  0.50400000000E-02 0. -1.
         23    2    1    2    0    0  0.00000000000E+00  0.00000000000E+00 -0.15532232837E+01  0.91012858708E+02  0.90999604107E+02 0.  0.
    9000005    2    3    3    0    0 -0.39175668231E+02  0.16519914102E+02  0.12737003024E+02  0.46159195411E+02  0.12680675522E+02 0.  0.
         22    1    3    3    0    0  0.39175668231E+02 -0.16519914102E+02 -0.14290226307E+02  0.44853663297E+02  0.00000000000E+00 0.  1.
         22    1    4    4    0    0 -0.77339152344E+01 -0.76707081966E+00  0.55906072650E+01  0.95737522469E+01  0.00000000000E+00 0. -1.
         22    1    4    4    0    0 -0.31441752997E+02  0.17286984922E+02  0.71463957587E+01  0.36585443164E+02  0.00000000000E+00 0. -1.
<mgrwt>
<rscale>  0 0.90999604E+02</rscale>
<asrwt>0</asrwt>
<pdfrwt beam="2">  1        1 0.71204679E-02 0.90999604E+02</pdfrwt>
<pdfrwt beam="1">  1       -1 0.68815104E-02 0.90999604E+02</pdfrwt>
<totfact> 0.93190203E+04</totfact>
</mgrwt>
</event>
<event>
 7    1  0.2911475E-009  0.9336836E+02  0.7818608E-02  0.1294894E+00
         -1   -1    0    0    0  501 -0.00000000000E+00  0.00000000000E+00  0.57265237372E+02  0.57265237594E+02  0.50400000000E-02 0.  1.
          1   -1    0    0  501    0  0.00000000000E+00 -0.00000000000E+00 -0.38058214567E+02  0.38058214901E+02  0.50400000000E-02 0. -1.
         23    2    1    2    0    0  0.88817841970E-15  0.00000000000E+00  0.19207022805E+02  0.95323452494E+02  0.93368361185E+02 0.  0.
    9000005    2    3    3    0    0  0.70846267223E+01 -0.27932256669E+02  0.46477215253E+02  0.55648948155E+02  0.10308782408E+02 0.  0.
         22    1    3    3    0    0 -0.70846267223E+01  0.27932256669E+02 -0.27270192448E+02  0.39674504339E+02  0.00000000000E+00 0. -1.
         22    1    4    4    0    0 -0.86571391907E+00 -0.26992672201E+01  0.94371273100E+00  0.29876575831E+01  0.00000000000E+00 0. -1.
         22    1    4    4    0    0  0.79503406414E+01 -0.25232989449E+02  0.45533502522E+02  0.52661290572E+02  0.00000000000E+00 0. -1.
<mgrwt>
<rscale>  0 0.93368361E+02</rscale>
<asrwt>0</asrwt>
<pdfrwt beam="2">  1        1 0.58551100E-02 0.93368361E+02</pdfrwt>
<pdfrwt beam="1">  1       -1 0.88100365E-02 0.93368361E+02</pdfrwt>
<totfact> 0.84107866E+04</totfact>
</mgrwt>
</event>
<event>
 7    1  0.2911475E-009  0.9631366E+02  0.7818608E-02  0.1288245E+00
         -1   -1    0    0    0  501 -0.00000000000E+00  0.00000000000E+00  0.93026175743E+02  0.93026175879E+02  0.50400000000E-02 0.  1.
          1   -1    0    0  501    0  0.00000000000E+00 -0.00000000000E+00 -0.24929331529E+02  0.24929332038E+02  0.50400000000E-02 0. -1.
         23    2    1    2    0    0  0.00000000000E+00  0.00000000000E+00  0.68096844214E+02  0.11795550792E+03  0.96313662874E+02 0.  0.
    9000005    2    3    3    0    0  0.37879263967E+02 -0.23741512971E+02  0.55225150802E+02  0.71434775247E+02  0.73899767766E+01 0.  0.
         22    1    3    3    0    0 -0.37879263967E+02  0.23741512971E+02  0.12871693412E+02  0.46520732670E+02  0.00000000000E+00 0. -1.
         22    1    4    4    0    0  0.20728730604E+02 -0.10018998721E+02  0.32512220805E+02  0.39838487791E+02  0.00000000000E+00 0.  1.
         22    1    4    4    0    0  0.17150533363E+02 -0.13722514250E+02  0.22712929996E+02  0.31596287456E+02  0.00000000000E+00 0.  1.
<mgrwt>
<rscale>  0 0.96313663E+02</rscale>
<asrwt>0</asrwt>
<pdfrwt beam="2">  1        1 0.38352819E-02 0.96313663E+02</pdfrwt>
<pdfrwt beam="1">  1       -1 0.14311719E-01 0.96313663E+02</pdfrwt>
<totfact> 0.71602148E+04</totfact>
</mgrwt>
</event>
<event>
 7    1  0.2911475E-009  0.9679821E+02  0.7818608E-02  0.1287177E+00
          1   -1    0    0  501    0  0.00000000000E+00  0.00000000000E+00  0.23093597137E+02  0.23093597687E+02  0.50400000000E-02 0. -1.
         -1   -1    0    0    0  501 -0.00000000000E+00 -0.00000000000E+00 -0.10143389150E+03  0.10143389163E+03  0.50400000000E-02 0.  1.
         23    2    1    2    0    0  0.00000000000E+00  0.00000000000E+00 -0.78340294365E+02  0.12452748931E+03  0.96798212142E+02 0.  0.
    9000005    2    3    3    0    0  0.35123446554E+02 -0.25220251856E+02 -0.65939779414E+02  0.79544266080E+02  0.10465092236E+02 0.  0.
         22    1    3    3    0    0 -0.35123446554E+02  0.25220251856E+02 -0.12400514951E+02  0.44983223234E+02  0.00000000000E+00 0. -1.
         22    1    4    4    0    0  0.62613945407E+01 -0.41787244349E+01 -0.19884744387E+02  0.21261934504E+02  0.00000000000E+00 0. -1.
         22    1    4    4    0    0  0.28862052013E+02 -0.21041527421E+02 -0.46055035027E+02  0.58282331576E+02  0.00000000000E+00 0. -1.
<mgrwt>
<rscale>  0 0.96798212E+02</rscale>
<asrwt>0</asrwt>
<pdfrwt beam="1">  1        1 0.35528612E-02 0.96798212E+02</pdfrwt>
<pdfrwt beam="2">  1       -1 0.15605214E-01 0.96798212E+02</pdfrwt>
<totfact> 0.69544933E+04</totfact>
</mgrwt>
</event>
<event>
 7    1  0.2911475E-009  0.9036266E+02  0.7818608E-02  0.1301976E+00
          1   -1    0    0  501    0  0.00000000000E+00  0.00000000000E+00  0.18273168439E+03  0.18273168446E+03  0.50400000000E-02 0. -1.
         -1   -1    0    0    0  501 -0.00000000000E+00 -0.00000000000E+00 -0.11171311525E+02  0.11171312662E+02  0.50400000000E-02 0.  1.
         23    2    1    2    0    0  0.00000000000E+00  0.00000000000E+00  0.17156037286E+03  0.19390299712E+03  0.90362662395E+02 0.  0.
    9000005    2    3    3    0    0 -0.91082845036E+01 -0.38992142154E+02  0.49544433211E+02  0.65484783748E+02  0.15174255964E+02 0.  0.
         22    1    3    3    0    0  0.91082845036E+01  0.38992142154E+02  0.12201593965E+03  0.12841821337E+03  0.00000000000E+00 0. -1.
         22    1    4    4    0    0 -0.10887311131E+01 -0.74329594899E+01  0.18531660461E+01  0.77374702978E+01  0.00000000000E+00 0.  1.
         22    1    4    4    0    0 -0.80195533905E+01 -0.31559182664E+02  0.47691267165E+02  0.57747313450E+02  0.00000000000E+00 0.  1.
<mgrwt>
<rscale>  0 0.90362662E+02</rscale>
<asrwt>0</asrwt>
<pdfrwt beam="1">  1        1 0.28112566E-01 0.90362662E+02</pdfrwt>
<pdfrwt beam="2">  1       -1 0.17186634E-02 0.90362662E+02</pdfrwt>
<totfact> 0.11919625E+05</totfact>
</mgrwt>
</event>
<event>
 7    1  0.2911475E-009  0.9339744E+02  0.7818608E-02  0.1294827E+00
         -1   -1    0    0    0  501 -0.00000000000E+00  0.00000000000E+00  0.28019947297E+01  0.28019992625E+01  0.50400000000E-02 0.  1.
          1   -1    0    0  501    0  0.00000000000E+00 -0.00000000000E+00 -0.77829156191E+03  0.77829156193E+03  0.50400000000E-02 0. -1.
         23    2    1    2    0    0 -0.35527136788E-14  0.00000000000E+00 -0.77548956718E+03  0.78109356119E+03  0.93397443889E+02 0.  0.
    9000005    2    3    3    0    0 -0.28897551410E+02 -0.25391753496E+02 -0.60616655618E+03  0.60745574365E+03  0.92074452146E+01 0.  0.
         22    1    3    3    0    0  0.28897551410E+02  0.25391753496E+02 -0.16932301100E+03  0.17363781753E+03  0.00000000000E+00 0.  1.
         22    1    4    4    0    0 -0.21047159793E+02 -0.15097991212E+02 -0.34657941662E+03  0.34754600314E+03  0.00000000000E+00 0.  1.
         22    1    4    4    0    0 -0.78503916166E+01 -0.10293762284E+02 -0.25958713956E+03  0.25990974051E+03  0.00000000000E+00 0.  1.
<mgrwt>
<rscale>  0 0.93397444E+02</rscale>
<asrwt>0</asrwt>
<pdfrwt beam="2">  1        1 0.11973699E+00 0.93397444E+02</pdfrwt>
<pdfrwt beam="1">  1       -1 0.43107708E-03 0.93397444E+02</pdfrwt>
<totfact> 0.13286497E+05</totfact>
</mgrwt>
</event>
<event>
 7    1  0.2911475E-009  0.9109708E+02  0.7818608E-02  0.1300217E+00
         -1   -1    0    0    0  501 -0.00000000000E+00  0.00000000000E+00  0.21077324101E+02  0.21077324704E+02  0.50400000000E-02 0.  1.
          1   -1    0    0  501    0  0.00000000000E+00 -0.00000000000E+00 -0.98431339885E+02  0.98431340014E+02  0.50400000000E-02 0. -1.
         23    2    1    2    0    0  0.00000000000E+00  0.00000000000E+00 -0.77354015784E+02  0.11950866472E+03  0.91097075610E+02 0.  0.
    9000005    2    3    3    0    0  0.33162303061E+02  0.11878208614E+01  0.14957545897E+01  0.33960809393E+02  0.70675335238E+01 0.  0.
         22    1    3    3    0    0 -0.33162303061E+02 -0.11878208614E+01 -0.78849770373E+02  0.85547855325E+02  0.00000000000E+00 0. -1.
         22    1    4    4    0    0  0.15238320079E+02 -0.14531016536E+01  0.35896797446E+01  0.15722712995E+02  0.00000000000E+00 0.  1.
         22    1    4    4    0    0  0.17923982982E+02  0.26409225150E+01 -0.20939251549E+01  0.18238096398E+02  0.00000000000E+00 0.  1.
<mgrwt>
<rscale>  0 0.91097076E+02</rscale>
<asrwt>0</asrwt>
<pdfrwt beam="2">  1        1 0.15143283E-01 0.91097076E+02</pdfrwt>
<pdfrwt beam="1">  1       -1 0.32426654E-02 0.91097076E+02</pdfrwt>
<totfact> 0.10442723E+05</totfact>
</mgrwt>
</event>
<event>
 7    1  0.2911475E-009  0.9098467E+02  0.7818608E-02  0.1300485E+00
         -1   -1    0    0    0  501 -0.00000000000E+00  0.00000000000E+00  0.29607960650E+03  0.29607960654E+03  0.50400000000E-02 0.  1.
          1   -1    0    0  501    0  0.00000000000E+00 -0.00000000000E+00 -0.69898505205E+01  0.69898523375E+01  0.50400000000E-02 0. -1.
         23    2    1    2    0    0  0.00000000000E+00  0.00000000000E+00  0.28908975598E+03  0.30306945888E+03  0.90984668454E+02 0.  0.
    9000005    2    3    3    0    0  0.32185322973E+02 -0.14385385056E+02  0.23787099449E+03  0.24089071776E+03  0.14244071317E+02 0.  0.
         22    1    3    3    0    0 -0.32185322973E+02  0.14385385056E+02  0.51218761488E+02  0.62178741114E+02  0.00000000000E+00 0. -1.
         22    1    4    4    0    0  0.15780980378E+02 -0.13161488459E+02  0.10381336751E+03  0.10582759278E+03  0.00000000000E+00 0.  1.
         22    1    4    4    0    0  0.16404342595E+02 -0.12238965969E+01  0.13405762698E+03  0.13506312499E+03  0.00000000000E+00 0.  1.
<mgrwt>
<rscale>  0 0.90984668E+02</rscale>
<asrwt>0</asrwt>
<pdfrwt beam="2">  1        1 0.10753617E-02 0.90984668E+02</pdfrwt>
<pdfrwt beam="1">  1       -1 0.45550709E-01 0.90984668E+02</pdfrwt>
<totfact> 0.61236272E+04</totfact>
</mgrwt>
</event>
<event>
 7    1  0.2911475E-009  0.8792495E+02  0.7818608E-02  0.1307956E+00
          1   -1    0    0  501    0  0.00000000000E+00  0.00000000000E+00  0.48843365454E+02  0.48843365714E+02  0.50400000000E-02 0. -1.
         -1   -1    0    0    0  501 -0.00000000000E+00 -0.00000000000E+00 -0.39569333181E+02  0.39569333502E+02  0.50400000000E-02 0.  1.
         23    2    1    2    0    0  0.00000000000E+00  0.00000000000E+00  0.92740322731E+01  0.88412699215E+02  0.87924954978E+02 0.  0.
    9000005    2    3    3    0    0  0.17737133514E+02  0.29140437867E+02  0.31928427596E+02  0.47461598475E+02  0.83311353788E+01 0.  0.
         22    1    3    3    0    0 -0.17737133514E+02 -0.29140437867E+02 -0.22654395323E+02  0.40951100740E+02  0.00000000000E+00 0.  1.
         22    1    4    4    0    0  0.13318868521E+02  0.26457908507E+02  0.24659291682E+02  0.38542104866E+02  0.00000000000E+00 0.  1.
         22    1    4    4    0    0  0.44182649927E+01  0.26825293606E+01  0.72691359134E+01  0.89194936092E+01  0.00000000000E+00 0.  1.
<mgrwt>
<rscale>  0 0.87924955E+02</rscale>
<asrwt>0</asrwt>
<pdfrwt beam="1">  1        1 0.75143639E-02 0.87924955E+02</pdfrwt>
<pdfrwt beam="2">  1       -1 0.60875898E-02 0.87924955E+02</pdfrwt>
<totfact> 0.10338966E+05</totfact>
</mgrwt>
</event>
<event>
 7    1  0.2911475E-009  0.9140225E+02  0.7818608E-02  0.1299491E+00
          1   -1    0    0  501    0  0.00000000000E+00  0.00000000000E+00  0.20508899568E+02  0.20508900187E+02  0.50400000000E-02 0. -1.
         -1   -1    0    0    0  501 -0.00000000000E+00 -0.00000000000E+00 -0.10183836576E+03  0.10183836588E+03  0.50400000000E-02 0.  1.
         23    2    1    2    0    0  0.00000000000E+00  0.00000000000E+00 -0.81329466189E+02  0.12234726607E+03  0.91402250760E+02 0.  0.
    9000005    2    3    3    0    0 -0.22854104746E+02 -0.38764341961E+02 -0.49284546796E+02  0.67103613308E+02  0.69960027694E+01 0.  0.
         22    1    3    3    0    0  0.22854104746E+02  0.38764341961E+02 -0.32044919393E+02  0.55243652761E+02  0.00000000000E+00 0. -1.
         22    1    4    4    0    0 -0.90622321830E+01 -0.14559479558E+02 -0.13942563925E+02  0.22101981493E+02  0.00000000000E+00 0.  1.
         22    1    4    4    0    0 -0.13791872563E+02 -0.24204862403E+02 -0.35341982871E+02  0.45001631815E+02  0.00000000000E+00 0.  1.
<mgrwt>
<rscale>  0 0.91402251E+02</rscale>
<asrwt>0</asrwt>
<pdfrwt beam="1">  1        1 0.31552154E-02 0.91402251E+02</pdfrwt>
<pdfrwt beam="2">  1       -1 0.15667441E-01 0.91402251E+02</pdfrwt>
<totfact> 0.80579403E+04</totfact>
</mgrwt>
</event>
<event>
 7    1  0.2911475E-009  0.8967547E+02  0.7818608E-02  0.1303639E+00
          1   -1    0    0  501    0  0.00000000000E+00  0.00000000000E+00  0.34359726428E+03  0.34359726432E+03  0.50400000000E-02 0. -1.
         -1   -1    0    0    0  501 -0.00000000000E+00 -0.00000000000E+00 -0.58511004142E+01  0.58511025849E+01  0.50400000000E-02 0.  1.
         23    2    1    2    0    0  0.71054273576E-14  0.00000000000E+00  0.33774616387E+03  0.34944836691E+03  0.89675470026E+02 0.  0.
    9000005    2    3    3    0    0 -0.35959330387E+02  0.25167370985E+02  0.19452871967E+03  0.19965615640E+03  0.97307763793E+01 0.  0.
         22    1    3    3    0    0  0.35959330387E+02 -0.25167370985E+02  0.14321744420E+03  0.14979221050E+03  0.00000000000E+00 0.  1.
         22    1    4    4    0    0 -0.34692588770E+02  0.25670051164E+02  0.19192433601E+03  0.19671674558E+03  0.00000000000E+00 0. -1.
         22    1    4    4    0    0 -0.12667416169E+01 -0.50268017883E+00  0.26043836658E+01  0.29394108193E+01  0.00000000000E+00 0. -1.
<mgrwt>
<rscale>  0 0.89675470E+02</rscale>
<asrwt>0</asrwt>
<pdfrwt beam="1">  1        1 0.52861130E-01 0.89675470E+02</pdfrwt>
<pdfrwt beam="2">  1       -1 0.90016926E-03 0.89675470E+02</pdfrwt>
<totfact> 0.13732114E+05</totfact>
</mgrwt>
</event>
<event>
 7    1  0.2911475E-009  0.9121281E+02  0.7818608E-02  0.1299941E+00
          1   -1    0    0  501    0  0.00000000000E+00  0.00000000000E+00  0.60235815885E+03  0.60235815887E+03  0.50400000000E-02 0. -1.
         -1   -1    0    0    0  501 -0.00000000000E+00 -0.00000000000E+00 -0.34530007758E+01  0.34530044540E+01  0.50400000000E-02 0.  1.
         23    2    1    2    0    0  0.44408920985E-15  0.00000000000E+00  0.59890515808E+03  0.60581116333E+03  0.91212812924E+02 0.  0.
    9000005    2    3    3    0    0 -0.35247833131E+01  0.44342715179E+02  0.33666762299E+03  0.33982765764E+03  0.12611425133E+02 0.  0.
         22    1    3    3    0    0  0.35247833131E+01 -0.44342715179E+02  0.26223753509E+03  0.26598350569E+03  0.00000000000E+00 0. -1.
         22    1    4    4    0    0  0.36095435737E+01  0.69711653562E+01  0.74758818644E+02  0.75169853773E+02  0.00000000000E+00 0.  1.
         22    1    4    4    0    0 -0.71343268867E+01  0.37371549823E+02  0.26190880434E+03  0.26465780387E+03  0.00000000000E+00 0.  1.
<mgrwt>
<rscale>  0 0.91212813E+02</rscale>
<asrwt>0</asrwt>
<pdfrwt beam="1">  1        1 0.92670458E-01 0.91212813E+02</pdfrwt>
<pdfrwt beam="2">  1       -1 0.53123134E-03 0.91212813E+02</pdfrwt>
<totfact> 0.14147222E+05</totfact>
</mgrwt>
</event>
<event>
 7    1  0.2911475E-009  0.9056599E+02  0.7818608E-02  0.1301487E+00
          1   -1    0    0  501    0  0.00000000000E+00  0.00000000000E+00  0.35928544695E+03  0.35928544699E+03  0.50400000000E-02 0. -1.
         -1   -1    0    0    0  501 -0.00000000000E+00 -0.00000000000E+00 -0.57072986889E+01  0.57073009143E+01  0.50400000000E-02 0.  1.
         23    2    1    2    0    0  0.71054273576E-14  0.00000000000E+00  0.35357814826E+03  0.36499274790E+03  0.90565993020E+02 0.  0.
    9000005    2    3    3    0    0 -0.43403632137E+02 -0.23467891209E+01  0.21902296248E+03  0.22359090660E+03  0.11508810529E+02 0.  0.
         22    1    3    3    0    0  0.43403632137E+02  0.23467891209E+01  0.13455518579E+03  0.14140184130E+03  0.00000000000E+00 0.  1.
         22    1    4    4    0    0 -0.26753099804E+02  0.37634596881E+01  0.12139612720E+03  0.12436603908E+03  0.00000000000E+00 0. -1.
         22    1    4    4    0    0 -0.16650532333E+02 -0.61102488090E+01  0.97626835279E+02  0.99224867519E+02  0.00000000000E+00 0. -1.
<mgrwt>
<rscale>  0 0.90565993E+02</rscale>
<asrwt>0</asrwt>
<pdfrwt beam="1">  1        1 0.55274676E-01 0.90565993E+02</pdfrwt>
<pdfrwt beam="2">  1       -1 0.87804626E-03 0.90565993E+02</pdfrwt>
<totfact> 0.13483214E+05</totfact>
</mgrwt>
</event>
<event>
 7    1  0.2911475E-009  0.9073388E+02  0.7818608E-02  0.1301084E+00
         -1   -1    0    0    0  501 -0.00000000000E+00  0.00000000000E+00  0.20778588932E+02  0.20778589543E+02  0.50400000000E-02 0.  1.
          1   -1    0    0  501    0  0.00000000000E+00 -0.00000000000E+00 -0.99051922452E+02  0.99051922581E+02  0.50400000000E-02 0. -1.
         23    2    1    2    0    0 -0.71054273576E-14  0.00000000000E+00 -0.78273333520E+02  0.11983051212E+03  0.90733879535E+02 0.  0.
    9000005    2    3    3    0    0  0.43038769406E+02 -0.92153462458E+01 -0.33619285856E+02  0.57130892897E+02  0.14015144071E+02 0.  0.
         22    1    3    3    0    0 -0.43038769406E+02  0.92153462458E+01 -0.44654047664E+02  0.62699619227E+02  0.00000000000E+00 0.  1.
         22    1    4    4    0    0 -0.35589938762E+00 -0.56516195248E+00 -0.35978479311E+01  0.36593144361E+01  0.00000000000E+00 0.  1.
         22    1    4    4    0    0  0.43394668793E+02 -0.86501842933E+01 -0.30021437925E+02  0.53471578461E+02  0.00000000000E+00 0.  1.
<mgrwt>
<rscale>  0 0.90733880E+02</rscale>
<asrwt>0</asrwt>
<pdfrwt beam="2">  1        1 0.15238757E-01 0.90733880E+02</pdfrwt>
<pdfrwt beam="1">  1       -1 0.31967061E-02 0.90733880E+02</pdfrwt>
<totfact> 0.10567985E+05</totfact>
</mgrwt>
</event>
<event>
 7    1  0.2911475E-009  0.8676109E+02  0.7818608E-02  0.1310890E+00
          1   -1    0    0  501    0  0.00000000000E+00  0.00000000000E+00  0.24497302100E+01  0.24497353945E+01  0.50400000000E-02 0. -1.
         -1   -1    0    0    0  501 -0.00000000000E+00 -0.00000000000E+00 -0.76819458975E+03  0.76819458977E+03  0.50400000000E-02 0.  1.
         23    2    1    2    0    0  0.17763568394E-14  0.00000000000E+00 -0.76574485954E+03  0.77064432517E+03  0.86761085695E+02 0.  0.
    9000005    2    3    3    0    0  0.12135166840E+02  0.97405439056E+01 -0.74235780691E+03  0.74255349569E+03  0.69598857290E+01 0.  0.
         22    1    3    3    0    0 -0.12135166840E+02 -0.97405439056E+01 -0.23387052638E+02  0.28090829481E+02  0.00000000000E+00 0. -1.
         22    1    4    4    0    0  0.78219411819E+01  0.88156324556E+01 -0.62810803335E+03  0.62821859229E+03  0.00000000000E+00 0.  1.
         22    1    4    4    0    0  0.43132256579E+01  0.92491144994E+00 -0.11424977356E+03  0.11433490340E+03  0.00000000000E+00 0.  1.
<mgrwt>
<rscale>  0 0.86761086E+02</rscale>
<asrwt>0</asrwt>
<pdfrwt beam="1">  1        1 0.37688258E-03 0.86761086E+02</pdfrwt>
<pdfrwt beam="2">  1       -1 0.11818359E+00 0.86761086E+02</pdfrwt>
<totfact> 0.38652688E+04</totfact>
</mgrwt>
</event>
<event>
 7    1  0.2911475E-009  0.1018857E+03  0.7818608E-02  0.1276380E+00
          1   -1    0    0  501    0  0.00000000000E+00  0.00000000000E+00  0.21823159492E+02  0.21823160074E+02  0.50400000000E-02 0. -1.
         -1   -1    0    0    0  501 -0.00000000000E+00 -0.00000000000E+00 -0.11891834362E+03  0.11891834373E+03  0.50400000000E-02 0.  1.
         23    2    1    2    0    0 -0.35527136788E-14  0.71054273576E-14 -0.97095184127E+02  0.14074150380E+03  0.10188570121E+03 0.  0.
    9000005    2    3    3    0    0  0.26577454346E+02 -0.39792162705E+02 -0.68816023230E+02  0.85158338783E+02  0.15050591977E+02 0.  0.
         22    1    3    3    0    0 -0.26577454346E+02  0.39792162705E+02 -0.28279160897E+02  0.55583165017E+02  0.00000000000E+00 0.  1.
         22    1    4    4    0    0  0.39724979268E+01 -0.18848912834E+02 -0.24098792408E+02  0.30851483762E+02  0.00000000000E+00 0. -1.
         22    1    4    4    0    0  0.22604956419E+02 -0.20943249871E+02 -0.44717230822E+02  0.54306855021E+02  0.00000000000E+00 0. -1.
<mgrwt>
<rscale>  0 0.10188570E+03</rscale>
<asrwt>0</asrwt>
<pdfrwt beam="1">  1        1 0.33574093E-02 0.10188570E+03</pdfrwt>
<pdfrwt beam="2">  1       -1 0.18295130E-01 0.10188570E+03</pdfrwt>
<totfact> 0.59000215E+04</totfact>
</mgrwt>
</event>
<event>
 7    1  0.2911475E-009  0.9764782E+02  0.7818608E-02  0.1285321E+00
          1   -1    0    0  501    0  0.00000000000E+00  0.00000000000E+00  0.14041331957E+03  0.14041331966E+03  0.50400000000E-02 0. -1.
         -1   -1    0    0    0  501 -0.00000000000E+00 -0.00000000000E+00 -0.16976839004E+02  0.16976839752E+02  0.50400000000E-02 0.  1.
         23    2    1    2    0    0  0.00000000000E+00  0.00000000000E+00  0.12343648056E+03  0.15739015941E+03  0.97647824068E+02 0.  0.
    9000005    2    3    3    0    0 -0.42359688106E+01 -0.18964487229E+02  0.13342971176E+03  0.13553930411E+03  0.13777509644E+02 0.  0.
         22    1    3    3    0    0  0.42359688106E+01  0.18964487229E+02 -0.99932311928E+01  0.21850855299E+02  0.00000000000E+00 0.  1.
         22    1    4    4    0    0  0.97969388293E+00  0.19295871238E+01  0.16711035425E+02  0.16850573033E+02  0.00000000000E+00 0. -1.
         22    1    4    4    0    0 -0.52156626935E+01 -0.20894074353E+02  0.11671867633E+03  0.11868873108E+03  0.00000000000E+00 0. -1.
<mgrwt>
<rscale>  0 0.97647824E+02</rscale>
<asrwt>0</asrwt>
<pdfrwt beam="1">  1        1 0.21602049E-01 0.97647824E+02</pdfrwt>
<pdfrwt beam="2">  1       -1 0.26118215E-02 0.97647824E+02</pdfrwt>
<totfact> 0.91972189E+04</totfact>
</mgrwt>
</event>
<event>
 7    1  0.2911475E-009  0.9079055E+02  0.7818608E-02  0.1300948E+00
          1   -1    0    0  501    0  0.00000000000E+00  0.00000000000E+00  0.10650915741E+02  0.10650916933E+02  0.50400000000E-02 0. -1.
         -1   -1    0    0    0  501 -0.00000000000E+00 -0.00000000000E+00 -0.19347920027E+03  0.19347920033E+03  0.50400000000E-02 0.  1.
         23    2    1    2    0    0  0.00000000000E+00  0.00000000000E+00 -0.18282828453E+03  0.20413011726E+03  0.90790545499E+02 0.  0.
    9000005    2    3    3    0    0  0.40928374035E+02 -0.13512335591E+02 -0.64950875105E+02  0.78619963628E+02  0.10235599135E+02 0.  0.
         22    1    3    3    0    0 -0.40928374035E+02  0.13512335591E+02 -0.11787740942E+03  0.12551015364E+03  0.00000000000E+00 0. -1.
         22    1    4    4    0    0  0.13145634899E+02 -0.78336939914E+01 -0.29406015075E+02  0.33149482666E+02  0.00000000000E+00 0.  1.
         22    1    4    4    0    0  0.27782739136E+02 -0.56786415994E+01 -0.35544860030E+02  0.45470480961E+02  0.00000000000E+00 0.  1.
<mgrwt>
<rscale>  0 0.90790545E+02</rscale>
<asrwt>0</asrwt>
<pdfrwt beam="1">  1        1 0.16386027E-02 0.90790545E+02</pdfrwt>
<pdfrwt beam="2">  1       -1 0.29766028E-01 0.90790545E+02</pdfrwt>
<totfact> 0.70857042E+04</totfact>
</mgrwt>
</event>
<event>
 7    1  0.2911475E-009  0.9201193E+02  0.7818608E-02  0.1298051E+00
         -1   -1    0    0    0  501 -0.00000000000E+00  0.00000000000E+00  0.12799472986E+02  0.12799473979E+02  0.50400000000E-02 0.  1.
          1   -1    0    0  501    0  0.00000000000E+00 -0.00000000000E+00 -0.16536216365E+03  0.16536216373E+03  0.50400000000E-02 0. -1.
         23    2    1    2    0    0  0.00000000000E+00 -0.88817841970E-15 -0.15256269067E+03  0.17816163771E+03  0.92011926224E+02 0.  0.
    9000005    2    3    3    0    0 -0.33682274626E+02 -0.47117142743E+01 -0.13535722172E+03  0.14004702061E+03  0.11614414833E+02 0.  0.
         22    1    3    3    0    0  0.33682274626E+02  0.47117142743E+01 -0.17205468941E+02  0.38114617102E+02  0.00000000000E+00 0.  1.
         22    1    4    4    0    0 -0.86283862027E-01  0.14986175806E+01 -0.10221994148E+02  0.10331624457E+02  0.00000000000E+00 0. -1.
         22    1    4    4    0    0 -0.33595990764E+02 -0.62103318549E+01 -0.12513522758E+03  0.12971539615E+03  0.00000000000E+00 0. -1.
<mgrwt>
<rscale>  0 0.92011926E+02</rscale>
<asrwt>0</asrwt>
<pdfrwt beam="2">  1        1 0.25440331E-01 0.92011926E+02</pdfrwt>
<pdfrwt beam="1">  1       -1 0.19691499E-02 0.92011926E+02</pdfrwt>
<totfact> 0.11140903E+05</totfact>
</mgrwt>
</event>
<event>
 7    1  0.2911475E-009  0.9087053E+02  0.7818608E-02  0.1300757E+00
          1   -1    0    0  501    0  0.00000000000E+00  0.00000000000E+00  0.37901444904E+03  0.37901444908E+03  0.50400000000E-02 0. -1.
         -1   -1    0    0    0  501 -0.00000000000E+00 -0.00000000000E+00 -0.54466604962E+01  0.54466628280E+01  0.50400000000E-02 0.  1.
         23    2    1    2    0    0  0.00000000000E+00  0.00000000000E+00  0.37356778855E+03  0.38446111190E+03  0.90870533877E+02 0.  0.
    9000005    2    3    3    0    0  0.27548732383E+02 -0.26447018692E+02  0.28670606196E+03  0.28957519620E+03  0.13966060122E+02 0.  0.
         22    1    3    3    0    0 -0.27548732383E+02  0.26447018692E+02  0.86861726583E+02  0.94885915702E+02  0.00000000000E+00 0.  1.
         22    1    4    4    0    0  0.28221658314E+02 -0.21017887393E+02  0.24939631567E+03  0.25186650404E+03  0.00000000000E+00 0.  1.
         22    1    4    4    0    0 -0.67292593048E+00 -0.54291312990E+01  0.37309746293E+02  0.37708692160E+02  0.00000000000E+00 0.  1.
<mgrwt>
<rscale>  0 0.90870534E+02</rscale>
<asrwt>0</asrwt>
<pdfrwt beam="1">  1        1 0.58309941E-01 0.90870534E+02</pdfrwt>
<pdfrwt beam="2">  1       -1 0.83794758E-03 0.90870534E+02</pdfrwt>
<totfact> 0.13487899E+05</totfact>
</mgrwt>
</event>
<event>
 7    1  0.2911475E-009  0.9186698E+02  0.7818608E-02  0.1298392E+00
         -1   -1    0    0    0  501 -0.00000000000E+00  0.00000000000E+00  0.96366616153E+01  0.96366629333E+01  0.50400000000E-02 0.  1.
          1   -1    0    0  501    0  0.00000000000E+00 -0.00000000000E+00 -0.21894361894E+03  0.21894361899E+03  0.50400000000E-02 0. -1.
         23    2    1    2    0    0  0.00000000000E+00  0.44408920985E-15 -0.20930695732E+03  0.22858028193E+03  0.91866984837E+02 0.  0.
    9000005    2    3    3    0    0  0.11512337473E+02  0.25583941491E+01 -0.21471994783E+03  0.21560415920E+03  0.15537637282E+02 0.  0.
         22    1    3    3    0    0 -0.11512337473E+02 -0.25583941491E+01  0.54129905129E+01  0.12976122726E+02  0.00000000000E+00 0.  1.
         22    1    4    4    0    0  0.18889346922E+01  0.54906127972E+00 -0.15974533728E+03  0.15975744841E+03  0.00000000000E+00 0. -1.
         22    1    4    4    0    0  0.96234027810E+01  0.20093328694E+01 -0.54974610558E+02  0.55846710786E+02  0.00000000000E+00 0. -1.
<mgrwt>
<rscale>  0 0.91866985E+02</rscale>
<asrwt>0</asrwt>
<pdfrwt beam="2">  1        1 0.33683630E-01 0.91866985E+02</pdfrwt>
<pdfrwt beam="1">  1       -1 0.14825636E-02 0.91866985E+02</pdfrwt>
<totfact> 0.11809843E+05</totfact>
</mgrwt>
</event>
<event>
 7    1  0.2911475E-009  0.9168910E+02  0.7818608E-02  0.1298812E+00
          1   -1    0    0  501    0  0.00000000000E+00  0.00000000000E+00  0.87014044314E+03  0.87014044316E+03  0.50400000000E-02 0. -1.
         -1   -1    0    0    0  501 -0.00000000000E+00 -0.00000000000E+00 -0.24153808150E+01  0.24153860733E+01  0.50400000000E-02 0.  1.
         23    2    1    2    0    0  0.35527136788E-14  0.17763568394E-14  0.86772506233E+03  0.87255582923E+03  0.91689101494E+02 0.  0.
    9000005    2    3    3    0    0  0.24138678726E+02  0.13396694129E+02  0.78057674619E+03  0.78113933055E+03  0.10791192030E+02 0.  0.
         22    1    3    3    0    0 -0.24138678726E+02 -0.13396694129E+02  0.87148316142E+02  0.91416498679E+02  0.00000000000E+00 0.  1.
         22    1    4    4    0    0  0.12720971037E+02  0.66895344649E+01  0.54598927040E+03  0.54617841075E+03  0.00000000000E+00 0.  1.
         22    1    4    4    0    0  0.11417707689E+02  0.67071596642E+01  0.23458747578E+03  0.23496091980E+03  0.00000000000E+00 0.  1.
<mgrwt>
<rscale>  0 0.91689101E+02</rscale>
<asrwt>0</asrwt>
<pdfrwt beam="1">  1        1 0.13386790E+00 0.91689101E+02</pdfrwt>
<pdfrwt beam="2">  1       -1 0.37159707E-03 0.91689101E+02</pdfrwt>
<totfact> 0.13786949E+05</totfact>
</mgrwt>
</event>
<event>
 7    1  0.2911475E-009  0.8949605E+02  0.7818608E-02  0.1304077E+00
         -1   -1    0    0    0  501 -0.00000000000E+00  0.00000000000E+00  0.24573799080E+03  0.24573799085E+03  0.50400000000E-02 0.  1.
          1   -1    0    0  501    0  0.00000000000E+00 -0.00000000000E+00 -0.81484579760E+01  0.81484595346E+01  0.50400000000E-02 0. -1.
         23    2    1    2    0    0  0.00000000000E+00  0.00000000000E+00  0.23758953283E+03  0.25388645039E+03  0.89496053445E+02 0.  0.
    9000005    2    3    3    0    0  0.23166369682E+02  0.15589795689E+02  0.21771223366E+03  0.21961066541E+03  0.71067054555E+01 0.  0.
         22    1    3    3    0    0 -0.23166369682E+02 -0.15589795689E+02  0.19877299169E+02  0.34275784982E+02  0.00000000000E+00 0. -1.
         22    1    4    4    0    0  0.22465104478E+02  0.14554839711E+02  0.19069854652E+03  0.19256806569E+03  0.00000000000E+00 0. -1.
         22    1    4    4    0    0  0.70126520472E+00  0.10349559783E+01  0.27013687133E+02  0.27042599714E+02  0.00000000000E+00 0. -1.
<mgrwt>
<rscale>  0 0.89496053E+02</rscale>
<asrwt>0</asrwt>
<pdfrwt beam="2">  1        1 0.12536090E-02 0.89496053E+02</pdfrwt>
<pdfrwt beam="1">  1       -1 0.37805845E-01 0.89496053E+02</pdfrwt>
<totfact> 0.68379302E+04</totfact>
</mgrwt>
</event>
<event>
 7    1  0.2911475E-009  0.9315354E+02  0.7818608E-02  0.1295390E+00
          1   -1    0    0  501    0  0.00000000000E+00  0.00000000000E+00  0.12824422129E+03  0.12824422138E+03  0.50400000000E-02 0. -1.
         -1   -1    0    0    0  501 -0.00000000000E+00 -0.00000000000E+00 -0.16916125350E+02  0.16916126101E+02  0.50400000000E-02 0.  1.
         23    2    1    2    0    0  0.00000000000E+00 -0.44408920985E-15  0.11132809594E+03  0.14516034749E+03  0.93153537439E+02 0.  0.
    9000005    2    3    3    0    0  0.32855388423E+02  0.31828491670E+01  0.67458764353E+01  0.35492450119E+02  0.11162441011E+02 0.  0.
         22    1    3    3    0    0 -0.32855388423E+02 -0.31828491670E+01  0.10458221950E+03  0.10966789737E+03  0.00000000000E+00 0. -1.
         22    1    4    4    0    0  0.21536221538E+02  0.55470414913E+01  0.84773919057E+01  0.23800098340E+02  0.00000000000E+00 0. -1.
         22    1    4    4    0    0  0.11319166884E+02 -0.23641923243E+01 -0.17315154703E+01  0.11692351779E+02  0.00000000000E+00 0. -1.
<mgrwt>
<rscale>  0 0.93153537E+02</rscale>
<asrwt>0</asrwt>
<pdfrwt beam="1">  1        1 0.19729881E-01 0.93153537E+02</pdfrwt>
<pdfrwt beam="2">  1       -1 0.26024808E-02 0.93153537E+02</pdfrwt>
<totfact> 0.10284081E+05</totfact>
</mgrwt>
</event>
<event>
 7    1  0.2911475E-009  0.9020893E+02  0.7818608E-02  0.1302347E+00
         -1   -1    0    0    0  501 -0.00000000000E+00  0.00000000000E+00  0.78943190196E+03  0.78943190198E+03  0.50400000000E-02 0.  1.
          1   -1    0    0  501    0  0.00000000000E+00 -0.00000000000E+00 -0.25770568641E+01  0.25770617925E+01  0.50400000000E-02 0. -1.
         23    2    1    2    0    0  0.00000000000E+00 -0.35527136788E-14  0.78685484510E+03  0.79200896377E+03  0.90208932146E+02 0.  0.
    9000005    2    3    3    0    0 -0.34221323002E+02  0.22551171376E+02  0.55526024552E+03  0.55681603694E+03  0.71066488522E+01 0.  0.
         22    1    3    3    0    0  0.34221323002E+02 -0.22551171376E+02  0.23159459957E+03  0.23519292683E+03  0.00000000000E+00 0. -1.
         22    1    4    4    0    0 -0.31309121361E+02  0.22707123507E+02  0.51481698322E+03  0.51626776071E+03  0.00000000000E+00 0. -1.
         22    1    4    4    0    0 -0.29122016413E+01 -0.15595213133E+00  0.40443262305E+02  0.40548276231E+02  0.00000000000E+00 0. -1.
<mgrwt>
<rscale>  0 0.90208932E+02</rscale>
<asrwt>0</asrwt>
<pdfrwt beam="2">  1        1 0.39646967E-03 0.90208932E+02</pdfrwt>
<pdfrwt beam="1">  1       -1 0.12145137E+00 0.90208932E+02</pdfrwt>
<totfact> 0.34012909E+04</totfact>
</mgrwt>
</event>
<event>
 7    1  0.2911475E-009  0.9155569E+02  0.7818608E-02  0.1299128E+00
         -1   -1    0    0    0  501 -0.00000000000E+00  0.00000000000E+00  0.39840357307E+02  0.39840357626E+02  0.50400000000E-02 0.  1.
          1   -1    0    0  501    0  0.00000000000E+00 -0.00000000000E+00 -0.52600207310E+02  0.52600207552E+02  0.50400000000E-02 0. -1.
         23    2    1    2    0    0  0.00000000000E+00  0.17763568394E-14 -0.12759850003E+02  0.92440565177E+02  0.91555689710E+02 0.  0.
    9000005    2    3    3    0    0  0.17000279574E+02 -0.14113177633E+02  0.34009559666E+02  0.40714662872E+02  0.35836204686E+01 0.  0.
         22    1    3    3    0    0 -0.17000279574E+02  0.14113177633E+02 -0.46769409669E+02  0.51725902305E+02  0.00000000000E+00 0.  1.
         22    1    4    4    0    0  0.13889956561E+02 -0.12142252658E+02  0.30388237123E+02  0.35550107571E+02  0.00000000000E+00 0.  1.
         22    1    4    4    0    0  0.31103230127E+01 -0.19709249749E+01  0.36213225429E+01  0.51645553013E+01  0.00000000000E+00 0.  1.
<mgrwt>
<rscale>  0 0.91555690E+02</rscale>
<asrwt>0</asrwt>
<pdfrwt beam="2">  1        1 0.80923396E-02 0.91555690E+02</pdfrwt>
<pdfrwt beam="1">  1       -1 0.61292858E-02 0.91555690E+02</pdfrwt>
<totfact> 0.93392470E+04</totfact>
</mgrwt>
</event>
<event>
 7    1  0.2911475E-009  0.9045998E+02  0.7818608E-02  0.1301742E+00
         -1   -1    0    0    0  501 -0.00000000000E+00  0.00000000000E+00  0.18638015469E+03  0.18638015476E+03  0.50400000000E-02 0.  1.
          1   -1    0    0  501    0  0.00000000000E+00 -0.00000000000E+00 -0.10976231180E+02  0.10976232337E+02  0.50400000000E-02 0. -1.
         23    2    1    2    0    0  0.00000000000E+00  0.00000000000E+00  0.17540392351E+03  0.19735638709E+03  0.90459975371E+02 0.  0.
    9000005    2    3    3    0    0  0.15330257923E+01  0.42250566520E+02  0.62726308411E+02  0.77008119621E+02  0.14429143475E+02 0.  0.
         22    1    3    3    0    0 -0.15330257923E+01 -0.42250566520E+02  0.11267761510E+03  0.12034826747E+03  0.00000000000E+00 0.  1.
         22    1    4    4    0    0 -0.13466937762E+01  0.19869582152E+01  0.11709664039E+02  0.11953151007E+02  0.00000000000E+00 0. -1.
         22    1    4    4    0    0  0.28797195685E+01  0.40263608305E+02  0.51016644371E+02  0.65054968614E+02  0.00000000000E+00 0. -1.
<mgrwt>
<rscale>  0 0.90459975E+02</rscale>
<asrwt>0</asrwt>
<pdfrwt beam="2">  1        1 0.16886511E-02 0.90459975E+02</pdfrwt>
<pdfrwt beam="1">  1       -1 0.28673870E-01 0.90459975E+02</pdfrwt>
<totfact> 0.72272590E+04</totfact>
</mgrwt>
</event>
<event>
 7    1  0.2911475E-009  0.9045546E+02  0.7818608E-02  0.1301752E+00
          1   -1    0    0  501    0  0.00000000000E+00  0.00000000000E+00  0.12112827097E+03  0.12112827107E+03  0.50400000000E-02 0. -1.
         -1   -1    0    0    0  501 -0.00000000000E+00 -0.00000000000E+00 -0.16887447471E+02  0.16887448223E+02  0.50400000000E-02 0.  1.
         23    2    1    2    0    0  0.00000000000E+00  0.00000000000E+00  0.10424082350E+03  0.13801571930E+03  0.90455455832E+02 0.  0.
    9000005    2    3    3    0    0 -0.38240746123E+02 -0.22222079956E+02  0.52206894542E+02  0.69724392878E+02  0.13407297372E+02 0.  0.
         22    1    3    3    0    0  0.38240746123E+02  0.22222079956E+02  0.52033928956E+02  0.68291326420E+02  0.00000000000E+00 0. -1.
         22    1    4    4    0    0 -0.36502042882E+02 -0.21836549255E+02  0.52841251976E+02  0.67833855325E+02  0.00000000000E+00 0.  1.
         22    1    4    4    0    0 -0.17387032415E+01 -0.38553070133E+00 -0.63435743398E+00  0.18905375525E+01  0.00000000000E+00 0.  1.
<mgrwt>
<rscale>  0 0.90455456E+02</rscale>
<asrwt>0</asrwt>
<pdfrwt beam="1">  1        1 0.18635118E-01 0.90455456E+02</pdfrwt>
<pdfrwt beam="2">  1       -1 0.25980689E-02 0.90455456E+02</pdfrwt>
<totfact> 0.11026130E+05</totfact>
</mgrwt>
</event>
<event>
 7    1  0.2911475E-009  0.9047152E+02  0.7818608E-02  0.1301714E+00
         -1   -1    0    0    0  501 -0.00000000000E+00  0.00000000000E+00  0.11982202554E+02  0.11982203614E+02  0.50400000000E-02 0. -1.
          1   -1    0    0  501    0  0.00000000000E+00 -0.00000000000E+00 -0.17077610686E+03  0.17077610693E+03  0.50400000000E-02 0.  1.
         23    2    1    2    0    0  0.35527136788E-14 -0.17763568394E-14 -0.15879390431E+03  0.18275831055E+03  0.90471520545E+02 0.  0.
    9000005    2    3    3    0    0  0.28057873550E+02 -0.97438661531E+01 -0.11756380100E+02  0.32750908330E+02  0.72265017544E+01 0.  0.
         22    1    3    3    0    0 -0.28057873550E+02  0.97438661531E+01 -0.14703752421E+03  0.15000740222E+03  0.00000000000E+00 0.  1.
         22    1    4    4    0    0  0.14689429725E+02 -0.65597445762E+01 -0.27519201962E+01  0.16321233389E+02  0.00000000000E+00 0.  1.
         22    1    4    4    0    0  0.13368443825E+02 -0.31841215769E+01 -0.90044599037E+01  0.16429674941E+02  0.00000000000E+00 0.  1.
<mgrwt>
<rscale>  0 0.90471521E+02</rscale>
<asrwt>0</asrwt>
<pdfrwt beam="2">  1        1 0.26273246E-01 0.90471521E+02</pdfrwt>
<pdfrwt beam="1">  1       -1 0.18434160E-02 0.90471521E+02</pdfrwt>
<totfact> 0.11729666E+05</totfact>
</mgrwt>
</event>
<event>
 7    1  0.2911475E-009  0.9091254E+02  0.7818608E-02  0.1300657E+00
         -1   -1    0    0    0  501 -0.00000000000E+00  0.00000000000E+00  0.39223405895E+02  0.39223406218E+02  0.50400000000E-02 0.  1.
          1   -1    0    0  501    0  0.00000000000E+00 -0.00000000000E+00 -0.52679580828E+02  0.52679581069E+02  0.50400000000E-02 0. -1.
         23    2    1    2    0    0  0.00000000000E+00 -0.44408920985E-15 -0.13456174933E+02  0.91902987287E+02  0.90912542745E+02 0.  0.
    9000005    2    3    3    0    0 -0.33102394861E+02  0.33424407726E+01  0.23645342825E+02  0.42068630907E+02  0.10184645955E+02 0.  0.
         22    1    3    3    0    0  0.33102394861E+02 -0.33424407726E+01 -0.37101517758E+02  0.49834356380E+02  0.00000000000E+00 0. -1.
         22    1    4    4    0    0 -0.23117288963E+02 -0.56596278251E+00  0.20477189743E+02  0.30887613418E+02  0.00000000000E+00 0.  1.
         22    1    4    4    0    0 -0.99851058982E+01  0.39084035551E+01  0.31681530815E+01  0.11181017489E+02  0.00000000000E+00 0.  1.
<mgrwt>
<rscale>  0 0.90912543E+02</rscale>
<asrwt>0</asrwt>
<pdfrwt beam="2">  1        1 0.81045509E-02 0.90912543E+02</pdfrwt>
<pdfrwt beam="1">  1       -1 0.60343702E-02 0.90912543E+02</pdfrwt>
<totfact> 0.95269498E+04</totfact>
</mgrwt>
</event>
<event>
 7    1  0.2911475E-009  0.9278654E+02  0.7818608E-02  0.1296241E+00
          1   -1    0    0  501    0  0.00000000000E+00  0.00000000000E+00  0.36985977420E+03  0.36985977423E+03  0.50400000000E-02 0. -1.
         -1   -1    0    0    0  501 -0.00000000000E+00 -0.00000000000E+00 -0.58193271924E+01  0.58193293749E+01  0.50400000000E-02 0.  1.
         23    2    1    2    0    0  0.00000000000E+00  0.00000000000E+00  0.36404044701E+03  0.37567910361E+03  0.92786539062E+02 0.  0.
    9000005    2    3    3    0    0 -0.42049124506E+01 -0.45748202486E+02  0.18456956439E+03  0.19042150720E+03  0.91567999950E+01 0.  0.
         22    1    3    3    0    0  0.42049124506E+01  0.45748202486E+02  0.17947088262E+03  0.18525759641E+03  0.00000000000E+00 0.  1.
         22    1    4    4    0    0 -0.33121295277E+01 -0.94701992365E+01  0.52886772512E+02  0.53829969184E+02  0.00000000000E+00 0. -1.
         22    1    4    4    0    0 -0.89278292293E+00 -0.36278003249E+02  0.13168279188E+03  0.13659153802E+03  0.00000000000E+00 0. -1.
<mgrwt>
<rscale>  0 0.92786539E+02</rscale>
<asrwt>0</asrwt>
<pdfrwt beam="1">  1        1 0.56901530E-01 0.92786539E+02</pdfrwt>
<pdfrwt beam="2">  1       -1 0.89528087E-03 0.92786539E+02</pdfrwt>
<totfact> 0.12705905E+05</totfact>
</mgrwt>
</event>
<event>
 7    1  0.2911475E-009  0.9561533E+02  0.7818608E-02  0.1289796E+00
          1   -1    0    0  501    0  0.00000000000E+00  0.00000000000E+00  0.28595732410E+03  0.28595732415E+03  0.50400000000E-02 0. -1.
         -1   -1    0    0    0  501 -0.00000000000E+00 -0.00000000000E+00 -0.79927057047E+01  0.79927072938E+01  0.50400000000E-02 0.  1.
         23    2    1    2    0    0 -0.44408920985E-15  0.00000000000E+00  0.27796461840E+03  0.29395003144E+03  0.95615332991E+02 0.  0.
    9000005    2    3    3    0    0 -0.28854929955E+01  0.29166880063E+02  0.25485479029E+03  0.25662581520E+03  0.68419247747E+01 0.  0.
         22    1    3    3    0    0  0.28854929955E+01 -0.29166880063E+02  0.23109828115E+02  0.37324216241E+02  0.00000000000E+00 0.  1.
         22    1    4    4    0    0  0.21603596996E+01  0.99094539956E+01  0.79329220335E+02  0.79974931269E+02  0.00000000000E+00 0. -1.
         22    1    4    4    0    0 -0.50458526951E+01  0.19257426068E+02  0.17552556995E+03  0.17665088393E+03  0.00000000000E+00 0. -1.
<mgrwt>
<rscale>  0 0.95615333E+02</rscale>
<asrwt>0</asrwt>
<pdfrwt beam="1">  1        1 0.43993429E-01 0.95615333E+02</pdfrwt>
<pdfrwt beam="2">  1       -1 0.12296473E-02 0.95615333E+02</pdfrwt>
<totfact> 0.11179501E+05</totfact>
</mgrwt>
</event>
<event>
 7    1  0.2911475E-009  0.9411576E+02  0.7818608E-02  0.1293180E+00
          1   -1    0    0  501    0  0.00000000000E+00  0.00000000000E+00  0.54443484844E+02  0.54443485077E+02  0.50400000000E-02 0. -1.
         -1   -1    0    0    0  501 -0.00000000000E+00 -0.00000000000E+00 -0.40674175970E+02  0.40674176282E+02  0.50400000000E-02 0.  1.
         23    2    1    2    0    0  0.35527136788E-14  0.00000000000E+00  0.13769308873E+02  0.95117661359E+02  0.94115756574E+02 0.  0.
    9000005    2    3    3    0    0 -0.18992653621E+02  0.20082039559E+02  0.45158298836E+02  0.53293291724E+02  0.60740254018E+01 0.  0.
         22    1    3    3    0    0  0.18992653621E+02 -0.20082039559E+02 -0.31388989963E+02  0.41824369635E+02  0.00000000000E+00 0.  1.
         22    1    4    4    0    0 -0.64870128797E+01  0.56461163644E+01  0.93082665896E+01  0.12672955180E+02  0.00000000000E+00 0.  1.
         22    1    4    4    0    0 -0.12505640741E+02  0.14435923195E+02  0.35850032247E+02  0.40620336544E+02  0.00000000000E+00 0.  1.
<mgrwt>
<rscale>  0 0.94115757E+02</rscale>
<asrwt>0</asrwt>
<pdfrwt beam="1">  1        1 0.83759208E-02 0.94115757E+02</pdfrwt>
<pdfrwt beam="2">  1       -1 0.62575656E-02 0.94115757E+02</pdfrwt>
<totfact> 0.86913679E+04</totfact>
</mgrwt>
</event>
<event>
 7    1  0.2911475E-009  0.8960752E+02  0.7818608E-02  0.1303805E+00
          1   -1    0    0  501    0  0.00000000000E+00  0.00000000000E+00  0.20631645689E+03  0.20631645695E+03  0.50400000000E-02 0. -1.
         -1   -1    0    0    0  501 -0.00000000000E+00 -0.00000000000E+00 -0.97296016909E+01  0.97296029963E+01  0.50400000000E-02 0.  1.
         23    2    1    2    0    0  0.00000000000E+00  0.11102230246E-15  0.19658685520E+03  0.21604605995E+03  0.89607524137E+02 0.  0.
    9000005    2    3    3    0    0  0.19826181854E+02 -0.63263906319E+00  0.19489530430E+03  0.19613779374E+03  0.96112838497E+01 0.  0.
         22    1    3    3    0    0 -0.19826181854E+02  0.63263906319E+00  0.16915509066E+01  0.19908266212E+02  0.00000000000E+00 0.  1.
         22    1    4    4    0    0  0.13648598293E+02  0.41065105401E+01  0.12760661532E+03  0.12840013994E+03  0.00000000000E+00 0.  1.
         22    1    4    4    0    0  0.61775835612E+01 -0.47391496033E+01  0.67288688976E+02  0.67737653796E+02  0.00000000000E+00 0.  1.
<mgrwt>
<rscale>  0 0.89607524E+02</rscale>
<asrwt>0</asrwt>
<pdfrwt beam="1">  1        1 0.31740991E-01 0.89607524E+02</pdfrwt>
<pdfrwt beam="2">  1       -1 0.14968620E-02 0.89607524E+02</pdfrwt>
<totfact> 0.12478854E+05</totfact>
</mgrwt>
</event>
<event>
 7    1  0.2911475E-009  0.8943136E+02  0.7818608E-02  0.1304235E+00
          1   -1    0    0  501    0  0.00000000000E+00  0.00000000000E+00  0.24720002086E+03  0.24720002092E+03  0.50400000000E-02 0. -1.
         -1   -1    0    0    0  501 -0.00000000000E+00 -0.00000000000E+00 -0.80885576782E+01  0.80885592484E+01  0.50400000000E-02 0.  1.
         23    2    1    2    0    0  0.00000000000E+00  0.00000000000E+00  0.23911146319E+03  0.25528858016E+03  0.89431355436E+02 0.  0.
    9000005    2    3    3    0    0  0.25710781822E+02 -0.34227105624E+02  0.97089929181E+02  0.10695566007E+03  0.13435766153E+02 0.  0.
         22    1    3    3    0    0 -0.25710781822E+02  0.34227105624E+02  0.14202153400E+03  0.14833292009E+03  0.00000000000E+00 0.  1.
         22    1    4    4    0    0  0.56447158862E+01 -0.85459363057E+00  0.92302950604E+01  0.10853179009E+02  0.00000000000E+00 0. -1.
         22    1    4    4    0    0  0.20066065936E+02 -0.33372511994E+02  0.87859634121E+02  0.96102481064E+02  0.00000000000E+00 0. -1.
<mgrwt>
<rscale>  0 0.89431355E+02</rscale>
<asrwt>0</asrwt>
<pdfrwt beam="1">  1        1 0.38030764E-01 0.89431355E+02</pdfrwt>
<pdfrwt beam="2">  1       -1 0.12443939E-02 0.89431355E+02</pdfrwt>
<totfact> 0.12992893E+05</totfact>
</mgrwt>
</event>
<event>
 7    1  0.2911475E-009  0.9164153E+02  0.7818608E-02  0.1298924E+00
         -1   -1    0    0    0  501 -0.00000000000E+00  0.00000000000E+00  0.14515245828E+03  0.14515245837E+03  0.50400000000E-02 0.  1.
          1   -1    0    0  501    0  0.00000000000E+00 -0.00000000000E+00 -0.14464394838E+02  0.14464395716E+02  0.50400000000E-02 0. -1.
         23    2    1    2    0    0  0.00000000000E+00  0.00000000000E+00  0.13068806344E+03  0.15961685408E+03  0.91641530875E+02 0.  0.
    9000005    2    3    3    0    0 -0.32918232917E+02 -0.30951034685E+02  0.58665511564E+02  0.74594359498E+02  0.90055324848E+01 0.  0.
         22    1    3    3    0    0  0.32918232917E+02  0.30951034685E+02  0.72022551877E+02  0.85022494584E+02  0.00000000000E+00 0.  1.
         22    1    4    4    0    0 -0.79392489133E+01 -0.80424613789E+01  0.89067618220E+01  0.14388998036E+02  0.00000000000E+00 0.  1.
         22    1    4    4    0    0 -0.24978984004E+02 -0.22908573306E+02  0.49758749742E+02  0.60205361462E+02  0.00000000000E+00 0.  1.
<mgrwt>
<rscale>  0 0.91641531E+02</rscale>
<asrwt>0</asrwt>
<pdfrwt beam="2">  1        1 0.22252914E-02 0.91641531E+02</pdfrwt>
<pdfrwt beam="1">  1       -1 0.22331149E-01 0.91641531E+02</pdfrwt>
<totfact> 0.74371596E+04</totfact>
</mgrwt>
</event>
<event>
 7    1  0.2911475E-009  0.9217301E+02  0.7818608E-02  0.1297673E+00
          1   -1    0    0  501    0  0.00000000000E+00  0.00000000000E+00  0.80441956840E+02  0.80441956998E+02  0.50400000000E-02 0. -1.
         -1   -1    0    0    0  501 -0.00000000000E+00 -0.00000000000E+00 -0.26403708913E+02  0.26403709394E+02  0.50400000000E-02 0.  1.
         23    2    1    2    0    0  0.00000000000E+00 -0.35527136788E-14  0.54038247927E+02  0.10684566639E+03  0.92173012253E+02 0.  0.
    9000005    2    3    3    0    0 -0.69888665359E+01  0.29273369536E+02  0.66635746570E+02  0.74219428614E+02  0.12744663331E+02 0.  0.
         22    1    3    3    0    0  0.69888665359E+01 -0.29273369536E+02 -0.12597498644E+02  0.32626237778E+02  0.00000000000E+00 0.  1.
         22    1    4    4    0    0 -0.10755629428E+02  0.21088583936E+02  0.48107651783E+02  0.53616770668E+02  0.00000000000E+00 0. -1.
         22    1    4    4    0    0  0.37667628920E+01  0.81847856003E+01  0.18528094787E+02  0.20602657946E+02  0.00000000000E+00 0. -1.
<mgrwt>
<rscale>  0 0.92173012E+02</rscale>
<asrwt>0</asrwt>
<pdfrwt beam="1">  1        1 0.12375686E-01 0.92173012E+02</pdfrwt>
<pdfrwt beam="2">  1       -1 0.40621092E-02 0.92173012E+02</pdfrwt>
<totfact> 0.97864394E+04</totfact>
</mgrwt>
</event>
<event>
 7    1  0.2911475E-009  0.8997331E+02  0.7818608E-02  0.1302916E+00
         -1   -1    0    0    0  501 -0.00000000000E+00  0.00000000000E+00  0.16213002273E+02  0.16213003056E+02  0.50400000000E-02 0.  1.
          1   -1    0    0  501    0  0.00000000000E+00 -0.00000000000E+00 -0.12482568752E+03  0.12482568763E+03  0.50400000000E-02 0. -1.
         23    2    1    2    0    0  0.00000000000E+00  0.00000000000E+00 -0.10861268525E+03  0.14103869068E+03  0.89973311998E+02 0.  0.
    9000005    2    3    3    0    0 -0.23993930443E+02 -0.33212575525E+02 -0.80957502643E+02  0.91605978879E+02  0.12599772264E+02 0.  0.
         22    1    3    3    0    0  0.23993930443E+02  0.33212575525E+02 -0.27655182608E+02  0.49432711803E+02  0.00000000000E+00 0.  1.
         22    1    4    4    0    0 -0.24705304424E+02 -0.30942806064E+02 -0.79504203006E+02  0.88818509386E+02  0.00000000000E+00 0.  1.
         22    1    4    4    0    0  0.71137398025E+00 -0.22697694606E+01 -0.14532996366E+01  0.27874694936E+01  0.00000000000E+00 0.  1.
<mgrwt>
<rscale>  0 0.89973312E+02</rscale>
<asrwt>0</asrwt>
<pdfrwt beam="2">  1        1 0.19203951E-01 0.89973312E+02</pdfrwt>
<pdfrwt beam="1">  1       -1 0.24943082E-02 0.89973312E+02</pdfrwt>
<totfact> 0.11245537E+05</totfact>
</mgrwt>
</event>
<event>
 7    1  0.2911475E-009  0.9185455E+02  0.7818608E-02  0.1298422E+00
         -1   -1    0    0    0  501 -0.00000000000E+00  0.00000000000E+00  0.20312217861E+01  0.20312280388E+01  0.50400000000E-02 0.  1.
          1   -1    0    0  501    0  0.00000000000E+00 -0.00000000000E+00 -0.10384447171E+04  0.10384447171E+04  0.50400000000E-02 0. -1.
         23    2    1    2    0    0 -0.17763568394E-14  0.35527136788E-14 -0.10364134953E+04  0.10404759451E+04  0.91854554427E+02 0.  0.
    9000005    2    3    3    0    0  0.14187231504E+02  0.16917821250E+02 -0.97341625077E+03  0.97372159672E+03  0.10347002073E+02 0.  0.
         22    1    3    3    0    0 -0.14187231504E+02 -0.16917821250E+02 -0.62997244534E+02  0.66754348416E+02  0.00000000000E+00 0.  1.
         22    1    4    4    0    0  0.49297960652E+01  0.30319790004E+01 -0.45496741521E+03  0.45500422491E+03  0.00000000000E+00 0. -1.
         22    1    4    4    0    0  0.92574354390E+01  0.13885842249E+02 -0.51844883556E+03  0.51871737181E+03  0.00000000000E+00 0. -1.
<mgrwt>
<rscale>  0 0.91854554E+02</rscale>
<asrwt>0</asrwt>
<pdfrwt beam="2">  1        1 0.15976030E+00 0.91854554E+02</pdfrwt>
<pdfrwt beam="1">  1       -1 0.31249697E-03 0.91854554E+02</pdfrwt>
<totfact> 0.13195416E+05</totfact>
</mgrwt>
</event>
<event>
 7    1  0.2911475E-009  0.9090405E+02  0.7818608E-02  0.1300677E+00
         -1   -1    0    0    0  501 -0.00000000000E+00  0.00000000000E+00  0.64915346123E+02  0.64915346319E+02  0.50400000000E-02 0.  1.
          1   -1    0    0  501    0  0.00000000000E+00 -0.00000000000E+00 -0.31824319665E+02  0.31824320064E+02  0.50400000000E-02 0. -1.
         23    2    1    2    0    0 -0.35527136788E-14 -0.71054273576E-14  0.33091026459E+02  0.96739666383E+02  0.90904053923E+02 0.  0.
    9000005    2    3    3    0    0 -0.16359839946E+02 -0.36143542775E+02 -0.69869804924E+01  0.40345990420E+02  0.22318152306E+01 0.  0.
         22    1    3    3    0    0  0.16359839946E+02  0.36143542775E+02  0.40078006951E+02  0.56393675962E+02  0.00000000000E+00 0.  1.
         22    1    4    4    0    0  0.27857643803E-01  0.18606843569E-02 -0.50224929982E-01  0.57463501949E-01  0.00000000000E+00 0. -1.
         22    1    4    4    0    0 -0.16387697590E+02 -0.36145403459E+02 -0.69367555624E+01  0.40288526918E+02  0.00000000000E+00 0. -1.
<mgrwt>
<rscale>  0 0.90904054E+02</rscale>
<asrwt>0</asrwt>
<pdfrwt beam="2">  1        1 0.48960492E-02 0.90904054E+02</pdfrwt>
<pdfrwt beam="1">  1       -1 0.99869764E-02 0.90904054E+02</pdfrwt>
<totfact> 0.88260321E+04</totfact>
</mgrwt>
</event>
<event>
 7    1  0.2911475E-009  0.9070690E+02  0.7818608E-02  0.1301149E+00
         -1   -1    0    0    0  501 -0.00000000000E+00  0.00000000000E+00  0.90157232083E+01  0.90157246171E+01  0.50400000000E-02 0.  1.
          1   -1    0    0  501    0  0.00000000000E+00 -0.00000000000E+00 -0.22814976085E+03  0.22814976090E+03  0.50400000000E-02 0. -1.
         23    2    1    2    0    0  0.00000000000E+00  0.35527136788E-14 -0.21913403764E+03  0.23716548552E+03  0.90706896485E+02 0.  0.
    9000005    2    3    3    0    0 -0.30438797076E+02 -0.27604749412E+02 -0.15431013727E+03  0.16041471604E+03  0.15255166288E+02 0.  0.
         22    1    3    3    0    0  0.30438797076E+02  0.27604749412E+02 -0.64823900364E+02  0.76750769482E+02  0.00000000000E+00 0.  1.
         22    1    4    4    0    0 -0.26499427664E+02 -0.22782923433E+02 -0.14542511787E+03  0.14956519038E+03  0.00000000000E+00 0.  1.
         22    1    4    4    0    0 -0.39393694124E+01 -0.48218259789E+01 -0.88850194043E+01  0.10849525656E+02  0.00000000000E+00 0.  1.
<mgrwt>
<rscale>  0 0.90706896E+02</rscale>
<asrwt>0</asrwt>
<pdfrwt beam="2">  1        1 0.35099959E-01 0.90706896E+02</pdfrwt>
<pdfrwt beam="1">  1       -1 0.13870346E-02 0.90706896E+02</pdfrwt>
<totfact> 0.12317354E+05</totfact>
</mgrwt>
</event>
<event>
 7    1  0.2911475E-009  0.8933401E+02  0.7818608E-02  0.1304473E+00
         -1   -1    0    0    0  501 -0.00000000000E+00  0.00000000000E+00  0.12098684273E+03  0.12098684283E+03  0.50400000000E-02 0.  1.
          1   -1    0    0  501    0  0.00000000000E+00 -0.00000000000E+00 -0.16490564658E+02  0.16490565428E+02  0.50400000000E-02 0. -1.
         23    2    1    2    0    0  0.00000000000E+00 -0.71054273576E-14  0.10449627807E+03  0.13747740826E+03  0.89334011729E+02 0.  0.
    9000005    2    3    3    0    0  0.26533226346E+02 -0.32024138515E+02  0.27402333765E+02  0.49881553356E+02  0.27791944033E+01 0.  0.
         22    1    3    3    0    0 -0.26533226346E+02  0.32024138515E+02  0.77093944303E+02  0.87595854903E+02  0.00000000000E+00 0. -1.
         22    1    4    4    0    0  0.22927604674E+02 -0.27058778417E+02  0.24408629856E+02  0.43053847179E+02  0.00000000000E+00 0. -1.
         22    1    4    4    0    0  0.36056216723E+01 -0.49653600979E+01  0.29937039088E+01  0.68277061770E+01  0.00000000000E+00 0. -1.
<mgrwt>
<rscale>  0 0.89334012E+02</rscale>
<asrwt>0</asrwt>
<pdfrwt beam="2">  1        1 0.25370100E-02 0.89334012E+02</pdfrwt>
<pdfrwt beam="1">  1       -1 0.18613360E-01 0.89334012E+02</pdfrwt>
<totfact> 0.82643766E+04</totfact>
</mgrwt>
</event>
<event>
 7    1  0.2911475E-009  0.9359905E+02  0.7818608E-02  0.1294363E+00
          1   -1    0    0  501    0  0.00000000000E+00  0.00000000000E+00  0.59738400513E+02  0.59738400726E+02  0.50400000000E-02 0. -1.
         -1   -1    0    0    0  501 -0.00000000000E+00 -0.00000000000E+00 -0.36663107674E+02  0.36663108020E+02  0.50400000000E-02 0.  1.
         23    2    1    2    0    0 -0.17763568394E-14  0.00000000000E+00  0.23075292839E+02  0.96401508746E+02  0.93599047799E+02 0.  0.
    9000005    2    3    3    0    0 -0.59940567695E+01  0.17343769140E+02  0.55287415925E+02  0.59329202125E+02  0.11248147428E+02 0.  0.
         22    1    3    3    0    0  0.59940567695E+01 -0.17343769140E+02 -0.32212123086E+02  0.37072306621E+02  0.00000000000E+00 0.  1.
         22    1    4    4    0    0 -0.13344036975E+01  0.60150829874E+01  0.62167365078E+01  0.87526949782E+01  0.00000000000E+00 0.  1.
         22    1    4    4    0    0 -0.46596530720E+01  0.11328686152E+02  0.49070679417E+02  0.50576507147E+02  0.00000000000E+00 0.  1.
<mgrwt>
<rscale>  0 0.93599048E+02</rscale>
<asrwt>0</asrwt>
<pdfrwt beam="1">  1        1 0.91905231E-02 0.93599048E+02</pdfrwt>
<pdfrwt beam="2">  1       -1 0.56404782E-02 0.93599048E+02</pdfrwt>
<totfact> 0.89532032E+04</totfact>
</mgrwt>
</event>
<event>
 7    1  0.2911475E-009  0.9376142E+02  0.7818608E-02  0.1293990E+00
          1   -1    0    0  501    0  0.00000000000E+00  0.00000000000E+00  0.78929662793E+02  0.78929662954E+02  0.50400000000E-02 0. -1.
         -1   -1    0    0    0  501 -0.00000000000E+00 -0.00000000000E+00 -0.27845059256E+02  0.27845059712E+02  0.50400000000E-02 0.  1.
         23    2    1    2    0    0  0.00000000000E+00 -0.88817841970E-15  0.51084603536E+02  0.10677472267E+03  0.93761424274E+02 0.  0.
    9000005    2    3    3    0    0 -0.13641865961E+02 -0.70555308702E+01 -0.23766710394E+02  0.30363988997E+02  0.11010644035E+02 0.  0.
         22    1    3    3    0    0  0.13641865961E+02  0.70555308702E+01  0.74851313931E+02  0.76410733670E+02  0.00000000000E+00 0. -1.
         22    1    4    4    0    0 -0.65141240720E+01 -0.93622028396E+01 -0.14255679670E+02  0.18256753745E+02  0.00000000000E+00 0.  1.
         22    1    4    4    0    0 -0.71277418886E+01  0.23066719694E+01 -0.95110307242E+01  0.12107235252E+02  0.00000000000E+00 0.  1.
<mgrwt>
<rscale>  0 0.93761424E+02</rscale>
<asrwt>0</asrwt>
<pdfrwt beam="1">  1        1 0.12143025E-01 0.93761424E+02</pdfrwt>
<pdfrwt beam="2">  1       -1 0.42838553E-02 0.93761424E+02</pdfrwt>
<totfact> 0.93082097E+04</totfact>
</mgrwt>
</event>
<event>
 7    1  0.2911475E-009  0.9112521E+02  0.7818608E-02  0.1300149E+00
         -1   -1    0    0    0  501 -0.00000000000E+00  0.00000000000E+00  0.20538861842E+02  0.20538862461E+02  0.50400000000E-02 0.  1.
          1   -1    0    0  501    0  0.00000000000E+00 -0.00000000000E+00 -0.10107428929E+03  0.10107428942E+03  0.50400000000E-02 0. -1.
         23    2    1    2    0    0  0.00000000000E+00  0.00000000000E+00 -0.80535427447E+02  0.12161315188E+03  0.91125208560E+02 0.  0.
    9000005    2    3    3    0    0 -0.17753814528E+02  0.12955574638E+02  0.12492104087E+02  0.26024625012E+02  0.61792878247E+01 0.  0.
         22    1    3    3    0    0  0.17753814528E+02 -0.12955574638E+02 -0.93027531535E+02  0.95588526864E+02  0.00000000000E+00 0. -1.
         22    1    4    4    0    0 -0.12299516545E+02  0.56600143880E+01  0.58396600878E+01  0.14745016109E+02  0.00000000000E+00 0.  1.
         22    1    4    4    0    0 -0.54542979826E+01  0.72955602501E+01  0.66524439996E+01  0.11279608903E+02  0.00000000000E+00 0.  1.
<mgrwt>
<rscale>  0 0.91125209E+02</rscale>
<asrwt>0</asrwt>
<pdfrwt beam="2">  1        1 0.15549890E-01 0.91125209E+02</pdfrwt>
<pdfrwt beam="1">  1       -1 0.31598250E-02 0.91125209E+02</pdfrwt>
<totfact> 0.10479950E+05</totfact>
</mgrwt>
</event>
<event>
 7    1  0.2911475E-009  0.9263983E+02  0.7818608E-02  0.1296582E+00
         -1   -1    0    0    0  501 -0.00000000000E+00  0.00000000000E+00  0.40034420441E+02  0.40034420758E+02  0.50400000000E-02 0.  1.
          1   -1    0    0  501    0  0.00000000000E+00 -0.00000000000E+00 -0.53592246772E+02  0.53592247009E+02  0.50400000000E-02 0. -1.
         23    2    1    2    0    0  0.00000000000E+00  0.00000000000E+00 -0.13557826330E+02  0.93626667767E+02  0.92639830863E+02 0.  0.
    9000005    2    3    3    0    0  0.17790169835E+02  0.31395263660E+02 -0.35330648124E+02  0.51481579182E+02  0.99972783875E+01 0.  0.
         22    1    3    3    0    0 -0.17790169835E+02 -0.31395263660E+02  0.21772821793E+02  0.42145088585E+02  0.00000000000E+00 0.  1.
         22    1    4    4    0    0  0.10116991436E+02  0.25191402970E+02 -0.29175320702E+02  0.39851720632E+02  0.00000000000E+00 0. -1.
         22    1    4    4    0    0  0.76731783990E+01  0.62038606902E+01 -0.61553274218E+01  0.11629858549E+02  0.00000000000E+00 0. -1.
<mgrwt>
<rscale>  0 0.92639831E+02</rscale>
<asrwt>0</asrwt>
<pdfrwt beam="2">  1        1 0.82449611E-02 0.92639831E+02</pdfrwt>
<pdfrwt beam="1">  1       -1 0.61591417E-02 0.92639831E+02</pdfrwt>
<totfact> 0.90625766E+04</totfact>
</mgrwt>
</event>
<event>
 7    1  0.2911475E-009  0.9284880E+02  0.7818608E-02  0.1296096E+00
         -1   -1    0    0    0  501 -0.00000000000E+00  0.00000000000E+00  0.86324282620E+03  0.86324282622E+03  0.50400000000E-02 0.  1.
          1   -1    0    0  501    0  0.00000000000E+00 -0.00000000000E+00 -0.24966588476E+01  0.24966639347E+01  0.50400000000E-02 0. -1.
         23    2    1    2    0    0 -0.35527136788E-14  0.00000000000E+00  0.86074616735E+03  0.86573949015E+03  0.92848802859E+02 0.  0.
    9000005    2    3    3    0    0  0.22222407281E+02 -0.97122365060E+01  0.79800005259E+03  0.79846960208E+03  0.12706635516E+02 0.  0.
         22    1    3    3    0    0 -0.22222407281E+02  0.97122365060E+01  0.62746114762E+02  0.67269888070E+02  0.00000000000E+00 0. -1.
         22    1    4    4    0    0  0.23282202677E+02 -0.76712056528E+01  0.66881941541E+03  0.66926849529E+03  0.00000000000E+00 0.  1.
         22    1    4    4    0    0 -0.10597953962E+01 -0.20410308532E+01  0.12918063718E+03  0.12920110679E+03  0.00000000000E+00 0.  1.
<mgrwt>
<rscale>  0 0.92848803E+02</rscale>
<asrwt>0</asrwt>
<pdfrwt beam="2">  1        1 0.38410119E-03 0.92848803E+02</pdfrwt>
<pdfrwt beam="1">  1       -1 0.13280678E+00 0.92848803E+02</pdfrwt>
<totfact> 0.28839897E+04</totfact>
</mgrwt>
</event>
<event>
 7    1  0.2911475E-009  0.9106364E+02  0.7818608E-02  0.1300296E+00
          1   -1    0    0  501    0  0.00000000000E+00  0.00000000000E+00  0.38235780845E+03  0.38235780848E+03  0.50400000000E-02 0. -1.
         -1   -1    0    0    0  501 -0.00000000000E+00 -0.00000000000E+00 -0.54220054396E+01  0.54220077821E+01  0.50400000000E-02 0.  1.
         23    2    1    2    0    0  0.00000000000E+00  0.00000000000E+00  0.37693580301E+03  0.38777981626E+03  0.91063638801E+02 0.  0.
    9000005    2    3    3    0    0 -0.17622911404E+02 -0.41520901036E+02  0.17912134376E+03  0.18488794231E+03  0.80338777341E+01 0.  0.
         22    1    3    3    0    0  0.17622911404E+02  0.41520901036E+02  0.19781445925E+03  0.20289187396E+03  0.00000000000E+00 0. -1.
         22    1    4    4    0    0 -0.15614032838E+02 -0.36228594684E+02  0.14368496187E+03  0.14900227301E+03  0.00000000000E+00 0.  1.
         22    1    4    4    0    0 -0.20088785663E+01 -0.52923063521E+01  0.35436381890E+02  0.35885669300E+02  0.00000000000E+00 0.  1.
<mgrwt>
<rscale>  0 0.91063639E+02</rscale>
<asrwt>0</asrwt>
<pdfrwt beam="1">  1        1 0.58824256E-01 0.91063639E+02</pdfrwt>
<pdfrwt beam="2">  1       -1 0.83415519E-03 0.91063639E+02</pdfrwt>
<totfact> 0.13432202E+05</totfact>
</mgrwt>
</event>
<event>
 7    1  0.2911475E-009  0.9955184E+02  0.7818608E-02  0.1281241E+00
          1   -1    0    0  501    0  0.00000000000E+00  0.00000000000E+00  0.60673161935E+01  0.60673182868E+01  0.50400000000E-02 0. -1.
         -1   -1    0    0    0  501 -0.00000000000E+00 -0.00000000000E+00 -0.40835875601E+03  0.40835875604E+03  0.50400000000E-02 0.  1.
         23    2    1    2    0    0  0.00000000000E+00 -0.17763568394E-14 -0.40229143982E+03  0.41442607433E+03  0.99551838422E+02 0.  0.
    9000005    2    3    3    0    0 -0.51276357405E+01  0.11578769277E+02 -0.40150074063E+03  0.40173805827E+03  0.55011084976E+01 0.  0.
         22    1    3    3    0    0  0.51276357405E+01 -0.11578769277E+02 -0.79069919171E+00  0.12688016057E+02  0.00000000000E+00 0. -1.
         22    1    4    4    0    0 -0.47376169689E+01  0.10669553661E+02 -0.29255854595E+03  0.29279137145E+03  0.00000000000E+00 0.  1.
         22    1    4    4    0    0 -0.39001877160E+00  0.90921561574E+00 -0.10894219468E+03  0.10894668682E+03  0.00000000000E+00 0.  1.
<mgrwt>
<rscale>  0 0.99551838E+02</rscale>
<asrwt>0</asrwt>
<pdfrwt beam="1">  1        1 0.93343375E-03 0.99551838E+02</pdfrwt>
<pdfrwt beam="2">  1       -1 0.62824402E-01 0.99551838E+02</pdfrwt>
<totfact> 0.41851292E+04</totfact>
</mgrwt>
</event>
<event>
 7    1  0.2911475E-009  0.9285203E+02  0.7818608E-02  0.1296088E+00
         -1   -1    0    0    0  501 -0.00000000000E+00  0.00000000000E+00  0.53110588138E+03  0.53110588141E+03  0.50400000000E-02 0.  1.
          1   -1    0    0  501    0  0.00000000000E+00 -0.00000000000E+00 -0.40582756574E+01  0.40582787870E+01  0.50400000000E-02 0. -1.
         23    2    1    2    0    0  0.00000000000E+00  0.00000000000E+00  0.52704760572E+03  0.53516416019E+03  0.92852030968E+02 0.  0.
    9000005    2    3    3    0    0  0.15663638268E+02  0.42747112379E+02  0.31245782215E+03  0.31579816375E+03  0.50916033781E+01 0.  0.
         22    1    3    3    0    0 -0.15663638268E+02 -0.42747112379E+02  0.21458978357E+03  0.21936599644E+03  0.00000000000E+00 0. -1.
         22    1    4    4    0    0  0.63009867275E+01  0.19427370241E+02  0.15690719641E+03  0.15823082327E+03  0.00000000000E+00 0.  1.
         22    1    4    4    0    0  0.93626515401E+01  0.23319742138E+02  0.15555062574E+03  0.15756734048E+03  0.00000000000E+00 0.  1.
<mgrwt>
<rscale>  0 0.92852031E+02</rscale>
<asrwt>0</asrwt>
<pdfrwt beam="2">  1        1 0.62434991E-03 0.92852031E+02</pdfrwt>
<pdfrwt beam="1">  1       -1 0.81708654E-01 0.92852031E+02</pdfrwt>
<totfact> 0.43161549E+04</totfact>
</mgrwt>
</event>
<event>
 7    1  0.2911475E-009  0.8989317E+02  0.7818608E-02  0.1303111E+00
          1   -1    0    0  501    0  0.00000000000E+00  0.00000000000E+00  0.13901468968E+03  0.13901468977E+03  0.50400000000E-02 0. -1.
         -1   -1    0    0    0  501 -0.00000000000E+00 -0.00000000000E+00 -0.14532244136E+02  0.14532245010E+02  0.50400000000E-02 0.  1.
         23    2    1    2    0    0  0.00000000000E+00  0.00000000000E+00  0.12448244554E+03  0.15354693478E+03  0.89893169553E+02 0.  0.
    9000005    2    3    3    0    0  0.12290305511E+02  0.26894412326E+02  0.11970798081E+03  0.12359436332E+03  0.84383026085E+01 0.  0.
         22    1    3    3    0    0 -0.12290305511E+02 -0.26894412326E+02  0.47744647382E+01  0.29952571466E+02  0.00000000000E+00 0.  1.
         22    1    4    4    0    0  0.10425740521E+02  0.14263164374E+02  0.77997276906E+02  0.79973177554E+02  0.00000000000E+00 0.  1.
         22    1    4    4    0    0  0.18645649899E+01  0.12631247951E+02  0.41710703899E+02  0.43621185761E+02  0.00000000000E+00 0.  1.
<mgrwt>
<rscale>  0 0.89893170E+02</rscale>
<asrwt>0</asrwt>
<pdfrwt beam="1">  1        1 0.21386875E-01 0.89893170E+02</pdfrwt>
<pdfrwt beam="2">  1       -1 0.22357300E-02 0.89893170E+02</pdfrwt>
<totfact> 0.11490167E+05</totfact>
</mgrwt>
</event>
<event>
 6    1  0.2911475E-009  0.2811398E+03  0.7818608E-02  0.1095068E+00
          1   -1    0    0  501    0  0.00000000000E+00  0.00000000000E+00  0.83905004063E+03  0.83905004065E+03  0.50400000000E-02 0. -1.
         -1   -1    0    0    0  501 -0.00000000000E+00 -0.00000000000E+00 -0.23550323609E+02  0.23550324148E+02  0.50400000000E-02 0.  1.
    9000005    2    1    2    0    0 -0.10422138903E+03  0.82140751001E+02  0.26730930352E+03  0.29857737735E+03  0.92187642215E+01 0.  0.
         22    1    1    2    0    0  0.10422138903E+03 -0.82140751001E+02  0.54819041350E+03  0.56402298744E+03  0.00000000000E+00 0. -1.
         22    1    3    3    0    0 -0.56226046146E+02  0.44049554445E+02  0.15413672346E+03  0.16988190319E+03  0.00000000000E+00 0. -1.
         22    1    3    3    0    0 -0.47995342880E+02  0.38091196556E+02  0.11317258006E+03  0.12869547417E+03  0.00000000000E+00 0. -1.
<mgrwt>
<rscale>  0 0.28113982E+03</rscale>
<asrwt>0</asrwt>
<pdfrwt beam="1">  1        1 0.12908462E+00 0.28113982E+03</pdfrwt>
<pdfrwt beam="2">  1       -1 0.36231268E-02 0.28113982E+03</pdfrwt>
<totfact> 0.60892025E+03</totfact>
</mgrwt>
</event>
<event>
 7    1  0.2911475E-009  0.9290175E+02  0.7818608E-02  0.1295973E+00
          1   -1    0    0  501    0  0.00000000000E+00  0.00000000000E+00  0.25167230974E+02  0.25167231479E+02  0.50400000000E-02 0. -1.
         -1   -1    0    0    0  501 -0.00000000000E+00 -0.00000000000E+00 -0.85733848081E+02  0.85733848230E+02  0.50400000000E-02 0.  1.
         23    2    1    2    0    0  0.00000000000E+00  0.00000000000E+00 -0.60566617108E+02  0.11090107971E+03  0.92901745799E+02 0.  0.
    9000005    2    3    3    0    0 -0.16109512610E+02 -0.36312160111E+01  0.19675579785E+02  0.28977259678E+02  0.13410854271E+02 0.  0.
         22    1    3    3    0    0  0.16109512610E+02  0.36312160111E+01 -0.80242196893E+02  0.81923820031E+02  0.00000000000E+00 0.  1.
         22    1    4    4    0    0 -0.27292767130E+01 -0.60934733847E+01  0.26496324456E+01  0.71833085249E+01  0.00000000000E+00 0.  1.
         22    1    4    4    0    0 -0.13380235897E+02  0.24622573736E+01  0.17025947339E+02  0.21793951153E+02  0.00000000000E+00 0.  1.
<mgrwt>
<rscale>  0 0.92901746E+02</rscale>
<asrwt>0</asrwt>
<pdfrwt beam="1">  1        1 0.38718818E-02 0.92901746E+02</pdfrwt>
<pdfrwt beam="2">  1       -1 0.13189823E-01 0.92901746E+02</pdfrwt>
<totfact> 0.79721577E+04</totfact>
</mgrwt>
</event>
<event>
 7    1  0.2911475E-009  0.7602505E+02  0.7818608E-02  0.1340726E+00
          1   -1    0    0  501    0  0.00000000000E+00  0.00000000000E+00  0.63530101434E+02  0.63530101634E+02  0.50400000000E-02 0. -1.
         -1   -1    0    0    0  501 -0.00000000000E+00 -0.00000000000E+00 -0.22744367560E+02  0.22744368118E+02  0.50400000000E-02 0.  1.
         23    2    1    2    0    0 -0.35527136788E-14  0.00000000000E+00  0.40785733875E+02  0.86274469752E+02  0.76025048789E+02 0.  0.
    9000005    2    3    3    0    0  0.26711164888E+02  0.25784221300E+02  0.24186827215E+02  0.45607086015E+02  0.10802374103E+02 0.  0.
         22    1    3    3    0    0 -0.26711164888E+02 -0.25784221300E+02  0.16598906659E+02  0.40667383737E+02  0.00000000000E+00 0.  1.
         22    1    4    4    0    0  0.14836784871E+02  0.21166059434E+02  0.17531266488E+02  0.31232636168E+02  0.00000000000E+00 0.  1.
         22    1    4    4    0    0  0.11874380018E+02  0.46181618660E+01  0.66555607269E+01  0.14374449847E+02  0.00000000000E+00 0.  1.
<mgrwt>
<rscale>  0 0.76025049E+02</rscale>
<asrwt>0</asrwt>
<pdfrwt beam="1">  1        1 0.97738616E-02 0.76025049E+02</pdfrwt>
<pdfrwt beam="2">  1       -1 0.34991336E-02 0.76025049E+02</pdfrwt>
<totfact> 0.15966902E+05</totfact>
</mgrwt>
</event>
<event>
 7    1  0.2911475E-009  0.8990359E+02  0.7818608E-02  0.1303085E+00
         -1   -1    0    0    0  501 -0.00000000000E+00  0.00000000000E+00  0.72181678442E+01  0.72181696038E+01  0.50400000000E-02 0.  1.
          1   -1    0    0  501    0  0.00000000000E+00 -0.00000000000E+00 -0.27994137319E+03  0.27994137324E+03  0.50400000000E-02 0. -1.
         23    2    1    2    0    0  0.00000000000E+00  0.00000000000E+00 -0.27272320535E+03  0.28715954284E+03  0.89903594531E+02 0.  0.
    9000005    2    3    3    0    0  0.18673651524E+02  0.15278526775E+02 -0.25678187084E+03  0.25824129968E+03  0.13019255981E+02 0.  0.
         22    1    3    3    0    0 -0.18673651524E+02 -0.15278526775E+02 -0.15941334507E+02  0.28918243162E+02  0.00000000000E+00 0.  1.
         22    1    4    4    0    0  0.32103800172E+01  0.59123553435E+01 -0.30246709850E+02  0.30985899089E+02  0.00000000000E+00 0. -1.
         22    1    4    4    0    0  0.15463271507E+02  0.93661714317E+01 -0.22653516099E+03  0.22725540059E+03  0.00000000000E+00 0. -1.
<mgrwt>
<rscale>  0 0.89903595E+02</rscale>
<asrwt>0</asrwt>
<pdfrwt beam="2">  1        1 0.43067895E-01 0.89903595E+02</pdfrwt>
<pdfrwt beam="1">  1       -1 0.11104877E-02 0.89903595E+02</pdfrwt>
<totfact> 0.13125379E+05</totfact>
</mgrwt>
</event>
<event>
 7    1  0.2911475E-009  0.9161358E+02  0.7818608E-02  0.1298991E+00
          1   -1    0    0  501    0  0.00000000000E+00  0.00000000000E+00  0.95635939436E+02  0.95635939569E+02  0.50400000000E-02 0. -1.
         -1   -1    0    0    0  501 -0.00000000000E+00 -0.00000000000E+00 -0.21940101160E+02  0.21940101739E+02  0.50400000000E-02 0.  1.
         23    2    1    2    0    0  0.35527136788E-14  0.35527136788E-14  0.73695838276E+02  0.11757604131E+03  0.91613584748E+02 0.  0.
    9000005    2    3    3    0    0 -0.24330307045E+02 -0.29492443303E+02  0.72649365412E+01  0.40928583697E+02  0.12672868960E+02 0.  0.
         22    1    3    3    0    0  0.24330307045E+02  0.29492443303E+02  0.66430901735E+02  0.76647457611E+02  0.00000000000E+00 0. -1.
         22    1    4    4    0    0 -0.13914057231E+02 -0.25545177992E+02  0.61688867193E+01  0.29735706997E+02  0.00000000000E+00 0.  1.
         22    1    4    4    0    0 -0.10416249814E+02 -0.39472653110E+01  0.10960498219E+01  0.11192876700E+02  0.00000000000E+00 0.  1.
<mgrwt>
<rscale>  0 0.91613585E+02</rscale>
<asrwt>0</asrwt>
<pdfrwt beam="1">  1        1 0.14713222E-01 0.91613585E+02</pdfrwt>
<pdfrwt beam="2">  1       -1 0.33754001E-02 0.91613585E+02</pdfrwt>
<totfact> 0.10233847E+05</totfact>
</mgrwt>
</event>
<event>
 7    1  0.2911475E-009  0.9291285E+02  0.7818608E-02  0.1295947E+00
          1   -1    0    0  501    0  0.00000000000E+00  0.00000000000E+00  0.11570753115E+03  0.11570753126E+03  0.50400000000E-02 0. -1.
         -1   -1    0    0    0  501 -0.00000000000E+00 -0.00000000000E+00 -0.18652193244E+02  0.18652193925E+02  0.50400000000E-02 0.  1.
         23    2    1    2    0    0 -0.22204460493E-15 -0.35527136788E-14  0.97055337906E+02  0.13435972518E+03  0.92912846990E+02 0.  0.
    9000005    2    3    3    0    0  0.16733430216E+01  0.20935286374E+02  0.10803859612E+03  0.11065912913E+03  0.11489922284E+02 0.  0.
         22    1    3    3    0    0 -0.16733430216E+01 -0.20935286374E+02 -0.10983258219E+02  0.23700596058E+02  0.00000000000E+00 0.  1.
         22    1    4    4    0    0 -0.15054164678E+01  0.36289253442E+01  0.46173806088E+02  0.46340648966E+02  0.00000000000E+00 0. -1.
         22    1    4    4    0    0  0.31787594893E+01  0.17306361029E+02  0.61864790037E+02  0.64318480161E+02  0.00000000000E+00 0. -1.
<mgrwt>
<rscale>  0 0.92912847E+02</rscale>
<asrwt>0</asrwt>
<pdfrwt beam="1">  1        1 0.17801159E-01 0.92912847E+02</pdfrwt>
<pdfrwt beam="2">  1       -1 0.28695683E-02 0.92912847E+02</pdfrwt>
<totfact> 0.10170767E+05</totfact>
</mgrwt>
</event>
<event>
 7    1  0.2911475E-009  0.9125437E+02  0.7818608E-02  0.1299842E+00
          1   -1    0    0  501    0  0.00000000000E+00  0.00000000000E+00  0.33461090500E+03  0.33461090504E+03  0.50400000000E-02 0. -1.
         -1   -1    0    0    0  501 -0.00000000000E+00 -0.00000000000E+00 -0.62216735884E+01  0.62216756298E+01  0.50400000000E-02 0.  1.
         23    2    1    2    0    0  0.00000000000E+00  0.44408920985E-15  0.32838923141E+03  0.34083258067E+03  0.91254373800E+02 0.  0.
    9000005    2    3    3    0    0 -0.21539086720E+02 -0.30657542006E+01  0.31307354599E+03  0.31422616555E+03  0.15802114197E+02 0.  0.
         22    1    3    3    0    0  0.21539086720E+02  0.30657542006E+01  0.15315685428E+02  0.26606415123E+02  0.00000000000E+00 0.  1.
         22    1    4    4    0    0 -0.61480674851E+00 -0.45921417738E+01  0.27913531011E+02  0.28295423073E+02  0.00000000000E+00 0. -1.
         22    1    4    4    0    0 -0.20924279971E+02  0.15263875732E+01  0.28516001497E+03  0.28593074247E+03  0.00000000000E+00 0. -1.
<mgrwt>
<rscale>  0 0.91254374E+02</rscale>
<asrwt>0</asrwt>
<pdfrwt beam="1">  1        1 0.51478609E-01 0.91254374E+02</pdfrwt>
<pdfrwt beam="2">  1       -1 0.95718055E-03 0.91254374E+02</pdfrwt>
<totfact> 0.13046990E+05</totfact>
</mgrwt>
</event>
<event>
 7    1  0.2911475E-009  0.9337988E+02  0.7818608E-02  0.1294867E+00
         -1   -1    0    0    0  501 -0.00000000000E+00  0.00000000000E+00  0.46446931745E+01  0.46446959089E+01  0.50400000000E-02 0.  1.
          1   -1    0    0  501    0  0.00000000000E+00 -0.00000000000E+00 -0.46934205721E+03  0.46934205724E+03  0.50400000000E-02 0. -1.
         23    2    1    2    0    0  0.00000000000E+00 -0.17763568394E-14 -0.46469736403E+03  0.47398675314E+03  0.93379880147E+02 0.  0.
    9000005    2    3    3    0    0  0.18842962532E+02 -0.10928739171E+02 -0.44195135593E+03  0.44249269876E+03  0.20719246219E+01 0.  0.
         22    1    3    3    0    0 -0.18842962532E+02  0.10928739171E+02 -0.22746008105E+02  0.31494054385E+02  0.00000000000E+00 0.  1.
         22    1    4    4    0    0  0.48879118006E+01 -0.21464811564E+01 -0.95256660346E+02  0.95406133992E+02  0.00000000000E+00 0.  1.
         22    1    4    4    0    0  0.13955050731E+02 -0.87822580148E+01 -0.34669469558E+03  0.34708656477E+03  0.00000000000E+00 0.  1.
<mgrwt>
<rscale>  0 0.93379880E+02</rscale>
<asrwt>0</asrwt>
<pdfrwt beam="2">  1        1 0.72206433E-01 0.93379880E+02</pdfrwt>
<pdfrwt beam="1">  1       -1 0.71456876E-03 0.93379880E+02</pdfrwt>
<totfact> 0.12967144E+05</totfact>
</mgrwt>
</event>
<event>
 7    1  0.2911475E-009  0.8126383E+02  0.7818608E-02  0.1325503E+00
          1   -1    0    0  501    0  0.00000000000E+00  0.00000000000E+00  0.18429209925E+03  0.18429209932E+03  0.50400000000E-02 0. -1.
         -1   -1    0    0    0  501 -0.00000000000E+00 -0.00000000000E+00 -0.89583451914E+01  0.89583466091E+01  0.50400000000E-02 0.  1.
         23    2    1    2    0    0  0.00000000000E+00 -0.35527136788E-14  0.17533375406E+03  0.19325044593E+03  0.81263826757E+02 0.  0.
    9000005    2    3    3    0    0 -0.62274228753E+01  0.27933502013E+02  0.15541925448E+03  0.15838429295E+03  0.10553589823E+02 0.  0.
         22    1    3    3    0    0  0.62274228753E+01 -0.27933502013E+02  0.19914499579E+02  0.34866152984E+02  0.00000000000E+00 0.  1.
         22    1    4    4    0    0 -0.38048156299E+01  0.10950381304E+02  0.38320162018E+02  0.40035263078E+02  0.00000000000E+00 0. -1.
         22    1    4    4    0    0 -0.24226072454E+01  0.16983120709E+02  0.11709909246E+03  0.11834902987E+03  0.00000000000E+00 0. -1.
<mgrwt>
<rscale>  0 0.81263827E+02</rscale>
<asrwt>0</asrwt>
<pdfrwt beam="1">  1        1 0.28352631E-01 0.81263827E+02</pdfrwt>
<pdfrwt beam="2">  1       -1 0.13782070E-02 0.81263827E+02</pdfrwt>
<totfact> 0.15843708E+05</totfact>
</mgrwt>
</event>
<event>
 7    1  0.2911475E-009  0.8990751E+02  0.7818608E-02  0.1303076E+00
          1   -1    0    0  501    0  0.00000000000E+00  0.00000000000E+00  0.15632257123E+02  0.15632257935E+02  0.50400000000E-02 0. -1.
         -1   -1    0    0    0  501 -0.00000000000E+00 -0.00000000000E+00 -0.12927371433E+03  0.12927371443E+03  0.50400000000E-02 0.  1.
         23    2    1    2    0    0  0.00000000000E+00 -0.17763568394E-14 -0.11364145720E+03  0.14490597236E+03  0.89907508197E+02 0.  0.
    9000005    2    3    3    0    0 -0.43673462164E+02 -0.90022585657E+01 -0.57655191130E+02  0.73331717593E+02  0.80627404896E+01 0.  0.
         22    1    3    3    0    0  0.43673462164E+02  0.90022585657E+01 -0.55986266074E+02  0.71574254768E+02  0.00000000000E+00 0. -1.
         22    1    4    4    0    0 -0.20728382486E+02 -0.23137287551E+00 -0.27493284400E+02  0.34432543632E+02  0.00000000000E+00 0.  1.
         22    1    4    4    0    0 -0.22945079678E+02 -0.87708856902E+01 -0.30161906731E+02  0.38899173961E+02  0.00000000000E+00 0.  1.
<mgrwt>
<rscale>  0 0.89907508E+02</rscale>
<asrwt>0</asrwt>
<pdfrwt beam="1">  1        1 0.24049628E-02 0.89907508E+02</pdfrwt>
<pdfrwt beam="2">  1       -1 0.19888263E-01 0.89907508E+02</pdfrwt>
<totfact> 0.80172154E+04</totfact>
</mgrwt>
</event>
<event>
 7    1  0.2911475E-009  0.9138947E+02  0.7818608E-02  0.1299521E+00
         -1   -1    0    0    0  501 -0.00000000000E+00  0.00000000000E+00  0.10286992058E+03  0.10286992070E+03  0.50400000000E-02 0.  1.
          1   -1    0    0  501    0  0.00000000000E+00 -0.00000000000E+00 -0.20297562457E+02  0.20297563083E+02  0.50400000000E-02 0. -1.
         23    2    1    2    0    0  0.88817841970E-15  0.00000000000E+00  0.82572358121E+02  0.12316748378E+03  0.91389467314E+02 0.  0.
    9000005    2    3    3    0    0 -0.45951413201E+01  0.14049467139E+02  0.99299996907E+02  0.10084447435E+03  0.95192316600E+01 0.  0.
         22    1    3    3    0    0  0.45951413201E+01 -0.14049467139E+02 -0.16727638786E+02  0.22323009430E+02  0.00000000000E+00 0. -1.
         22    1    4    4    0    0 -0.51813384942E+00  0.12463061510E+02  0.58778460679E+02  0.60087467950E+02  0.00000000000E+00 0. -1.
         22    1    4    4    0    0 -0.40770074707E+01  0.15864056298E+01  0.40521536228E+02  0.40757006404E+02  0.00000000000E+00 0. -1.
<mgrwt>
<rscale>  0 0.91389467E+02</rscale>
<asrwt>0</asrwt>
<pdfrwt beam="2">  1        1 0.31227019E-02 0.91389467E+02</pdfrwt>
<pdfrwt beam="1">  1       -1 0.15826142E-01 0.91389467E+02</pdfrwt>
<totfact> 0.80455727E+04</totfact>
</mgrwt>
</event>
<event>
 7    1  0.2911475E-009  0.8998471E+02  0.7818608E-02  0.1302889E+00
         -1   -1    0    0    0  501 -0.00000000000E+00  0.00000000000E+00  0.92017184297E+01  0.92017198100E+01  0.50400000000E-02 0.  1.
          1   -1    0    0  501    0  0.00000000000E+00 -0.00000000000E+00 -0.21999280644E+03  0.21999280650E+03  0.50400000000E-02 0. -1.
         23    2    1    2    0    0  0.71054273576E-14 -0.35527136788E-14 -0.21079108801E+03  0.22919452631E+03  0.89984710395E+02 0.  0.
    9000005    2    3    3    0    0  0.41374555240E+02 -0.17233615854E+02 -0.10542640820E+03  0.11469314165E+03  0.55621811576E+01 0.  0.
         22    1    3    3    0    0 -0.41374555240E+02  0.17233615854E+02 -0.10536467981E+03  0.11450138465E+03  0.00000000000E+00 0. -1.
         22    1    4    4    0    0  0.37740867193E+02 -0.16131223723E+02 -0.99746877244E+02  0.10786115591E+03  0.00000000000E+00 0.  1.
         22    1    4    4    0    0  0.36336880470E+01 -0.11023921304E+01 -0.56795309581E+01  0.68319857389E+01  0.00000000000E+00 0.  1.
<mgrwt>
<rscale>  0 0.89984710E+02</rscale>
<asrwt>0</asrwt>
<pdfrwt beam="2">  1        1 0.33845043E-01 0.89984710E+02</pdfrwt>
<pdfrwt beam="1">  1       -1 0.14156493E-02 0.89984710E+02</pdfrwt>
<totfact> 0.12494303E+05</totfact>
</mgrwt>
</event>
<event>
 7    1  0.2911475E-009  0.8382475E+02  0.7818608E-02  0.1318535E+00
         -1   -1    0    0    0  501 -0.00000000000E+00  0.00000000000E+00  0.15801690005E+02  0.15801690808E+02  0.50400000000E-02 0.  1.
          1   -1    0    0  501    0  0.00000000000E+00 -0.00000000000E+00 -0.11116831379E+03  0.11116831391E+03  0.50400000000E-02 0. -1.
         23    2    1    2    0    0  0.00000000000E+00  0.00000000000E+00 -0.95366623790E+02  0.12697000472E+03  0.83824752697E+02 0.  0.
    9000005    2    3    3    0    0 -0.78954080285E+01 -0.34271519297E+02 -0.13991540016E+02  0.38320251406E+02  0.59836421092E+01 0.  0.
         22    1    3    3    0    0  0.78954080285E+01  0.34271519297E+02 -0.81375083774E+02  0.88649753311E+02  0.00000000000E+00 0. -1.
         22    1    4    4    0    0 -0.38006572871E+01 -0.21715913310E+02 -0.11555991939E+02  0.24891099542E+02  0.00000000000E+00 0.  1.
         22    1    4    4    0    0 -0.40947507414E+01 -0.12555605988E+02 -0.24355480761E+01  0.13429151864E+02  0.00000000000E+00 0.  1.
<mgrwt>
<rscale>  0 0.83824753E+02</rscale>
<asrwt>0</asrwt>
<pdfrwt beam="2">  1        1 0.17102817E-01 0.83824753E+02</pdfrwt>
<pdfrwt beam="1">  1       -1 0.24310294E-02 0.83824753E+02</pdfrwt>
<totfact> 0.13344327E+05</totfact>
</mgrwt>
</event>
<event>
 7    1  0.2911475E-009  0.9047164E+02  0.7818608E-02  0.1301714E+00
         -1   -1    0    0    0  501 -0.00000000000E+00  0.00000000000E+00  0.22406342057E+02  0.22406342624E+02  0.50400000000E-02 0.  1.
          1   -1    0    0  501    0  0.00000000000E+00 -0.00000000000E+00 -0.91325902513E+02  0.91325902652E+02  0.50400000000E-02 0. -1.
         23    2    1    2    0    0  0.44408920985E-15 -0.35527136788E-14 -0.68919560455E+02  0.11373224528E+03  0.90471640873E+02 0.  0.
    9000005    2    3    3    0    0  0.30217100108E+01 -0.29665831741E+02  0.65325895455E+01  0.32601368022E+02  0.11444744053E+02 0.  0.
         22    1    3    3    0    0 -0.30217100108E+01  0.29665831741E+02 -0.75452150001E+02  0.81130877254E+02  0.00000000000E+00 0. -1.
         22    1    4    4    0    0  0.28088453697E+00  0.21319779684E+00 -0.14995050751E+01  0.15404106251E+01  0.00000000000E+00 0.  1.
         22    1    4    4    0    0  0.27408254738E+01 -0.29879029538E+02  0.80320946206E+01  0.31060957397E+02  0.00000000000E+00 0.  1.
<mgrwt>
<rscale>  0 0.90471641E+02</rscale>
<asrwt>0</asrwt>
<pdfrwt beam="2">  1        1 0.14050139E-01 0.90471641E+02</pdfrwt>
<pdfrwt beam="1">  1       -1 0.34471296E-02 0.90471641E+02</pdfrwt>
<totfact> 0.10510941E+05</totfact>
</mgrwt>
</event>
<event>
 7    1  0.2911475E-009  0.8994326E+02  0.7818608E-02  0.1302989E+00
         -1   -1    0    0    0  501 -0.00000000000E+00  0.00000000000E+00  0.77831747029E+01  0.77831763347E+01  0.50400000000E-02 0.  1.
          1   -1    0    0  501    0  0.00000000000E+00 -0.00000000000E+00 -0.25984863509E+03  0.25984863513E+03  0.50400000000E-02 0. -1.
         23    2    1    2    0    0  0.00000000000E+00  0.00000000000E+00 -0.25206546038E+03  0.26763181147E+03  0.89943260961E+02 0.  0.
    9000005    2    3    3    0    0  0.80224617304E+01  0.32968799587E+02 -0.21272702201E+03  0.21568169721E+03  0.10700793308E+02 0.  0.
         22    1    3    3    0    0 -0.80224617304E+01 -0.32968799587E+02 -0.39338438371E+02  0.51950114262E+02  0.00000000000E+00 0.  1.
         22    1    4    4    0    0  0.20592724118E+01  0.54048309139E+01 -0.67119134571E+02  0.67367878293E+02  0.00000000000E+00 0. -1.
         22    1    4    4    0    0  0.59631893187E+01  0.27563968673E+02 -0.14560788744E+03  0.14831381891E+03  0.00000000000E+00 0. -1.
<mgrwt>
<rscale>  0 0.89943261E+02</rscale>
<asrwt>0</asrwt>
<pdfrwt beam="2">  1        1 0.39976706E-01 0.89943261E+02</pdfrwt>
<pdfrwt beam="1">  1       -1 0.11974118E-02 0.89943261E+02</pdfrwt>
<totfact> 0.12921491E+05</totfact>
</mgrwt>
</event>
<event>
 7    1  0.2911475E-009  0.9606753E+02  0.7818608E-02  0.1288790E+00
          1   -1    0    0  501    0  0.00000000000E+00  0.00000000000E+00  0.34792537995E+03  0.34792537998E+03  0.50400000000E-02 0. -1.
         -1   -1    0    0    0  501 -0.00000000000E+00 -0.00000000000E+00 -0.66314281196E+01  0.66314300349E+01  0.50400000000E-02 0.  1.
         23    2    1    2    0    0  0.00000000000E+00  0.00000000000E+00  0.34129395183E+03  0.35455681002E+03  0.96067528210E+02 0.  0.
    9000005    2    3    3    0    0  0.35136453741E+02 -0.23630415739E+02  0.25427756472E+03  0.25778481740E+03  0.17219856027E+01 0.  0.
         22    1    3    3    0    0 -0.35136453741E+02  0.23630415739E+02  0.87016387110E+02  0.96771992617E+02  0.00000000000E+00 0.  1.
         22    1    4    4    0    0  0.17986219276E+02 -0.12718088430E+02  0.12805140369E+03  0.12993235103E+03  0.00000000000E+00 0. -1.
         22    1    4    4    0    0  0.17150234465E+02 -0.10912327308E+02  0.12622616102E+03  0.12785246637E+03  0.00000000000E+00 0. -1.
<mgrwt>
<rscale>  0 0.96067528E+02</rscale>
<asrwt>0</asrwt>
<pdfrwt beam="1">  1        1 0.53526980E-01 0.96067528E+02</pdfrwt>
<pdfrwt beam="2">  1       -1 0.10202199E-02 0.96067528E+02</pdfrwt>
<totfact> 0.11455721E+05</totfact>
</mgrwt>
</event>
<event>
 7    1  0.2911475E-009  0.9256554E+02  0.7818608E-02  0.1296755E+00
         -1   -1    0    0    0  501 -0.00000000000E+00  0.00000000000E+00  0.19812537390E+02  0.19812538031E+02  0.50400000000E-02 0. -1.
          1   -1    0    0  501    0  0.00000000000E+00 -0.00000000000E+00 -0.10811815385E+03  0.10811815397E+03  0.50400000000E-02 0.  1.
         23    2    1    2    0    0  0.00000000000E+00 -0.71054273576E-14 -0.88305616458E+02  0.12793069200E+03  0.92565544653E+02 0.  0.
    9000005    2    3    3    0    0  0.40891881826E+01 -0.44254797005E+02 -0.28990151412E+02  0.53812321052E+02  0.89514524069E+01 0.  0.
         22    1    3    3    0    0 -0.40891881826E+01  0.44254797005E+02 -0.59315465046E+02  0.74118370945E+02  0.00000000000E+00 0.  1.
         22    1    4    4    0    0  0.38699773285E+01 -0.38728518627E+02 -0.21386763261E+02  0.44410229929E+02  0.00000000000E+00 0. -1.
         22    1    4    4    0    0  0.21921085414E+00 -0.55262783773E+01 -0.76033881513E+01  0.94020911227E+01  0.00000000000E+00 0. -1.
<mgrwt>
<rscale>  0 0.92565545E+02</rscale>
<asrwt>0</asrwt>
<pdfrwt beam="2">  1        1 0.16633562E-01 0.92565545E+02</pdfrwt>
<pdfrwt beam="1">  1       -1 0.30480828E-02 0.92565545E+02</pdfrwt>
<totfact> 0.10155831E+05</totfact>
</mgrwt>
</event>
<event>
 7    1  0.2911475E-009  0.9320721E+02  0.7818608E-02  0.1295266E+00
          1   -1    0    0  501    0  0.00000000000E+00  0.00000000000E+00  0.60525389166E+03  0.60525389169E+03  0.50400000000E-02 0. -1.
         -1   -1    0    0    0  501 -0.00000000000E+00 -0.00000000000E+00 -0.35884030105E+01  0.35884065499E+01  0.50400000000E-02 0.  1.
         23    2    1    2    0    0  0.44408920985E-15  0.00000000000E+00  0.60166548865E+03  0.60884229824E+03  0.93207209395E+02 0.  0.
    9000005    2    3    3    0    0 -0.29368729756E+01 -0.45515180850E+02  0.34668935107E+03  0.34981896406E+03  0.99772019737E+01 0.  0.
         22    1    3    3    0    0  0.29368729756E+01  0.45515180850E+02  0.25497613758E+03  0.25902333418E+03  0.00000000000E+00 0.  1.
         22    1    4    4    0    0 -0.32303428921E+01 -0.25492201993E+02  0.22911830356E+03  0.23055473212E+03  0.00000000000E+00 0.  1.
         22    1    4    4    0    0  0.29346991652E+00 -0.20022978856E+02  0.11757104751E+03  0.11926423194E+03  0.00000000000E+00 0.  1.
<mgrwt>
<rscale>  0 0.93207209E+02</rscale>
<asrwt>0</asrwt>
<pdfrwt beam="1">  1        1 0.93116018E-01 0.93207209E+02</pdfrwt>
<pdfrwt beam="2">  1       -1 0.55206207E-03 0.93207209E+02</pdfrwt>
<totfact> 0.13362744E+05</totfact>
</mgrwt>
</event>
<event>
 7    1  0.2911475E-009  0.9122016E+02  0.7818608E-02  0.1299924E+00
         -1   -1    0    0    0  501 -0.00000000000E+00  0.00000000000E+00  0.10493754220E+02  0.10493755431E+02  0.50400000000E-02 0.  1.
          1   -1    0    0  501    0  0.00000000000E+00 -0.00000000000E+00 -0.19823975026E+03  0.19823975032E+03  0.50400000000E-02 0. -1.
         23    2    1    2    0    0  0.00000000000E+00 -0.35527136788E-14 -0.18774599604E+03  0.20873350575E+03  0.91220158933E+02 0.  0.
    9000005    2    3    3    0    0 -0.32299332624E+02  0.30981930250E+02 -0.92645904184E+02  0.10362806174E+03  0.12344420948E+02 0.  0.
         22    1    3    3    0    0  0.32299332624E+02 -0.30981930250E+02 -0.95100091852E+02  0.10510544401E+03  0.00000000000E+00 0.  1.
         22    1    4    4    0    0 -0.99427889059E+01  0.50391388997E+01 -0.14356112204E+02  0.18175531071E+02  0.00000000000E+00 0. -1.
         22    1    4    4    0    0 -0.22356543718E+02  0.25942791351E+02 -0.78289791980E+02  0.85452530672E+02  0.00000000000E+00 0. -1.
<mgrwt>
<rscale>  0 0.91220159E+02</rscale>
<asrwt>0</asrwt>
<pdfrwt beam="2">  1        1 0.30498420E-01 0.91220159E+02</pdfrwt>
<pdfrwt beam="1">  1       -1 0.16144240E-02 0.91220159E+02</pdfrwt>
<totfact> 0.11805265E+05</totfact>
</mgrwt>
</event>
<event>
 7    1  0.2911475E-009  0.8286923E+02  0.7818608E-02  0.1321101E+00
         -1   -1    0    0    0  501 -0.00000000000E+00  0.00000000000E+00  0.30449032943E+03  0.30449032948E+03  0.50400000000E-02 0.  1.
          1   -1    0    0  501    0  0.00000000000E+00 -0.00000000000E+00 -0.56383632133E+01  0.56383654659E+01  0.50400000000E-02 0. -1.
         23    2    1    2    0    0  0.35527136788E-14 -0.35527136788E-14  0.29885196622E+03  0.31012869494E+03  0.82869232603E+02 0.  0.
    9000005    2    3    3    0    0  0.25660390788E+02 -0.23650259739E+02  0.22861110230E+03  0.23169675371E+03  0.14232327414E+02 0.  0.
         22    1    3    3    0    0 -0.25660390788E+02  0.23650259739E+02  0.70240863922E+02  0.78431941234E+02  0.00000000000E+00 0.  1.
         22    1    4    4    0    0  0.40149613821E+01 -0.11520737847E+02  0.56170636874E+02  0.57480325001E+02  0.00000000000E+00 0. -1.
         22    1    4    4    0    0  0.21645429406E+02 -0.12129521893E+02  0.17244046542E+03  0.17421642871E+03  0.00000000000E+00 0. -1.
<mgrwt>
<rscale>  0 0.82869233E+02</rscale>
<asrwt>0</asrwt>
<pdfrwt beam="2">  1        1 0.86744043E-03 0.82869233E+02</pdfrwt>
<pdfrwt beam="1">  1       -1 0.46844679E-01 0.82869233E+02</pdfrwt>
<totfact> 0.77254606E+04</totfact>
</mgrwt>
</event>
<event>
 7    1  0.2911475E-009  0.9402983E+02  0.7818608E-02  0.1293376E+00
         -1   -1    0    0    0  501 -0.00000000000E+00  0.00000000000E+00  0.89081654435E+02  0.89081654578E+02  0.50400000000E-02 0.  1.
          1   -1    0    0  501    0  0.00000000000E+00 -0.00000000000E+00 -0.24813214649E+02  0.24813215161E+02  0.50400000000E-02 0. -1.
         23    2    1    2    0    0  0.00000000000E+00  0.00000000000E+00  0.64268439786E+02  0.11389486974E+03  0.94029830375E+02 0.  0.
    9000005    2    3    3    0    0  0.17418578831E+02  0.22000775165E+02  0.77317687642E+02  0.82947755721E+02  0.10717479205E+02 0.  0.
         22    1    3    3    0    0 -0.17418578831E+02 -0.22000775165E+02 -0.13049247856E+02  0.30947114017E+02  0.00000000000E+00 0. -1.
         22    1    4    4    0    0  0.42766805584E+01  0.27236068061E+01  0.27163362413E+02  0.27632522292E+02  0.00000000000E+00 0.  1.
         22    1    4    4    0    0  0.13141898273E+02  0.19277168359E+02  0.50154325229E+02  0.55315233430E+02  0.00000000000E+00 0.  1.
<mgrwt>
<rscale>  0 0.94029830E+02</rscale>
<asrwt>0</asrwt>
<pdfrwt beam="2">  1        1 0.38174177E-02 0.94029830E+02</pdfrwt>
<pdfrwt beam="1">  1       -1 0.13704870E-01 0.94029830E+02</pdfrwt>
<totfact> 0.76764420E+04</totfact>
</mgrwt>
</event>
<event>
 7    1  0.2911475E-009  0.9594836E+02  0.7818608E-02  0.1289054E+00
          1   -1    0    0  501    0  0.00000000000E+00  0.00000000000E+00  0.34051758955E+02  0.34051759328E+02  0.50400000000E-02 0. -1.
         -1   -1    0    0    0  501 -0.00000000000E+00 -0.00000000000E+00 -0.67588927011E+02  0.67588927199E+02  0.50400000000E-02 0.  1.
         23    2    1    2    0    0  0.00000000000E+00  0.00000000000E+00 -0.33537168056E+02  0.10164068653E+03  0.95948358592E+02 0.  0.
    9000005    2    3    3    0    0 -0.23342690111E+02 -0.23731949600E+02 -0.52290860503E+02  0.63433519741E+02  0.13468137255E+02 0.  0.
         22    1    3    3    0    0  0.23342690111E+02  0.23731949600E+02  0.18753692447E+02  0.38207166787E+02  0.00000000000E+00 0. -1.
         22    1    4    4    0    0 -0.36763189878E+01 -0.63981655583E+01 -0.22854253664E+02  0.24016010376E+02  0.00000000000E+00 0. -1.
         22    1    4    4    0    0 -0.19666371124E+02 -0.17333784042E+02 -0.29436606838E+02  0.39417509365E+02  0.00000000000E+00 0. -1.
<mgrwt>
<rscale>  0 0.95948359E+02</rscale>
<asrwt>0</asrwt>
<pdfrwt beam="1">  1        1 0.52387322E-02 0.95948359E+02</pdfrwt>
<pdfrwt beam="2">  1       -1 0.10398296E-01 0.95948359E+02</pdfrwt>
<totfact> 0.76417276E+04</totfact>
</mgrwt>
</event>
<event>
 7    1  0.2911475E-009  0.8084468E+02  0.7818608E-02  0.1326671E+00
          1   -1    0    0  501    0  0.00000000000E+00  0.00000000000E+00  0.63756503326E+01  0.63756523246E+01  0.50400000000E-02 0. -1.
         -1   -1    0    0    0  501 -0.00000000000E+00 -0.00000000000E+00 -0.25628212944E+03  0.25628212949E+03  0.50400000000E-02 0.  1.
         23    2    1    2    0    0  0.00000000000E+00 -0.17763568394E-14 -0.24990647910E+03  0.26265778181E+03  0.80844678536E+02 0.  0.
    9000005    2    3    3    0    0 -0.13470487170E+02 -0.15657364327E+02 -0.23674073857E+03  0.23816403146E+03  0.15789917736E+02 0.  0.
         22    1    3    3    0    0  0.13470487170E+02  0.15657364327E+02 -0.13165740535E+02  0.24493750348E+02  0.00000000000E+00 0. -1.
         22    1    4    4    0    0  0.19398208218E+01 -0.44210526118E+01 -0.97968354221E+02  0.98087241983E+02  0.00000000000E+00 0.  1.
         22    1    4    4    0    0 -0.15410307992E+02 -0.11236311715E+02 -0.13877238435E+03  0.14007678948E+03  0.00000000000E+00 0.  1.
<mgrwt>
<rscale>  0 0.80844679E+02</rscale>
<asrwt>0</asrwt>
<pdfrwt beam="1">  1        1 0.98086964E-03 0.80844679E+02</pdfrwt>
<pdfrwt beam="2">  1       -1 0.39428012E-01 0.80844679E+02</pdfrwt>
<totfact> 0.87794510E+04</totfact>
</mgrwt>
</event>
<event>
 7    1  0.2911475E-009  0.9299766E+02  0.7818608E-02  0.1295751E+00
          1   -1    0    0  501    0  0.00000000000E+00  0.00000000000E+00  0.57384735827E+02  0.57384736049E+02  0.50400000000E-02 0. -1.
         -1   -1    0    0    0  501 -0.00000000000E+00 -0.00000000000E+00 -0.37677980142E+02  0.37677980479E+02  0.50400000000E-02 0.  1.
         23    2    1    2    0    0  0.44408920985E-15  0.35527136788E-14  0.19706755686E+02  0.95062716528E+02  0.92997655099E+02 0.  0.
    9000005    2    3    3    0    0 -0.22106533927E+01  0.28795691705E+02  0.45616796923E+02  0.56263114905E+02  0.15829311042E+02 0.  0.
         22    1    3    3    0    0  0.22106533927E+01 -0.28795691705E+02 -0.25910041238E+02  0.38799601623E+02  0.00000000000E+00 0.  1.
         22    1    4    4    0    0  0.25155353193E+01  0.49604507940E+01  0.12846834428E+01  0.57082748331E+01  0.00000000000E+00 0. -1.
         22    1    4    4    0    0 -0.47261887120E+01  0.23835240911E+02  0.44332113480E+02  0.50554840071E+02  0.00000000000E+00 0. -1.
<mgrwt>
<rscale>  0 0.92997655E+02</rscale>
<asrwt>0</asrwt>
<pdfrwt beam="1">  1        1 0.88284209E-02 0.92997655E+02</pdfrwt>
<pdfrwt beam="2">  1       -1 0.57966124E-02 0.92997655E+02</pdfrwt>
<totfact> 0.90594882E+04</totfact>
</mgrwt>
</event>
<event>
 7    1  0.2911475E-009  0.1160678E+03  0.7818608E-02  0.1249729E+00
          1   -1    0    0  501    0  0.00000000000E+00  0.00000000000E+00  0.11365987727E+02  0.11365988844E+02  0.50400000000E-02 0. -1.
         -1   -1    0    0    0  501 -0.00000000000E+00 -0.00000000000E+00 -0.29631697677E+03  0.29631697682E+03  0.50400000000E-02 0.  1.
         23    2    1    2    0    0 -0.35527136788E-14 -0.88817841970E-15 -0.28495098905E+03  0.30768296566E+03  0.11606783016E+03 0.  0.
    9000005    2    3    3    0    0  0.29799508519E+02 -0.62152091440E+01 -0.27341420836E+03  0.27512936615E+03  0.37681893857E+01 0.  0.
         22    1    3    3    0    0 -0.29799508519E+02  0.62152091440E+01 -0.11536780689E+02  0.32553599514E+02  0.00000000000E+00 0. -1.
         22    1    4    4    0    0  0.26426699717E+01  0.50160288358E+00 -0.22254752989E+02  0.22416720113E+02  0.00000000000E+00 0. -1.
         22    1    4    4    0    0  0.27156838547E+02 -0.67168120276E+01 -0.25115945537E+03  0.25271264603E+03  0.00000000000E+00 0. -1.
<mgrwt>
<rscale>  0 0.11606783E+03</rscale>
<asrwt>0</asrwt>
<pdfrwt beam="1">  1        1 0.17486138E-02 0.11606783E+03</pdfrwt>
<pdfrwt beam="2">  1       -1 0.45587221E-01 0.11606783E+03</pdfrwt>
<totfact> 0.32223742E+04</totfact>
</mgrwt>
</event>
<event>
 7    1  0.2911475E-009  0.9090014E+02  0.7818608E-02  0.1300686E+00
         -1   -1    0    0    0  501 -0.00000000000E+00  0.00000000000E+00  0.41553062024E+03  0.41553062027E+03  0.50400000000E-02 0.  1.
          1   -1    0    0  501    0  0.00000000000E+00 -0.00000000000E+00 -0.49712542720E+01  0.49712568268E+01  0.50400000000E-02 0. -1.
         23    2    1    2    0    0  0.00000000000E+00  0.00000000000E+00  0.41055936597E+03  0.42050187710E+03  0.90900141135E+02 0.  0.
    9000005    2    3    3    0    0  0.27013006007E+02 -0.36264993651E+02  0.18960016712E+03  0.19496292300E+03  0.41792004241E+01 0.  0.
         22    1    3    3    0    0 -0.27013006007E+02  0.36264993651E+02  0.22095919885E+03  0.22553895409E+03  0.00000000000E+00 0.  1.
         22    1    4    4    0    0  0.23658469169E+02 -0.33547769976E+02  0.17395483066E+03  0.17873292686E+03  0.00000000000E+00 0. -1.
         22    1    4    4    0    0  0.33545368382E+01 -0.27172236752E+01  0.15645336460E+02  0.16229996144E+02  0.00000000000E+00 0. -1.
<mgrwt>
<rscale>  0 0.90900141E+02</rscale>
<asrwt>0</asrwt>
<pdfrwt beam="2">  1        1 0.76480800E-03 0.90900141E+02</pdfrwt>
<pdfrwt beam="1">  1       -1 0.63927834E-01 0.90900141E+02</pdfrwt>
<totfact> 0.52674943E+04</totfact>
</mgrwt>
</event>
<event>
 7    1  0.2911475E-009  0.9320458E+02  0.7818608E-02  0.1295272E+00
          1   -1    0    0  501    0  0.00000000000E+00  0.00000000000E+00  0.28957769990E+03  0.28957769994E+03  0.50400000000E-02 0. -1.
         -1   -1    0    0    0  501 -0.00000000000E+00 -0.00000000000E+00 -0.74997950032E+01  0.74997966966E+01  0.50400000000E-02 0.  1.
         23    2    1    2    0    0  0.00000000000E+00  0.71054273576E-14  0.28207790489E+03  0.29707749664E+03  0.93204584539E+02 0.  0.
    9000005    2    3    3    0    0 -0.11454409579E+01  0.45224460653E+02  0.13441848263E+03  0.14264346911E+03  0.15240306087E+02 0.  0.
         22    1    3    3    0    0  0.11454409579E+01 -0.45224460653E+02  0.14765942226E+03  0.15443402753E+03  0.00000000000E+00 0. -1.
         22    1    4    4    0    0 -0.58227528604E+01  0.19538527009E+02  0.43323764232E+02  0.47881176216E+02  0.00000000000E+00 0. -1.
         22    1    4    4    0    0  0.46773119025E+01  0.25685933644E+02  0.91094718398E+02  0.94762292890E+02  0.00000000000E+00 0. -1.
<mgrwt>
<rscale>  0 0.93204585E+02</rscale>
<asrwt>0</asrwt>
<pdfrwt beam="1">  1        1 0.44550406E-01 0.93204585E+02</pdfrwt>
<pdfrwt beam="2">  1       -1 0.11538150E-02 0.93204585E+02</pdfrwt>
<totfact> 0.11999728E+05</totfact>
</mgrwt>
</event>
<event>
 7    1  0.2911475E-009  0.9148106E+02  0.7818608E-02  0.1299304E+00
         -1   -1    0    0    0  501 -0.00000000000E+00  0.00000000000E+00  0.86627517385E+02  0.86627517532E+02  0.50400000000E-02 0.  1.
          1   -1    0    0  501    0  0.00000000000E+00 -0.00000000000E+00 -0.24151635349E+02  0.24151635875E+02  0.50400000000E-02 0. -1.
         23    2    1    2    0    0  0.35527136788E-14  0.35527136788E-14  0.62475882036E+02  0.11077915341E+03  0.91481063578E+02 0.  0.
    9000005    2    3    3    0    0  0.26550931062E+02  0.24540342743E+02  0.26407010135E+00  0.38824376593E+02  0.14145038798E+02 0.  0.
         22    1    3    3    0    0 -0.26550931062E+02 -0.24540342743E+02  0.62211811934E+02  0.71954776814E+02  0.00000000000E+00 0.  1.
         22    1    4    4    0    0  0.55086716738E+01  0.31307419411E+01  0.54536476579E+01  0.83599809502E+01  0.00000000000E+00 0.  1.
         22    1    4    4    0    0  0.21042259388E+02  0.21409600802E+02 -0.51895775565E+01  0.30464395643E+02  0.00000000000E+00 0.  1.
<mgrwt>
<rscale>  0 0.91481064E+02</rscale>
<asrwt>0</asrwt>
<pdfrwt beam="2">  1        1 0.37156362E-02 0.91481064E+02</pdfrwt>
<pdfrwt beam="1">  1       -1 0.13327310E-01 0.91481064E+02</pdfrwt>
<totfact> 0.82789992E+04</totfact>
</mgrwt>
</event>
<event>
 7    1  0.2911475E-009  0.9115871E+02  0.7818608E-02  0.1300070E+00
         -1   -1    0    0    0  501 -0.00000000000E+00  0.00000000000E+00  0.71470183111E+02  0.71470183289E+02  0.50400000000E-02 0.  1.
          1   -1    0    0  501    0  0.00000000000E+00 -0.00000000000E+00 -0.29067751758E+02  0.29067752195E+02  0.50400000000E-02 0. -1.
         23    2    1    2    0    0  0.00000000000E+00 -0.35527136788E-14  0.42402431354E+02  0.10053793548E+03  0.91158709329E+02 0.  0.
    9000005    2    3    3    0    0 -0.24310621073E+02 -0.30092502752E+02 -0.39027583826E+01  0.40199426923E+02  0.10207711942E+02 0.  0.
         22    1    3    3    0    0  0.24310621073E+02  0.30092502752E+02  0.46305189736E+02  0.60338508561E+02  0.00000000000E+00 0.  1.
         22    1    4    4    0    0 -0.88139267591E+01 -0.54421630012E+01 -0.39398137717E+01  0.11082624942E+02  0.00000000000E+00 0.  1.
         22    1    4    4    0    0 -0.15496694314E+02 -0.24650339751E+02  0.37055389133E-01  0.29116801981E+02  0.00000000000E+00 0.  1.
<mgrwt>
<rscale>  0 0.91158709E+02</rscale>
<asrwt>0</asrwt>
<pdfrwt beam="2">  1        1 0.44719619E-02 0.91158709E+02</pdfrwt>
<pdfrwt beam="1">  1       -1 0.10995413E-01 0.91158709E+02</pdfrwt>
<totfact> 0.86291750E+04</totfact>
</mgrwt>
</event>
<event>
 7    1  0.2911475E-009  0.9188122E+02  0.7818608E-02  0.1298359E+00
          1   -1    0    0  501    0  0.00000000000E+00  0.00000000000E+00  0.14692101278E+03  0.14692101287E+03  0.50400000000E-02 0. -1.
         -1   -1    0    0    0  501 -0.00000000000E+00 -0.00000000000E+00 -0.14365129436E+02  0.14365130320E+02  0.50400000000E-02 0.  1.
         23    2    1    2    0    0  0.00000000000E+00  0.00000000000E+00  0.13255588335E+03  0.16128614319E+03  0.91881215572E+02 0.  0.
    9000005    2    3    3    0    0  0.44123873632E+02 -0.93684755420E+01  0.68850984472E+02  0.83228480536E+02  0.12322229962E+02 0.  0.
         22    1    3    3    0    0 -0.44123873632E+02  0.93684755420E+01  0.63704898875E+02  0.78057662653E+02  0.00000000000E+00 0. -1.
         22    1    4    4    0    0  0.38909315436E+02 -0.65156886359E+01  0.51410871693E+02  0.64803292774E+02  0.00000000000E+00 0. -1.
         22    1    4    4    0    0  0.52145581962E+01 -0.28527869061E+01  0.17440112779E+02  0.18425187762E+02  0.00000000000E+00 0. -1.
<mgrwt>
<rscale>  0 0.91881216E+02</rscale>
<asrwt>0</asrwt>
<pdfrwt beam="1">  1        1 0.22603234E-01 0.91881216E+02</pdfrwt>
<pdfrwt beam="2">  1       -1 0.22100199E-02 0.91881216E+02</pdfrwt>
<totfact> 0.10940759E+05</totfact>
</mgrwt>
</event>
<event>
 7    1  0.2911475E-009  0.8938895E+02  0.7818608E-02  0.1304338E+00
          1   -1    0    0  501    0  0.00000000000E+00  0.00000000000E+00  0.74281618540E+01  0.74281635639E+01  0.50400000000E-02 0. -1.
         -1   -1    0    0    0  501 -0.00000000000E+00 -0.00000000000E+00 -0.26892193342E+03  0.26892193346E+03  0.50400000000E-02 0.  1.
         23    2    1    2    0    0  0.00000000000E+00  0.35527136788E-14 -0.26149377156E+03  0.27635009703E+03  0.89388945408E+02 0.  0.
    9000005    2    3    3    0    0 -0.33622350444E+02 -0.27711334770E+02 -0.10608278301E+03  0.11494701190E+03  0.78024464607E+01 0.  0.
         22    1    3    3    0    0  0.33622350444E+02  0.27711334770E+02 -0.15541098855E+03  0.16140308512E+03  0.00000000000E+00 0.  1.
         22    1    4    4    0    0 -0.77699585001E+01 -0.76731441862E+01 -0.18866032327E+02  0.21798545194E+02  0.00000000000E+00 0. -1.
         22    1    4    4    0    0 -0.25852391944E+02 -0.20038190584E+02 -0.87216750683E+02  0.93148466711E+02  0.00000000000E+00 0. -1.
<mgrwt>
<rscale>  0 0.89388945E+02</rscale>
<asrwt>0</asrwt>
<pdfrwt beam="1">  1        1 0.11427945E-02 0.89388945E+02</pdfrwt>
<pdfrwt beam="2">  1       -1 0.41372598E-01 0.89388945E+02</pdfrwt>
<totfact> 0.66482698E+04</totfact>
</mgrwt>
</event>
<event>
 7    1  0.2911475E-009  0.9151328E+02  0.7818608E-02  0.1299228E+00
         -1   -1    0    0    0  501 -0.00000000000E+00  0.00000000000E+00  0.36342144842E+02  0.36342145191E+02  0.50400000000E-02 0.  1.
          1   -1    0    0  501    0  0.00000000000E+00 -0.00000000000E+00 -0.57609973244E+02  0.57609973465E+02  0.50400000000E-02 0. -1.
         23    2    1    2    0    0 -0.88817841970E-15  0.00000000000E+00 -0.21267828402E+02  0.93952118656E+02  0.91513278135E+02 0.  0.
    9000005    2    3    3    0    0 -0.38509696992E+01 -0.41064303571E+02  0.63997575131E+01  0.44287218517E+02  0.14808572933E+02 0.  0.
         22    1    3    3    0    0  0.38509696992E+01  0.41064303571E+02 -0.27667585915E+02  0.49664900139E+02  0.00000000000E+00 0. -1.
         22    1    4    4    0    0  0.21816353110E+01 -0.32180547802E+02  0.84769535170E+01  0.33349751579E+02  0.00000000000E+00 0.  1.
         22    1    4    4    0    0 -0.60326050102E+01 -0.88837557699E+01 -0.20771960039E+01  0.10937466938E+02  0.00000000000E+00 0.  1.
<mgrwt>
<rscale>  0 0.91513278E+02</rscale>
<asrwt>0</asrwt>
<pdfrwt beam="2">  1        1 0.88630728E-02 0.91513278E+02</pdfrwt>
<pdfrwt beam="1">  1       -1 0.55910993E-02 0.91513278E+02</pdfrwt>
<totfact> 0.94804936E+04</totfact>
</mgrwt>
</event>
<event>
 7    1  0.2911475E-009  0.8945366E+02  0.7818608E-02  0.1304180E+00
         -1   -1    0    0    0  501 -0.00000000000E+00  0.00000000000E+00  0.31194518221E+02  0.31194518628E+02  0.50400000000E-02 0.  1.
          1   -1    0    0  501    0  0.00000000000E+00 -0.00000000000E+00 -0.64129511565E+02  0.64129511763E+02  0.50400000000E-02 0. -1.
         23    2    1    2    0    0  0.00000000000E+00 -0.17763568394E-14 -0.32934993344E+02  0.95324030391E+02  0.89453658301E+02 0.  0.
    9000005    2    3    3    0    0  0.40458577988E+02 -0.84705124281E+01 -0.31033869487E+02  0.53944562228E+02  0.15435952350E+02 0.  0.
         22    1    3    3    0    0 -0.40458577988E+02  0.84705124281E+01 -0.19011238562E+01  0.41379468164E+02  0.00000000000E+00 0.  1.
         22    1    4    4    0    0  0.32806756159E+02 -0.63414293457E+00 -0.26122175262E+02  0.41941070889E+02  0.00000000000E+00 0.  1.
         22    1    4    4    0    0  0.76518218285E+01 -0.78363694935E+01 -0.49116942259E+01  0.12003491338E+02  0.00000000000E+00 0.  1.
<mgrwt>
<rscale>  0 0.89453658E+02</rscale>
<asrwt>0</asrwt>
<pdfrwt beam="2">  1        1 0.98660787E-02 0.89453658E+02</pdfrwt>
<pdfrwt beam="1">  1       -1 0.47991567E-02 0.89453658E+02</pdfrwt>
<totfact> 0.10261559E+05</totfact>
</mgrwt>
</event>
<event>
 7    1  0.2911475E-009  0.9032164E+02  0.7818608E-02  0.1302075E+00
         -1   -1    0    0    0  501 -0.00000000000E+00  0.00000000000E+00  0.16380058580E+03  0.16380058588E+03  0.50400000000E-02 0.  1.
          1   -1    0    0  501    0  0.00000000000E+00 -0.00000000000E+00 -0.12451113416E+02  0.12451114436E+02  0.50400000000E-02 0. -1.
         23    2    1    2    0    0  0.35527136788E-14  0.00000000000E+00  0.15134947239E+03  0.17625170032E+03  0.90321642328E+02 0.  0.
    9000005    2    3    3    0    0  0.22229705353E+02 -0.34928367685E+02  0.48544048581E+02  0.65422526210E+02  0.14471752273E+02 0.  0.
         22    1    3    3    0    0 -0.22229705353E+02  0.34928367685E+02  0.10280542381E+03  0.11082917411E+03  0.00000000000E+00 0.  1.
         22    1    4    4    0    0  0.13738170788E+02 -0.29548662224E+02  0.42969377405E+02  0.53927990602E+02  0.00000000000E+00 0. -1.
         22    1    4    4    0    0  0.84915345653E+01 -0.53797054605E+01  0.55746711759E+01  0.11494535608E+02  0.00000000000E+00 0. -1.
<mgrwt>
<rscale>  0 0.90321642E+02</rscale>
<asrwt>0</asrwt>
<pdfrwt beam="2">  1        1 0.19155563E-02 0.90321642E+02</pdfrwt>
<pdfrwt beam="1">  1       -1 0.25200087E-01 0.90321642E+02</pdfrwt>
<totfact> 0.75032360E+04</totfact>
</mgrwt>
</event>
<event>
 7    1  0.2911475E-009  0.9356481E+02  0.7818608E-02  0.1294442E+00
         -1   -1    0    0    0  501 -0.00000000000E+00  0.00000000000E+00  0.25946595624E+01  0.25946644574E+01  0.50400000000E-02 0.  1.
          1   -1    0    0  501    0  0.00000000000E+00 -0.00000000000E+00 -0.84349840693E+03  0.84349840694E+03  0.50400000000E-02 0. -1.
         23    2    1    2    0    0  0.00000000000E+00  0.00000000000E+00 -0.84090374736E+03  0.84609307140E+03  0.93564807156E+02 0.  0.
    9000005    2    3    3    0    0  0.83551865179E+01  0.17403764642E+02 -0.80531640485E+03  0.80560654138E+03  0.97307468485E+01 0.  0.
         22    1    3    3    0    0 -0.83551865179E+01 -0.17403764642E+02 -0.35587342513E+02  0.40486530015E+02  0.00000000000E+00 0.  1.
         22    1    4    4    0    0  0.22092779109E+01 -0.52859147712E+00 -0.49019204710E+02  0.49071812155E+02  0.00000000000E+00 0. -1.
         22    1    4    4    0    0  0.61459086070E+01  0.17932356119E+02 -0.75629720014E+03  0.75653472923E+03  0.00000000000E+00 0. -1.
<mgrwt>
<rscale>  0 0.93564807E+02</rscale>
<asrwt>0</asrwt>
<pdfrwt beam="2">  1        1 0.12976877E+00 0.93564807E+02</pdfrwt>
<pdfrwt beam="1">  1       -1 0.39917944E-03 0.93564807E+02</pdfrwt>
<totfact> 0.13122061E+05</totfact>
</mgrwt>
</event>
<event>
 7    1  0.2911475E-009  0.8594368E+02  0.7818608E-02  0.1312983E+00
          1   -1    0    0  501    0  0.00000000000E+00  0.00000000000E+00  0.28911835992E+02  0.28911836431E+02  0.50400000000E-02 0. -1.
         -1   -1    0    0    0  501 -0.00000000000E+00 -0.00000000000E+00 -0.63869304405E+02  0.63869304604E+02  0.50400000000E-02 0.  1.
         23    2    1    2    0    0  0.00000000000E+00  0.00000000000E+00 -0.34957468413E+02  0.92781141036E+02  0.85943676521E+02 0.  0.
    9000005    2    3    3    0    0 -0.26923732071E+02 -0.68701732785E+01  0.15741441241E+02  0.34967076401E+02  0.14241377397E+02 0.  0.
         22    1    3    3    0    0  0.26923732071E+02  0.68701732785E+01 -0.50698909654E+02  0.57814064635E+02  0.00000000000E+00 0.  1.
         22    1    4    4    0    0 -0.22077980113E+01 -0.60115509775E+01  0.21993537022E+01  0.67712830336E+01  0.00000000000E+00 0.  1.
         22    1    4    4    0    0 -0.24715934060E+02 -0.85862230095E+00  0.13542087538E+02  0.28195793367E+02  0.00000000000E+00 0.  1.
<mgrwt>
<rscale>  0 0.85943677E+02</rscale>
<asrwt>0</asrwt>
<pdfrwt beam="1">  1        1 0.44479748E-02 0.85943677E+02</pdfrwt>
<pdfrwt beam="2">  1       -1 0.98260469E-02 0.85943677E+02</pdfrwt>
<totfact> 0.10203058E+05</totfact>
</mgrwt>
</event>
<event>
 7    1  0.2911475E-009  0.9216336E+02  0.7818608E-02  0.1297696E+00
         -1   -1    0    0    0  501 -0.00000000000E+00  0.00000000000E+00  0.24780494262E+02  0.24780494774E+02  0.50400000000E-02 0.  1.
          1   -1    0    0  501    0  0.00000000000E+00 -0.00000000000E+00 -0.85693253399E+02  0.85693253547E+02  0.50400000000E-02 0. -1.
         23    2    1    2    0    0  0.00000000000E+00  0.00000000000E+00 -0.60912759137E+02  0.11047374832E+03  0.92163359544E+02 0.  0.
    9000005    2    3    3    0    0  0.14754746165E+02  0.22884595685E+02  0.11328677475E+02  0.33271206798E+02  0.15402175639E+02 0.  0.
         22    1    3    3    0    0 -0.14754746165E+02 -0.22884595685E+02 -0.72241436611E+02  0.77202541524E+02  0.00000000000E+00 0. -1.
         22    1    4    4    0    0  0.23199840316E+01  0.79952419394E+01  0.11094882562E+02  0.13870927822E+02  0.00000000000E+00 0. -1.
         22    1    4    4    0    0  0.12434762133E+02  0.14889353745E+02  0.23379491223E+00  0.19400278975E+02  0.00000000000E+00 0. -1.
<mgrwt>
<rscale>  0 0.92163360E+02</rscale>
<asrwt>0</asrwt>
<pdfrwt beam="2">  1        1 0.13183577E-01 0.92163360E+02</pdfrwt>
<pdfrwt beam="1">  1       -1 0.38123838E-02 0.92163360E+02</pdfrwt>
<totfact> 0.98888741E+04</totfact>
</mgrwt>
</event>
<event>
 7    1  0.2911475E-009  0.9255471E+02  0.7818608E-02  0.1296780E+00
          1   -1    0    0  501    0  0.00000000000E+00  0.00000000000E+00  0.50773431216E+01  0.50773456230E+01  0.50400000000E-02 0. -1.
         -1   -1    0    0    0  501 -0.00000000000E+00 -0.00000000000E+00 -0.42179404361E+03  0.42179404364E+03  0.50400000000E-02 0.  1.
         23    2    1    2    0    0  0.00000000000E+00  0.00000000000E+00 -0.41671670049E+03  0.42687138927E+03  0.92554710877E+02 0.  0.
    9000005    2    3    3    0    0  0.25707082395E+02  0.25325717335E+02 -0.33969832008E+03  0.34181801212E+03  0.11931416363E+02 0.  0.
         22    1    3    3    0    0 -0.25707082395E+02 -0.25325717335E+02 -0.77018380408E+02  0.85053377149E+02  0.00000000000E+00 0. -1.
         22    1    4    4    0    0  0.50654964163E+01  0.94490490402E+01 -0.63917211494E+02  0.64810135834E+02  0.00000000000E+00 0.  1.
         22    1    4    4    0    0  0.20641585979E+02  0.15876668294E+02 -0.27578110859E+03  0.27700787628E+03  0.00000000000E+00 0.  1.
<mgrwt>
<rscale>  0 0.92554711E+02</rscale>
<asrwt>0</asrwt>
<pdfrwt beam="1">  1        1 0.78113024E-03 0.92554711E+02</pdfrwt>
<pdfrwt beam="2">  1       -1 0.64891364E-01 0.92554711E+02</pdfrwt>
<totfact> 0.49846957E+04</totfact>
</mgrwt>
</event>
<event>
 7    1  0.2911475E-009  0.9145734E+02  0.7818608E-02  0.1299360E+00
          1   -1    0    0  501    0  0.00000000000E+00  0.00000000000E+00  0.15588822020E+03  0.15588822028E+03  0.50400000000E-02 0. -1.
         -1   -1    0    0    0  501 -0.00000000000E+00 -0.00000000000E+00 -0.13414170154E+02  0.13414171100E+02  0.50400000000E-02 0.  1.
         23    2    1    2    0    0  0.00000000000E+00  0.00000000000E+00  0.14247405005E+03  0.16930239138E+03  0.91457338640E+02 0.  0.
    9000005    2    3    3    0    0  0.35188866935E+02 -0.26184467301E+02  0.91722016183E+02  0.10222294874E+03  0.10616982257E+02 0.  0.
         22    1    3    3    0    0 -0.35188866935E+02  0.26184467301E+02  0.50752033866E+02  0.67079442645E+02  0.00000000000E+00 0.  1.
         22    1    4    4    0    0 -0.32851118559E+00 -0.19025302124E+01  0.61128408287E+01  0.64104885777E+01  0.00000000000E+00 0.  1.
         22    1    4    4    0    0  0.35517378121E+02 -0.24281937088E+02  0.85609175355E+02  0.95812460162E+02  0.00000000000E+00 0.  1.
<mgrwt>
<rscale>  0 0.91457339E+02</rscale>
<asrwt>0</asrwt>
<pdfrwt beam="1">  1        1 0.23982803E-01 0.91457339E+02</pdfrwt>
<pdfrwt beam="2">  1       -1 0.20637186E-02 0.91457339E+02</pdfrwt>
<totfact> 0.11200038E+05</totfact>
</mgrwt>
</event>
<event>
 7    1  0.2911475E-009  0.9119447E+02  0.7818608E-02  0.1299985E+00
         -1   -1    0    0    0  501 -0.00000000000E+00  0.00000000000E+00  0.16026025359E+03  0.16026025367E+03  0.50400000000E-02 0.  1.
          1   -1    0    0  501    0  0.00000000000E+00 -0.00000000000E+00 -0.12973321047E+02  0.12973322026E+02  0.50400000000E-02 0. -1.
         23    2    1    2    0    0  0.00000000000E+00  0.00000000000E+00  0.14728693255E+03  0.17323357570E+03  0.91194469408E+02 0.  0.
    9000005    2    3    3    0    0  0.34039148997E+02 -0.84815381988E+01  0.24498692478E+02  0.45532549651E+02  0.15570067114E+02 0.  0.
         22    1    3    3    0    0 -0.34039148997E+02  0.84815381988E+01  0.12278824007E+03  0.12770102605E+03  0.00000000000E+00 0.  1.
         22    1    4    4    0    0  0.35074616919E+02 -0.61680583289E+01  0.21473460500E+02  0.41585853381E+02  0.00000000000E+00 0. -1.
         22    1    4    4    0    0 -0.10354679225E+01 -0.23134798699E+01  0.30252319779E+01  0.39466962699E+01  0.00000000000E+00 0. -1.
<mgrwt>
<rscale>  0 0.91194469E+02</rscale>
<asrwt>0</asrwt>
<pdfrwt beam="2">  1        1 0.19958955E-02 0.91194469E+02</pdfrwt>
<pdfrwt beam="1">  1       -1 0.24655425E-01 0.91194469E+02</pdfrwt>
<totfact> 0.73576990E+04</totfact>
</mgrwt>
</event>
<event>
 7    1  0.2911475E-009  0.9181917E+02  0.7818608E-02  0.1298505E+00
         -1   -1    0    0    0  501 -0.00000000000E+00  0.00000000000E+00  0.15597388289E+03  0.15597388297E+03  0.50400000000E-02 0.  1.
          1   -1    0    0  501    0  0.00000000000E+00 -0.00000000000E+00 -0.13513096388E+02  0.13513097327E+02  0.50400000000E-02 0. -1.
         23    2    1    2    0    0  0.00000000000E+00  0.00000000000E+00  0.14246078650E+03  0.16948698030E+03  0.91819174468E+02 0.  0.
    9000005    2    3    3    0    0 -0.11240723061E+02 -0.21828449869E+02  0.14215241759E+03  0.14493234387E+03  0.13972809118E+02 0.  0.
         22    1    3    3    0    0  0.11240723061E+02  0.21828449869E+02  0.30836891041E+00  0.24554636426E+02  0.00000000000E+00 0. -1.
         22    1    4    4    0    0 -0.12354618426E+02 -0.17783184017E+02  0.13425025289E+03  0.13598532506E+03  0.00000000000E+00 0. -1.
         22    1    4    4    0    0  0.11138953645E+01 -0.40452658519E+01  0.79021647049E+01  0.89470188174E+01  0.00000000000E+00 0. -1.
<mgrwt>
<rscale>  0 0.91819174E+02</rscale>
<asrwt>0</asrwt>
<pdfrwt beam="2">  1        1 0.20789380E-02 0.91819174E+02</pdfrwt>
<pdfrwt beam="1">  1       -1 0.23995982E-01 0.91819174E+02</pdfrwt>
<totfact> 0.72758961E+04</totfact>
</mgrwt>
</event>
<event>
 7    1  0.2911475E-009  0.8886634E+02  0.7818608E-02  0.1305620E+00
         -1   -1    0    0    0  501 -0.00000000000E+00  0.00000000000E+00  0.79881806454E+02  0.79881806613E+02  0.50400000000E-02 0.  1.
          1   -1    0    0  501    0  0.00000000000E+00 -0.00000000000E+00 -0.24715349282E+02  0.24715349796E+02  0.50400000000E-02 0. -1.
         23    2    1    2    0    0  0.00000000000E+00  0.00000000000E+00  0.55166457171E+02  0.10459715641E+03  0.88866344203E+02 0.  0.
    9000005    2    3    3    0    0  0.19072136287E+01 -0.43019579803E+02  0.33302486979E+02  0.56302696035E+02  0.14374151510E+02 0.  0.
         22    1    3    3    0    0 -0.19072136287E+01  0.43019579803E+02  0.21863970192E+02  0.48294460374E+02  0.00000000000E+00 0.  1.
         22    1    4    4    0    0  0.13014535870E+01 -0.40819622646E+02  0.34730352554E+02  0.53610938836E+02  0.00000000000E+00 0. -1.
         22    1    4    4    0    0  0.60576004169E+00 -0.21999571567E+01 -0.14278655746E+01  0.26917571990E+01  0.00000000000E+00 0. -1.
<mgrwt>
<rscale>  0 0.88866344E+02</rscale>
<asrwt>0</asrwt>
<pdfrwt beam="2">  1        1 0.38023615E-02 0.88866344E+02</pdfrwt>
<pdfrwt beam="1">  1       -1 0.12289509E-01 0.88866344E+02</pdfrwt>
<totfact> 0.90414589E+04</totfact>
</mgrwt>
</event>
<event>
 7    1  0.2911475E-009  0.9155479E+02  0.7818608E-02  0.1299130E+00
          1   -1    0    0  501    0  0.00000000000E+00  0.00000000000E+00  0.42830450194E+03  0.42830450197E+03  0.50400000000E-02 0. -1.
         -1   -1    0    0    0  501 -0.00000000000E+00 -0.00000000000E+00 -0.48927094342E+01  0.48927120301E+01  0.50400000000E-02 0.  1.
         23    2    1    2    0    0  0.00000000000E+00 -0.44408920985E-15  0.42341179251E+03  0.43319721400E+03  0.91554793344E+02 0.  0.
    9000005    2    3    3    0    0  0.37913563816E+02  0.12979817318E+01  0.32980319762E+03  0.33219378775E+03  0.11976659867E+02 0.  0.
         22    1    3    3    0    0 -0.37913563816E+02 -0.12979817318E+01  0.93608594893E+02  0.10100342626E+03  0.00000000000E+00 0.  1.
         22    1    4    4    0    0  0.24836261160E+02 -0.21499448837E+01  0.16982592677E+03  0.17164587829E+03  0.00000000000E+00 0. -1.
         22    1    4    4    0    0  0.13077302656E+02  0.34479266155E+01  0.15997727085E+03  0.16054790945E+03  0.00000000000E+00 0. -1.
<mgrwt>
<rscale>  0 0.91554793E+02</rscale>
<asrwt>0</asrwt>
<pdfrwt beam="1">  1        1 0.65892978E-01 0.91554793E+02</pdfrwt>
<pdfrwt beam="2">  1       -1 0.75272499E-03 0.91554793E+02</pdfrwt>
<totfact> 0.13486916E+05</totfact>
</mgrwt>
</event>
<event>
 7    1  0.2911475E-009  0.8987881E+02  0.7818608E-02  0.1303145E+00
         -1   -1    0    0    0  501 -0.00000000000E+00  0.00000000000E+00  0.12415017438E+02  0.12415018461E+02  0.50400000000E-02 0.  1.
          1   -1    0    0  501    0  0.00000000000E+00 -0.00000000000E+00 -0.16266993339E+03  0.16266993347E+03  0.50400000000E-02 0. -1.
         23    2    1    2    0    0  0.00000000000E+00  0.00000000000E+00 -0.15025491595E+03  0.17508495193E+03  0.89878810762E+02 0.  0.
    9000005    2    3    3    0    0 -0.22737102471E+02  0.30179305806E+02 -0.29580348633E+02  0.48632915467E+02  0.78991843780E+01 0.  0.
         22    1    3    3    0    0  0.22737102471E+02 -0.30179305806E+02 -0.12067456732E+03  0.12645203646E+03  0.00000000000E+00 0. -1.
         22    1    4    4    0    0 -0.14800009086E+02  0.20904000779E+02 -0.15255329559E+02  0.29811786217E+02  0.00000000000E+00 0.  1.
         22    1    4    4    0    0 -0.79370933848E+01  0.92753050269E+01 -0.14325019075E+02  0.18821129250E+02  0.00000000000E+00 0.  1.
<mgrwt>
<rscale>  0 0.89878811E+02</rscale>
<asrwt>0</asrwt>
<pdfrwt beam="2">  1        1 0.25026142E-01 0.89878811E+02</pdfrwt>
<pdfrwt beam="1">  1       -1 0.19100029E-02 0.89878811E+02</pdfrwt>
<totfact> 0.11830493E+05</totfact>
</mgrwt>
</event>
<event>
 7    1  0.2911475E-009  0.9311969E+02  0.7818608E-02  0.1295468E+00
         -1   -1    0    0    0  501 -0.00000000000E+00  0.00000000000E+00  0.15627847244E+03  0.15627847252E+03  0.50400000000E-02 0.  1.
          1   -1    0    0  501    0  0.00000000000E+00 -0.00000000000E+00 -0.13871513874E+02  0.13871514789E+02  0.50400000000E-02 0. -1.
         23    2    1    2    0    0  0.00000000000E+00  0.00000000000E+00  0.14240695857E+03  0.17014998731E+03  0.93119688218E+02 0.  0.
    9000005    2    3    3    0    0  0.23388563277E+02 -0.37555822196E+02  0.53832248380E+02  0.71140169830E+02  0.14336949635E+02 0.  0.
         22    1    3    3    0    0 -0.23388563277E+02  0.37555822196E+02  0.88574710186E+02  0.99009817481E+02  0.00000000000E+00 0.  1.
         22    1    4    4    0    0  0.51904388667E+01 -0.13491580015E+01  0.30433114218E+01  0.61662490504E+01  0.00000000000E+00 0. -1.
         22    1    4    4    0    0  0.18198124410E+02 -0.36206664195E+02  0.50788936958E+02  0.64973920779E+02  0.00000000000E+00 0. -1.
<mgrwt>
<rscale>  0 0.93119688E+02</rscale>
<asrwt>0</asrwt>
<pdfrwt beam="2">  1        1 0.21340791E-02 0.93119688E+02</pdfrwt>
<pdfrwt beam="1">  1       -1 0.24042842E-01 0.93119688E+02</pdfrwt>
<totfact> 0.70112305E+04</totfact>
</mgrwt>
</event>
<event>
 7    1  0.3054018E-009  0.9409813E+02  0.7818608E-02  0.1293220E+00
          1   -1    0    0  501    0  0.00000000000E+00  0.00000000000E+00  0.94029695081E+03  0.94029695082E+03  0.50400000000E-02 0. -1.
         -1   -1    0    0    0  501 -0.00000000000E+00 -0.00000000000E+00 -0.23541624437E+01  0.23541678388E+01  0.50400000000E-02 0.  1.
         23    2    1    2    0    0  0.35527136788E-14  0.00000000000E+00  0.93794278837E+03  0.94265111866E+03  0.94098125735E+02 0.  0.
    9000005    2    3    3    0    0  0.30494736840E+02  0.25336216178E+02  0.71558752295E+03  0.71678895520E+03  0.12208622808E+02 0.  0.
         22    1    3    3    0    0 -0.30494736840E+02 -0.25336216178E+02  0.22235526541E+03  0.22586216346E+03  0.00000000000E+00 0.  1.
         22    1    4    4    0    0  0.85375423691E+01  0.48627947967E+01  0.27755829572E+03  0.27773214421E+03  0.00000000000E+00 0.  1.
         22    1    4    4    0    0  0.21957194471E+02  0.20473421381E+02  0.43802922723E+03  0.43905681100E+03  0.00000000000E+00 0.  1.
<mgrwt>
<rscale>  0 0.94098126E+02</rscale>
<asrwt>0</asrwt>
<pdfrwt beam="1">  1        1 0.14466111E+00 0.94098126E+02</pdfrwt>
<pdfrwt beam="2">  1       -1 0.36217915E-03 0.94098126E+02</pdfrwt>
<totfact> 0.12696091E+05</totfact>
</mgrwt>
</event>
<event>
 7    1  0.2911475E-009  0.9200533E+02  0.7818608E-02  0.1298067E+00
         -1   -1    0    0    0  501 -0.00000000000E+00  0.00000000000E+00  0.64103892860E+02  0.64103893059E+02  0.50400000000E-02 0.  1.
          1   -1    0    0  501    0  0.00000000000E+00 -0.00000000000E+00 -0.33012741371E+02  0.33012741755E+02  0.50400000000E-02 0. -1.
         23    2    1    2    0    0  0.00000000000E+00  0.44408920985E-15  0.31091151490E+02  0.97116634814E+02  0.92005331675E+02 0.  0.
    9000005    2    3    3    0    0 -0.43073383543E+02 -0.34209996862E+01  0.30351711562E+01  0.45598117355E+02  0.14246277891E+02 0.  0.
         22    1    3    3    0    0  0.43073383543E+02  0.34209996862E+01  0.28055980334E+02  0.51518517459E+02  0.00000000000E+00 0.  1.
         22    1    4    4    0    0 -0.21632321226E+02 -0.88571124056E+01  0.17839203833E+01  0.23443296136E+02  0.00000000000E+00 0.  1.
         22    1    4    4    0    0 -0.21441062317E+02  0.54361127193E+01  0.12512507728E+01  0.22154821219E+02  0.00000000000E+00 0.  1.
<mgrwt>
<rscale>  0 0.92005332E+02</rscale>
<asrwt>0</asrwt>
<pdfrwt beam="2">  1        1 0.50788833E-02 0.92005332E+02</pdfrwt>
<pdfrwt beam="1">  1       -1 0.98621374E-02 0.92005332E+02</pdfrwt>
<totfact> 0.85768054E+04</totfact>
</mgrwt>
</event>
<event>
 7    1  0.2911475E-009  0.9088230E+02  0.7818608E-02  0.1300729E+00
          1   -1    0    0  501    0  0.00000000000E+00  0.00000000000E+00  0.69459924996E+01  0.69459943281E+01  0.50400000000E-02 0. -1.
         -1   -1    0    0    0  501 -0.00000000000E+00 -0.00000000000E+00 -0.29727900171E+03  0.29727900175E+03  0.50400000000E-02 0.  1.
         23    2    1    2    0    0  0.00000000000E+00  0.00000000000E+00 -0.29033300921E+03  0.30422499608E+03  0.90882297523E+02 0.  0.
    9000005    2    3    3    0    0  0.11892712785E+02 -0.36313639341E+02 -0.22479028384E+03  0.22835691406E+03  0.12493657327E+02 0.  0.
         22    1    3    3    0    0 -0.11892712785E+02  0.36313639341E+02 -0.65542725372E+02  0.75868082016E+02  0.00000000000E+00 0. -1.
         22    1    4    4    0    0  0.82429813816E+01 -0.77639809109E+01 -0.70821237344E+02  0.71720804518E+02  0.00000000000E+00 0.  1.
         22    1    4    4    0    0  0.36497314034E+01 -0.28549658430E+02 -0.15396904649E+03  0.15663610955E+03  0.00000000000E+00 0.  1.
<mgrwt>
<rscale>  0 0.90882298E+02</rscale>
<asrwt>0</asrwt>
<pdfrwt beam="1">  1        1 0.10686146E-02 0.90882298E+02</pdfrwt>
<pdfrwt beam="2">  1       -1 0.45735221E-01 0.90882298E+02</pdfrwt>
<totfact> 0.61319880E+04</totfact>
</mgrwt>
</event>
<event>
 7    1  0.2911475E-009  0.9170121E+02  0.7818608E-02  0.1298783E+00
          1   -1    0    0  501    0  0.00000000000E+00  0.00000000000E+00  0.69779551240E+01  0.69779569441E+01  0.50400000000E-02 0. -1.
         -1   -1    0    0    0  501 -0.00000000000E+00 -0.00000000000E+00 -0.30127416445E+03  0.30127416449E+03  0.50400000000E-02 0.  1.
         23    2    1    2    0    0  0.17763568394E-14  0.00000000000E+00 -0.29429620932E+03  0.30825212143E+03  0.91701207986E+02 0.  0.
    9000005    2    3    3    0    0 -0.10467098264E+02  0.10742688643E+00 -0.29720094770E+03  0.29738891787E+03  0.14810366761E+01 0.  0.
         22    1    3    3    0    0  0.10467098264E+02 -0.10742688643E+00  0.29047383799E+01  0.10863203563E+02  0.00000000000E+00 0. -1.
         22    1    4    4    0    0 -0.54136159059E+01 -0.24429356590E+00 -0.13449314346E+03  0.13460227544E+03  0.00000000000E+00 0.  1.
         22    1    4    4    0    0 -0.50534823581E+01  0.35172045234E+00 -0.16270780424E+03  0.16278664243E+03  0.00000000000E+00 0.  1.
<mgrwt>
<rscale>  0 0.91701208E+02</rscale>
<asrwt>0</asrwt>
<pdfrwt beam="1">  1        1 0.10735319E-02 0.91701208E+02</pdfrwt>
<pdfrwt beam="2">  1       -1 0.46349862E-01 0.91701208E+02</pdfrwt>
<totfact> 0.59584009E+04</totfact>
</mgrwt>
</event>
<event>
 7    1  0.2911475E-009  0.9067590E+02  0.7818608E-02  0.1301223E+00
          1   -1    0    0  501    0  0.00000000000E+00  0.00000000000E+00  0.78943023633E+03  0.78943023635E+03  0.50400000000E-02 0.  1.
         -1   -1    0    0    0  501 -0.00000000000E+00 -0.00000000000E+00 -0.26038116893E+01  0.26038165671E+01  0.50400000000E-02 0. -1.
         23    2    1    2    0    0  0.00000000000E+00  0.00000000000E+00  0.78682642464E+03  0.79203405291E+03  0.90675897907E+02 0.  0.
    9000005    2    3    3    0    0 -0.14639401784E+02  0.30961827107E+02  0.65220567672E+03  0.65312511658E+03  0.52178865431E+01 0.  0.
         22    1    3    3    0    0  0.14639401784E+02 -0.30961827107E+02  0.13462074792E+03  0.13890893633E+03  0.00000000000E+00 0. -1.
         22    1    4    4    0    0 -0.72689539957E+01  0.12174806989E+02  0.22906412478E+03  0.22950258577E+03  0.00000000000E+00 0.  1.
         22    1    4    4    0    0 -0.73704477880E+01  0.18787020118E+02  0.42314155195E+03  0.42362253081E+03  0.00000000000E+00 0.  1.
<mgrwt>
<rscale>  0 0.90675898E+02</rscale>
<asrwt>0</asrwt>
<pdfrwt beam="1">  1        1 0.12145088E+00 0.90675898E+02</pdfrwt>
<pdfrwt beam="2">  1       -1 0.40058655E-03 0.90675898E+02</pdfrwt>
<totfact> 0.14352956E+05</totfact>
</mgrwt>
</event>
<event>
 7    1  0.2911475E-009  0.9062601E+02  0.7818608E-02  0.1301343E+00
         -1   -1    0    0    0  501 -0.00000000000E+00  0.00000000000E+00  0.13319331991E+02  0.13319332944E+02  0.50400000000E-02 0.  1.
          1   -1    0    0  501    0  0.00000000000E+00 -0.00000000000E+00 -0.15415699558E+03  0.15415699566E+03  0.50400000000E-02 0. -1.
         23    2    1    2    0    0  0.00000000000E+00 -0.22204460493E-15 -0.14083766359E+03  0.16747632861E+03  0.90626007075E+02 0.  0.
    9000005    2    3    3    0    0 -0.41412819410E+02  0.87737512795E+00 -0.10212517649E+03  0.11078022596E+03  0.11265673111E+02 0.  0.
         22    1    3    3    0    0  0.41412819410E+02 -0.87737512795E+00 -0.38712487099E+02  0.56696102653E+02  0.00000000000E+00 0.  1.
         22    1    4    4    0    0 -0.38066512298E+01  0.33247612859E+01 -0.90610516846E+01  0.10375321143E+02  0.00000000000E+00 0. -1.
         22    1    4    4    0    0 -0.37606168180E+02 -0.24473861580E+01 -0.93064124807E+02  0.10040490481E+03  0.00000000000E+00 0. -1.
<mgrwt>
<rscale>  0 0.90626007E+02</rscale>
<asrwt>0</asrwt>
<pdfrwt beam="2">  1        1 0.23716460E-01 0.90626007E+02</pdfrwt>
<pdfrwt beam="1">  1       -1 0.20491282E-02 0.90626007E+02</pdfrwt>
<totfact> 0.11455426E+05</totfact>
</mgrwt>
</event>
<event>
 7    1  0.2911475E-009  0.8961698E+02  0.7818608E-02  0.1303782E+00
          1   -1    0    0  501    0  0.00000000000E+00  0.00000000000E+00  0.72815987612E+02  0.72815987786E+02  0.50400000000E-02 0. -1.
         -1   -1    0    0    0  501 -0.00000000000E+00 -0.00000000000E+00 -0.27573624877E+02  0.27573625337E+02  0.50400000000E-02 0.  1.
         23    2    1    2    0    0  0.00000000000E+00 -0.17763568394E-14  0.45242362735E+02  0.10038961312E+03  0.89616979626E+02 0.  0.
    9000005    2    3    3    0    0 -0.40855935073E+02 -0.96864283357E+01  0.96241185258E+01  0.45328795430E+02  0.14108214385E+02 0.  0.
         22    1    3    3    0    0  0.40855935073E+02  0.96864283357E+01  0.35618244209E+02  0.55060817694E+02  0.00000000000E+00 0. -1.
         22    1    4    4    0    0 -0.24051411192E+02 -0.11884303650E+02  0.24963083264E+01  0.26943247926E+02  0.00000000000E+00 0. -1.
         22    1    4    4    0    0 -0.16804523881E+02  0.21978753139E+01  0.71278101994E+01  0.18385547504E+02  0.00000000000E+00 0. -1.
<mgrwt>
<rscale>  0 0.89616980E+02</rscale>
<asrwt>0</asrwt>
<pdfrwt beam="1">  1        1 0.11202459E-01 0.89616980E+02</pdfrwt>
<pdfrwt beam="2">  1       -1 0.42420963E-02 0.89616980E+02</pdfrwt>
<totfact> 0.10409300E+05</totfact>
</mgrwt>
</event>
<event>
 7    1  0.2911475E-009  0.9856247E+02  0.7818608E-02  0.1283348E+00
          1   -1    0    0  501    0  0.00000000000E+00  0.00000000000E+00  0.36016570863E+02  0.36016571216E+02  0.50400000000E-02 0.  1.
         -1   -1    0    0    0  501 -0.00000000000E+00 -0.00000000000E+00 -0.67431185637E+02  0.67431185826E+02  0.50400000000E-02 0. -1.
         23    2    1    2    0    0  0.00000000000E+00  0.35527136788E-14 -0.31414614774E+02  0.10344775704E+03  0.98562469609E+02 0.  0.
    9000005    2    3    3    0    0 -0.23592931609E+02 -0.31732703018E+02 -0.44722229792E+02  0.61726258025E+02  0.15699115566E+02 0.  0.
         22    1    3    3    0    0  0.23592931609E+02  0.31732703018E+02  0.13307615017E+02  0.41721499016E+02  0.00000000000E+00 0.  1.
         22    1    4    4    0    0 -0.19096987340E+02 -0.20932368690E+02 -0.40203445399E+02  0.49185119766E+02  0.00000000000E+00 0. -1.
         22    1    4    4    0    0 -0.44959442689E+01 -0.10800334327E+02 -0.45187843925E+01  0.12541138259E+02  0.00000000000E+00 0. -1.
<mgrwt>
<rscale>  0 0.98562470E+02</rscale>
<asrwt>0</asrwt>
<pdfrwt beam="1">  1        1 0.55410109E-02 0.98562470E+02</pdfrwt>
<pdfrwt beam="2">  1       -1 0.10374029E-01 0.98562470E+02</pdfrwt>
<totfact> 0.71384874E+04</totfact>
</mgrwt>
</event>
<event>
 7    1  0.2911475E-009  0.8800714E+02  0.7818608E-02  0.1307751E+00
          1   -1    0    0  501    0  0.00000000000E+00  0.00000000000E+00  0.48935992541E+02  0.48935992800E+02  0.50400000000E-02 0. -1.
         -1   -1    0    0    0  501 -0.00000000000E+00 -0.00000000000E+00 -0.39568303830E+02  0.39568304151E+02  0.50400000000E-02 0.  1.
         23    2    1    2    0    0  0.00000000000E+00 -0.35527136788E-14  0.93676887107E+01  0.88504296951E+02  0.88007141682E+02 0.  0.
    9000005    2    3    3    0    0  0.68224968333E+01  0.30338329547E+02 -0.25819932455E+02  0.41545491749E+02  0.96124018826E+01 0.  0.
         22    1    3    3    0    0 -0.68224968333E+01 -0.30338329547E+02  0.35187621166E+02  0.46958805202E+02  0.00000000000E+00 0. -1.
         22    1    4    4    0    0  0.37117937825E+01  0.26069848449E+02 -0.24787157612E+02  0.36163760779E+02  0.00000000000E+00 0. -1.
         22    1    4    4    0    0  0.31107030508E+01  0.42684810979E+01 -0.10327748433E+01  0.53817309697E+01  0.00000000000E+00 0. -1.
<mgrwt>
<rscale>  0 0.88007142E+02</rscale>
<asrwt>0</asrwt>
<pdfrwt beam="1">  1        1 0.75286143E-02 0.88007142E+02</pdfrwt>
<pdfrwt beam="2">  1       -1 0.60874314E-02 0.88007142E+02</pdfrwt>
<totfact> 0.10314996E+05</totfact>
</mgrwt>
</event>
<event>
 7    1  0.2911475E-009  0.9289176E+02  0.7818608E-02  0.1295996E+00
          1   -1    0    0  501    0  0.00000000000E+00  0.00000000000E+00  0.18732627316E+03  0.18732627322E+03  0.50400000000E-02 0. -1.
         -1   -1    0    0    0  501 -0.00000000000E+00 -0.00000000000E+00 -0.11515841699E+02  0.11515842802E+02  0.50400000000E-02 0.  1.
         23    2    1    2    0    0  0.00000000000E+00 -0.35527136788E-14  0.17581043146E+03  0.19884211603E+03  0.92891761189E+02 0.  0.
    9000005    2    3    3    0    0 -0.16516515739E+02  0.29442100166E+02  0.22106980846E+02  0.41475082362E+02  0.95828649425E+01 0.  0.
         22    1    3    3    0    0  0.16516515739E+02 -0.29442100166E+02  0.15370345061E+03  0.15736703366E+03  0.00000000000E+00 0. -1.
         22    1    4    4    0    0 -0.16156535299E+02  0.22504185381E+02  0.14864399470E+02  0.31439185170E+02  0.00000000000E+00 0.  1.
         22    1    4    4    0    0 -0.35998044031E+00  0.69379147849E+01  0.72425813753E+01  0.10035897192E+02  0.00000000000E+00 0.  1.
<mgrwt>
<rscale>  0 0.92891761E+02</rscale>
<asrwt>0</asrwt>
<pdfrwt beam="1">  1        1 0.28819427E-01 0.92891761E+02</pdfrwt>
<pdfrwt beam="2">  1       -1 0.17716680E-02 0.92891761E+02</pdfrwt>
<totfact> 0.11120163E+05</totfact>
</mgrwt>
</event>
<event>
 7    1  0.2911475E-009  0.9199838E+02  0.7818608E-02  0.1298083E+00
         -1   -1    0    0    0  501 -0.00000000000E+00  0.00000000000E+00  0.29739456639E+02  0.29739457066E+02  0.50400000000E-02 0.  1.
          1   -1    0    0  501    0  0.00000000000E+00 -0.00000000000E+00 -0.71148764469E+02  0.71148764648E+02  0.50400000000E-02 0. -1.
         23    2    1    2    0    0 -0.35527136788E-14  0.00000000000E+00 -0.41409307830E+02  0.10088822171E+03  0.91998383168E+02 0.  0.
    9000005    2    3    3    0    0 -0.18723295407E+02 -0.40548719029E+02 -0.13750902209E+02  0.48354919825E+02  0.12423789836E+02 0.  0.
         22    1    3    3    0    0  0.18723295407E+02  0.40548719029E+02 -0.27658405621E+02  0.52533301889E+02  0.00000000000E+00 0. -1.
         22    1    4    4    0    0 -0.18810586543E+02 -0.28852657819E+02 -0.12279334781E+02  0.36566324562E+02  0.00000000000E+00 0.  1.
         22    1    4    4    0    0  0.87291135934E-01 -0.11696061210E+02 -0.14715674282E+01  0.11788595263E+02  0.00000000000E+00 0.  1.
<mgrwt>
<rscale>  0 0.91998383E+02</rscale>
<asrwt>0</asrwt>
<pdfrwt beam="2">  1        1 0.10945964E-01 0.91998383E+02</pdfrwt>
<pdfrwt beam="1">  1       -1 0.45753011E-02 0.91998383E+02</pdfrwt>
<totfact> 0.96496015E+04</totfact>
</mgrwt>
</event>
<event>
 7    1  0.2911475E-009  0.9152092E+02  0.7818608E-02  0.1299210E+00
         -1   -1    0    0    0  501 -0.00000000000E+00  0.00000000000E+00  0.19569233740E+01  0.19569298641E+01  0.50400000000E-02 0. -1.
          1   -1    0    0  501    0  0.00000000000E+00 -0.00000000000E+00 -0.10700554038E+04  0.10700554038E+04  0.50400000000E-02 0.  1.
         23    2    1    2    0    0  0.00000000000E+00  0.00000000000E+00 -0.10680984804E+04  0.10720123337E+04  0.91520924739E+02 0.  0.
    9000005    2    3    3    0    0  0.29199590076E+02 -0.18538610167E+02 -0.87593903839E+03  0.87676493346E+03  0.15850976068E+02 0.  0.
         22    1    3    3    0    0 -0.29199590076E+02  0.18538610167E+02 -0.19215944205E+03  0.19524740023E+03  0.00000000000E+00 0. -1.
         22    1    4    4    0    0  0.10729347637E+02 -0.10549596249E+02 -0.21824757625E+03  0.21876566783E+03  0.00000000000E+00 0.  1.
         22    1    4    4    0    0  0.18470242439E+02 -0.79890139179E+01 -0.65769146213E+03  0.65799926562E+03  0.00000000000E+00 0.  1.
<mgrwt>
<rscale>  0 0.91520925E+02</rscale>
<asrwt>0</asrwt>
<pdfrwt beam="2">  1        1 0.16462344E+00 0.91520925E+02</pdfrwt>
<pdfrwt beam="1">  1       -1 0.30106649E-03 0.91520925E+02</pdfrwt>
<totfact> 0.13196144E+05</totfact>
</mgrwt>
</event>
<event>
 7    1  0.2911475E-009  0.9067102E+02  0.7818608E-02  0.1301235E+00
         -1   -1    0    0    0  501 -0.00000000000E+00  0.00000000000E+00  0.76035654105E+02  0.76035654272E+02  0.50400000000E-02 0.  1.
          1   -1    0    0  501    0  0.00000000000E+00 -0.00000000000E+00 -0.27030851930E+02  0.27030852400E+02  0.50400000000E-02 0. -1.
         23    2    1    2    0    0 -0.35527136788E-14  0.00000000000E+00  0.49004802174E+02  0.10306650667E+03  0.90671021618E+02 0.  0.
    9000005    2    3    3    0    0  0.29606033223E+02 -0.84107721960E+01 -0.12887208857E+02  0.33944300965E+02  0.62351522654E+01 0.  0.
         22    1    3    3    0    0 -0.29606033223E+02  0.84107721960E+01  0.61892011032E+02  0.69122205706E+02  0.00000000000E+00 0.  1.
         22    1    4    4    0    0  0.24803405627E+02 -0.44990655027E+01 -0.10264056061E+02  0.27217666468E+02  0.00000000000E+00 0. -1.
         22    1    4    4    0    0  0.48026275953E+01 -0.39117066933E+01 -0.26231527963E+01  0.67266344978E+01  0.00000000000E+00 0. -1.
<mgrwt>
<rscale>  0 0.90671022E+02</rscale>
<asrwt>0</asrwt>
<pdfrwt beam="2">  1        1 0.41585927E-02 0.90671022E+02</pdfrwt>
<pdfrwt beam="1">  1       -1 0.11697793E-01 0.90671022E+02</pdfrwt>
<totfact> 0.86596585E+04</totfact>
</mgrwt>
</event>
<event>
 7    1  0.2911475E-009  0.8838944E+02  0.7818608E-02  0.1306799E+00
          1   -1    0    0  501    0  0.00000000000E+00  0.00000000000E+00  0.12914893238E+03  0.12914893248E+03  0.50400000000E-02 0. -1.
         -1   -1    0    0    0  501 -0.00000000000E+00 -0.00000000000E+00 -0.15123416832E+02  0.15123417672E+02  0.50400000000E-02 0.  1.
         23    2    1    2    0    0  0.00000000000E+00  0.00000000000E+00  0.11402551555E+03  0.14427235015E+03  0.88389438409E+02 0.  0.
    9000005    2    3    3    0    0  0.42419996397E+02 -0.47998975892E+01  0.39050982505E+02  0.57995611014E+02  0.40020683584E+01 0.  0.
         22    1    3    3    0    0 -0.42419996397E+02  0.47998975892E+01  0.74974533047E+02  0.86276739141E+02  0.00000000000E+00 0.  1.
         22    1    4    4    0    0  0.33649993125E+02 -0.48690660836E+01  0.32642512546E+02  0.47133464409E+02  0.00000000000E+00 0. -1.
         22    1    4    4    0    0  0.87700032718E+01  0.69168494404E-01  0.64084699587E+01  0.10862146606E+02  0.00000000000E+00 0. -1.
<mgrwt>
<rscale>  0 0.88389438E+02</rscale>
<asrwt>0</asrwt>
<pdfrwt beam="1">  1        1 0.19869066E-01 0.88389438E+02</pdfrwt>
<pdfrwt beam="2">  1       -1 0.23266797E-02 0.88389438E+02</pdfrwt>
<totfact> 0.11868352E+05</totfact>
</mgrwt>
</event>
<event>
 7    1  0.2911475E-009  0.9041465E+02  0.7818608E-02  0.1301851E+00
          1   -1    0    0  501    0  0.00000000000E+00  0.00000000000E+00  0.89966272456E+01  0.89966286573E+01  0.50400000000E-02 0.  1.
         -1   -1    0    0    0  501 -0.00000000000E+00 -0.00000000000E+00 -0.22716315428E+03  0.22716315434E+03  0.50400000000E-02 0. -1.
         23    2    1    2    0    0  0.00000000000E+00  0.00000000000E+00 -0.21816652704E+03  0.23615978300E+03  0.90414653598E+02 0.  0.
    9000005    2    3    3    0    0  0.82396355759E+01 -0.41936876468E+02 -0.86334384436E+02  0.97572961742E+02  0.15500442736E+02 0.  0.
         22    1    3    3    0    0 -0.82396355759E+01  0.41936876468E+02 -0.13183214260E+03  0.13858682125E+03  0.00000000000E+00 0. -1.
         22    1    4    4    0    0  0.12900563344E+01 -0.28825841022E+01 -0.75495627629E+00  0.32470749038E+01  0.00000000000E+00 0. -1.
         22    1    4    4    0    0  0.69495792415E+01 -0.39054292365E+02 -0.85579428159E+02  0.94325886839E+02  0.00000000000E+00 0. -1.
<mgrwt>
<rscale>  0 0.90414654E+02</rscale>
<asrwt>0</asrwt>
<pdfrwt beam="1">  1        1 0.13840968E-02 0.90414654E+02</pdfrwt>
<pdfrwt beam="2">  1       -1 0.34948173E-01 0.90414654E+02</pdfrwt>
<totfact> 0.68301172E+04</totfact>
</mgrwt>
</event>
<event>
 7    1  0.2911475E-009  0.9521927E+02  0.7818608E-02  0.1290683E+00
         -1   -1    0    0    0  501 -0.00000000000E+00  0.00000000000E+00  0.32573011111E+03  0.32573011115E+03  0.50400000000E-02 0.  1.
          1   -1    0    0  501    0  0.00000000000E+00 -0.00000000000E+00 -0.69587581041E+01  0.69587599293E+01  0.50400000000E-02 0. -1.
         23    2    1    2    0    0 -0.71054273576E-14 -0.17763568394E-14  0.31877135301E+03  0.33268887108E+03  0.95219270330E+02 0.  0.
    9000005    2    3    3    0    0 -0.43682373444E+02 -0.15367055823E+02  0.16870415548E+03  0.17563964335E+03  0.15617172860E+02 0.  0.
         22    1    3    3    0    0  0.43682373444E+02  0.15367055823E+02  0.15006719753E+03  0.15704922772E+03  0.00000000000E+00 0. -1.
         22    1    4    4    0    0 -0.90791095765E+01  0.23595949054E+01  0.45086829680E+02  0.46052362908E+02  0.00000000000E+00 0. -1.
         22    1    4    4    0    0 -0.34603263868E+02 -0.17726650728E+02  0.12361732580E+03  0.12958728045E+03  0.00000000000E+00 0. -1.
<mgrwt>
<rscale>  0 0.95219270E+02</rscale>
<asrwt>0</asrwt>
<pdfrwt beam="2">  1        1 0.10705784E-02 0.95219270E+02</pdfrwt>
<pdfrwt beam="1">  1       -1 0.50112320E-01 0.95219270E+02</pdfrwt>
<totfact> 0.52289261E+04</totfact>
</mgrwt>
</event>
<event>
 7    1  0.2911475E-009  0.9114918E+02  0.7818608E-02  0.1300092E+00
         -1   -1    0    0    0  501 -0.00000000000E+00  0.00000000000E+00  0.57874556613E+02  0.57874556832E+02  0.50400000000E-02 0.  1.
          1   -1    0    0  501    0  0.00000000000E+00 -0.00000000000E+00 -0.35888710934E+02  0.35888711288E+02  0.50400000000E-02 0. -1.
         23    2    1    2    0    0  0.00000000000E+00  0.00000000000E+00  0.21985845679E+02  0.93763268120E+02  0.91149180130E+02 0.  0.
    9000005    2    3    3    0    0  0.35142985422E+02 -0.12386073359E+02 -0.13752208863E+02  0.42133308019E+02  0.14058739573E+02 0.  0.
         22    1    3    3    0    0 -0.35142985422E+02  0.12386073359E+02  0.35738054542E+02  0.51629960101E+02  0.00000000000E+00 0. -1.
         22    1    4    4    0    0  0.19821254322E+02 -0.86334855558E+01 -0.65421344423E+00  0.21629775564E+02  0.00000000000E+00 0.  1.
         22    1    4    4    0    0  0.15321731100E+02 -0.37525878030E+01 -0.13097995419E+02  0.20503532455E+02  0.00000000000E+00 0.  1.
<mgrwt>
<rscale>  0 0.91149180E+02</rscale>
<asrwt>0</asrwt>
<pdfrwt beam="2">  1        1 0.55213403E-02 0.91149180E+02</pdfrwt>
<pdfrwt beam="1">  1       -1 0.89037779E-02 0.91149180E+02</pdfrwt>
<totfact> 0.89246968E+04</totfact>
</mgrwt>
</event>
<event>
 7    1  0.2911475E-009  0.9786790E+02  0.7818608E-02  0.1284844E+00
         -1   -1    0    0    0  501 -0.00000000000E+00  0.00000000000E+00  0.20133762426E+02  0.20133763057E+02  0.50400000000E-02 0.  1.
          1   -1    0    0  501    0  0.00000000000E+00 -0.00000000000E+00 -0.11893114284E+03  0.11893114294E+03  0.50400000000E-02 0. -1.
         23    2    1    2    0    0  0.71054273576E-14  0.00000000000E+00 -0.98797380410E+02  0.13906490600E+03  0.97867899257E+02 0.  0.
    9000005    2    3    3    0    0  0.40927606232E+02 -0.23012359199E+02 -0.34732467702E+02  0.59636002772E+02  0.12061131213E+02 0.  0.
         22    1    3    3    0    0 -0.40927606232E+02  0.23012359199E+02 -0.64064912708E+02  0.79428903228E+02  0.00000000000E+00 0.  1.
         22    1    4    4    0    0  0.13020578184E+02 -0.11535784582E+02 -0.18413544883E+02  0.25331174811E+02  0.00000000000E+00 0.  1.
         22    1    4    4    0    0  0.27907028049E+02 -0.11476574616E+02 -0.16318922819E+02  0.34304827961E+02  0.00000000000E+00 0.  1.
<mgrwt>
<rscale>  0 0.97867899E+02</rscale>
<asrwt>0</asrwt>
<pdfrwt beam="2">  1        1 0.18297099E-01 0.97867899E+02</pdfrwt>
<pdfrwt beam="1">  1       -1 0.30975020E-02 0.97867899E+02</pdfrwt>
<totfact> 0.88680909E+04</totfact>
</mgrwt>
</event>
<event>
 7    1  0.2911475E-009  0.9069775E+02  0.7818608E-02  0.1301171E+00
          1   -1    0    0  501    0  0.00000000000E+00  0.00000000000E+00  0.75489826321E+03  0.75489826323E+03  0.50400000000E-02 0. -1.
         -1   -1    0    0    0  501 -0.00000000000E+00 -0.00000000000E+00 -0.27242331554E+01  0.27242378175E+01  0.50400000000E-02 0.  1.
         23    2    1    2    0    0  0.00000000000E+00  0.00000000000E+00  0.75217403006E+03  0.75762250105E+03  0.90697754107E+02 0.  0.
    9000005    2    3    3    0    0 -0.25527171278E+02  0.41559460075E+01  0.68511096321E+03  0.68574508251E+03  0.14155490604E+02 0.  0.
         22    1    3    3    0    0  0.25527171278E+02 -0.41559460075E+01  0.67063066843E+02  0.71877418534E+02  0.00000000000E+00 0.  1.
         22    1    4    4    0    0 -0.13820456086E+02  0.32594134107E+00  0.51643260577E+03  0.51661760282E+03  0.00000000000E+00 0.  1.
         22    1    4    4    0    0 -0.11706715192E+02  0.38300046664E+01  0.16867835745E+03  0.16912747969E+03  0.00000000000E+00 0.  1.
<mgrwt>
<rscale>  0 0.90697754E+02</rscale>
<asrwt>0</asrwt>
<pdfrwt beam="1">  1        1 0.11613805E+00 0.90697754E+02</pdfrwt>
<pdfrwt beam="2">  1       -1 0.41911366E-03 0.90697754E+02</pdfrwt>
<totfact> 0.14385177E+05</totfact>
</mgrwt>
</event>
<event>
 7    1  0.4085409E-009  0.8900398E+02  0.7818608E-02  0.1305282E+00
          1   -1    0    0  501    0  0.00000000000E+00  0.00000000000E+00  0.18384081173E+03  0.18384081180E+03  0.50400000000E-02 0. -1.
         -1   -1    0    0    0  501 -0.00000000000E+00 -0.00000000000E+00 -0.10772509230E+02  0.10772510409E+02  0.50400000000E-02 0.  1.
         23    2    1    2    0    0  0.44408920985E-15  0.00000000000E+00  0.17306830250E+03  0.19461332221E+03  0.89003976602E+02 0.  0.
    9000005    2    3    3    0    0 -0.30550385957E+01  0.20915640449E+02  0.17142093704E+03  0.17341164564E+03  0.15481082477E+02 0.  0.
         22    1    3    3    0    0  0.30550385957E+01 -0.20915640449E+02  0.16473654654E+01  0.21201676566E+02  0.00000000000E+00 0.  1.
         22    1    4    4    0    0  0.61924261237E+01  0.58245959440E+01  0.55833526059E+02  0.56477027997E+02  0.00000000000E+00 0.  1.
         22    1    4    4    0    0 -0.92474647194E+01  0.15091044505E+02  0.11558741098E+03  0.11693461765E+03  0.00000000000E+00 0.  1.
<mgrwt>
<rscale>  0 0.89003977E+02</rscale>
<asrwt>0</asrwt>
<pdfrwt beam="1">  1        1 0.28283200E-01 0.89003977E+02</pdfrwt>
<pdfrwt beam="2">  1       -1 0.16573093E-02 0.89003977E+02</pdfrwt>
<totfact> 0.12427756E+05</totfact>
</mgrwt>
</event>
<event>
 7    1  0.2911475E-009  0.9380234E+02  0.7818608E-02  0.1293897E+00
          1   -1    0    0  501    0  0.00000000000E+00  0.00000000000E+00  0.21167842872E+01  0.21167902872E+01  0.50400000000E-02 0. -1.
         -1   -1    0    0    0  501 -0.00000000000E+00 -0.00000000000E+00 -0.10391783640E+04  0.10391783641E+04  0.50400000000E-02 0.  1.
         23    2    1    2    0    0  0.71054273576E-14 -0.11102230246E-15 -0.10370615798E+04  0.10412951543E+04  0.93802336066E+02 0.  0.
    9000005    2    3    3    0    0  0.35270432275E+02 -0.84207467077E+00 -0.86134962224E+03  0.86207628118E+03  0.27623110058E+01 0.  0.
         22    1    3    3    0    0 -0.35270432275E+02  0.84207467077E+00 -0.17571195752E+03  0.17921887316E+03  0.00000000000E+00 0. -1.
         22    1    4    4    0    0  0.34575373223E+02 -0.82169157812E+00 -0.85153972401E+03  0.85224176920E+03  0.00000000000E+00 0. -1.
         22    1    4    4    0    0  0.69505905211E+00 -0.20383092653E-01 -0.98098982255E+01  0.98345119732E+01  0.00000000000E+00 0. -1.
<mgrwt>
<rscale>  0 0.93802336E+02</rscale>
<asrwt>0</asrwt>
<pdfrwt beam="1">  1        1 0.32566041E-03 0.93802336E+02</pdfrwt>
<pdfrwt beam="2">  1       -1 0.15987319E+00 0.93802336E+02</pdfrwt>
<totfact> 0.22693463E+04</totfact>
</mgrwt>
</event>
<event>
 7    1  0.2911475E-009  0.8535620E+02  0.7818608E-02  0.1314504E+00
         -1   -1    0    0    0  501 -0.00000000000E+00  0.00000000000E+00  0.18256457078E+02  0.18256457773E+02  0.50400000000E-02 0.  1.
          1   -1    0    0  501    0  0.00000000000E+00 -0.00000000000E+00 -0.99768541423E+02  0.99768541550E+02  0.50400000000E-02 0. -1.
         23    2    1    2    0    0  0.35527136788E-14 -0.35527136788E-14 -0.81512084345E+02  0.11802499932E+03  0.85356198199E+02 0.  0.
    9000005    2    3    3    0    0  0.18312343173E+02 -0.25316941900E+02 -0.80094104679E+02  0.86747209664E+02  0.11563879989E+02 0.  0.
         22    1    3    3    0    0 -0.18312343173E+02  0.25316941900E+02 -0.14179796661E+01  0.31277789660E+02  0.00000000000E+00 0.  1.
         22    1    4    4    0    0  0.81034717478E+01 -0.46633241928E+01 -0.14780759457E+02  0.17489531069E+02  0.00000000000E+00 0.  1.
         22    1    4    4    0    0  0.10208871425E+02 -0.20653617708E+02 -0.65313345222E+02  0.69257678595E+02  0.00000000000E+00 0.  1.
<mgrwt>
<rscale>  0 0.85356198E+02</rscale>
<asrwt>0</asrwt>
<pdfrwt beam="2">  1        1 0.15349006E-01 0.85356198E+02</pdfrwt>
<pdfrwt beam="1">  1       -1 0.28086858E-02 0.85356198E+02</pdfrwt>
<totfact> 0.12487073E+05</totfact>
</mgrwt>
</event>
<event>
 7    1  0.2911475E-009  0.8655238E+02  0.7818608E-02  0.1311422E+00
          1   -1    0    0  501    0  0.00000000000E+00  0.00000000000E+00  0.10626143776E+03  0.10626143788E+03  0.50400000000E-02 0. -1.
         -1   -1    0    0    0  501 -0.00000000000E+00 -0.00000000000E+00 -0.17624724604E+02  0.17624725324E+02  0.50400000000E-02 0.  1.
         23    2    1    2    0    0  0.00000000000E+00 -0.71054273576E-14  0.88636713159E+02  0.12388616321E+03  0.86552380178E+02 0.  0.
    9000005    2    3    3    0    0  0.23872329329E+02 -0.33203323499E+02  0.33276867402E+02  0.55059850497E+02  0.15870993469E+02 0.  0.
         22    1    3    3    0    0 -0.23872329329E+02  0.33203323499E+02  0.55359845757E+02  0.68826312709E+02  0.00000000000E+00 0.  1.
         22    1    4    4    0    0  0.21984561225E+02 -0.18388774347E+02  0.24712364634E+02  0.37844007716E+02  0.00000000000E+00 0. -1.
         22    1    4    4    0    0  0.18877681045E+01 -0.14814549152E+02  0.85645027681E+01  0.17215842781E+02  0.00000000000E+00 0. -1.
<mgrwt>
<rscale>  0 0.86552380E+02</rscale>
<asrwt>0</asrwt>
<pdfrwt beam="1">  1        1 0.16347914E-01 0.86552380E+02</pdfrwt>
<pdfrwt beam="2">  1       -1 0.27114962E-02 0.86552380E+02</pdfrwt>
<totfact> 0.12150508E+05</totfact>
</mgrwt>
</event>
<event>
 7    1  0.2911475E-009  0.8778878E+02  0.7818608E-02  0.1308297E+00
          1   -1    0    0  501    0  0.00000000000E+00  0.00000000000E+00  0.70126884171E+01  0.70126902282E+01  0.50400000000E-02 0. -1.
         -1   -1    0    0    0  501 -0.00000000000E+00 -0.00000000000E+00 -0.27474728000E+03  0.27474728004E+03  0.50400000000E-02 0.  1.
         23    2    1    2    0    0 -0.22204460493E-15  0.00000000000E+00 -0.26773459158E+03  0.28175997027E+03  0.87788776725E+02 0.  0.
    9000005    2    3    3    0    0  0.12832351839E+01  0.41337421111E+02 -0.17464064824E+03  0.17989284425E+03  0.12314638412E+02 0.  0.
         22    1    3    3    0    0 -0.12832351839E+01 -0.41337421111E+02 -0.93093943338E+02  0.10186712602E+03  0.00000000000E+00 0. -1.
         22    1    4    4    0    0 -0.29241659253E+01  0.50689025324E+01 -0.14369389022E+02  0.15515278280E+02  0.00000000000E+00 0. -1.
         22    1    4    4    0    0  0.42074011092E+01  0.36268518578E+02 -0.16027125922E+03  0.16437756597E+03  0.00000000000E+00 0. -1.
<mgrwt>
<rscale>  0 0.87788777E+02</rscale>
<asrwt>0</asrwt>
<pdfrwt beam="1">  1        1 0.10788755E-02 0.87788777E+02</pdfrwt>
<pdfrwt beam="2">  1       -1 0.42268804E-01 0.87788777E+02</pdfrwt>
<totfact> 0.69148159E+04</totfact>
</mgrwt>
</event>
<event>
 7    1  0.2911475E-009  0.8982166E+02  0.7818608E-02  0.1303284E+00
          1   -1    0    0  501    0  0.00000000000E+00  0.00000000000E+00  0.82573701609E+03  0.82573701610E+03  0.50400000000E-02 0. -1.
         -1   -1    0    0    0  501 -0.00000000000E+00 -0.00000000000E+00 -0.24426428125E+01  0.24426480122E+01  0.50400000000E-02 0.  1.
         23    2    1    2    0    0  0.17763568394E-14 -0.71054273576E-14  0.82329437328E+03  0.82817966412E+03  0.89821662128E+02 0.  0.
    9000005    2    3    3    0    0  0.15339437685E+02 -0.35145579543E+02  0.62630026093E+03  0.62748788449E+03  0.43032816068E+01 0.  0.
         22    1    3    3    0    0 -0.15339437685E+02  0.35145579543E+02  0.19699411234E+03  0.20069177962E+03  0.00000000000E+00 0.  1.
         22    1    4    4    0    0  0.15549169965E+02 -0.34331046568E+02  0.60658213517E+03  0.60775182777E+03  0.00000000000E+00 0.  1.
         22    1    4    4    0    0 -0.20973227932E+00 -0.81453297499E+00  0.19718125759E+02  0.19736056725E+02  0.00000000000E+00 0.  1.
<mgrwt>
<rscale>  0 0.89821662E+02</rscale>
<asrwt>0</asrwt>
<pdfrwt beam="1">  1        1 0.12703663E+00 0.89821662E+02</pdfrwt>
<pdfrwt beam="2">  1       -1 0.37579110E-03 0.89821662E+02</pdfrwt>
<totfact> 0.14654571E+05</totfact>
</mgrwt>
</event>
<event>
 7    1  0.2911475E-009  0.9332028E+02  0.7818608E-02  0.1295005E+00
          1   -1    0    0  501    0  0.00000000000E+00  0.00000000000E+00  0.33091642538E+02  0.33091642922E+02  0.50400000000E-02 0. -1.
         -1   -1    0    0    0  501 -0.00000000000E+00 -0.00000000000E+00 -0.65792097274E+02  0.65792097467E+02  0.50400000000E-02 0.  1.
         23    2    1    2    0    0  0.00000000000E+00 -0.35527136788E-14 -0.32700454736E+02  0.98883740389E+02  0.93320278469E+02 0.  0.
    9000005    2    3    3    0    0 -0.34297018010E+02  0.29025491118E+02 -0.70809871093E+01  0.47162161716E+02  0.12464531289E+02 0.  0.
         22    1    3    3    0    0  0.34297018010E+02 -0.29025491118E+02 -0.25619467626E+02  0.51721578673E+02  0.00000000000E+00 0. -1.
         22    1    4    4    0    0 -0.32551572996E+02  0.22683322944E+02 -0.39334076172E+01  0.39869910205E+02  0.00000000000E+00 0. -1.
         22    1    4    4    0    0 -0.17454450146E+01  0.63421681732E+01 -0.31475794921E+01  0.72922515107E+01  0.00000000000E+00 0. -1.
<mgrwt>
<rscale>  0 0.93320278E+02</rscale>
<asrwt>0</asrwt>
<pdfrwt beam="1">  1        1 0.50910220E-02 0.93320278E+02</pdfrwt>
<pdfrwt beam="2">  1       -1 0.10121861E-01 0.93320278E+02</pdfrwt>
<totfact> 0.82381662E+04</totfact>
</mgrwt>
</event>
<event>
 7    1  0.2911475E-009  0.9261723E+02  0.7818608E-02  0.1296635E+00
         -1   -1    0    0    0  501 -0.00000000000E+00  0.00000000000E+00  0.24160584404E+01  0.24160636972E+01  0.50400000000E-02 0.  1.
          1   -1    0    0  501    0  0.00000000000E+00 -0.00000000000E+00 -0.88759673458E+03  0.88759673459E+03  0.50400000000E-02 0. -1.
         23    2    1    2    0    0  0.00000000000E+00  0.00000000000E+00 -0.88518067614E+03  0.89001279829E+03  0.92617232262E+02 0.  0.
    9000005    2    3    3    0    0 -0.18081142616E+02 -0.32046328741E+02 -0.70397828413E+03  0.70511227971E+03  0.15620741281E+02 0.  0.
         22    1    3    3    0    0  0.18081142616E+02  0.32046328741E+02 -0.18120239201E+03  0.18490051858E+03  0.00000000000E+00 0.  1.
         22    1    4    4    0    0 -0.15984568502E+02 -0.22661966234E+02 -0.38900762212E+03  0.38999487332E+03  0.00000000000E+00 0. -1.
         22    1    4    4    0    0 -0.20965741142E+01 -0.93843625063E+01 -0.31497066201E+03  0.31511740639E+03  0.00000000000E+00 0. -1.
<mgrwt>
<rscale>  0 0.92617232E+02</rscale>
<asrwt>0</asrwt>
<pdfrwt beam="2">  1        1 0.13655308E+00 0.92617232E+02</pdfrwt>
<pdfrwt beam="1">  1       -1 0.37170241E-03 0.92617232E+02</pdfrwt>
<totfact> 0.13383406E+05</totfact>
</mgrwt>
</event>
<event>
 7    1  0.2911475E-009  0.8867399E+02  0.7818608E-02  0.1306095E+00
         -1   -1    0    0    0  501 -0.00000000000E+00  0.00000000000E+00  0.29707859229E+03  0.29707859233E+03  0.50400000000E-02 0.  1.
          1   -1    0    0  501    0  0.00000000000E+00 -0.00000000000E+00 -0.66169997657E+01  0.66170016852E+01  0.50400000000E-02 0. -1.
         23    2    1    2    0    0  0.35527136788E-14 -0.35527136788E-14  0.29046159252E+03  0.30369559401E+03  0.88673993335E+02 0.  0.
    9000005    2    3    3    0    0 -0.28036994177E+02  0.29311349255E+02  0.86865199069E+02  0.96098099655E+02  0.66372969187E+01 0.  0.
         22    1    3    3    0    0  0.28036994177E+02 -0.29311349255E+02  0.20359639345E+03  0.20759749436E+03  0.00000000000E+00 0.  1.
         22    1    4    4    0    0 -0.83569318367E+00  0.27314703951E+00  0.49906436453E+01  0.50674960677E+01  0.00000000000E+00 0. -1.
         22    1    4    4    0    0 -0.27201300993E+02  0.29038202216E+02  0.81874555423E+02  0.91030603587E+02  0.00000000000E+00 0. -1.
<mgrwt>
<rscale>  0 0.88673993E+02</rscale>
<asrwt>0</asrwt>
<pdfrwt beam="2">  1        1 0.10179998E-02 0.88673993E+02</pdfrwt>
<pdfrwt beam="1">  1       -1 0.45704412E-01 0.88673993E+02</pdfrwt>
<totfact> 0.65403999E+04</totfact>
</mgrwt>
</event>
<event>
 7    1  0.2911475E-009  0.9244028E+02  0.7818608E-02  0.1297048E+00
          1   -1    0    0  501    0  0.00000000000E+00  0.00000000000E+00  0.61248642950E+03  0.61248642952E+03  0.50400000000E-02 0. -1.
         -1   -1    0    0    0  501 -0.00000000000E+00 -0.00000000000E+00 -0.34879147123E+01  0.34879183537E+01  0.50400000000E-02 0.  1.
         23    2    1    2    0    0 -0.35527136788E-14  0.00000000000E+00  0.60899851479E+03  0.61597434788E+03  0.92440284648E+02 0.  0.
    9000005    2    3    3    0    0  0.19472703716E+02  0.20096716101E+02  0.54890025349E+03  0.54968056839E+03  0.86124787608E+01 0.  0.
         22    1    3    3    0    0 -0.19472703716E+02 -0.20096716101E+02  0.60098261300E+02  0.66293779492E+02  0.00000000000E+00 0.  1.
         22    1    4    4    0    0  0.12876819729E+02  0.16012730280E+02  0.45355664069E+03  0.45402185667E+03  0.00000000000E+00 0.  1.
         22    1    4    4    0    0  0.65958839866E+01  0.40839858205E+01  0.95343612796E+02  0.95658711714E+02  0.00000000000E+00 0.  1.
<mgrwt>
<rscale>  0 0.92440285E+02</rscale>
<asrwt>0</asrwt>
<pdfrwt beam="1">  1        1 0.94228651E-01 0.92440285E+02</pdfrwt>
<pdfrwt beam="2">  1       -1 0.53660272E-03 0.92440285E+02</pdfrwt>
<totfact> 0.13667563E+05</totfact>
</mgrwt>
</event>
<event>
 7    1  0.2911475E-009  0.9157472E+02  0.7818608E-02  0.1299082E+00
         -1   -1    0    0    0  501 -0.00000000000E+00  0.00000000000E+00  0.32323391437E+02  0.32323391830E+02  0.50400000000E-02 0.  1.
          1   -1    0    0  501    0  0.00000000000E+00 -0.00000000000E+00 -0.64859604799E+02  0.64859604995E+02  0.50400000000E-02 0. -1.
         23    2    1    2    0    0  0.00000000000E+00  0.00000000000E+00 -0.32536213362E+02  0.97182996824E+02  0.91574721904E+02 0.  0.
    9000005    2    3    3    0    0  0.38108012071E+02  0.23199039273E+01  0.92670437260E+01  0.40569263142E+02  0.10118521345E+02 0.  0.
         22    1    3    3    0    0 -0.38108012071E+02 -0.23199039273E+01 -0.41803257088E+02  0.56613733682E+02  0.00000000000E+00 0. -1.
         22    1    4    4    0    0  0.37865703496E+00 -0.19209096620E+00 -0.12507423950E+01  0.13208469359E+01  0.00000000000E+00 0.  1.
         22    1    4    4    0    0  0.37729355036E+02  0.25119948935E+01  0.10517786121E+02  0.39248416206E+02  0.00000000000E+00 0.  1.
<mgrwt>
<rscale>  0 0.91574722E+02</rscale>
<asrwt>0</asrwt>
<pdfrwt beam="2">  1        1 0.99784008E-02 0.91574722E+02</pdfrwt>
<pdfrwt beam="1">  1       -1 0.49728295E-02 0.91574722E+02</pdfrwt>
<totfact> 0.96349863E+04</totfact>
</mgrwt>
</event>
<event>
 7    1  0.2911475E-009  0.9219798E+02  0.7818608E-02  0.1297615E+00
         -1   -1    0    0    0  501 -0.00000000000E+00  0.00000000000E+00  0.71068447243E+02  0.71068447422E+02  0.50400000000E-02 0.  1.
          1   -1    0    0  501    0  0.00000000000E+00 -0.00000000000E+00 -0.29902396972E+02  0.29902397397E+02  0.50400000000E-02 0. -1.
         23    2    1    2    0    0  0.00000000000E+00  0.00000000000E+00  0.41166050271E+02  0.10097084482E+03  0.92197981586E+02 0.  0.
    9000005    2    3    3    0    0  0.38418488407E+02 -0.16102976871E+02  0.41853644491E+02  0.59308404883E+02  0.55202551554E+01 0.  0.
         22    1    3    3    0    0 -0.38418488407E+02  0.16102976871E+02 -0.68759422000E+00  0.41662439936E+02  0.00000000000E+00 0. -1.
         22    1    4    4    0    0  0.11623385148E+02 -0.46058823132E+01  0.16263506807E+02  0.20513870621E+02  0.00000000000E+00 0.  1.
         22    1    4    4    0    0  0.26795103259E+02 -0.11497094558E+02  0.25590137684E+02  0.38794534262E+02  0.00000000000E+00 0.  1.
<mgrwt>
<rscale>  0 0.92197982E+02</rscale>
<asrwt>0</asrwt>
<pdfrwt beam="2">  1        1 0.46003688E-02 0.92197982E+02</pdfrwt>
<pdfrwt beam="1">  1       -1 0.10933607E-01 0.92197982E+02</pdfrwt>
<totfact> 0.83906518E+04</totfact>
</mgrwt>
</event>
<event>
 7    1  0.2911475E-009  0.7945017E+02  0.7818608E-02  0.1330619E+00
          1   -1    0    0  501    0  0.00000000000E+00  0.00000000000E+00  0.66929931303E+02  0.66929931493E+02  0.50400000000E-02 0. -1.
         -1   -1    0    0    0  501 -0.00000000000E+00 -0.00000000000E+00 -0.23578124680E+02  0.23578125219E+02  0.50400000000E-02 0.  1.
         23    2    1    2    0    0  0.00000000000E+00  0.00000000000E+00  0.43351806624E+02  0.90508056712E+02  0.79450167981E+02 0.  0.
    9000005    2    3    3    0    0 -0.16165140296E+02  0.23876289583E+02 -0.82500824002E+01  0.31396772545E+02  0.92900216133E+01 0.  0.
         22    1    3    3    0    0  0.16165140296E+02 -0.23876289583E+02  0.51601889024E+02  0.59111284167E+02  0.00000000000E+00 0. -1.
         22    1    4    4    0    0 -0.72413331264E+01  0.49700971388E+01 -0.53659841403E+01  0.10292354289E+02  0.00000000000E+00 0. -1.
         22    1    4    4    0    0 -0.89238071693E+01  0.18906192444E+02 -0.28840982599E+01  0.21104418256E+02  0.00000000000E+00 0. -1.
<mgrwt>
<rscale>  0 0.79450168E+02</rscale>
<asrwt>0</asrwt>
<pdfrwt beam="1">  1        1 0.10296913E-01 0.79450168E+02</pdfrwt>
<pdfrwt beam="2">  1       -1 0.36274039E-02 0.79450168E+02</pdfrwt>
<totfact> 0.14276299E+05</totfact>
</mgrwt>
</event>
<event>
 7    1  0.2911475E-009  0.9327766E+02  0.7818608E-02  0.1295103E+00
         -1   -1    0    0    0  501 -0.00000000000E+00  0.00000000000E+00  0.16197533449E+03  0.16197533457E+03  0.50400000000E-02 0.  1.
          1   -1    0    0  501    0  0.00000000000E+00 -0.00000000000E+00 -0.13429082583E+02  0.13429083529E+02  0.50400000000E-02 0. -1.
         23    2    1    2    0    0  0.71054273576E-14 -0.55511151231E-16  0.14854625191E+03  0.17540441810E+03  0.93277655055E+02 0.  0.
    9000005    2    3    3    0    0  0.38214555922E+02 -0.47441405493E+00  0.25366466241E+02  0.46432184846E+02  0.72050556580E+01 0.  0.
         22    1    3    3    0    0 -0.38214555922E+02  0.47441405493E+00  0.12317978567E+03  0.12897223325E+03  0.00000000000E+00 0.  1.
         22    1    4    4    0    0 -0.10954062210E+00  0.53923599093E+00  0.42900508678E+00  0.69772484998E+00  0.00000000000E+00 0.  1.
         22    1    4    4    0    0  0.38324096544E+02 -0.10136500459E+01  0.24937461154E+02  0.45734459996E+02  0.00000000000E+00 0.  1.
<mgrwt>
<rscale>  0 0.93277655E+02</rscale>
<asrwt>0</asrwt>
<pdfrwt beam="2">  1        1 0.20660127E-02 0.93277655E+02</pdfrwt>
<pdfrwt beam="1">  1       -1 0.24919283E-01 0.93277655E+02</pdfrwt>
<totfact> 0.69196179E+04</totfact>
</mgrwt>
</event>
<event>
 7    1  0.2911475E-009  0.9258934E+02  0.7818608E-02  0.1296700E+00
         -1   -1    0    0    0  501 -0.00000000000E+00  0.00000000000E+00  0.47113757086E+01  0.47113784044E+01  0.50400000000E-02 0.  1.
          1   -1    0    0  501    0  0.00000000000E+00 -0.00000000000E+00 -0.45489813790E+03  0.45489813793E+03  0.50400000000E-02 0. -1.
         23    2    1    2    0    0  0.00000000000E+00  0.00000000000E+00 -0.45018676220E+03  0.45960951634E+03  0.92589344154E+02 0.  0.
    9000005    2    3    3    0    0  0.37034527728E+02  0.72763464432E+01 -0.35423556443E+03  0.35650212662E+03  0.13653926755E+02 0.  0.
         22    1    3    3    0    0 -0.37034527728E+02 -0.72763464432E+01 -0.95951197770E+02  0.10310738972E+03  0.00000000000E+00 0.  1.
         22    1    4    4    0    0  0.27006007102E+02 -0.39005188353E+00 -0.26610118092E+03  0.26746834401E+03  0.00000000000E+00 0. -1.
         22    1    4    4    0    0  0.10028520626E+02  0.76663983267E+01 -0.88134383503E+02  0.89033782604E+02  0.00000000000E+00 0. -1.
<mgrwt>
<rscale>  0 0.92589344E+02</rscale>
<asrwt>0</asrwt>
<pdfrwt beam="2">  1        1 0.69984294E-01 0.92589344E+02</pdfrwt>
<pdfrwt beam="1">  1       -1 0.72482760E-03 0.92589344E+02</pdfrwt>
<totfact> 0.13206579E+05</totfact>
</mgrwt>
</event>
<event>
 7    1  0.2911475E-009  0.9160198E+02  0.7818608E-02  0.1299018E+00
         -1   -1    0    0    0  501 -0.00000000000E+00  0.00000000000E+00  0.76154235537E+02  0.76154235704E+02  0.50400000000E-02 0.  1.
          1   -1    0    0  501    0  0.00000000000E+00 -0.00000000000E+00 -0.27545817140E+02  0.27545817601E+02  0.50400000000E-02 0. -1.
         23    2    1    2    0    0  0.00000000000E+00  0.00000000000E+00  0.48608418397E+02  0.10370005330E+03  0.91601979872E+02 0.  0.
    9000005    2    3    3    0    0 -0.27205731875E+02 -0.32697390623E+02  0.41706913312E+02  0.60608267860E+02  0.11163526077E+02 0.  0.
         22    1    3    3    0    0  0.27205731875E+02  0.32697390623E+02  0.69015050845E+01  0.43091785445E+02  0.00000000000E+00 0. -1.
         22    1    4    4    0    0 -0.13025466871E+02 -0.11959037883E+02  0.10574475678E+02  0.20603419866E+02  0.00000000000E+00 0.  1.
         22    1    4    4    0    0 -0.14180265004E+02 -0.20738352740E+02  0.31132437634E+02  0.40004847994E+02  0.00000000000E+00 0.  1.
<mgrwt>
<rscale>  0 0.91601980E+02</rscale>
<asrwt>0</asrwt>
<pdfrwt beam="2">  1        1 0.42378181E-02 0.91601980E+02</pdfrwt>
<pdfrwt beam="1">  1       -1 0.11716036E-01 0.91601980E+02</pdfrwt>
<totfact> 0.84342535E+04</totfact>
</mgrwt>
</event>
<event>
 7    1  0.2911475E-009  0.1156888E+03  0.7818608E-02  0.1250384E+00
          1   -1    0    0  501    0  0.00000000000E+00  0.00000000000E+00  0.30158796207E+03  0.30158796211E+03  0.50400000000E-02 0. -1.
         -1   -1    0    0    0  501 -0.00000000000E+00 -0.00000000000E+00 -0.11094521413E+02  0.11094522558E+02  0.50400000000E-02 0.  1.
         23    2    1    2    0    0 -0.71054273576E-14  0.00000000000E+00  0.29049344066E+03  0.31268248467E+03  0.11568879442E+03 0.  0.
    9000005    2    3    3    0    0 -0.38857436700E+02  0.32340604417E+02  0.71091234704E+02  0.87531106575E+02  0.72052679101E+01 0.  0.
         22    1    3    3    0    0  0.38857436700E+02 -0.32340604417E+02  0.21940220595E+03  0.22515137809E+03  0.00000000000E+00 0.  1.
         22    1    4    4    0    0 -0.23707816491E+02  0.23996239984E+02  0.48572865843E+02  0.59137157460E+02  0.00000000000E+00 0. -1.
         22    1    4    4    0    0 -0.15149620208E+02  0.83443644322E+01  0.22518368861E+02  0.28393949116E+02  0.00000000000E+00 0. -1.
<mgrwt>
<rscale>  0 0.11568879E+03</rscale>
<asrwt>0</asrwt>
<pdfrwt beam="1">  1        1 0.46398146E-01 0.11568879E+03</pdfrwt>
<pdfrwt beam="2">  1       -1 0.17068496E-02 0.11568879E+03</pdfrwt>
<totfact> 0.67454131E+04</totfact>
</mgrwt>
</event>
<event>
 7    1  0.2911475E-009  0.9367580E+02  0.7818608E-02  0.1294187E+00
          1   -1    0    0  501    0  0.00000000000E+00  0.00000000000E+00  0.16868019620E+01  0.16868094915E+01  0.50400000000E-02 0. -1.
         -1   -1    0    0    0  501 -0.00000000000E+00 -0.00000000000E+00 -0.13005582090E+04  0.13005582090E+04  0.50400000000E-02 0.  1.
         23    2    1    2    0    0  0.00000000000E+00  0.00000000000E+00 -0.12988714070E+04  0.13022450185E+04  0.93675803655E+02 0.  0.
    9000005    2    3    3    0    0 -0.20518695873E+02 -0.16751082384E+02 -0.11860247147E+04  0.11863312936E+04  0.50693914518E+01 0.  0.
         22    1    3    3    0    0  0.20518695873E+02  0.16751082384E+02 -0.11284669232E+03  0.11591372485E+03  0.00000000000E+00 0. -1.
         22    1    4    4    0    0 -0.90540474612E+01 -0.48548147625E+01 -0.39111233034E+03  0.39124723634E+03  0.00000000000E+00 0.  1.
         22    1    4    4    0    0 -0.11464648412E+02 -0.11896267622E+02 -0.79491238434E+03  0.79508405726E+03  0.00000000000E+00 0.  1.
<mgrwt>
<rscale>  0 0.93675804E+02</rscale>
<asrwt>0</asrwt>
<pdfrwt beam="1">  1        1 0.25950961E-03 0.93675804E+02</pdfrwt>
<pdfrwt beam="2">  1       -1 0.20008508E+00 0.93675804E+02</pdfrwt>
<totfact> 0.16523930E+04</totfact>
</mgrwt>
</event>
<event>
 7    1  0.2911475E-009  0.9296105E+02  0.7818608E-02  0.1295835E+00
         -1   -1    0    0    0  501 -0.00000000000E+00  0.00000000000E+00  0.28832234102E+02  0.28832234542E+02  0.50400000000E-02 0.  1.
          1   -1    0    0  501    0  0.00000000000E+00 -0.00000000000E+00 -0.74931376565E+02  0.74931376734E+02  0.50400000000E-02 0. -1.
         23    2    1    2    0    0  0.35527136788E-14  0.00000000000E+00 -0.46099142463E+02  0.10376361128E+03  0.92961046086E+02 0.  0.
    9000005    2    3    3    0    0 -0.19003047049E+02 -0.41393306194E+02 -0.21507325999E+02  0.52001858680E+02  0.12926973340E+02 0.  0.
         22    1    3    3    0    0  0.19003047049E+02  0.41393306194E+02 -0.24591816464E+02  0.51761752596E+02  0.00000000000E+00 0.  1.
         22    1    4    4    0    0  0.80116226401E+00 -0.19458442990E+01  0.11378504271E+01  0.23922530392E+01  0.00000000000E+00 0. -1.
         22    1    4    4    0    0 -0.19804209313E+02 -0.39447461895E+02 -0.22645176426E+02  0.49609605641E+02  0.00000000000E+00 0. -1.
<mgrwt>
<rscale>  0 0.92961046E+02</rscale>
<asrwt>0</asrwt>
<pdfrwt beam="2">  1        1 0.11527904E-01 0.92961046E+02</pdfrwt>
<pdfrwt beam="1">  1       -1 0.44357284E-02 0.92961046E+02</pdfrwt>
<totfact> 0.94525954E+04</totfact>
</mgrwt>
</event>
<event>
 7    1  0.2911475E-009  0.9156467E+02  0.7818608E-02  0.1299106E+00
         -1   -1    0    0    0  501 -0.00000000000E+00  0.00000000000E+00  0.49802980917E+03  0.49802980919E+03  0.50400000000E-02 0.  1.
          1   -1    0    0  501    0  0.00000000000E+00 -0.00000000000E+00 -0.42086267028E+01  0.42086297206E+01  0.50400000000E-02 0. -1.
         23    2    1    2    0    0  0.00000000000E+00  0.00000000000E+00  0.49382118246E+03  0.50223843891E+03  0.91564672617E+02 0.  0.
    9000005    2    3    3    0    0  0.32503130935E+02 -0.31937695624E+02  0.22347229922E+03  0.22807609906E+03  0.15390000930E+01 0.  0.
         22    1    3    3    0    0 -0.32503130935E+02  0.31937695624E+02  0.27034888324E+03  0.27416233985E+03  0.00000000000E+00 0. -1.
         22    1    4    4    0    0  0.31582896317E+02 -0.31298336298E+02  0.21865835832E+03  0.22313346423E+03  0.00000000000E+00 0. -1.
         22    1    4    4    0    0  0.92023461847E+00 -0.63935932639E+00  0.48139409004E+01  0.49426348332E+01  0.00000000000E+00 0. -1.
<mgrwt>
<rscale>  0 0.91564673E+02</rscale>
<asrwt>0</asrwt>
<pdfrwt beam="2">  1        1 0.64748107E-03 0.91564673E+02</pdfrwt>
<pdfrwt beam="1">  1       -1 0.76619995E-01 0.91564673E+02</pdfrwt>
<totfact> 0.46634660E+04</totfact>
</mgrwt>
</event>
<event>
 7    1  0.2911475E-009  0.9090599E+02  0.7818608E-02  0.1300672E+00
         -1   -1    0    0    0  501 -0.00000000000E+00  0.00000000000E+00  0.17545744988E+03  0.17545744996E+03  0.50400000000E-02 0.  1.
          1   -1    0    0  501    0  0.00000000000E+00 -0.00000000000E+00 -0.11774791303E+02  0.11774792382E+02  0.50400000000E-02 0. -1.
         23    2    1    2    0    0  0.00000000000E+00  0.00000000000E+00  0.16368265858E+03  0.18723224234E+03  0.90905994582E+02 0.  0.
    9000005    2    3    3    0    0 -0.34683839535E+02 -0.23918862069E+02  0.11130355122E+03  0.12001132613E+03  0.15464708163E+02 0.  0.
         22    1    3    3    0    0  0.34683839535E+02  0.23918862069E+02  0.52379107364E+02  0.67220916208E+02  0.00000000000E+00 0. -1.
         22    1    4    4    0    0 -0.28743468513E+02 -0.11212273247E+02  0.76193422636E+02  0.82203039522E+02  0.00000000000E+00 0. -1.
         22    1    4    4    0    0 -0.59403710218E+01 -0.12706588823E+02  0.35110128581E+02  0.37808286609E+02  0.00000000000E+00 0. -1.
<mgrwt>
<rscale>  0 0.90905995E+02</rscale>
<asrwt>0</asrwt>
<pdfrwt beam="2">  1        1 0.18115064E-02 0.90905995E+02</pdfrwt>
<pdfrwt beam="1">  1       -1 0.26993454E-01 0.90905995E+02</pdfrwt>
<totfact> 0.72510005E+04</totfact>
</mgrwt>
</event>
<event>
 7    1  0.2911475E-009  0.9045041E+02  0.7818608E-02  0.1301765E+00
         -1   -1    0    0    0  501 -0.00000000000E+00  0.00000000000E+00  0.64265578678E+01  0.64265598441E+01  0.50400000000E-02 0.  1.
          1   -1    0    0  501    0  0.00000000000E+00 -0.00000000000E+00 -0.31826040142E+03  0.31826040146E+03  0.50400000000E-02 0. -1.
         23    2    1    2    0    0  0.00000000000E+00  0.00000000000E+00 -0.31183384355E+03  0.32468696130E+03  0.90450411034E+02 0.  0.
    9000005    2    3    3    0    0  0.31895310049E+02 -0.29772732772E+02 -0.18983760597E+03  0.19512304501E+03  0.11443759690E+02 0.  0.
         22    1    3    3    0    0 -0.31895310049E+02  0.29772732772E+02 -0.12199623758E+03  0.12956391629E+03  0.00000000000E+00 0.  1.
         22    1    4    4    0    0  0.29097214875E+02 -0.27431425908E+02 -0.15426388331E+03  0.15936272065E+03  0.00000000000E+00 0. -1.
         22    1    4    4    0    0  0.27980951736E+01 -0.23413068640E+01 -0.35573722661E+02  0.35760324361E+02  0.00000000000E+00 0. -1.
<mgrwt>
<rscale>  0 0.90450411E+02</rscale>
<asrwt>0</asrwt>
<pdfrwt beam="2">  1        1 0.48963127E-01 0.90450411E+02</pdfrwt>
<pdfrwt beam="1">  1       -1 0.98870161E-03 0.90450411E+02</pdfrwt>
<totfact> 0.13234615E+05</totfact>
</mgrwt>
</event>
<event>
 7    1  0.2911475E-009  0.9616251E+02  0.7818608E-02  0.1288579E+00
         -1   -1    0    0    0  501 -0.00000000000E+00  0.00000000000E+00  0.74989702900E+02  0.74989703070E+02  0.50400000000E-02 0.  1.
          1   -1    0    0  501    0  0.00000000000E+00 -0.00000000000E+00 -0.30828328215E+02  0.30828328627E+02  0.50400000000E-02 0. -1.
         23    2    1    2    0    0  0.00000000000E+00  0.00000000000E+00  0.44161374685E+02  0.10581803170E+03  0.96162512540E+02 0.  0.
    9000005    2    3    3    0    0  0.13452943788E+02  0.17826497984E+02  0.68166176639E+02  0.73030896357E+02  0.13715628246E+02 0.  0.
         22    1    3    3    0    0 -0.13452943788E+02 -0.17826497984E+02 -0.24004801953E+02  0.32787135339E+02  0.00000000000E+00 0. -1.
         22    1    4    4    0    0  0.48582868280E+01  0.16056520783E+02  0.36483035639E+02  0.40155033308E+02  0.00000000000E+00 0. -1.
         22    1    4    4    0    0  0.85946569605E+01  0.17699772006E+01  0.31683141000E+02  0.32875863049E+02  0.00000000000E+00 0. -1.
<mgrwt>
<rscale>  0 0.96162513E+02</rscale>
<asrwt>0</asrwt>
<pdfrwt beam="2">  1        1 0.47428199E-02 0.96162513E+02</pdfrwt>
<pdfrwt beam="1">  1       -1 0.11536877E-01 0.96162513E+02</pdfrwt>
<totfact> 0.74674935E+04</totfact>
</mgrwt>
</event>
<event>
 7    1  0.2911475E-009  0.9142811E+02  0.7818608E-02  0.1299430E+00
         -1   -1    0    0    0  501 -0.00000000000E+00  0.00000000000E+00  0.10304743613E+02  0.10304744845E+02  0.50400000000E-02 0.  1.
          1   -1    0    0  501    0  0.00000000000E+00 -0.00000000000E+00 -0.20279735792E+03  0.20279735798E+03  0.50400000000E-02 0. -1.
         23    2    1    2    0    0  0.00000000000E+00  0.71054273576E-14 -0.19249261431E+03  0.21310210283E+03  0.91428112015E+02 0.  0.
    9000005    2    3    3    0    0 -0.35387087545E+01 -0.41795804293E+02 -0.63052452908E+02  0.77035328414E+02  0.14121554095E+02 0.  0.
         22    1    3    3    0    0  0.35387087545E+01  0.41795804293E+02 -0.12944016140E+03  0.13606677441E+03  0.00000000000E+00 0. -1.
         22    1    4    4    0    0 -0.17018573114E+01 -0.34768740801E+02 -0.59535478696E+02  0.68965461492E+02  0.00000000000E+00 0.  1.
         22    1    4    4    0    0 -0.18368514431E+01 -0.70270634914E+01 -0.35169742115E+01  0.80698669221E+01  0.00000000000E+00 0.  1.
<mgrwt>
<rscale>  0 0.91428112E+02</rscale>
<asrwt>0</asrwt>
<pdfrwt beam="2">  1        1 0.31199591E-01 0.91428112E+02</pdfrwt>
<pdfrwt beam="1">  1       -1 0.15853454E-02 0.91428112E+02</pdfrwt>
<totfact> 0.11785196E+05</totfact>
</mgrwt>
</event>
<event>
 7    1  0.2911475E-009  0.9223327E+02  0.7818608E-02  0.1297532E+00
         -1   -1    0    0    0  501 -0.00000000000E+00  0.00000000000E+00  0.20308448870E+02  0.20308449495E+02  0.50400000000E-02 0.  1.
          1   -1    0    0  501    0  0.00000000000E+00 -0.00000000000E+00 -0.10472212397E+03  0.10472212409E+03  0.50400000000E-02 0. -1.
         23    2    1    2    0    0  0.00000000000E+00  0.00000000000E+00 -0.84413675104E+02  0.12503057359E+03  0.92233268335E+02 0.  0.
    9000005    2    3    3    0    0  0.28972058908E+02  0.34374401355E+02 -0.33475294360E+02  0.57091642934E+02  0.10857287624E+02 0.  0.
         22    1    3    3    0    0 -0.28972058908E+02 -0.34374401355E+02 -0.50938380744E+02  0.67938930656E+02  0.00000000000E+00 0.  1.
         22    1    4    4    0    0  0.21293402366E+02  0.22046884273E+02 -0.28169942292E+02  0.41629553675E+02  0.00000000000E+00 0.  1.
         22    1    4    4    0    0  0.76786565424E+01  0.12327517081E+02 -0.53053520685E+01  0.15462089259E+02  0.00000000000E+00 0.  1.
<mgrwt>
<rscale>  0 0.92233268E+02</rscale>
<asrwt>0</asrwt>
<pdfrwt beam="2">  1        1 0.16111096E-01 0.92233268E+02</pdfrwt>
<pdfrwt beam="1">  1       -1 0.31243769E-02 0.92233268E+02</pdfrwt>
<totfact> 0.10200526E+05</totfact>
</mgrwt>
</event>
<event>
 7    1  0.2911475E-009  0.9001424E+02  0.7818608E-02  0.1302817E+00
         -1   -1    0    0    0  501 -0.00000000000E+00  0.00000000000E+00  0.79987659857E+03  0.79987659859E+03  0.50400000000E-02 0.  1.
          1   -1    0    0  501    0  0.00000000000E+00 -0.00000000000E+00 -0.25324391483E+01  0.25324441636E+01  0.50400000000E-02 0. -1.
         23    2    1    2    0    0  0.11102230246E-15  0.00000000000E+00  0.79734415943E+03  0.80240904275E+03  0.90014239553E+02 0.  0.
    9000005    2    3    3    0    0 -0.80500279167E+00  0.33892757499E+02  0.66128337795E+03  0.66218813384E+03  0.69319266313E+01 0.  0.
         22    1    3    3    0    0  0.80500279167E+00 -0.33892757499E+02  0.13606078147E+03  0.14022090891E+03  0.00000000000E+00 0. -1.
         22    1    4    4    0    0  0.77740497737E+00  0.17936742931E+02  0.28656194163E+03  0.28712380169E+03  0.00000000000E+00 0.  1.
         22    1    4    4    0    0 -0.15824077690E+01  0.15956014568E+02  0.37472143633E+03  0.37506433216E+03  0.00000000000E+00 0.  1.
<mgrwt>
<rscale>  0 0.90014240E+02</rscale>
<asrwt>0</asrwt>
<pdfrwt beam="2">  1        1 0.38960663E-03 0.90014240E+02</pdfrwt>
<pdfrwt beam="1">  1       -1 0.12305787E+00 0.90014240E+02</pdfrwt>
<totfact> 0.33776537E+04</totfact>
</mgrwt>
</event>
<event>
 7    1  0.2911475E-009  0.9086095E+02  0.7818608E-02  0.1300780E+00
         -1   -1    0    0    0  501 -0.00000000000E+00  0.00000000000E+00  0.13341055352E+03  0.13341055361E+03  0.50400000000E-02 0. -1.
          1   -1    0    0  501    0  0.00000000000E+00 -0.00000000000E+00 -0.15470498471E+02  0.15470499292E+02  0.50400000000E-02 0.  1.
         23    2    1    2    0    0  0.17763568394E-14  0.00000000000E+00  0.11794005505E+03  0.14888105291E+03  0.90860945020E+02 0.  0.
    9000005    2    3    3    0    0  0.11210852745E+02  0.17014451873E+02  0.12520494501E+03  0.12724882191E+03  0.10040399825E+02 0.  0.
         22    1    3    3    0    0 -0.11210852745E+02 -0.17014451873E+02 -0.72648899671E+01  0.21632231000E+02  0.00000000000E+00 0.  1.
         22    1    4    4    0    0  0.10687176696E+02  0.17058165542E+02  0.12510478228E+03  0.12671386391E+03  0.00000000000E+00 0.  1.
         22    1    4    4    0    0  0.52367604856E+00 -0.43713668779E-01  0.10016273808E+00  0.53495800094E+00  0.00000000000E+00 0.  1.
<mgrwt>
<rscale>  0 0.90860945E+02</rscale>
<asrwt>0</asrwt>
<pdfrwt beam="2">  1        1 0.23800769E-02 0.90860945E+02</pdfrwt>
<pdfrwt beam="1">  1       -1 0.20524700E-01 0.90860945E+02</pdfrwt>
<totfact> 0.77487235E+04</totfact>
</mgrwt>
</event>
<event>
 7    1  0.2911475E-009  0.9463187E+02  0.7818608E-02  0.1292007E+00
         -1   -1    0    0    0  501 -0.00000000000E+00  0.00000000000E+00  0.56910797554E+01  0.56910819871E+01  0.50400000000E-02 0.  1.
          1   -1    0    0  501    0  0.00000000000E+00 -0.00000000000E+00 -0.39338708778E+03  0.39338708781E+03  0.50400000000E-02 0. -1.
         23    2    1    2    0    0  0.00000000000E+00  0.17763568394E-14 -0.38769600802E+03  0.39907816980E+03  0.94631870806E+02 0.  0.
    9000005    2    3    3    0    0  0.16119126099E+02 -0.11132627247E+02 -0.37534020831E+03  0.37591726735E+03  0.70539564419E+01 0.  0.
         22    1    3    3    0    0 -0.16119126099E+02  0.11132627247E+02 -0.12355799709E+02  0.23160902445E+02  0.00000000000E+00 0.  1.
         22    1    4    4    0    0  0.12635475539E+02 -0.98201435970E+01 -0.34112099549E+03  0.34149615522E+03  0.00000000000E+00 0. -1.
         22    1    4    4    0    0  0.34836505592E+01 -0.13124836502E+01 -0.34219212819E+02  0.34421112134E+02  0.00000000000E+00 0. -1.
<mgrwt>
<rscale>  0 0.94631871E+02</rscale>
<asrwt>0</asrwt>
<pdfrwt beam="2">  1        1 0.60521069E-01 0.94631871E+02</pdfrwt>
<pdfrwt beam="1">  1       -1 0.87555121E-03 0.94631871E+02</pdfrwt>
<totfact> 0.12184078E+05</totfact>
</mgrwt>
</event>
<event>
 7    1  0.2911475E-009  0.9057124E+02  0.7818608E-02  0.1301474E+00
         -1   -1    0    0    0  501 -0.00000000000E+00  0.00000000000E+00  0.15109300865E+03  0.15109300873E+03  0.50400000000E-02 0.  1.
          1   -1    0    0  501    0  0.00000000000E+00 -0.00000000000E+00 -0.13573012779E+02  0.13573013715E+02  0.50400000000E-02 0. -1.
         23    2    1    2    0    0  0.00000000000E+00  0.00000000000E+00  0.13751999587E+03  0.16466602245E+03  0.90571240936E+02 0.  0.
    9000005    2    3    3    0    0  0.84428719957E+01 -0.41321758431E+02  0.42026825525E+02  0.60273899230E+02  0.93765162689E+01 0.  0.
         22    1    3    3    0    0 -0.84428719957E+01  0.41321758431E+02  0.95493170342E+02  0.10439212322E+03  0.00000000000E+00 0.  1.
         22    1    4    4    0    0  0.61510089280E+01 -0.15361635343E+02  0.21319253879E+02  0.26987503352E+02  0.00000000000E+00 0.  1.
         22    1    4    4    0    0  0.22918630677E+01 -0.25960123088E+02  0.20707571646E+02  0.33286395878E+02  0.00000000000E+00 0.  1.
<mgrwt>
<rscale>  0 0.90571241E+02</rscale>
<asrwt>0</asrwt>
<pdfrwt beam="2">  1        1 0.20881559E-02 0.90571241E+02</pdfrwt>
<pdfrwt beam="1">  1       -1 0.23245078E-01 0.90571241E+02</pdfrwt>
<totfact> 0.75963100E+04</totfact>
</mgrwt>
</event>
<event>
 7    1  0.2911475E-009  0.8479359E+02  0.7818608E-02  0.1315973E+00
         -1   -1    0    0    0  501 -0.00000000000E+00  0.00000000000E+00  0.49888803281E+02  0.49888803536E+02  0.50400000000E-02 0.  1.
          1   -1    0    0  501    0  0.00000000000E+00 -0.00000000000E+00 -0.36029891315E+02  0.36029891667E+02  0.50400000000E-02 0. -1.
         23    2    1    2    0    0  0.00000000000E+00  0.00000000000E+00  0.13858911967E+02  0.85918695203E+02  0.84793589053E+02 0.  0.
    9000005    2    3    3    0    0 -0.39839672643E+02  0.10751489273E+02  0.65014047836E+01  0.44002982757E+02  0.13827515663E+02 0.  0.
         22    1    3    3    0    0  0.39839672643E+02 -0.10751489273E+02  0.73575071832E+01  0.41915712446E+02  0.00000000000E+00 0. -1.
         22    1    4    4    0    0 -0.30107613081E+02  0.13139042722E+02  0.81549984205E+01  0.33846813858E+02  0.00000000000E+00 0. -1.
         22    1    4    4    0    0 -0.97320595626E+01 -0.23875534481E+01 -0.16535936370E+01  0.10156168899E+02  0.00000000000E+00 0. -1.
<mgrwt>
<rscale>  0 0.84793589E+02</rscale>
<asrwt>0</asrwt>
<pdfrwt beam="2">  1        1 0.55430603E-02 0.84793589E+02</pdfrwt>
<pdfrwt beam="1">  1       -1 0.76752005E-02 0.84793589E+02</pdfrwt>
<totfact> 0.10948929E+05</totfact>
</mgrwt>
</event>
<event>
 7    1  0.2911475E-009  0.9107037E+02  0.7818608E-02  0.1300280E+00
         -1   -1    0    0    0  501 -0.00000000000E+00  0.00000000000E+00  0.28431649623E+01  0.28431694294E+01  0.50400000000E-02 0.  1.
          1   -1    0    0  501    0  0.00000000000E+00 -0.00000000000E+00 -0.72927585917E+03  0.72927585919E+03  0.50400000000E-02 0. -1.
         23    2    1    2    0    0  0.00000000000E+00  0.00000000000E+00 -0.72643269421E+03  0.73211902862E+03  0.91070373059E+02 0.  0.
    9000005    2    3    3    0    0 -0.14401195399E+01 -0.27217912213E+02 -0.65462646077E+03  0.65531392560E+03  0.12555845276E+02 0.  0.
         22    1    3    3    0    0  0.14401195399E+01  0.27217912213E+02 -0.71806233440E+02  0.76805103023E+02  0.00000000000E+00 0.  1.
         22    1    4    4    0    0  0.29081085454E+00 -0.11235035556E+02 -0.14537836766E+03  0.14581214071E+03  0.00000000000E+00 0. -1.
         22    1    4    4    0    0 -0.17309303944E+01 -0.15982876657E+02 -0.50924809311E+03  0.50950178488E+03  0.00000000000E+00 0. -1.
<mgrwt>
<rscale>  0 0.91070373E+02</rscale>
<asrwt>0</asrwt>
<pdfrwt beam="2">  1        1 0.11219614E+00 0.91070373E+02</pdfrwt>
<pdfrwt beam="1">  1       -1 0.43741092E-03 0.91070373E+02</pdfrwt>
<totfact> 0.14249970E+05</totfact>
</mgrwt>
</event>
<event>
 7    1  0.2911475E-009  0.8508453E+02  0.7818608E-02  0.1315212E+00
          1   -1    0    0  501    0  0.00000000000E+00  0.00000000000E+00  0.40032775507E+03  0.40032775510E+03  0.50400000000E-02 0. -1.
         -1   -1    0    0    0  501 -0.00000000000E+00 -0.00000000000E+00 -0.45209046851E+01  0.45209074944E+01  0.50400000000E-02 0.  1.
         23    2    1    2    0    0  0.00000000000E+00  0.71054273576E-14  0.39580685038E+03  0.40484866259E+03  0.85084527349E+02 0.  0.
    9000005    2    3    3    0    0 -0.20787097155E+02 -0.36627741462E+02  0.20144468827E+03  0.20597597740E+03  0.85115206251E+01 0.  0.
         22    1    3    3    0    0  0.20787097155E+02  0.36627741462E+02  0.19436216211E+03  0.19887268519E+03  0.00000000000E+00 0. -1.
         22    1    4    4    0    0 -0.36184109337E+00 -0.32717529004E+01  0.86792752907E+01  0.92825166625E+01  0.00000000000E+00 0. -1.
         22    1    4    4    0    0 -0.20425256061E+02 -0.33355988562E+02  0.19276541298E+03  0.19669346074E+03  0.00000000000E+00 0. -1.
<mgrwt>
<rscale>  0 0.85084527E+02</rscale>
<asrwt>0</asrwt>
<pdfrwt beam="1">  1        1 0.61588887E-01 0.85084527E+02</pdfrwt>
<pdfrwt beam="2">  1       -1 0.69552400E-03 0.85084527E+02</pdfrwt>
<totfact> 0.16198973E+05</totfact>
</mgrwt>
</event>
<event>
 7    1  0.2911475E-009  0.9218033E+02  0.7818608E-02  0.1297656E+00
          1   -1    0    0  501    0  0.00000000000E+00  0.00000000000E+00  0.11372200178E+04  0.11372200178E+04  0.50400000000E-02 0. -1.
         -1   -1    0    0    0  501 -0.00000000000E+00 -0.00000000000E+00 -0.18679759045E+01  0.18679827038E+01  0.50400000000E-02 0.  1.
         23    2    1    2    0    0  0.00000000000E+00  0.00000000000E+00  0.11353520419E+04  0.11390880005E+04  0.92180333480E+02 0.  0.
    9000005    2    3    3    0    0 -0.10971837736E+02 -0.91689601587E+01  0.11085637036E+04  0.11087224588E+04  0.12147209030E+02 0.  0.
         22    1    3    3    0    0  0.10971837736E+02  0.91689601587E+01  0.26788338237E+02  0.30365541642E+02  0.00000000000E+00 0.  1.
         22    1    4    4    0    0 -0.87573599858E+01 -0.83647871181E+01  0.47493764745E+03  0.47509202265E+03  0.00000000000E+00 0.  1.
         22    1    4    4    0    0 -0.22144777501E+01 -0.80417304055E+00  0.63362605616E+03  0.63363043618E+03  0.00000000000E+00 0.  1.
<mgrwt>
<rscale>  0 0.92180333E+02</rscale>
<asrwt>0</asrwt>
<pdfrwt beam="1">  1        1 0.17495717E+00 0.92180333E+02</pdfrwt>
<pdfrwt beam="2">  1       -1 0.28738103E-03 0.92180333E+02</pdfrwt>
<totfact> 0.12660446E+05</totfact>
</mgrwt>
</event>
<event>
 7    1  0.2911475E-009  0.8737166E+02  0.7818608E-02  0.1309344E+00
         -1   -1    0    0    0  501 -0.00000000000E+00  0.00000000000E+00  0.51687973203E+01  0.51687997775E+01  0.50400000000E-02 0.  1.
          1   -1    0    0  501    0  0.00000000000E+00 -0.00000000000E+00 -0.36922543646E+03  0.36922543649E+03  0.50400000000E-02 0. -1.
         23    2    1    2    0    0  0.00000000000E+00  0.35527136788E-14 -0.36405663914E+03  0.37439423627E+03  0.87371663895E+02 0.  0.
    9000005    2    3    3    0    0 -0.34899600857E+02 -0.23076526606E+02 -0.21410519272E+03  0.21871525727E+03  0.15646788555E+02 0.  0.
         22    1    3    3    0    0  0.34899600857E+02  0.23076526606E+02 -0.14995144642E+03  0.15567897900E+03  0.00000000000E+00 0. -1.
         22    1    4    4    0    0 -0.23088407369E+02 -0.90473578013E+01 -0.15009886274E+03  0.15213348689E+03  0.00000000000E+00 0.  1.
         22    1    4    4    0    0 -0.11811193489E+02 -0.14029168805E+02 -0.64006329982E+02  0.66581770379E+02  0.00000000000E+00 0.  1.
<mgrwt>
<rscale>  0 0.87371664E+02</rscale>
<asrwt>0</asrwt>
<pdfrwt beam="2">  1        1 0.56803893E-01 0.87371664E+02</pdfrwt>
<pdfrwt beam="1">  1       -1 0.79520007E-03 0.87371664E+02</pdfrwt>
<totfact> 0.14899706E+05</totfact>
</mgrwt>
</event>
<event>
 7    1  0.2911475E-009  0.9137037E+02  0.7818608E-02  0.1299567E+00
         -1   -1    0    0    0  501 -0.00000000000E+00  0.00000000000E+00  0.40768379660E+02  0.40768379971E+02  0.50400000000E-02 0.  1.
          1   -1    0    0  501    0  0.00000000000E+00 -0.00000000000E+00 -0.51194968031E+02  0.51194968279E+02  0.50400000000E-02 0. -1.
         23    2    1    2    0    0  0.00000000000E+00  0.00000000000E+00 -0.10426588371E+02  0.91963348250E+02  0.91370365416E+02 0.  0.
    9000005    2    3    3    0    0 -0.11390331450E+02  0.60452040736E+01  0.37445066014E+02  0.42385334611E+02  0.15102962574E+02 0.  0.
         22    1    3    3    0    0  0.11390331450E+02 -0.60452040736E+01 -0.47871654385E+02  0.49578013639E+02  0.00000000000E+00 0. -1.
         22    1    4    4    0    0 -0.82768055221E+01  0.10210195004E+02  0.18198100253E+02  0.22448261503E+02  0.00000000000E+00 0.  1.
         22    1    4    4    0    0 -0.31135259278E+01 -0.41649909305E+01  0.19246965760E+02  0.19937073109E+02  0.00000000000E+00 0.  1.
<mgrwt>
<rscale>  0 0.91370365E+02</rscale>
<asrwt>0</asrwt>
<pdfrwt beam="2">  1        1 0.78761490E-02 0.91370365E+02</pdfrwt>
<pdfrwt beam="1">  1       -1 0.62720584E-02 0.91370365E+02</pdfrwt>
<totfact> 0.93540778E+04</totfact>
</mgrwt>
</event>
<event>
 7    1  0.2911475E-009  0.8823139E+02  0.7818608E-02  0.1307192E+00
         -1   -1    0    0    0  501 -0.00000000000E+00  0.00000000000E+00  0.86695292648E+02  0.86695292794E+02  0.50400000000E-02 0.  1.
          1   -1    0    0  501    0  0.00000000000E+00 -0.00000000000E+00 -0.22448674132E+02  0.22448674698E+02  0.50400000000E-02 0. -1.
         23    2    1    2    0    0  0.00000000000E+00  0.00000000000E+00  0.64246618515E+02  0.10914396749E+03  0.88231386985E+02 0.  0.
    9000005    2    3    3    0    0 -0.22723189951E+02  0.21875574978E+02 -0.45528829359E+01  0.33458727570E+02  0.10191838175E+02 0.  0.
         22    1    3    3    0    0  0.22723189951E+02 -0.21875574978E+02  0.68799501451E+02  0.75685239922E+02  0.00000000000E+00 0.  1.
         22    1    4    4    0    0 -0.21319106968E+02  0.22694437948E+02 -0.54367378413E+01  0.31608542422E+02  0.00000000000E+00 0. -1.
         22    1    4    4    0    0 -0.14040829828E+01 -0.81886296997E+00  0.88385490547E+00  0.18501851475E+01  0.00000000000E+00 0. -1.
<mgrwt>
<rscale>  0 0.88231387E+02</rscale>
<asrwt>0</asrwt>
<pdfrwt beam="2">  1        1 0.34536422E-02 0.88231387E+02</pdfrwt>
<pdfrwt beam="1">  1       -1 0.13337737E-01 0.88231387E+02</pdfrwt>
<totfact> 0.90818940E+04</totfact>
</mgrwt>
</event>
<event>
 7    1  0.2911475E-009  0.9092429E+02  0.7818608E-02  0.1300629E+00
         -1   -1    0    0    0  501 -0.00000000000E+00  0.00000000000E+00  0.87669564708E+01  0.87669579195E+01  0.50400000000E-02 0. -1.
          1   -1    0    0  501    0  0.00000000000E+00 -0.00000000000E+00 -0.23574958173E+03  0.23574958178E+03  0.50400000000E-02 0.  1.
         23    2    1    2    0    0  0.00000000000E+00  0.00000000000E+00 -0.22698262526E+03  0.24451653970E+03  0.90924287288E+02 0.  0.
    9000005    2    3    3    0    0 -0.34351713280E+02 -0.11752252097E+02 -0.18673078320E+03  0.19030983879E+03  0.55940782069E+01 0.  0.
         22    1    3    3    0    0  0.34351713280E+02  0.11752252097E+02 -0.40251842054E+02  0.54206700908E+02  0.00000000000E+00 0.  1.
         22    1    4    4    0    0 -0.32436380823E+02 -0.11110013399E+02 -0.18134309313E+03  0.18455586858E+03  0.00000000000E+00 0. -1.
         22    1    4    4    0    0 -0.19153324572E+01 -0.64223869832E+00 -0.53876900692E+01  0.57539702162E+01  0.00000000000E+00 0. -1.
<mgrwt>
<rscale>  0 0.90924287E+02</rscale>
<asrwt>0</asrwt>
<pdfrwt beam="2">  1        1 0.36269162E-01 0.90924287E+02</pdfrwt>
<pdfrwt beam="1">  1       -1 0.13487628E-02 0.90924287E+02</pdfrwt>
<totfact> 0.12317297E+05</totfact>
</mgrwt>
</event>
<event>
 7    1  0.2911475E-009  0.8957677E+02  0.7818608E-02  0.1303880E+00
         -1   -1    0    0    0  501 -0.00000000000E+00  0.00000000000E+00  0.15757250577E+03  0.15757250585E+03  0.50400000000E-02 0.  1.
          1   -1    0    0  501    0  0.00000000000E+00 -0.00000000000E+00 -0.12730642070E+02  0.12730643068E+02  0.50400000000E-02 0. -1.
         23    2    1    2    0    0  0.00000000000E+00  0.00000000000E+00  0.14484186370E+03  0.17030314892E+03  0.89576766249E+02 0.  0.
    9000005    2    3    3    0    0  0.37044170408E+02 -0.22618801827E+02  0.65814150148E+02  0.80140738422E+02  0.14392874551E+02 0.  0.
         22    1    3    3    0    0 -0.37044170408E+02  0.22618801827E+02  0.79027713556E+02  0.90162410500E+02  0.00000000000E+00 0.  1.
         22    1    4    4    0    0  0.11943104790E+02 -0.51961432669E+00  0.13310793236E+02  0.17890918580E+02  0.00000000000E+00 0.  1.
         22    1    4    4    0    0  0.25101065618E+02 -0.22099187500E+02  0.52503356912E+02  0.62249819842E+02  0.00000000000E+00 0.  1.
<mgrwt>
<rscale>  0 0.89576766E+02</rscale>
<asrwt>0</asrwt>
<pdfrwt beam="2">  1        1 0.19585603E-02 0.89576766E+02</pdfrwt>
<pdfrwt beam="1">  1       -1 0.24241925E-01 0.89576766E+02</pdfrwt>
<totfact> 0.77391456E+04</totfact>
</mgrwt>
</event>
<event>
 7    1  0.2911475E-009  0.9079086E+02  0.7818608E-02  0.1300948E+00
         -1   -1    0    0    0  501 -0.00000000000E+00  0.00000000000E+00  0.16553757987E+02  0.16553758754E+02  0.50400000000E-02 0.  1.
          1   -1    0    0  501    0  0.00000000000E+00 -0.00000000000E+00 -0.12448805110E+03  0.12448805120E+03  0.50400000000E-02 0. -1.
         23    2    1    2    0    0  0.00000000000E+00  0.00000000000E+00 -0.10793429311E+03  0.14104180995E+03  0.90790861465E+02 0.  0.
    9000005    2    3    3    0    0  0.31914488962E+02 -0.13290035079E+02 -0.90890139221E+01  0.36325293319E+02  0.64619751263E+01 0.  0.
         22    1    3    3    0    0 -0.31914488962E+02  0.13290035079E+02 -0.98845279189E+02  0.10471651663E+03  0.00000000000E+00 0. -1.
         22    1    4    4    0    0  0.30831002026E+02 -0.14013134439E+02 -0.86998315027E+01  0.34965778855E+02  0.00000000000E+00 0. -1.
         22    1    4    4    0    0  0.10834869358E+01  0.72309935943E+00 -0.38918241939E+00  0.13595144645E+01  0.00000000000E+00 0. -1.
<mgrwt>
<rscale>  0 0.90790861E+02</rscale>
<asrwt>0</asrwt>
<pdfrwt beam="2">  1        1 0.19152007E-01 0.90790861E+02</pdfrwt>
<pdfrwt beam="1">  1       -1 0.25467321E-02 0.90790861E+02</pdfrwt>
<totfact> 0.10968588E+05</totfact>
</mgrwt>
</event>
<event>
 7    1  0.2911475E-009  0.8708994E+02  0.7818608E-02  0.1310056E+00
          1   -1    0    0  501    0  0.00000000000E+00  0.00000000000E+00  0.77483905870E+03  0.77483905872E+03  0.50400000000E-02 0. -1.
         -1   -1    0    0    0  501 -0.00000000000E+00 -0.00000000000E+00 -0.24471694886E+01  0.24471746786E+01  0.50400000000E-02 0.  1.
         23    2    1    2    0    0  0.00000000000E+00  0.00000000000E+00  0.77239188921E+03  0.77728623340E+03  0.87089942622E+02 0.  0.
    9000005    2    3    3    0    0  0.29350476184E+02 -0.18226157240E+02  0.61646730419E+03  0.61757987950E+03  0.13391309472E+02 0.  0.
         22    1    3    3    0    0 -0.29350476184E+02  0.18226157240E+02  0.15592458502E+03  0.15970635389E+03  0.00000000000E+00 0.  1.
         22    1    4    4    0    0  0.16167649374E+02 -0.82989819172E+01  0.21251475039E+03  0.21329037747E+03  0.00000000000E+00 0.  1.
         22    1    4    4    0    0  0.13182826810E+02 -0.99271753231E+01  0.40395255381E+03  0.40428950204E+03  0.00000000000E+00 0.  1.
<mgrwt>
<rscale>  0 0.87089943E+02</rscale>
<asrwt>0</asrwt>
<pdfrwt beam="1">  1        1 0.11920599E+00 0.87089943E+02</pdfrwt>
<pdfrwt beam="2">  1       -1 0.37648809E-03 0.87089943E+02</pdfrwt>
<totfact> 0.15986235E+05</totfact>
</mgrwt>
</event>
<event>
 7    1  0.2911475E-009  0.1009878E+03  0.7818608E-02  0.1278232E+00
          1   -1    0    0  501    0  0.00000000000E+00  0.00000000000E+00  0.28487193507E+03  0.28487193511E+03  0.50400000000E-02 0. -1.
         -1   -1    0    0    0  501 -0.00000000000E+00 -0.00000000000E+00 -0.89501078709E+01  0.89501092899E+01  0.50400000000E-02 0.  1.
         23    2    1    2    0    0  0.00000000000E+00 -0.71054273576E-14  0.27592182720E+03  0.29382204440E+03  0.10098781636E+03 0.  0.
    9000005    2    3    3    0    0  0.35637248106E+02  0.34876016730E+02  0.15835107578E+03  0.16611444249E+03  0.57091864688E+01 0.  0.
         22    1    3    3    0    0 -0.35637248106E+02 -0.34876016730E+02  0.11757075142E+03  0.12770760191E+03  0.00000000000E+00 0.  1.
         22    1    4    4    0    0  0.95943757622E+00  0.27396357002E+01  0.98457494283E+01  0.10264740914E+02  0.00000000000E+00 0. -1.
         22    1    4    4    0    0  0.34677810529E+02  0.32136381030E+02  0.14850532635E+03  0.15584970158E+03  0.00000000000E+00 0. -1.
<mgrwt>
<rscale>  0 0.10098782E+03</rscale>
<asrwt>0</asrwt>
<pdfrwt beam="1">  1        1 0.43826446E-01 0.10098782E+03</pdfrwt>
<pdfrwt beam="2">  1       -1 0.13769399E-02 0.10098782E+03</pdfrwt>
<totfact> 0.96445384E+04</totfact>
</mgrwt>
</event>
<event>
 7    1  0.2911475E-009  0.9189931E+02  0.7818608E-02  0.1298316E+00
          1   -1    0    0  501    0  0.00000000000E+00  0.00000000000E+00  0.25067893678E+03  0.25067893683E+03  0.50400000000E-02 0. -1.
         -1   -1    0    0    0  501 -0.00000000000E+00 -0.00000000000E+00 -0.84226079729E+01  0.84226094808E+01  0.50400000000E-02 0.  1.
         23    2    1    2    0    0  0.00000000000E+00  0.00000000000E+00  0.24225632881E+03  0.25910154631E+03  0.91899306057E+02 0.  0.
    9000005    2    3    3    0    0  0.16132222978E+02 -0.41926110920E+02  0.12562239803E+03  0.13411546227E+03  0.13708498768E+02 0.  0.
         22    1    3    3    0    0 -0.16132222978E+02  0.41926110920E+02  0.11663393077E+03  0.12498608404E+03  0.00000000000E+00 0.  1.
         22    1    4    4    0    0  0.56288643501E+01 -0.31609033570E+02  0.81207873035E+02  0.87324302230E+02  0.00000000000E+00 0.  1.
         22    1    4    4    0    0  0.10503358628E+02 -0.10317077350E+02  0.44414524996E+02  0.46791160042E+02  0.00000000000E+00 0.  1.
<mgrwt>
<rscale>  0 0.91899306E+02</rscale>
<asrwt>0</asrwt>
<pdfrwt beam="1">  1        1 0.38565993E-01 0.91899306E+02</pdfrwt>
<pdfrwt beam="2">  1       -1 0.12957859E-02 0.91899306E+02</pdfrwt>
<totfact> 0.12115092E+05</totfact>
</mgrwt>
</event>
<event>
 7    1  0.2911475E-009  0.8773099E+02  0.7818608E-02  0.1308441E+00
         -1   -1    0    0    0  501 -0.00000000000E+00  0.00000000000E+00  0.39962250000E+03  0.39962250003E+03  0.50400000000E-02 0.  1.
          1   -1    0    0  501    0  0.00000000000E+00 -0.00000000000E+00 -0.48149968355E+01  0.48149994733E+01  0.50400000000E-02 0. -1.
         23    2    1    2    0    0  0.00000000000E+00  0.88817841970E-15  0.39480750317E+03  0.40443749951E+03  0.87730989114E+02 0.  0.
    9000005    2    3    3    0    0 -0.10825776748E+02  0.45948540379E+01  0.39187951103E+03  0.39231795893E+03  0.14335955107E+02 0.  0.
         22    1    3    3    0    0  0.10825776748E+02 -0.45948540379E+01  0.29279921369E+01  0.12119540577E+02  0.00000000000E+00 0. -1.
         22    1    4    4    0    0 -0.68873377464E+01 -0.43834726399E+01  0.13088400812E+03  0.13113837667E+03  0.00000000000E+00 0. -1.
         22    1    4    4    0    0 -0.39384390018E+01  0.89783266778E+01  0.26099550291E+03  0.26117958226E+03  0.00000000000E+00 0. -1.
<mgrwt>
<rscale>  0 0.87730989E+02</rscale>
<asrwt>0</asrwt>
<pdfrwt beam="2">  1        1 0.74076899E-03 0.87730989E+02</pdfrwt>
<pdfrwt beam="1">  1       -1 0.61480381E-01 0.87730989E+02</pdfrwt>
<totfact> 0.58966570E+04</totfact>
</mgrwt>
</event>
<event>
 7    1  0.2911475E-009  0.9669485E+02  0.7818608E-02  0.1287404E+00
          1   -1    0    0  501    0  0.00000000000E+00  0.00000000000E+00  0.36676190166E+02  0.36676190512E+02  0.50400000000E-02 0. -1.
         -1   -1    0    0    0  501 -0.00000000000E+00 -0.00000000000E+00 -0.63732725919E+02  0.63732726118E+02  0.50400000000E-02 0.  1.
         23    2    1    2    0    0  0.35527136788E-14  0.00000000000E+00 -0.27056535753E+02  0.10040891663E+03  0.96694852045E+02 0.  0.
    9000005    2    3    3    0    0 -0.28181470502E+02 -0.26176946264E+02  0.16628977607E+02  0.42203660228E+02  0.50197853512E+01 0.  0.
         22    1    3    3    0    0  0.28181470502E+02  0.26176946264E+02 -0.43685513361E+02  0.58205256403E+02  0.00000000000E+00 0.  1.
         22    1    4    4    0    0 -0.17817230811E+02 -0.13174128081E+02  0.97473644316E+01  0.24207901145E+02  0.00000000000E+00 0. -1.
         22    1    4    4    0    0 -0.10364239691E+02 -0.13002818182E+02  0.68816131757E+01  0.17995759083E+02  0.00000000000E+00 0. -1.
<mgrwt>
<rscale>  0 0.96694852E+02</rscale>
<asrwt>0</asrwt>
<pdfrwt beam="1">  1        1 0.56424909E-02 0.96694852E+02</pdfrwt>
<pdfrwt beam="2">  1       -1 0.98050348E-02 0.96694852E+02</pdfrwt>
<totfact> 0.75650069E+04</totfact>
</mgrwt>
</event>
<event>
 7    1  0.2911475E-009  0.9158441E+02  0.7818608E-02  0.1299060E+00
          1   -1    0    0  501    0  0.00000000000E+00  0.00000000000E+00  0.35517844676E+01  0.35517880435E+01  0.50400000000E-02 0. -1.
         -1   -1    0    0    0  501 -0.00000000000E+00 -0.00000000000E+00 -0.59038632294E+03  0.59038632297E+03  0.50400000000E-02 0.  1.
         23    2    1    2    0    0  0.00000000000E+00  0.00000000000E+00 -0.58683453848E+03  0.59393811101E+03  0.91584410028E+02 0.  0.
    9000005    2    3    3    0    0 -0.32109153849E+02  0.24692546884E+02 -0.42578178374E+03  0.42786972316E+03  0.11901806801E+02 0.  0.
         22    1    3    3    0    0  0.32109153849E+02 -0.24692546884E+02 -0.16105275474E+03  0.16606838785E+03  0.00000000000E+00 0. -1.
         22    1    4    4    0    0 -0.39464763691E+01  0.32914603363E+01 -0.24564613606E+02  0.25096386761E+02  0.00000000000E+00 0. -1.
         22    1    4    4    0    0 -0.28162677480E+02  0.21401086548E+02 -0.40121717013E+03  0.40277333640E+03  0.00000000000E+00 0. -1.
<mgrwt>
<rscale>  0 0.91584410E+02</rscale>
<asrwt>0</asrwt>
<pdfrwt beam="1">  1        1 0.54642913E-03 0.91584410E+02</pdfrwt>
<pdfrwt beam="2">  1       -1 0.90828587E-01 0.91584410E+02</pdfrwt>
<totfact> 0.41616167E+04</totfact>
</mgrwt>
</event>
<event>
 7    1  0.2911475E-009  0.9086225E+02  0.7818608E-02  0.1300777E+00
          1   -1    0    0  501    0  0.00000000000E+00  0.00000000000E+00  0.23129346360E+03  0.23129346365E+03  0.50400000000E-02 0. -1.
         -1   -1    0    0    0  501 -0.00000000000E+00 -0.00000000000E+00 -0.89236726354E+01  0.89236740587E+01  0.50400000000E-02 0.  1.
         23    2    1    2    0    0  0.00000000000E+00  0.00000000000E+00  0.22236979096E+03  0.24021713771E+03  0.90862254636E+02 0.  0.
    9000005    2    3    3    0    0  0.37552167502E+02  0.62006219258E+01  0.17674969779E+03  0.18080496811E+03  0.11695406589E+01 0.  0.
         22    1    3    3    0    0 -0.37552167502E+02 -0.62006219258E+01  0.45620093165E+02  0.59412169602E+02  0.00000000000E+00 0.  1.
         22    1    4    4    0    0  0.19953868393E+02  0.27153981000E+01  0.94037766323E+02  0.96169806830E+02  0.00000000000E+00 0.  1.
         22    1    4    4    0    0  0.17598299109E+02  0.34852238258E+01  0.82711931472E+02  0.84635161277E+02  0.00000000000E+00 0.  1.
<mgrwt>
<rscale>  0 0.90862255E+02</rscale>
<asrwt>0</asrwt>
<pdfrwt beam="1">  1        1 0.35583613E-01 0.90862255E+02</pdfrwt>
<pdfrwt beam="2">  1       -1 0.13728727E-02 0.90862255E+02</pdfrwt>
<totfact> 0.12293931E+05</totfact>
</mgrwt>
</event>
<event>
 7    1  0.2911475E-009  0.9428145E+02  0.7818608E-02  0.1292803E+00
         -1   -1    0    0    0  501 -0.00000000000E+00  0.00000000000E+00  0.64501181946E+02  0.64501182142E+02  0.50400000000E-02 0.  1.
          1   -1    0    0  501    0  0.00000000000E+00 -0.00000000000E+00 -0.34452823311E+02  0.34452823680E+02  0.50400000000E-02 0. -1.
         23    2    1    2    0    0  0.00000000000E+00  0.35527136788E-14  0.30048358634E+02  0.98954005822E+02  0.94281447866E+02 0.  0.
    9000005    2    3    3    0    0  0.36734963344E+02 -0.28235699199E+02  0.19988031602E+02  0.51541745581E+02  0.10503232317E+02 0.  0.
         22    1    3    3    0    0 -0.36734963344E+02  0.28235699199E+02  0.10060327032E+02  0.47412260241E+02  0.00000000000E+00 0.  1.
         22    1    4    4    0    0  0.17071505469E+02 -0.12097842713E+02  0.14670180079E+02  0.25554026705E+02  0.00000000000E+00 0.  1.
         22    1    4    4    0    0  0.19663457875E+02 -0.16137856487E+02  0.53178515225E+01  0.25987718876E+02  0.00000000000E+00 0.  1.
<mgrwt>
<rscale>  0 0.94281448E+02</rscale>
<asrwt>0</asrwt>
<pdfrwt beam="2">  1        1 0.53004344E-02 0.94281448E+02</pdfrwt>
<pdfrwt beam="1">  1       -1 0.99232588E-02 0.94281448E+02</pdfrwt>
<totfact> 0.80517333E+04</totfact>
</mgrwt>
</event>
<event>
 7    1  0.2911475E-009  0.9117566E+02  0.7818608E-02  0.1300029E+00
         -1   -1    0    0    0  501 -0.00000000000E+00  0.00000000000E+00  0.55593453301E+02  0.55593453529E+02  0.50400000000E-02 0.  1.
          1   -1    0    0  501    0  0.00000000000E+00 -0.00000000000E+00 -0.37383001746E+02  0.37383002085E+02  0.50400000000E-02 0. -1.
         23    2    1    2    0    0 -0.44408920985E-15  0.00000000000E+00  0.18210451555E+02  0.92976455614E+02  0.91175658773E+02 0.  0.
    9000005    2    3    3    0    0  0.20320529528E+01 -0.31829562787E+02  0.41979007158E+02  0.53199646519E+02  0.71214493847E+01 0.  0.
         22    1    3    3    0    0 -0.20320529528E+01  0.31829562787E+02 -0.23768555603E+02  0.39776809096E+02  0.00000000000E+00 0. -1.
         22    1    4    4    0    0  0.31034260854E+01 -0.54082140156E+01  0.81969354606E+01  0.10299018558E+02  0.00000000000E+00 0.  1.
         22    1    4    4    0    0 -0.10713731327E+01 -0.26421348771E+02  0.33782071697E+02  0.42900627961E+02  0.00000000000E+00 0.  1.
<mgrwt>
<rscale>  0 0.91175659E+02</rscale>
<asrwt>0</asrwt>
<pdfrwt beam="2">  1        1 0.57512311E-02 0.91175659E+02</pdfrwt>
<pdfrwt beam="1">  1       -1 0.85528390E-02 0.91175659E+02</pdfrwt>
<totfact> 0.89735115E+04</totfact>
</mgrwt>
</event>
<event>
 7    1  0.2911475E-009  0.9118578E+02  0.7818608E-02  0.1300005E+00
         -1   -1    0    0    0  501 -0.00000000000E+00  0.00000000000E+00  0.21117408162E+02  0.21117408764E+02  0.50400000000E-02 0.  1.
          1   -1    0    0  501    0  0.00000000000E+00 -0.00000000000E+00 -0.98435914199E+02  0.98435914328E+02  0.50400000000E-02 0. -1.
         23    2    1    2    0    0  0.00000000000E+00  0.35527136788E-14 -0.77318506037E+02  0.11955332309E+03  0.91185775681E+02 0.  0.
    9000005    2    3    3    0    0 -0.29666298806E+02 -0.31336054349E+02 -0.54528906917E+02  0.70753697939E+02  0.13063173253E+02 0.  0.
         22    1    3    3    0    0  0.29666298806E+02  0.31336054349E+02 -0.22789599119E+02  0.48799625153E+02  0.00000000000E+00 0.  1.
         22    1    4    4    0    0 -0.18452881410E+02 -0.19019377069E+02 -0.42952261690E+02  0.50469221518E+02  0.00000000000E+00 0. -1.
         22    1    4    4    0    0 -0.11213417396E+02 -0.12316677281E+02 -0.11576645227E+02  0.20284476421E+02  0.00000000000E+00 0. -1.
<mgrwt>
<rscale>  0 0.91185776E+02</rscale>
<asrwt>0</asrwt>
<pdfrwt beam="2">  1        1 0.15143987E-01 0.91185776E+02</pdfrwt>
<pdfrwt beam="1">  1       -1 0.32488321E-02 0.91185776E+02</pdfrwt>
<totfact> 0.10415097E+05</totfact>
</mgrwt>
</event>
<event>
 7    1  0.2911475E-009  0.9067979E+02  0.7818608E-02  0.1301214E+00
         -1   -1    0    0    0  501 -0.00000000000E+00  0.00000000000E+00  0.29756367315E+02  0.29756367742E+02  0.50400000000E-02 0.  1.
          1   -1    0    0  501    0  0.00000000000E+00 -0.00000000000E+00 -0.69084582261E+02  0.69084582445E+02  0.50400000000E-02 0. -1.
         23    2    1    2    0    0  0.00000000000E+00 -0.71054273576E-14 -0.39328214946E+02  0.98840950186E+02  0.90679793465E+02 0.  0.
    9000005    2    3    3    0    0  0.55007714397E+01  0.41738605301E+02 -0.58048378239E+01  0.45024721476E+02  0.14871440514E+02 0.  0.
         22    1    3    3    0    0 -0.55007714397E+01 -0.41738605301E+02 -0.33523377122E+02  0.53816228710E+02  0.00000000000E+00 0. -1.
         22    1    4    4    0    0 -0.24756399085E+00  0.56323588340E+01 -0.63080706746E+01  0.84602901605E+01  0.00000000000E+00 0.  1.
         22    1    4    4    0    0  0.57483354306E+01  0.36106246467E+02  0.50323285070E+00  0.36564431316E+02  0.00000000000E+00 0.  1.
<mgrwt>
<rscale>  0 0.90679793E+02</rscale>
<asrwt>0</asrwt>
<pdfrwt beam="2">  1        1 0.10628397E-01 0.90679793E+02</pdfrwt>
<pdfrwt beam="1">  1       -1 0.45779027E-02 0.90679793E+02</pdfrwt>
<totfact> 0.99962072E+04</totfact>
</mgrwt>
</event>
<event>
 7    1  0.2911475E-009  0.8858585E+02  0.7818608E-02  0.1306313E+00
         -1   -1    0    0    0  501 -0.00000000000E+00  0.00000000000E+00  0.22552481476E+02  0.22552482039E+02  0.50400000000E-02 0.  1.
          1   -1    0    0  501    0  0.00000000000E+00 -0.00000000000E+00 -0.86991015804E+02  0.86991015950E+02  0.50400000000E-02 0. -1.
         23    2    1    2    0    0  0.00000000000E+00  0.00000000000E+00 -0.64438534328E+02  0.10954349799E+03  0.88585852400E+02 0.  0.
    9000005    2    3    3    0    0 -0.74609226463E+01 -0.43193629592E+02 -0.35967340507E+02  0.57275306116E+02  0.80904946377E+01 0.  0.
         22    1    3    3    0    0  0.74609226463E+01  0.43193629592E+02 -0.28471193821E+02  0.52268191873E+02  0.00000000000E+00 0.  1.
         22    1    4    4    0    0 -0.16670134359E+01 -0.28902141266E+02 -0.20821163735E+02  0.35659971437E+02  0.00000000000E+00 0.  1.
         22    1    4    4    0    0 -0.57939092104E+01 -0.14291488326E+02 -0.15146176772E+02  0.21615334680E+02  0.00000000000E+00 0.  1.
<mgrwt>
<rscale>  0 0.88585852E+02</rscale>
<asrwt>0</asrwt>
<pdfrwt beam="2">  1        1 0.13383233E-01 0.88585852E+02</pdfrwt>
<pdfrwt beam="1">  1       -1 0.34696126E-02 0.88585852E+02</pdfrwt>
<totfact> 0.11045774E+05</totfact>
</mgrwt>
</event>
<event>
 7    1  0.2911475E-009  0.9229875E+02  0.7818608E-02  0.1297379E+00
          1   -1    0    0  501    0  0.00000000000E+00  0.00000000000E+00  0.71214809673E+01  0.71214827507E+01  0.50400000000E-02 0. -1.
         -1   -1    0    0    0  501 -0.00000000000E+00 -0.00000000000E+00 -0.29906203041E+03  0.29906203045E+03  0.50400000000E-02 0.  1.
         23    2    1    2    0    0  0.00000000000E+00 -0.71054273576E-14 -0.29194054944E+03  0.30618351320E+03  0.92298750525E+02 0.  0.
    9000005    2    3    3    0    0  0.20382758599E+02  0.40105916831E+02 -0.16919679841E+03  0.17545490184E+03  0.11529291924E+02 0.  0.
         22    1    3    3    0    0 -0.20382758599E+02 -0.40105916831E+02 -0.12274375103E+03  0.13072861137E+03  0.00000000000E+00 0. -1.
         22    1    4    4    0    0  0.19697121116E+02  0.35988026957E+02 -0.16219461841E+03  0.16730274625E+03  0.00000000000E+00 0. -1.
         22    1    4    4    0    0  0.68563748308E+00  0.41178898748E+01 -0.70021800058E+01  0.81521555808E+01  0.00000000000E+00 0. -1.
<mgrwt>
<rscale>  0 0.92298751E+02</rscale>
<asrwt>0</asrwt>
<pdfrwt beam="1">  1        1 0.10956128E-02 0.92298751E+02</pdfrwt>
<pdfrwt beam="2">  1       -1 0.46009534E-01 0.92298751E+02</pdfrwt>
<totfact> 0.58749557E+04</totfact>
</mgrwt>
</event>
<event>
 7    1  0.2911475E-009  0.6272223E+02  0.7818608E-02  0.1386750E+00
          1   -1    0    0  501    0  0.00000000000E+00  0.00000000000E+00  0.16869153628E+03  0.16869153635E+03  0.50400000000E-02 0. -1.
         -1   -1    0    0    0  501 -0.00000000000E+00 -0.00000000000E+00 -0.58302820821E+01  0.58302842606E+01  0.50400000000E-02 0.  1.
         23    2    1    2    0    0  0.35527136788E-14  0.00000000000E+00  0.16286125419E+03  0.17452182061E+03  0.62722226938E+02 0.  0.
    9000005    2    3    3    0    0 -0.17685155908E+02 -0.19424287564E+02  0.12324672021E+03  0.12698889529E+03  0.15695789167E+02 0.  0.
         22    1    3    3    0    0  0.17685155908E+02  0.19424287564E+02  0.39614533983E+02  0.47532925321E+02  0.00000000000E+00 0.  1.
         22    1    4    4    0    0 -0.97004744604E+01 -0.24236632268E+00  0.34170631263E+02  0.35521683337E+02  0.00000000000E+00 0. -1.
         22    1    4    4    0    0 -0.79846814478E+01 -0.19181921242E+02  0.89076088949E+02  0.91467211955E+02  0.00000000000E+00 0. -1.
<mgrwt>
<rscale>  0 0.62722227E+02</rscale>
<asrwt>0</asrwt>
<pdfrwt beam="1">  1        1 0.25952544E-01 0.62722227E+02</pdfrwt>
<pdfrwt beam="2">  1       -1 0.89696665E-03 0.62722227E+02</pdfrwt>
<totfact> 0.30689174E+05</totfact>
</mgrwt>
</event>
<event>
 7    1  0.2911475E-009  0.9381608E+02  0.7818608E-02  0.1293865E+00
         -1   -1    0    0    0  501 -0.00000000000E+00  0.00000000000E+00  0.22875521623E+02  0.22875522178E+02  0.50400000000E-02 0.  1.
          1   -1    0    0  501    0  0.00000000000E+00 -0.00000000000E+00 -0.96188594571E+02  0.96188594703E+02  0.50400000000E-02 0. -1.
         23    2    1    2    0    0  0.00000000000E+00  0.00000000000E+00 -0.73313072948E+02  0.11906411688E+03  0.93816082116E+02 0.  0.
    9000005    2    3    3    0    0 -0.41458932340E+02  0.11780641265E+02 -0.57085211464E+02  0.73010126091E+02  0.14633200760E+02 0.  0.
         22    1    3    3    0    0  0.41458932340E+02 -0.11780641265E+02 -0.16227861484E+02  0.46053990790E+02  0.00000000000E+00 0.  1.
         22    1    4    4    0    0 -0.70936026236E+01  0.60256016487E+01 -0.20355226418E+02  0.22382187470E+02  0.00000000000E+00 0.  1.
         22    1    4    4    0    0 -0.34365329716E+02  0.57550396162E+01 -0.36729985046E+02  0.50627938621E+02  0.00000000000E+00 0.  1.
<mgrwt>
<rscale>  0 0.93816082E+02</rscale>
<asrwt>0</asrwt>
<pdfrwt beam="2">  1        1 0.14798245E-01 0.93816082E+02</pdfrwt>
<pdfrwt beam="1">  1       -1 0.35193111E-02 0.93816082E+02</pdfrwt>
<totfact> 0.95986078E+04</totfact>
</mgrwt>
</event>
<event>
 7    1  0.2911475E-009  0.8968472E+02  0.7818608E-02  0.1303617E+00
          1   -1    0    0  501    0  0.00000000000E+00  0.00000000000E+00  0.11592961772E+03  0.11592961782E+03  0.50400000000E-02 0. -1.
         -1   -1    0    0    0  501 -0.00000000000E+00 -0.00000000000E+00 -0.17345327297E+02  0.17345328029E+02  0.50400000000E-02 0.  1.
         23    2    1    2    0    0  0.35527136788E-14  0.00000000000E+00  0.98584290419E+02  0.13327494585E+03  0.89684719295E+02 0.  0.
    9000005    2    3    3    0    0 -0.21820837805E+02  0.98156181271E+01  0.10536476475E+03  0.10840588568E+03  0.88094878919E+01 0.  0.
         22    1    3    3    0    0  0.21820837805E+02 -0.98156181271E+01 -0.67804743348E+01  0.24869060174E+02  0.00000000000E+00 0.  1.
         22    1    4    4    0    0 -0.21585456678E+02  0.72777089503E+01  0.90413796180E+02  0.93239216681E+02  0.00000000000E+00 0. -1.
         22    1    4    4    0    0 -0.23538112660E+00  0.25379091768E+01  0.14950968573E+02  0.15166668999E+02  0.00000000000E+00 0. -1.
<mgrwt>
<rscale>  0 0.89684719E+02</rscale>
<asrwt>0</asrwt>
<pdfrwt beam="1">  1        1 0.17835326E-01 0.89684719E+02</pdfrwt>
<pdfrwt beam="2">  1       -1 0.26685119E-02 0.89684719E+02</pdfrwt>
<totfact> 0.11199476E+05</totfact>
</mgrwt>
</event>
<event>
 7    1  0.2911475E-009  0.9197176E+02  0.7818608E-02  0.1298146E+00
          1   -1    0    0  501    0  0.00000000000E+00  0.00000000000E+00  0.14791329620E+02  0.14791330478E+02  0.50400000000E-02 0. -1.
         -1   -1    0    0    0  501 -0.00000000000E+00 -0.00000000000E+00 -0.14296897282E+03  0.14296897291E+03  0.50400000000E-02 0.  1.
         23    2    1    2    0    0  0.00000000000E+00  0.00000000000E+00 -0.12817764320E+03  0.15776030338E+03  0.91971762559E+02 0.  0.
    9000005    2    3    3    0    0 -0.18275097676E+01  0.36462470453E+02 -0.20450570091E+02  0.44015088876E+02  0.13647369278E+02 0.  0.
         22    1    3    3    0    0  0.18275097676E+01 -0.36462470453E+02 -0.10772707311E+03  0.11374521451E+03  0.00000000000E+00 0.  1.
         22    1    4    4    0    0 -0.18255797828E+01  0.37159551288E+02 -0.21336059543E+02  0.42888138573E+02  0.00000000000E+00 0. -1.
         22    1    4    4    0    0 -0.19299848259E-02 -0.69708083478E+00  0.88548945202E+00  0.11269503027E+01  0.00000000000E+00 0. -1.
<mgrwt>
<rscale>  0 0.91971763E+02</rscale>
<asrwt>0</asrwt>
<pdfrwt beam="1">  1        1 0.22755893E-02 0.91971763E+02</pdfrwt>
<pdfrwt beam="2">  1       -1 0.21995226E-01 0.91971763E+02</pdfrwt>
<totfact> 0.73935726E+04</totfact>
</mgrwt>
</event>
<event>
 7    1  0.2911475E-009  0.9332387E+02  0.7818608E-02  0.1294996E+00
         -1   -1    0    0    0  501 -0.00000000000E+00  0.00000000000E+00  0.12934471028E+02  0.12934472010E+02  0.50400000000E-02 0.  1.
          1   -1    0    0  501    0  0.00000000000E+00 -0.00000000000E+00 -0.16833590787E+03  0.16833590795E+03  0.50400000000E-02 0. -1.
         23    2    1    2    0    0  0.17763568394E-14 -0.17763568394E-14 -0.15540143684E+03  0.18127037996E+03  0.93323866598E+02 0.  0.
    9000005    2    3    3    0    0 -0.10270959367E+02 -0.13200612299E+02 -0.16190531558E+03  0.16332465038E+03  0.13485601108E+02 0.  0.
         22    1    3    3    0    0  0.10270959367E+02  0.13200612299E+02  0.65038787377E+01  0.17945729576E+02  0.00000000000E+00 0.  1.
         22    1    4    4    0    0 -0.13801716463E+01  0.28240975393E+01 -0.21564354246E+02  0.21792241159E+02  0.00000000000E+00 0.  1.
         22    1    4    4    0    0 -0.88907877209E+01 -0.16024709839E+02 -0.14034096133E+03  0.14153240922E+03  0.00000000000E+00 0.  1.
<mgrwt>
<rscale>  0 0.93323867E+02</rscale>
<asrwt>0</asrwt>
<pdfrwt beam="2">  1        1 0.25897831E-01 0.93323867E+02</pdfrwt>
<pdfrwt beam="1">  1       -1 0.19899188E-02 0.93323867E+02</pdfrwt>
<totfact> 0.10759427E+05</totfact>
</mgrwt>
</event>
<event>
 7    1  0.2911475E-009  0.9260936E+02  0.7818608E-02  0.1296653E+00
          1   -1    0    0  501    0  0.00000000000E+00  0.00000000000E+00  0.11055862270E+03  0.11055862282E+03  0.50400000000E-02 0. -1.
         -1   -1    0    0    0  501 -0.00000000000E+00 -0.00000000000E+00 -0.19393541566E+02  0.19393542221E+02  0.50400000000E-02 0.  1.
         23    2    1    2    0    0  0.00000000000E+00  0.00000000000E+00  0.91165081138E+02  0.12995216504E+03  0.92609357948E+02 0.  0.
    9000005    2    3    3    0    0  0.73204923888E+01  0.41215704940E+02  0.71302869108E+02  0.83618252953E+02  0.12473537643E+02 0.  0.
         22    1    3    3    0    0 -0.73204923888E+01 -0.41215704940E+02  0.19862212029E+02  0.46333912086E+02  0.00000000000E+00 0.  1.
         22    1    4    4    0    0  0.92752886388E+01  0.39969138766E+02  0.69385811993E+02  0.80609887352E+02  0.00000000000E+00 0. -1.
         22    1    4    4    0    0 -0.19547962500E+01  0.12465661735E+01  0.19170571160E+01  0.30083656011E+01  0.00000000000E+00 0. -1.
<mgrwt>
<rscale>  0 0.92609358E+02</rscale>
<asrwt>0</asrwt>
<pdfrwt beam="1">  1        1 0.17009019E-01 0.92609358E+02</pdfrwt>
<pdfrwt beam="2">  1       -1 0.29836218E-02 0.92609358E+02</pdfrwt>
<totfact> 0.10181546E+05</totfact>
</mgrwt>
</event>
<event>
 7    1  0.2911475E-009  0.9194300E+02  0.7818608E-02  0.1298214E+00
         -1   -1    0    0    0  501 -0.00000000000E+00  0.00000000000E+00  0.51559155698E+01  0.51559180332E+01  0.50400000000E-02 0.  1.
          1   -1    0    0  501    0  0.00000000000E+00 -0.00000000000E+00 -0.40989390845E+03  0.40989390848E+03  0.50400000000E-02 0. -1.
         23    2    1    2    0    0 -0.88817841970E-15  0.00000000000E+00 -0.40473799288E+03  0.41504982651E+03  0.91943001956E+02 0.  0.
    9000005    2    3    3    0    0 -0.53851655361E+01 -0.41134879769E+02 -0.28692031416E+03  0.29014152511E+03  0.11737102366E+02 0.  0.
         22    1    3    3    0    0  0.53851655361E+01  0.41134879769E+02 -0.11781767871E+03  0.12490830140E+03  0.00000000000E+00 0.  1.
         22    1    4    4    0    0  0.24232198729E+01 -0.11575285066E+02 -0.10579820609E+03  0.10645712579E+03  0.00000000000E+00 0.  1.
         22    1    4    4    0    0 -0.78083854090E+01 -0.29559594704E+02 -0.18112210807E+03  0.18368439932E+03  0.00000000000E+00 0.  1.
<mgrwt>
<rscale>  0 0.91943002E+02</rscale>
<asrwt>0</asrwt>
<pdfrwt beam="2">  1        1 0.63060576E-01 0.91943002E+02</pdfrwt>
<pdfrwt beam="1">  1       -1 0.79321829E-03 0.91943002E+02</pdfrwt>
<totfact> 0.13244819E+05</totfact>
</mgrwt>
</event>
<event>
 7    1  0.2911475E-009  0.9046442E+02  0.7818608E-02  0.1301731E+00
         -1   -1    0    0    0  501 -0.00000000000E+00  0.00000000000E+00  0.58953162380E+01  0.58953183924E+01  0.50400000000E-02 0.  1.
          1   -1    0    0  501    0  0.00000000000E+00 -0.00000000000E+00 -0.34704712097E+03  0.34704712101E+03  0.50400000000E-02 0. -1.
         23    2    1    2    0    0  0.00000000000E+00  0.35527136788E-14 -0.34115180474E+03  0.35294243940E+03  0.90464422051E+02 0.  0.
    9000005    2    3    3    0    0 -0.35202191892E+01  0.30695265697E+02 -0.29860960944E+03  0.30036459559E+03  0.98285378037E+01 0.  0.
         22    1    3    3    0    0  0.35202191892E+01 -0.30695265697E+02 -0.42542195299E+02  0.52577843815E+02  0.00000000000E+00 0.  1.
         22    1    4    4    0    0 -0.38901971353E+01  0.31064020801E+02 -0.29744739591E+03  0.29909038827E+03  0.00000000000E+00 0.  1.
         22    1    4    4    0    0  0.36997794607E+00 -0.36875510377E+00 -0.11622135305E+01  0.12742073213E+01  0.00000000000E+00 0.  1.
<mgrwt>
<rscale>  0 0.90464422E+02</rscale>
<asrwt>0</asrwt>
<pdfrwt beam="2">  1        1 0.53391849E-01 0.90464422E+02</pdfrwt>
<pdfrwt beam="1">  1       -1 0.90697217E-03 0.90464422E+02</pdfrwt>
<totfact> 0.13440549E+05</totfact>
</mgrwt>
</event>
<event>
 7    1  0.2911475E-009  0.1252964E+03  0.7818608E-02  0.1234607E+00
         -1   -1    0    0    0  501 -0.00000000000E+00  0.00000000000E+00  0.34962097371E+02  0.34962097734E+02  0.50400000000E-02 0.  1.
          1   -1    0    0  501    0  0.00000000000E+00 -0.00000000000E+00 -0.11225857507E+03  0.11225857519E+03  0.50400000000E-02 0. -1.
         23    2    1    2    0    0 -0.35527136788E-14  0.00000000000E+00 -0.77296477702E+02  0.14722067292E+03  0.12529637293E+03 0.  0.
    9000005    2    3    3    0    0  0.18018176667E+02  0.37214747377E+02  0.15451353475E+02  0.45673874345E+02  0.11737391564E+02 0.  0.
         22    1    3    3    0    0 -0.18018176667E+02 -0.37214747377E+02 -0.92747831177E+02  0.10154679858E+03  0.00000000000E+00 0. -1.
         22    1    4    4    0    0  0.19709342224E+02  0.33114809963E+02  0.13561002010E+02  0.40852779407E+02  0.00000000000E+00 0. -1.
         22    1    4    4    0    0 -0.16911655565E+01  0.40999374142E+01  0.18903514657E+01  0.48210949383E+01  0.00000000000E+00 0. -1.
<mgrwt>
<rscale>  0 0.12529637E+03</rscale>
<asrwt>0</asrwt>
<pdfrwt beam="2">  1        1 0.17270550E-01 0.12529637E+03</pdfrwt>
<pdfrwt beam="1">  1       -1 0.53787843E-02 0.12529637E+03</pdfrwt>
<totfact> 0.44064339E+04</totfact>
</mgrwt>
</event>
<event>
 7    1  0.3986238E-009  0.9177833E+02  0.7818608E-02  0.1298601E+00
         -1   -1    0    0    0  501 -0.00000000000E+00  0.00000000000E+00  0.30685174366E+01  0.30685215757E+01  0.50400000000E-02 0.  1.
          1   -1    0    0  501    0  0.00000000000E+00 -0.00000000000E+00 -0.68626425244E+03  0.68626425246E+03  0.50400000000E-02 0. -1.
         23    2    1    2    0    0  0.00000000000E+00  0.00000000000E+00 -0.68319573500E+03  0.68933277403E+03  0.91778325496E+02 0.  0.
    9000005    2    3    3    0    0 -0.24395222880E+01  0.18783699966E+02 -0.65509927144E+03  0.65544782283E+03  0.99002200523E+01 0.  0.
         22    1    3    3    0    0  0.24395222880E+01 -0.18783699966E+02 -0.28096463566E+02  0.33884951207E+02  0.00000000000E+00 0.  1.
         22    1    4    4    0    0 -0.37537069842E+01  0.14782709825E+02 -0.36569455532E+03  0.36601246784E+03  0.00000000000E+00 0. -1.
         22    1    4    4    0    0  0.13141846962E+01  0.40009901418E+01 -0.28940471612E+03  0.28943535499E+03  0.00000000000E+00 0. -1.
<mgrwt>
<rscale>  0 0.91778325E+02</rscale>
<asrwt>0</asrwt>
<pdfrwt beam="2">  1        1 0.10557899E+00 0.91778325E+02</pdfrwt>
<pdfrwt beam="1">  1       -1 0.47208047E-03 0.91778325E+02</pdfrwt>
<totfact> 0.13973414E+05</totfact>
</mgrwt>
</event>
<event>
 7    1  0.2911475E-009  0.9238602E+02  0.7818608E-02  0.1297174E+00
         -1   -1    0    0    0  501 -0.00000000000E+00  0.00000000000E+00  0.32970467947E+02  0.32970468332E+02  0.50400000000E-02 0.  1.
          1   -1    0    0  501    0  0.00000000000E+00 -0.00000000000E+00 -0.64718345814E+02  0.64718346011E+02  0.50400000000E-02 0. -1.
         23    2    1    2    0    0 -0.71054273576E-14 -0.22204460493E-15 -0.31747877868E+02  0.97688814342E+02  0.92386020038E+02 0.  0.
    9000005    2    3    3    0    0  0.43238222619E+02  0.12238368562E+01 -0.28925295226E+02  0.54341281025E+02  0.15660793328E+02 0.  0.
         22    1    3    3    0    0 -0.43238222619E+02 -0.12238368562E+01 -0.28225826418E+01  0.43347533317E+02  0.00000000000E+00 0. -1.
         22    1    4    4    0    0 -0.16809553892E+00 -0.45703118303E+00 -0.44602824561E+01  0.44867865116E+01  0.00000000000E+00 0.  1.
         22    1    4    4    0    0  0.43406318158E+02  0.16808680393E+01 -0.24465012770E+02  0.49854494514E+02  0.00000000000E+00 0.  1.
<mgrwt>
<rscale>  0 0.92386020E+02</rscale>
<asrwt>0</asrwt>
<pdfrwt beam="2">  1        1 0.99566686E-02 0.92386020E+02</pdfrwt>
<pdfrwt beam="1">  1       -1 0.50723797E-02 0.92386020E+02</pdfrwt>
<totfact> 0.93991293E+04</totfact>
</mgrwt>
</event>
<event>
 7    1  0.2911475E-009  0.9244866E+02  0.7818608E-02  0.1297028E+00
          1   -1    0    0  501    0  0.00000000000E+00  0.00000000000E+00  0.46040428056E+03  0.46040428059E+03  0.50400000000E-02 0. -1.
         -1   -1    0    0    0  501 -0.00000000000E+00 -0.00000000000E+00 -0.46408950456E+01  0.46408977823E+01  0.50400000000E-02 0.  1.
         23    2    1    2    0    0  0.00000000000E+00  0.00000000000E+00  0.45576338552E+03  0.46504517837E+03  0.92448657911E+02 0.  0.
    9000005    2    3    3    0    0  0.13124873280E+01  0.21152131902E+02  0.43450704052E+03  0.43502905754E+03  0.21857121684E+01 0.  0.
         22    1    3    3    0    0 -0.13124873280E+01 -0.21152131902E+02  0.21256344993E+02  0.30016120826E+02  0.00000000000E+00 0.  1.
         22    1    4    4    0    0 -0.19106257053E-02  0.12190654720E+02  0.23336165180E+03  0.23367985064E+03  0.00000000000E+00 0. -1.
         22    1    4    4    0    0  0.13143979537E+01  0.89614771820E+01  0.20114538872E+03  0.20134920690E+03  0.00000000000E+00 0. -1.
<mgrwt>
<rscale>  0 0.92448658E+02</rscale>
<asrwt>0</asrwt>
<pdfrwt beam="1">  1        1 0.70831454E-01 0.92448658E+02</pdfrwt>
<pdfrwt beam="2">  1       -1 0.71398381E-03 0.92448658E+02</pdfrwt>
<totfact> 0.13282331E+05</totfact>
</mgrwt>
</event>
<event>
 7    1  0.2911475E-009  0.9269334E+02  0.7818608E-02  0.1296457E+00
         -1   -1    0    0    0  501 -0.00000000000E+00  0.00000000000E+00  0.52992489053E+02  0.52992489293E+02  0.50400000000E-02 0.  1.
          1   -1    0    0  501    0  0.00000000000E+00 -0.00000000000E+00 -0.40534305825E+02  0.40534306139E+02  0.50400000000E-02 0. -1.
         23    2    1    2    0    0  0.00000000000E+00  0.00000000000E+00  0.12458183228E+02  0.93526795432E+02  0.92693339212E+02 0.  0.
    9000005    2    3    3    0    0 -0.17491831493E+02  0.27671495956E+02  0.37566269226E+02  0.52270379689E+02  0.15788988310E+02 0.  0.
         22    1    3    3    0    0  0.17491831493E+02 -0.27671495956E+02 -0.25108085998E+02  0.41256415742E+02  0.00000000000E+00 0. -1.
         22    1    4    4    0    0  0.66386361802E+00  0.28953981069E+01  0.11830600002E+02  0.12197833476E+02  0.00000000000E+00 0. -1.
         22    1    4    4    0    0 -0.18155695111E+02  0.24776097849E+02  0.25735669224E+02  0.40072546213E+02  0.00000000000E+00 0. -1.
<mgrwt>
<rscale>  0 0.92693339E+02</rscale>
<asrwt>0</asrwt>
<pdfrwt beam="2">  1        1 0.62360471E-02 0.92693339E+02</pdfrwt>
<pdfrwt beam="1">  1       -1 0.81526906E-02 0.92693339E+02</pdfrwt>
<totfact> 0.86703674E+04</totfact>
</mgrwt>
</event>
<event>
 7    1  0.2911475E-009  0.9579834E+02  0.7818608E-02  0.1289388E+00
          1   -1    0    0  501    0  0.00000000000E+00  0.00000000000E+00  0.61847678362E+02  0.61847678567E+02  0.50400000000E-02 0. -1.
         -1   -1    0    0    0  501 -0.00000000000E+00 -0.00000000000E+00 -0.37096467382E+02  0.37096467724E+02  0.50400000000E-02 0.  1.
         23    2    1    2    0    0  0.35527136788E-14 -0.71054273576E-14  0.24751210980E+02  0.98944146291E+02  0.95798338400E+02 0.  0.
    9000005    2    3    3    0    0 -0.26619851474E+02  0.36215659190E+02 -0.36335833215E+01  0.45785073588E+02  0.79296640947E+01 0.  0.
         22    1    3    3    0    0  0.26619851474E+02 -0.36215659190E+02  0.28384794302E+02  0.53159072703E+02  0.00000000000E+00 0. -1.
         22    1    4    4    0    0 -0.12800837663E+02  0.21983747606E+02 -0.49033663995E+01  0.25907327260E+02  0.00000000000E+00 0.  1.
         22    1    4    4    0    0 -0.13819013811E+02  0.14231911584E+02  0.12697830780E+01  0.19877746329E+02  0.00000000000E+00 0.  1.
<mgrwt>
<rscale>  0 0.95798338E+02</rscale>
<asrwt>0</asrwt>
<pdfrwt beam="1">  1        1 0.95150274E-02 0.95798338E+02</pdfrwt>
<pdfrwt beam="2">  1       -1 0.57071489E-02 0.95798338E+02</pdfrwt>
<totfact> 0.84368574E+04</totfact>
</mgrwt>
</event>
<event>
 7    1  0.2911475E-009  0.9246062E+02  0.7818608E-02  0.1297000E+00
         -1   -1    0    0    0  501 -0.00000000000E+00  0.00000000000E+00  0.83874719991E+03  0.83874719993E+03  0.50400000000E-02 0.  1.
          1   -1    0    0  501    0  0.00000000000E+00 -0.00000000000E+00 -0.25481328095E+01  0.25481377938E+01  0.50400000000E-02 0. -1.
         23    2    1    2    0    0  0.00000000000E+00  0.00000000000E+00  0.83619906710E+03  0.84129533772E+03  0.92460615659E+02 0.  0.
    9000005    2    3    3    0    0  0.39076428486E+02 -0.85396645349E+01  0.61686681035E+03  0.61834572013E+03  0.15062362142E+02 0.  0.
         22    1    3    3    0    0 -0.39076428486E+02  0.85396645349E+01  0.21933225675E+03  0.22294961759E+03  0.00000000000E+00 0. -1.
         22    1    4    4    0    0  0.15188934628E+02 -0.66290493566E+00  0.14161137326E+03  0.14242515302E+03  0.00000000000E+00 0.  1.
         22    1    4    4    0    0  0.23887493858E+02 -0.78767595993E+01  0.47525543710E+03  0.47592056711E+03  0.00000000000E+00 0.  1.
<mgrwt>
<rscale>  0 0.92460616E+02</rscale>
<asrwt>0</asrwt>
<pdfrwt beam="2">  1        1 0.39202051E-03 0.92460616E+02</pdfrwt>
<pdfrwt beam="1">  1       -1 0.12903813E+00 0.92460616E+02</pdfrwt>
<totfact> 0.30033291E+04</totfact>
</mgrwt>
</event>
<event>
 7    1  0.2911475E-009  0.9512370E+02  0.7818608E-02  0.1290898E+00
         -1   -1    0    0    0  501 -0.00000000000E+00  0.00000000000E+00  0.76287329816E+01  0.76287346465E+01  0.50400000000E-02 0.  1.
          1   -1    0    0  501    0  0.00000000000E+00 -0.00000000000E+00 -0.29652752993E+03  0.29652752997E+03  0.50400000000E-02 0. -1.
         23    2    1    2    0    0  0.00000000000E+00  0.00000000000E+00 -0.28889879695E+03  0.30415626462E+03  0.95123700669E+02 0.  0.
    9000005    2    3    3    0    0  0.25486566985E+02  0.32428427776E+02 -0.21787951043E+03  0.22202888135E+03  0.11143386589E+02 0.  0.
         22    1    3    3    0    0 -0.25486566985E+02 -0.32428427776E+02 -0.71019286520E+02  0.82127383268E+02  0.00000000000E+00 0.  1.
         22    1    4    4    0    0  0.63592540738E+01  0.15454767660E+02 -0.10211485890E+03  0.10347335099E+03  0.00000000000E+00 0. -1.
         22    1    4    4    0    0  0.19127312911E+02  0.16973660117E+02 -0.11576465153E+03  0.11855553036E+03  0.00000000000E+00 0. -1.
<mgrwt>
<rscale>  0 0.95123701E+02</rscale>
<asrwt>0</asrwt>
<pdfrwt beam="2">  1        1 0.45619611E-01 0.95123701E+02</pdfrwt>
<pdfrwt beam="1">  1       -1 0.11736516E-02 0.95123701E+02</pdfrwt>
<totfact> 0.11415020E+05</totfact>
</mgrwt>
</event>
<event>
 7    1  0.2911475E-009  0.1005952E+03  0.7818608E-02  0.1279049E+00
          1   -1    0    0  501    0  0.00000000000E+00  0.00000000000E+00  0.74496963607E+03  0.74496963609E+03  0.50400000000E-02 0. -1.
         -1   -1    0    0    0  501 -0.00000000000E+00 -0.00000000000E+00 -0.33959087807E+01  0.33959125207E+01  0.50400000000E-02 0.  1.
         23    2    1    2    0    0  0.00000000000E+00  0.00000000000E+00  0.74157372729E+03  0.74836554861E+03  0.10059523516E+03 0.  0.
    9000005    2    3    3    0    0  0.24613316477E+02  0.30495160897E+02  0.60459906604E+03  0.60589510251E+03  0.57510352651E+01 0.  0.
         22    1    3    3    0    0 -0.24613316477E+02 -0.30495160897E+02  0.13697466126E+03  0.14247044610E+03  0.00000000000E+00 0.  1.
         22    1    4    4    0    0  0.11200264639E+01  0.83143711441E+00  0.43025835283E+02  0.43048440724E+02  0.00000000000E+00 0.  1.
         22    1    4    4    0    0  0.23493290013E+02  0.29663723783E+02  0.56157323075E+03  0.56284666179E+03  0.00000000000E+00 0.  1.
<mgrwt>
<rscale>  0 0.10059524E+03</rscale>
<asrwt>0</asrwt>
<pdfrwt beam="1">  1        1 0.11461082E+00 0.10059524E+03</pdfrwt>
<pdfrwt beam="2">  1       -1 0.52244730E-03 0.10059524E+03</pdfrwt>
<totfact> 0.10931941E+05</totfact>
</mgrwt>
</event>
<event>
 7    1  0.2911475E-009  0.9436250E+02  0.7818608E-02  0.1292618E+00
          1   -1    0    0  501    0  0.00000000000E+00  0.00000000000E+00  0.63835695443E+01  0.63835715339E+01  0.50400000000E-02 0. -1.
         -1   -1    0    0    0  501 -0.00000000000E+00 -0.00000000000E+00 -0.34871867407E+03  0.34871867411E+03  0.50400000000E-02 0.  1.
         23    2    1    2    0    0 -0.44408920985E-15  0.35527136788E-14 -0.34233510453E+03  0.35510224564E+03  0.94362498209E+02 0.  0.
    9000005    2    3    3    0    0  0.20974171175E+01 -0.22873578789E+02 -0.32578591091E+03  0.32679190169E+03  0.11352863015E+02 0.  0.
         22    1    3    3    0    0 -0.20974171175E+01  0.22873578789E+02 -0.16549193617E+02  0.28310343950E+02  0.00000000000E+00 0. -1.
         22    1    4    4    0    0 -0.39023809813E+01 -0.61308771272E+01 -0.66278601232E+02  0.66675851798E+02  0.00000000000E+00 0.  1.
         22    1    4    4    0    0  0.59997980989E+01 -0.16742701662E+02 -0.25950730968E+03  0.26011604990E+03  0.00000000000E+00 0.  1.
<mgrwt>
<rscale>  0 0.94362498E+02</rscale>
<asrwt>0</asrwt>
<pdfrwt beam="1">  1        1 0.98208805E-03 0.94362498E+02</pdfrwt>
<pdfrwt beam="2">  1       -1 0.53649012E-01 0.94362498E+02</pdfrwt>
<totfact> 0.51981407E+04</totfact>
</mgrwt>
</event>
<event>
 7    1  0.2911475E-009  0.8989285E+02  0.7818608E-02  0.1303111E+00
          1   -1    0    0  501    0  0.00000000000E+00  0.00000000000E+00  0.15084410011E+02  0.15084410853E+02  0.50400000000E-02 0. -1.
         -1   -1    0    0    0  501 -0.00000000000E+00 -0.00000000000E+00 -0.13392510021E+03  0.13392510030E+03  0.50400000000E-02 0.  1.
         23    2    1    2    0    0  0.00000000000E+00  0.00000000000E+00 -0.11884069020E+03  0.14900951116E+03  0.89892851598E+02 0.  0.
    9000005    2    3    3    0    0 -0.28610535507E+01 -0.16702408322E+02 -0.12775732562E+03  0.12986107889E+03  0.15962753198E+02 0.  0.
         22    1    3    3    0    0  0.28610535507E+01  0.16702408322E+02  0.89166354195E+01  0.19148432269E+02  0.00000000000E+00 0. -1.
         22    1    4    4    0    0  0.25295191195E+01  0.23649811036E+01 -0.18333896593E+02  0.18658064393E+02  0.00000000000E+00 0.  1.
         22    1    4    4    0    0 -0.53905726702E+01 -0.19067389426E+02 -0.10942342902E+03  0.11120301449E+03  0.00000000000E+00 0.  1.
<mgrwt>
<rscale>  0 0.89892852E+02</rscale>
<asrwt>0</asrwt>
<pdfrwt beam="1">  1        1 0.23206786E-02 0.89892852E+02</pdfrwt>
<pdfrwt beam="2">  1       -1 0.20603861E-01 0.89892852E+02</pdfrwt>
<totfact> 0.79597780E+04</totfact>
</mgrwt>
</event>
<event>
 7    1  0.2911475E-009  0.9023398E+02  0.7818608E-02  0.1302286E+00
         -1   -1    0    0    0  501 -0.00000000000E+00  0.00000000000E+00  0.92916190936E+01  0.92916204605E+01  0.50400000000E-02 0.  1.
          1   -1    0    0  501    0  0.00000000000E+00 -0.00000000000E+00 -0.21907296985E+03  0.21907296991E+03  0.50400000000E-02 0. -1.
         23    2    1    2    0    0  0.35527136788E-14  0.00000000000E+00 -0.20978135076E+03  0.22836459037E+03  0.90233979237E+02 0.  0.
    9000005    2    3    3    0    0 -0.31579125082E+02  0.31517265947E+02 -0.10311326735E+03  0.11274167218E+03  0.93680066102E+01 0.  0.
         22    1    3    3    0    0  0.31579125082E+02 -0.31517265947E+02 -0.10666808340E+03  0.11562291819E+03  0.00000000000E+00 0.  1.
         22    1    4    4    0    0 -0.13279914932E+02  0.16440186199E+02 -0.38559200791E+02  0.43970988487E+02  0.00000000000E+00 0. -1.
         22    1    4    4    0    0 -0.18299210150E+02  0.15077079747E+02 -0.64554066561E+02  0.68770683692E+02  0.00000000000E+00 0. -1.
<mgrwt>
<rscale>  0 0.90233979E+02</rscale>
<asrwt>0</asrwt>
<pdfrwt beam="2">  1        1 0.33703530E-01 0.90233979E+02</pdfrwt>
<pdfrwt beam="1">  1       -1 0.14294801E-02 0.90233979E+02</pdfrwt>
<totfact> 0.12392179E+05</totfact>
</mgrwt>
</event>
<event>
 7    1  0.2911475E-009  0.9074652E+02  0.7818608E-02  0.1301054E+00
         -1   -1    0    0    0  501 -0.00000000000E+00  0.00000000000E+00  0.76763127406E+01  0.76763143952E+01  0.50400000000E-02 0.  1.
          1   -1    0    0  501    0  0.00000000000E+00 -0.00000000000E+00 -0.26819289844E+03  0.26819289849E+03  0.50400000000E-02 0. -1.
         23    2    1    2    0    0 -0.71054273576E-14  0.00000000000E+00 -0.26051658570E+03  0.27586921289E+03  0.90746521653E+02 0.  0.
    9000005    2    3    3    0    0 -0.42223155772E+02  0.13502092083E+02 -0.15952738644E+03  0.16557905130E+03  0.15276886107E+01 0.  0.
         22    1    3    3    0    0  0.42223155772E+02 -0.13502092083E+02 -0.10098919926E+03  0.11029016158E+03  0.00000000000E+00 0.  1.
         22    1    4    4    0    0 -0.15426309876E+02  0.43185880066E+01 -0.59289124592E+02  0.61415157198E+02  0.00000000000E+00 0.  1.
         22    1    4    4    0    0 -0.26796845896E+02  0.91835040764E+01 -0.10023826185E+03  0.10416389411E+03  0.00000000000E+00 0.  1.
<mgrwt>
<rscale>  0 0.90746522E+02</rscale>
<asrwt>0</asrwt>
<pdfrwt beam="2">  1        1 0.41260439E-01 0.90746522E+02</pdfrwt>
<pdfrwt beam="1">  1       -1 0.11809715E-02 0.90746522E+02</pdfrwt>
<totfact> 0.12697013E+05</totfact>
</mgrwt>
</event>
<event>
 7    1  0.2911475E-009  0.8820113E+02  0.7818608E-02  0.1307267E+00
         -1   -1    0    0    0  501 -0.00000000000E+00  0.00000000000E+00  0.39214866030E+03  0.39214866033E+03  0.50400000000E-02 0.  1.
          1   -1    0    0  501    0  0.00000000000E+00 -0.00000000000E+00 -0.49594947935E+01  0.49594973544E+01  0.50400000000E-02 0. -1.
         23    2    1    2    0    0  0.00000000000E+00  0.00000000000E+00  0.38718916551E+03  0.39710815769E+03  0.88201128200E+02 0.  0.
    9000005    2    3    3    0    0 -0.41430412042E+02 -0.11790238723E+02  0.19633186905E+03  0.20145030228E+03  0.13436246260E+02 0.  0.
         22    1    3    3    0    0  0.41430412042E+02  0.11790238723E+02  0.19085729646E+03  0.19565785541E+03  0.00000000000E+00 0.  1.
         22    1    4    4    0    0 -0.10771094917E+02  0.27600732877E+01  0.43885220563E+02  0.45271923684E+02  0.00000000000E+00 0.  1.
         22    1    4    4    0    0 -0.30659317125E+02 -0.14550312010E+02  0.15244664848E+03  0.15617837859E+03  0.00000000000E+00 0.  1.
<mgrwt>
<rscale>  0 0.88201128E+02</rscale>
<asrwt>0</asrwt>
<pdfrwt beam="2">  1        1 0.76299923E-03 0.88201128E+02</pdfrwt>
<pdfrwt beam="1">  1       -1 0.60330576E-01 0.88201128E+02</pdfrwt>
<totfact> 0.58700694E+04</totfact>
</mgrwt>
</event>
<event>
 7    1  0.2911475E-009  0.9331759E+02  0.7818608E-02  0.1295011E+00
         -1   -1    0    0    0  501 -0.00000000000E+00  0.00000000000E+00  0.73740019150E+02  0.73740019323E+02  0.50400000000E-02 0.  1.
          1   -1    0    0  501    0  0.00000000000E+00 -0.00000000000E+00 -0.29523222256E+02  0.29523222686E+02  0.50400000000E-02 0. -1.
         23    2    1    2    0    0  0.00000000000E+00  0.00000000000E+00  0.44216796894E+02  0.10326324201E+03  0.93317586888E+02 0.  0.
    9000005    2    3    3    0    0 -0.29271762282E+02 -0.34733250847E+02  0.27054169919E+02  0.54706156571E+02  0.14057050735E+02 0.  0.
         22    1    3    3    0    0  0.29271762282E+02  0.34733250847E+02  0.17162626976E+02  0.48557085437E+02  0.00000000000E+00 0. -1.
         22    1    4    4    0    0 -0.12036851993E+02 -0.14354448441E+02  0.19337142084E+02  0.26923243859E+02  0.00000000000E+00 0. -1.
         22    1    4    4    0    0 -0.17234910289E+02 -0.20378802406E+02  0.77170278347E+01  0.27782912712E+02  0.00000000000E+00 0. -1.
<mgrwt>
<rscale>  0 0.93317587E+02</rscale>
<asrwt>0</asrwt>
<pdfrwt beam="2">  1        1 0.45420342E-02 0.93317587E+02</pdfrwt>
<pdfrwt beam="1">  1       -1 0.11344618E-01 0.93317587E+02</pdfrwt>
<totfact> 0.80864770E+04</totfact>
</mgrwt>
</event>
<event>
 7    1  0.2911475E-009  0.9138080E+02  0.7818608E-02  0.1299542E+00
          1   -1    0    0  501    0  0.00000000000E+00  0.00000000000E+00  0.90432840617E+01  0.90432854661E+01  0.50400000000E-02 0. -1.
         -1   -1    0    0    0  501 -0.00000000000E+00 -0.00000000000E+00 -0.23084673214E+03  0.23084673219E+03  0.50400000000E-02 0.  1.
         23    2    1    2    0    0  0.00000000000E+00  0.00000000000E+00 -0.22180344808E+03  0.23989001766E+03  0.91380802108E+02 0.  0.
    9000005    2    3    3    0    0  0.21261916053E+02  0.21425275638E+02 -0.19989308680E+03  0.20259155332E+03  0.13227993740E+02 0.  0.
         22    1    3    3    0    0 -0.21261916053E+02 -0.21425275638E+02 -0.21910361281E+02  0.37298464337E+02  0.00000000000E+00 0. -1.
         22    1    4    4    0    0  0.21414762730E+02  0.15482949862E+02 -0.14605804376E+03  0.14842932981E+03  0.00000000000E+00 0. -1.
         22    1    4    4    0    0 -0.15284667667E+00  0.59423257759E+01 -0.53835043033E+02  0.54162223515E+02  0.00000000000E+00 0. -1.
<mgrwt>
<rscale>  0 0.91380802E+02</rscale>
<asrwt>0</asrwt>
<pdfrwt beam="1">  1        1 0.13912748E-02 0.91380802E+02</pdfrwt>
<pdfrwt beam="2">  1       -1 0.35514877E-01 0.91380802E+02</pdfrwt>
<totfact> 0.66096500E+04</totfact>
</mgrwt>
</event>
<event>
 7    1  0.2911475E-009  0.9096327E+02  0.7818608E-02  0.1300536E+00
         -1   -1    0    0    0  501 -0.00000000000E+00  0.00000000000E+00  0.13248864818E+02  0.13248865776E+02  0.50400000000E-02 0.  1.
          1   -1    0    0  501    0  0.00000000000E+00 -0.00000000000E+00 -0.15613254504E+03  0.15613254512E+03  0.50400000000E-02 0. -1.
         23    2    1    2    0    0  0.00000000000E+00  0.35527136788E-14 -0.14288368023E+03  0.16938141090E+03  0.90963268873E+02 0.  0.
    9000005    2    3    3    0    0  0.92836805486E+01 -0.27150520698E+02 -0.13686345297E+03  0.14006280529E+03  0.79149964806E+01 0.  0.
         22    1    3    3    0    0 -0.92836805486E+01  0.27150520698E+02 -0.60202272593E+01  0.29318605611E+02  0.00000000000E+00 0.  1.
         22    1    4    4    0    0  0.23767094834E+01 -0.13667018822E+01 -0.77962689050E+01  0.82642864691E+01  0.00000000000E+00 0. -1.
         22    1    4    4    0    0  0.69069710653E+01 -0.25783818816E+02 -0.12906718406E+03  0.13179851882E+03  0.00000000000E+00 0. -1.
<mgrwt>
<rscale>  0 0.90963269E+02</rscale>
<asrwt>0</asrwt>
<pdfrwt beam="2">  1        1 0.24020390E-01 0.90963269E+02</pdfrwt>
<pdfrwt beam="1">  1       -1 0.20382871E-02 0.90963269E+02</pdfrwt>
<totfact> 0.11368180E+05</totfact>
</mgrwt>
</event>
<event>
 7    1  0.2911475E-009  0.9822709E+02  0.7818608E-02  0.1284069E+00
          1   -1    0    0  501    0  0.00000000000E+00  0.00000000000E+00  0.96848645959E+02  0.96848646090E+02  0.50400000000E-02 0. -1.
         -1   -1    0    0    0  501 -0.00000000000E+00 -0.00000000000E+00 -0.24906289940E+02  0.24906290450E+02  0.50400000000E-02 0.  1.
         23    2    1    2    0    0 -0.71054273576E-14  0.00000000000E+00  0.71942356019E+02  0.12175493654E+03  0.98227093932E+02 0.  0.
    9000005    2    3    3    0    0 -0.35638649535E+02  0.40868580096E+01 -0.43604725413E+01  0.37440421803E+02  0.97956987954E+01 0.  0.
         22    1    3    3    0    0  0.35638649535E+02 -0.40868580096E+01  0.76302828560E+02  0.84314514737E+02  0.00000000000E+00 0. -1.
         22    1    4    4    0    0 -0.85887371274E+01 -0.74615618282E+00  0.27644076893E+01  0.90534581441E+01  0.00000000000E+00 0. -1.
         22    1    4    4    0    0 -0.27049912408E+02  0.48330141924E+01 -0.71248802305E+01  0.28386963659E+02  0.00000000000E+00 0. -1.
<mgrwt>
<rscale>  0 0.98227094E+02</rscale>
<asrwt>0</asrwt>
<pdfrwt beam="1">  1        1 0.14899792E-01 0.98227094E+02</pdfrwt>
<pdfrwt beam="2">  1       -1 0.38317370E-02 0.98227094E+02</pdfrwt>
<totfact> 0.84694189E+04</totfact>
</mgrwt>
</event>
<event>
 7    1  0.2911475E-009  0.9469064E+02  0.7818608E-02  0.1291874E+00
          1   -1    0    0  501    0  0.00000000000E+00  0.00000000000E+00  0.28753658779E+01  0.28753702951E+01  0.50400000000E-02 0. -1.
         -1   -1    0    0    0  501 -0.00000000000E+00 -0.00000000000E+00 -0.77957995581E+03  0.77957995582E+03  0.50400000000E-02 0.  1.
         23    2    1    2    0    0  0.00000000000E+00  0.17763568394E-14 -0.77670458993E+03  0.78245532612E+03  0.94690640267E+02 0.  0.
    9000005    2    3    3    0    0  0.39133983546E+02  0.15284429436E+02 -0.56767907940E+03  0.56924944791E+03  0.45071392508E+01 0.  0.
         22    1    3    3    0    0 -0.39133983546E+02 -0.15284429436E+02 -0.20902551053E+03  0.21320587821E+03  0.00000000000E+00 0.  1.
         22    1    4    4    0    0  0.37584766401E+02  0.15247379348E+02 -0.55402965925E+03  0.55551234061E+03  0.00000000000E+00 0.  1.
         22    1    4    4    0    0  0.15492171443E+01  0.37050088340E-01 -0.13649420152E+02  0.13737107299E+02  0.00000000000E+00 0.  1.
<mgrwt>
<rscale>  0 0.94690640E+02</rscale>
<asrwt>0</asrwt>
<pdfrwt beam="1">  1        1 0.44236494E-03 0.94690640E+02</pdfrwt>
<pdfrwt beam="2">  1       -1 0.11993521E+00 0.94690640E+02</pdfrwt>
<totfact> 0.30298993E+04</totfact>
</mgrwt>
</event>
<event>
 7    1  0.2911475E-009  0.9252665E+02  0.7818608E-02  0.1296846E+00
         -1   -1    0    0    0  501 -0.00000000000E+00  0.00000000000E+00  0.10503868349E+02  0.10503869558E+02  0.50400000000E-02 0.  1.
          1   -1    0    0  501    0  0.00000000000E+00 -0.00000000000E+00 -0.20376258011E+03  0.20376258018E+03  0.50400000000E-02 0. -1.
         23    2    1    2    0    0  0.00000000000E+00 -0.71054273576E-14 -0.19325871177E+03  0.21426644974E+03  0.92526654585E+02 0.  0.
    9000005    2    3    3    0    0 -0.15485028434E+02  0.42885073263E+02 -0.10353250400E+03  0.11361999935E+03  0.10564528116E+02 0.  0.
         22    1    3    3    0    0  0.15485028434E+02 -0.42885073263E+02 -0.89726207766E+02  0.10064645038E+03  0.00000000000E+00 0. -1.
         22    1    4    4    0    0 -0.68882464635E+01  0.29828084592E+02 -0.76416302892E+02  0.82320191432E+02  0.00000000000E+00 0.  1.
         22    1    4    4    0    0 -0.85967819705E+01  0.13056988671E+02 -0.27116201108E+02  0.31299807922E+02  0.00000000000E+00 0.  1.
<mgrwt>
<rscale>  0 0.92526655E+02</rscale>
<asrwt>0</asrwt>
<pdfrwt beam="2">  1        1 0.31348086E-01 0.92526655E+02</pdfrwt>
<pdfrwt beam="1">  1       -1 0.16159800E-02 0.92526655E+02</pdfrwt>
<totfact> 0.11423718E+05</totfact>
</mgrwt>
</event>
<event>
 7    1  0.2911475E-009  0.9068309E+02  0.7818608E-02  0.1301206E+00
          1   -1    0    0  501    0  0.00000000000E+00  0.00000000000E+00  0.68699611241E+03  0.68699611242E+03  0.50400000000E-02 0. -1.
         -1   -1    0    0    0  501 -0.00000000000E+00 -0.00000000000E+00 -0.29925270315E+01  0.29925312757E+01  0.50400000000E-02 0.  1.
         23    2    1    2    0    0  0.00000000000E+00  0.00000000000E+00  0.68400358537E+03  0.68998864370E+03  0.90683094511E+02 0.  0.
    9000005    2    3    3    0    0  0.14620147311E+02  0.35214658261E+02  0.52249108595E+03  0.52403651706E+03  0.12787316313E+02 0.  0.
         22    1    3    3    0    0 -0.14620147311E+02 -0.35214658261E+02  0.16151249943E+03  0.16595212664E+03  0.00000000000E+00 0.  1.
         22    1    4    4    0    0  0.52551574865E+01  0.21937380796E+02  0.23287134778E+03  0.23396138564E+03  0.00000000000E+00 0.  1.
         22    1    4    4    0    0  0.93649898245E+01  0.13277277464E+02  0.28961973817E+03  0.29007513142E+03  0.00000000000E+00 0.  1.
<mgrwt>
<rscale>  0 0.90683095E+02</rscale>
<asrwt>0</asrwt>
<pdfrwt beam="1">  1        1 0.10569174E+00 0.90683095E+02</pdfrwt>
<pdfrwt beam="2">  1       -1 0.46038899E-03 0.90683095E+02</pdfrwt>
<totfact> 0.14424321E+05</totfact>
</mgrwt>
</event>
<event>
 7    1  0.2911475E-009  0.9112623E+02  0.7818608E-02  0.1300147E+00
         -1   -1    0    0    0  501 -0.00000000000E+00  0.00000000000E+00  0.56816624636E+01  0.56816646990E+01  0.50400000000E-02 0.  1.
          1   -1    0    0  501    0  0.00000000000E+00 -0.00000000000E+00 -0.36538549602E+03  0.36538549606E+03  0.50400000000E-02 0. -1.
         23    2    1    2    0    0  0.00000000000E+00  0.35527136788E-14 -0.35970383356E+03  0.37106716075E+03  0.91126230662E+02 0.  0.
    9000005    2    3    3    0    0 -0.13118999659E+02  0.21433521157E+02 -0.33388217821E+03  0.33503575965E+03  0.11838383784E+02 0.  0.
         22    1    3    3    0    0  0.13118999659E+02 -0.21433521157E+02 -0.25821655343E+02  0.36031401109E+02  0.00000000000E+00 0.  1.
         22    1    4    4    0    0 -0.28586540922E+01  0.26847932465E+01 -0.12532033610E+03  0.12538168390E+03  0.00000000000E+00 0.  1.
         22    1    4    4    0    0 -0.10260345567E+02  0.18748727911E+02 -0.20856184212E+03  0.20965407575E+03  0.00000000000E+00 0.  1.
<mgrwt>
<rscale>  0 0.91126231E+02</rscale>
<asrwt>0</asrwt>
<pdfrwt beam="2">  1        1 0.56213135E-01 0.91126231E+02</pdfrwt>
<pdfrwt beam="1">  1       -1 0.87410238E-03 0.91126231E+02</pdfrwt>
<totfact> 0.13303244E+05</totfact>
</mgrwt>
</event>
<event>
 7    1  0.2911475E-009  0.9053960E+02  0.7818608E-02  0.1301550E+00
          1   -1    0    0  501    0  0.00000000000E+00  0.00000000000E+00  0.29028685857E+03  0.29028685861E+03  0.50400000000E-02 0. -1.
         -1   -1    0    0    0  501 -0.00000000000E+00 -0.00000000000E+00 -0.70597565727E+01  0.70597583717E+01  0.50400000000E-02 0.  1.
         23    2    1    2    0    0  0.00000000000E+00  0.00000000000E+00  0.28322710199E+03  0.29734661698E+03  0.90539600876E+02 0.  0.
    9000005    2    3    3    0    0 -0.41899916781E+02  0.99370316935E+01  0.18627920344E+03  0.19126531487E+03  0.53039051956E+01 0.  0.
         22    1    3    3    0    0  0.41899916781E+02 -0.99370316935E+01  0.96947898550E+02  0.10608130212E+03  0.00000000000E+00 0.  1.
         22    1    4    4    0    0 -0.13817688111E+02  0.75269355910E+00  0.60540634911E+02  0.62102041253E+02  0.00000000000E+00 0.  1.
         22    1    4    4    0    0 -0.28082228670E+02  0.91843381344E+01  0.12573856853E+03  0.12916327361E+03  0.00000000000E+00 0.  1.
<mgrwt>
<rscale>  0 0.90539601E+02</rscale>
<asrwt>0</asrwt>
<pdfrwt beam="1">  1        1 0.44659522E-01 0.90539601E+02</pdfrwt>
<pdfrwt beam="2">  1       -1 0.10861164E-02 0.90539601E+02</pdfrwt>
<totfact> 0.12971792E+05</totfact>
</mgrwt>
</event>
<event>
 7    1  0.2911475E-009  0.8007854E+02  0.7818608E-02  0.1328829E+00
         -1   -1    0    0    0  501 -0.00000000000E+00  0.00000000000E+00  0.76126309600E+03  0.76126309602E+03  0.50400000000E-02 0.  1.
          1   -1    0    0  501    0  0.00000000000E+00 -0.00000000000E+00 -0.21058958009E+01  0.21059018319E+01  0.50400000000E-02 0. -1.
         23    2    1    2    0    0 -0.17763568394E-14 -0.17763568394E-14  0.75915720020E+03  0.76336899785E+03  0.80078538087E+02 0.  0.
    9000005    2    3    3    0    0  0.13272283450E+02  0.89055177531E+01  0.72903033376E+03  0.72926489493E+03  0.93057874791E+01 0.  0.
         22    1    3    3    0    0 -0.13272283450E+02 -0.89055177531E+01  0.30126866436E+02  0.34104102915E+02  0.00000000000E+00 0. -1.
         22    1    4    4    0    0  0.13851128410E+02  0.61800874923E+01  0.53633656437E+03  0.53655098315E+03  0.00000000000E+00 0. -1.
         22    1    4    4    0    0 -0.57884496013E+00  0.27254302608E+01  0.19269376939E+03  0.19271391178E+03  0.00000000000E+00 0. -1.
<mgrwt>
<rscale>  0 0.80078538E+02</rscale>
<asrwt>0</asrwt>
<pdfrwt beam="2">  1        1 0.32398387E-03 0.80078538E+02</pdfrwt>
<pdfrwt beam="1">  1       -1 0.11711760E+00 0.80078538E+02</pdfrwt>
<totfact> 0.48035355E+04</totfact>
</mgrwt>
</event>
<event>
 7    1  0.2911475E-009  0.9070470E+02  0.7818608E-02  0.1301154E+00
          1   -1    0    0  501    0  0.00000000000E+00  0.00000000000E+00  0.62920157251E+03  0.62920157253E+03  0.50400000000E-02 0. -1.
         -1   -1    0    0    0  501 -0.00000000000E+00 -0.00000000000E+00 -0.32689596027E+01  0.32689634880E+01  0.50400000000E-02 0.  1.
         23    2    1    2    0    0  0.00000000000E+00  0.00000000000E+00  0.62593261291E+03  0.63247053602E+03  0.90704702360E+02 0.  0.
    9000005    2    3    3    0    0  0.81826519217E+01  0.38807283169E+02  0.46521031461E+03  0.46692713329E+03  0.52297185523E+01 0.  0.
         22    1    3    3    0    0 -0.81826519217E+01 -0.38807283169E+02  0.16072229830E+03  0.16554340274E+03  0.00000000000E+00 0.  1.
         22    1    4    4    0    0  0.84793006510E+00  0.15555156834E+02  0.17078415178E+03  0.17149317301E+03  0.00000000000E+00 0. -1.
         22    1    4    4    0    0  0.73347218566E+01  0.23252126335E+02  0.29442616283E+03  0.29543396028E+03  0.00000000000E+00 0. -1.
<mgrwt>
<rscale>  0 0.90704702E+02</rscale>
<asrwt>0</asrwt>
<pdfrwt beam="1">  1        1 0.96800317E-01 0.90704702E+02</pdfrwt>
<pdfrwt beam="2">  1       -1 0.50291678E-03 0.90704702E+02</pdfrwt>
<totfact> 0.14388909E+05</totfact>
</mgrwt>
</event>
<event>
 7    1  0.2911475E-009  0.9090854E+02  0.7818608E-02  0.1300666E+00
          1   -1    0    0  501    0  0.00000000000E+00  0.00000000000E+00  0.63545314154E+02  0.63545314354E+02  0.50400000000E-02 0. -1.
         -1   -1    0    0    0  501 -0.00000000000E+00 -0.00000000000E+00 -0.32513657435E+02  0.32513657826E+02  0.50400000000E-02 0.  1.
         23    2    1    2    0    0 -0.71054273576E-14 -0.44408920985E-15  0.31031656718E+02  0.96058972180E+02  0.90908538749E+02 0.  0.
    9000005    2    3    3    0    0 -0.39781644813E+02 -0.37434306174E+01 -0.38559281223E+01  0.43014310687E+02  0.15452190957E+02 0.  0.
         22    1    3    3    0    0  0.39781644813E+02  0.37434306174E+01  0.34887584841E+02  0.53044661493E+02  0.00000000000E+00 0. -1.
         22    1    4    4    0    0 -0.30333814599E+02 -0.87562980237E+01  0.20763988937E+00  0.31573029274E+02  0.00000000000E+00 0. -1.
         22    1    4    4    0    0 -0.94478302143E+01  0.50128674063E+01 -0.40635680116E+01  0.11441281413E+02  0.00000000000E+00 0. -1.
<mgrwt>
<rscale>  0 0.90908539E+02</rscale>
<asrwt>0</asrwt>
<pdfrwt beam="1">  1        1 0.97762022E-02 0.90908539E+02</pdfrwt>
<pdfrwt beam="2">  1       -1 0.50021012E-02 0.90908539E+02</pdfrwt>
<totfact> 0.98010819E+04</totfact>
</mgrwt>
</event>
<event>
 7    1  0.2911475E-009  0.8208365E+02  0.7818608E-02  0.1323240E+00
          1   -1    0    0  501    0  0.00000000000E+00  0.00000000000E+00  0.59971082878E+02  0.59971083090E+02  0.50400000000E-02 0. -1.
         -1   -1    0    0    0  501 -0.00000000000E+00 -0.00000000000E+00 -0.28087396249E+02  0.28087396701E+02  0.50400000000E-02 0.  1.
         23    2    1    2    0    0  0.00000000000E+00  0.17763568394E-14  0.31883686630E+02  0.88058479791E+02  0.82083654828E+02 0.  0.
    9000005    2    3    3    0    0 -0.48536550016E+01  0.14344234904E+02 -0.22653046989E+02  0.31458388310E+02  0.15721151844E+02 0.  0.
         22    1    3    3    0    0  0.48536550016E+01 -0.14344234904E+02  0.54536733619E+02  0.56600091481E+02  0.00000000000E+00 0. -1.
         22    1    4    4    0    0 -0.75170177474E+01  0.14856280272E+02 -0.23331098166E+02  0.28662776575E+02  0.00000000000E+00 0. -1.
         22    1    4    4    0    0  0.26633627458E+01 -0.51204536840E+00  0.67805117695E+00  0.27956117351E+01  0.00000000000E+00 0. -1.
<mgrwt>
<rscale>  0 0.82083655E+02</rscale>
<asrwt>0</asrwt>
<pdfrwt beam="1">  1        1 0.92263204E-02 0.82083655E+02</pdfrwt>
<pdfrwt beam="2">  1       -1 0.43211380E-02 0.82083655E+02</pdfrwt>
<totfact> 0.12865240E+05</totfact>
</mgrwt>
</event>
<event>
 7    1  0.2911475E-009  0.9046476E+02  0.7818608E-02  0.1301730E+00
         -1   -1    0    0    0  501 -0.00000000000E+00  0.00000000000E+00  0.33975577575E+02  0.33975577949E+02  0.50400000000E-02 0.  1.
          1   -1    0    0  501    0  0.00000000000E+00 -0.00000000000E+00 -0.60218794637E+02  0.60218794847E+02  0.50400000000E-02 0. -1.
         23    2    1    2    0    0  0.00000000000E+00  0.00000000000E+00 -0.26243217061E+02  0.94194372796E+02  0.90464763443E+02 0.  0.
    9000005    2    3    3    0    0  0.43562476400E+01 -0.12868079266E+02  0.30662095724E+02  0.35689851769E+02  0.12208073051E+02 0.  0.
         22    1    3    3    0    0 -0.43562476400E+01  0.12868079266E+02 -0.56905312785E+02  0.58504521028E+02  0.00000000000E+00 0. -1.
         22    1    4    4    0    0  0.28189003053E+01 -0.44973613032E-02  0.15466758820E+02  0.15721540877E+02  0.00000000000E+00 0.  1.
         22    1    4    4    0    0  0.15373473347E+01 -0.12863581904E+02  0.15195336904E+02  0.19968310891E+02  0.00000000000E+00 0.  1.
<mgrwt>
<rscale>  0 0.90464763E+02</rscale>
<asrwt>0</asrwt>
<pdfrwt beam="2">  1        1 0.92644300E-02 0.90464763E+02</pdfrwt>
<pdfrwt beam="1">  1       -1 0.52270120E-02 0.90464763E+02</pdfrwt>
<totfact> 0.98541510E+04</totfact>
</mgrwt>
</event>
<event>
 7    1  0.2911475E-009  0.8990608E+02  0.7818608E-02  0.1303079E+00
          1   -1    0    0  501    0  0.00000000000E+00  0.00000000000E+00  0.34763555461E+03  0.34763555465E+03  0.50400000000E-02 0. -1.
         -1   -1    0    0    0  501 -0.00000000000E+00 -0.00000000000E+00 -0.58129140396E+01  0.58129162245E+01  0.50400000000E-02 0.  1.
         23    2    1    2    0    0  0.00000000000E+00  0.00000000000E+00  0.34182264057E+03  0.35344847088E+03  0.89906084081E+02 0.  0.
    9000005    2    3    3    0    0 -0.41641508334E+02  0.41670016769E+01  0.22657336270E+03  0.23083617472E+03  0.14088000290E+02 0.  0.
         22    1    3    3    0    0  0.41641508334E+02 -0.41670016769E+01  0.11524927787E+03  0.12261229616E+03  0.00000000000E+00 0.  1.
         22    1    4    4    0    0 -0.32445209226E+02 -0.13972612296E+01  0.14730076195E+03  0.15083818619E+03  0.00000000000E+00 0. -1.
         22    1    4    4    0    0 -0.91962991078E+01  0.55642629065E+01  0.79272600750E+02  0.79997988529E+02  0.00000000000E+00 0. -1.
<mgrwt>
<rscale>  0 0.89906084E+02</rscale>
<asrwt>0</asrwt>
<pdfrwt beam="1">  1        1 0.53482387E-01 0.89906084E+02</pdfrwt>
<pdfrwt beam="2">  1       -1 0.89429475E-03 0.89906084E+02</pdfrwt>
<totfact> 0.13667440E+05</totfact>
</mgrwt>
</event>
<event>
 7    1  0.2911475E-009  0.9085942E+02  0.7818608E-02  0.1300784E+00
          1   -1    0    0  501    0  0.00000000000E+00  0.00000000000E+00  0.76539185860E+03  0.76539185862E+03  0.50400000000E-02 0. -1.
         -1   -1    0    0    0  501 -0.00000000000E+00 -0.00000000000E+00 -0.26964707528E+01  0.26964754630E+01  0.50400000000E-02 0.  1.
         23    2    1    2    0    0  0.00000000000E+00  0.17763568394E-14  0.76269538785E+03  0.76808833408E+03  0.90859420567E+02 0.  0.
    9000005    2    3    3    0    0  0.32405304411E+02 -0.15996054064E+02  0.60704404932E+03  0.60829685531E+03  0.14717638233E+02 0.  0.
         22    1    3    3    0    0 -0.32405304411E+02  0.15996054064E+02  0.15565133853E+03  0.15979147876E+03  0.00000000000E+00 0.  1.
         22    1    4    4    0    0  0.26204874827E+02 -0.16935465432E+02  0.55499919690E+03  0.55587553824E+03  0.00000000000E+00 0. -1.
         22    1    4    4    0    0  0.62004295838E+01  0.93941136812E+00  0.52044852420E+02  0.52421317077E+02  0.00000000000E+00 0. -1.
<mgrwt>
<rscale>  0 0.90859421E+02</rscale>
<asrwt>0</asrwt>
<pdfrwt beam="1">  1        1 0.11775252E+00 0.90859421E+02</pdfrwt>
<pdfrwt beam="2">  1       -1 0.41484227E-03 0.90859421E+02</pdfrwt>
<totfact> 0.14306906E+05</totfact>
</mgrwt>
</event>
<event>
 7    1  0.2911475E-009  0.9039475E+02  0.7818608E-02  0.1301899E+00
         -1   -1    0    0    0  501 -0.00000000000E+00  0.00000000000E+00  0.14220816148E+02  0.14220817041E+02  0.50400000000E-02 0.  1.
          1   -1    0    0  501    0  0.00000000000E+00 -0.00000000000E+00 -0.14364876089E+03  0.14364876097E+03  0.50400000000E-02 0. -1.
         23    2    1    2    0    0  0.00000000000E+00  0.00000000000E+00 -0.12942794474E+03  0.15786957801E+03  0.90394749756E+02 0.  0.
    9000005    2    3    3    0    0 -0.44073274609E+02 -0.75552813402E+01 -0.66885944258E+02  0.80986305225E+02  0.92475014895E+01 0.  0.
         22    1    3    3    0    0  0.44073274609E+02  0.75552813402E+01 -0.62542000479E+02  0.76883272789E+02  0.00000000000E+00 0. -1.
         22    1    4    4    0    0 -0.24661827659E+02 -0.27743099642E+01 -0.29162692260E+02  0.38293147678E+02  0.00000000000E+00 0.  1.
         22    1    4    4    0    0 -0.19411446950E+02 -0.47809713760E+01 -0.37723251998E+02  0.42693157547E+02  0.00000000000E+00 0.  1.
<mgrwt>
<rscale>  0 0.90394750E+02</rscale>
<asrwt>0</asrwt>
<pdfrwt beam="2">  1        1 0.22099808E-01 0.90394750E+02</pdfrwt>
<pdfrwt beam="1">  1       -1 0.21878180E-02 0.90394750E+02</pdfrwt>
<totfact> 0.11386402E+05</totfact>
</mgrwt>
</event>
<event>
 7    1  0.2911475E-009  0.9154434E+02  0.7818608E-02  0.1299154E+00
         -1   -1    0    0    0  501 -0.00000000000E+00  0.00000000000E+00  0.17533587760E+03  0.17533587767E+03  0.50400000000E-02 0.  1.
          1   -1    0    0  501    0  0.00000000000E+00 -0.00000000000E+00 -0.11949018394E+02  0.11949019457E+02  0.50400000000E-02 0. -1.
         23    2    1    2    0    0  0.71054273576E-14  0.00000000000E+00  0.16338685920E+03  0.18728489712E+03  0.91544344069E+02 0.  0.
    9000005    2    3    3    0    0  0.41723398231E+02  0.13134459154E+02  0.10730235426E+03  0.11615946095E+03  0.81159817626E+01 0.  0.
         22    1    3    3    0    0 -0.41723398231E+02 -0.13134459154E+02  0.56084504941E+02  0.71125436179E+02  0.00000000000E+00 0. -1.
         22    1    4    4    0    0  0.28040108804E+02  0.48691052657E+01  0.66232580411E+02  0.72088213986E+02  0.00000000000E+00 0. -1.
         22    1    4    4    0    0  0.13683289427E+02  0.82653538887E+01  0.41069773850E+02  0.44071246959E+02  0.00000000000E+00 0. -1.
<mgrwt>
<rscale>  0 0.91544344E+02</rscale>
<asrwt>0</asrwt>
<pdfrwt beam="2">  1        1 0.18383108E-02 0.91544344E+02</pdfrwt>
<pdfrwt beam="1">  1       -1 0.26974748E-01 0.91544344E+02</pdfrwt>
<totfact> 0.71214241E+04</totfact>
</mgrwt>
</event>
<event>
 7    1  0.2911475E-009  0.1042732E+03  0.7818608E-02  0.1271558E+00
          1   -1    0    0  501    0  0.00000000000E+00  0.00000000000E+00  0.56876563436E+03  0.56876563438E+03  0.50400000000E-02 0. -1.
         -1   -1    0    0    0  501 -0.00000000000E+00 -0.00000000000E+00 -0.47791597706E+01  0.47791624281E+01  0.50400000000E-02 0.  1.
         23    2    1    2    0    0  0.00000000000E+00  0.17763568394E-14  0.56398647459E+03  0.57354479681E+03  0.10427315296E+03 0.  0.
    9000005    2    3    3    0    0  0.46500275889E+02 -0.10312390717E+02  0.39159088933E+03  0.39469050171E+03  0.12982544865E+02 0.  0.
         22    1    3    3    0    0 -0.46500275889E+02  0.10312390717E+02  0.17239558525E+03  0.17885429510E+03  0.00000000000E+00 0.  1.
         22    1    4    4    0    0  0.65223256386E+01 -0.55859460382E+01  0.93523775142E+02  0.93917197795E+02  0.00000000000E+00 0. -1.
         22    1    4    4    0    0  0.39977950250E+02 -0.47264446784E+01  0.29806711419E+03  0.30077330392E+03  0.00000000000E+00 0. -1.
<mgrwt>
<rscale>  0 0.10427315E+03</rscale>
<asrwt>0</asrwt>
<pdfrwt beam="1">  1        1 0.87502334E-01 0.10427315E+03</pdfrwt>
<pdfrwt beam="2">  1       -1 0.73525615E-03 0.10427315E+03</pdfrwt>
<totfact> 0.98640425E+04</totfact>
</mgrwt>
</event>
<event>
 7    1  0.2911475E-009  0.9391419E+02  0.7818608E-02  0.1293640E+00
         -1   -1    0    0    0  501 -0.00000000000E+00  0.00000000000E+00  0.89672323637E+01  0.89672337801E+01  0.50400000000E-02 0.  1.
          1   -1    0    0  501    0  0.00000000000E+00 -0.00000000000E+00 -0.24589177458E+03  0.24589177463E+03  0.50400000000E-02 0. -1.
         23    2    1    2    0    0  0.00000000000E+00  0.00000000000E+00 -0.23692454222E+03  0.25485900841E+03  0.93914192028E+02 0.  0.
    9000005    2    3    3    0    0  0.30161314520E+02  0.35038886549E+02 -0.97633314844E+02  0.10809568027E+03  0.38708476571E+01 0.  0.
         22    1    3    3    0    0 -0.30161314520E+02 -0.35038886549E+02 -0.13929122738E+03  0.14676332814E+03  0.00000000000E+00 0. -1.
         22    1    4    4    0    0  0.20940268963E+02  0.23720370561E+02 -0.70780383290E+02  0.77530726183E+02  0.00000000000E+00 0.  1.
         22    1    4    4    0    0  0.92210455564E+01  0.11318515988E+02 -0.26852931554E+02  0.30564954087E+02  0.00000000000E+00 0.  1.
<mgrwt>
<rscale>  0 0.93914192E+02</rscale>
<asrwt>0</asrwt>
<pdfrwt beam="2">  1        1 0.37829499E-01 0.93914192E+02</pdfrwt>
<pdfrwt beam="1">  1       -1 0.13795745E-02 0.93914192E+02</pdfrwt>
<totfact> 0.11388255E+05</totfact>
</mgrwt>
</event>
<event>
 7    1  0.2911475E-009  0.8895975E+02  0.7818608E-02  0.1305391E+00
          1   -1    0    0  501    0  0.00000000000E+00  0.00000000000E+00  0.18006422662E+01  0.18006493197E+01  0.50400000000E-02 0. -1.
         -1   -1    0    0    0  501 -0.00000000000E+00 -0.00000000000E+00 -0.10987498614E+04  0.10987498614E+04  0.50400000000E-02 0.  1.
         23    2    1    2    0    0  0.00000000000E+00  0.00000000000E+00 -0.10969492191E+04  0.11005505107E+04  0.88959751083E+02 0.  0.
    9000005    2    3    3    0    0 -0.17490449131E+02 -0.45809467380E+01 -0.10498028997E+04  0.10500561911E+04  0.14316957136E+02 0.  0.
         22    1    3    3    0    0  0.17490449131E+02  0.45809467380E+01 -0.47146319430E+02  0.50494319677E+02  0.00000000000E+00 0. -1.
         22    1    4    4    0    0 -0.18012239857E+02 -0.44509331067E+01 -0.68048204406E+03  0.68073494392E+03  0.00000000000E+00 0.  1.
         22    1    4    4    0    0  0.52179072534E+00 -0.13001363132E+00 -0.36932085566E+03  0.36932124715E+03  0.00000000000E+00 0.  1.
<mgrwt>
<rscale>  0 0.88959751E+02</rscale>
<asrwt>0</asrwt>
<pdfrwt beam="1">  1        1 0.27702331E-03 0.88959751E+02</pdfrwt>
<pdfrwt beam="2">  1       -1 0.16903791E+00 0.88959751E+02</pdfrwt>
<totfact> 0.24268093E+04</totfact>
</mgrwt>
</event>
<event>
 7    1  0.2911475E-009  0.8827605E+02  0.7818608E-02  0.1307081E+00
          1   -1    0    0  501    0  0.00000000000E+00  0.00000000000E+00  0.78063472985E+02  0.78063473147E+02  0.50400000000E-02 0. -1.
         -1   -1    0    0    0  501 -0.00000000000E+00 -0.00000000000E+00 -0.24956168581E+02  0.24956169090E+02  0.50400000000E-02 0.  1.
         23    2    1    2    0    0  0.00000000000E+00  0.00000000000E+00  0.53107304403E+02  0.10301964224E+03  0.88276049446E+02 0.  0.
    9000005    2    3    3    0    0 -0.20440732447E+02  0.28178622310E+02  0.57347360956E+02  0.67950619186E+02  0.10803172721E+02 0.  0.
         22    1    3    3    0    0  0.20440732447E+02 -0.28178622310E+02 -0.42400565525E+01  0.35069023052E+02  0.00000000000E+00 0.  1.
         22    1    4    4    0    0 -0.15485265103E+02  0.17193640281E+02  0.28660397523E+02  0.36835215319E+02  0.00000000000E+00 0. -1.
         22    1    4    4    0    0 -0.49554673439E+01  0.10984982029E+02  0.28686963433E+02  0.31115403867E+02  0.00000000000E+00 0. -1.
<mgrwt>
<rscale>  0 0.88276049E+02</rscale>
<asrwt>0</asrwt>
<pdfrwt beam="1">  1        1 0.12009765E-01 0.88276049E+02</pdfrwt>
<pdfrwt beam="2">  1       -1 0.38394106E-02 0.88276049E+02</pdfrwt>
<totfact> 0.10964748E+05</totfact>
</mgrwt>
</event>
<event>
 6    1  0.2911475E-009  0.1429872E+03  0.7818608E-02  0.1209365E+00
          1   -1    0    0  501    0  0.00000000000E+00  0.00000000000E+00  0.16659185834E+02  0.16659186596E+02  0.50400000000E-02 0. -1.
         -1   -1    0    0    0  501 -0.00000000000E+00 -0.00000000000E+00 -0.30681782994E+03  0.30681782998E+03  0.50400000000E-02 0.  1.
    9000005    2    1    2    0    0  0.49578927261E+02  0.23842569343E+02 -0.24700291754E+03  0.25355595482E+03  0.15926167522E+02 0.  0.
         22    1    1    2    0    0 -0.49578927261E+02 -0.23842569343E+02 -0.43155726562E+02  0.69921061750E+02  0.00000000000E+00 0.  1.
         22    1    3    3    0    0  0.32773177422E+02  0.15891249488E+02 -0.19393291794E+03  0.19732356582E+03  0.00000000000E+00 0. -1.
         22    1    3    3    0    0  0.16805749839E+02  0.79513198548E+01 -0.53069999600E+02  0.56232388999E+02  0.00000000000E+00 0. -1.
<mgrwt>
<rscale>  0 0.14298721E+03</rscale>
<asrwt>0</asrwt>
<pdfrwt beam="1">  1        1 0.25629519E-02 0.14298721E+03</pdfrwt>
<pdfrwt beam="2">  1       -1 0.47202739E-01 0.14298721E+03</pdfrwt>
<totfact> 0.18212172E+04</totfact>
</mgrwt>
</event>
<event>
 7    1  0.2911475E-009  0.9181343E+02  0.7818608E-02  0.1298519E+00
         -1   -1    0    0    0  501 -0.00000000000E+00  0.00000000000E+00  0.34338132397E+02  0.34338132767E+02  0.50400000000E-02 0.  1.
          1   -1    0    0  501    0  0.00000000000E+00 -0.00000000000E+00 -0.61372771265E+02  0.61372771472E+02  0.50400000000E-02 0. -1.
         23    2    1    2    0    0  0.00000000000E+00 -0.22204460493E-15 -0.27034638868E+02  0.95710904239E+02  0.91813427621E+02 0.  0.
    9000005    2    3    3    0    0  0.24732409936E+02  0.13344848843E+01 -0.53286671549E+02  0.59618769763E+02  0.10072506745E+02 0.  0.
         22    1    3    3    0    0 -0.24732409936E+02 -0.13344848843E+01  0.26252032681E+02  0.36092134476E+02  0.00000000000E+00 0.  1.
         22    1    4    4    0    0  0.10997687721E+02  0.40905794957E+01 -0.32491458892E+02  0.34545287330E+02  0.00000000000E+00 0. -1.
         22    1    4    4    0    0  0.13734722216E+02 -0.27560946113E+01 -0.20795212657E+02  0.25073482432E+02  0.00000000000E+00 0. -1.
<mgrwt>
<rscale>  0 0.91813428E+02</rscale>
<asrwt>0</asrwt>
<pdfrwt beam="2">  1        1 0.94419648E-02 0.91813428E+02</pdfrwt>
<pdfrwt beam="1">  1       -1 0.52827897E-02 0.91813428E+02</pdfrwt>
<totfact> 0.94852617E+04</totfact>
</mgrwt>
</event>
<event>
 7    1  0.2911475E-009  0.9214492E+02  0.7818608E-02  0.1297739E+00
         -1   -1    0    0    0  501 -0.00000000000E+00  0.00000000000E+00  0.10307901935E+02  0.10307903167E+02  0.50400000000E-02 0.  1.
          1   -1    0    0  501    0  0.00000000000E+00 -0.00000000000E+00 -0.20592661602E+03  0.20592661608E+03  0.50400000000E-02 0. -1.
         23    2    1    2    0    0  0.00000000000E+00  0.00000000000E+00 -0.19561871408E+03  0.21623451925E+03  0.92144918549E+02 0.  0.
    9000005    2    3    3    0    0  0.20775315708E+02 -0.23543458916E+02 -0.22764549653E+02  0.40551650528E+02  0.11844975270E+02 0.  0.
         22    1    3    3    0    0 -0.20775315708E+02  0.23543458916E+02 -0.17285416443E+03  0.17568286872E+03  0.00000000000E+00 0. -1.
         22    1    4    4    0    0  0.14475922677E+02 -0.87788996718E+01 -0.79326165038E+01  0.18696198046E+02  0.00000000000E+00 0. -1.
         22    1    4    4    0    0  0.62993930313E+01 -0.14764559244E+02 -0.14831933149E+02  0.21855452481E+02  0.00000000000E+00 0. -1.
<mgrwt>
<rscale>  0 0.92144919E+02</rscale>
<asrwt>0</asrwt>
<pdfrwt beam="2">  1        1 0.31681015E-01 0.92144919E+02</pdfrwt>
<pdfrwt beam="1">  1       -1 0.15858313E-02 0.92144919E+02</pdfrwt>
<totfact> 0.11575116E+05</totfact>
</mgrwt>
</event>
<event>
 7    1  0.2911475E-009  0.9204802E+02  0.7818608E-02  0.1297967E+00
         -1   -1    0    0    0  501 -0.00000000000E+00  0.00000000000E+00  0.99901191013E+02  0.99901191140E+02  0.50400000000E-02 0.  1.
          1   -1    0    0  501    0  0.00000000000E+00 -0.00000000000E+00 -0.21203046600E+02  0.21203047199E+02  0.50400000000E-02 0. -1.
         23    2    1    2    0    0  0.22204460493E-15 -0.71054273576E-14  0.78698144413E+02  0.12110423834E+03  0.92048023388E+02 0.  0.
    9000005    2    3    3    0    0 -0.18207183799E+01  0.37397023985E+02  0.72881055348E+02  0.83213725760E+02  0.14526648198E+02 0.  0.
         22    1    3    3    0    0  0.18207183799E+01 -0.37397023985E+02  0.58170890653E+01  0.37890512579E+02  0.00000000000E+00 0. -1.
         22    1    4    4    0    0  0.35588232021E+01  0.24908972871E+01  0.12843879678E+02  0.13558577988E+02  0.00000000000E+00 0.  1.
         22    1    4    4    0    0 -0.53795415821E+01  0.34906126698E+02  0.60037175670E+02  0.69655147772E+02  0.00000000000E+00 0.  1.
<mgrwt>
<rscale>  0 0.92048023E+02</rscale>
<asrwt>0</asrwt>
<pdfrwt beam="2">  1        1 0.32620073E-02 0.92048023E+02</pdfrwt>
<pdfrwt beam="1">  1       -1 0.15369414E-01 0.92048023E+02</pdfrwt>
<totfact> 0.79414502E+04</totfact>
</mgrwt>
</event>
<event>
 7    1  0.2911475E-009  0.9172104E+02  0.7818608E-02  0.1298737E+00
          1   -1    0    0  501    0  0.00000000000E+00  0.00000000000E+00  0.15688505927E+04  0.15688505927E+04  0.50400000000E-02 0. -1.
         -1   -1    0    0    0  501 -0.00000000000E+00 -0.00000000000E+00 -0.13405865417E+01  0.13405960157E+01  0.50400000000E-02 0.  1.
         23    2    1    2    0    0  0.00000000000E+00  0.88817841970E-15  0.15675100062E+04  0.15701911887E+04  0.91721043057E+02 0.  0.
    9000005    2    3    3    0    0 -0.24623759614E+02 -0.69959830258E+01  0.14346542527E+04  0.14348918002E+04  0.51361552298E+01 0.  0.
         22    1    3    3    0    0  0.24623759614E+02  0.69959830258E+01  0.13285575349E+03  0.13529938858E+03  0.00000000000E+00 0.  1.
         22    1    4    4    0    0 -0.13970339692E+02 -0.65727523639E+01  0.86532652710E+03  0.86546425112E+03  0.00000000000E+00 0. -1.
         22    1    4    4    0    0 -0.10653419922E+02 -0.42323066187E+00  0.56932772559E+03  0.56942754904E+03  0.00000000000E+00 0. -1.
<mgrwt>
<rscale>  0 0.91721043E+02</rscale>
<asrwt>0</asrwt>
<pdfrwt beam="1">  1        1 0.24136266E+00 0.91721043E+02</pdfrwt>
<pdfrwt beam="2">  1       -1 0.20624394E-03 0.91721043E+02</pdfrwt>
<totfact> 0.10465613E+05</totfact>
</mgrwt>
</event>
<event>
 7    1  0.3270191E-009  0.8652407E+02  0.7818608E-02  0.1311494E+00
          1   -1    0    0  501    0  0.00000000000E+00  0.00000000000E+00  0.48180332477E+03  0.48180332480E+03  0.50400000000E-02 0. -1.
         -1   -1    0    0    0  501 -0.00000000000E+00 -0.00000000000E+00 -0.38845789541E+01  0.38845822237E+01  0.50400000000E-02 0.  1.
         23    2    1    2    0    0 -0.35527136788E-14  0.00000000000E+00  0.47791874582E+03  0.48568790702E+03  0.86524074241E+02 0.  0.
    9000005    2    3    3    0    0  0.24653402566E+02  0.32373368051E+02  0.30427369798E+03  0.30733873305E+03  0.14791495353E+02 0.  0.
         22    1    3    3    0    0 -0.24653402566E+02 -0.32373368051E+02  0.17364504784E+03  0.17834917397E+03  0.00000000000E+00 0.  1.
         22    1    4    4    0    0  0.18375371503E+02  0.14828860087E+02  0.13578589168E+03  0.13782364728E+03  0.00000000000E+00 0.  1.
         22    1    4    4    0    0  0.62780310630E+01  0.17544507964E+02  0.16848780630E+03  0.16951508577E+03  0.00000000000E+00 0.  1.
<mgrwt>
<rscale>  0 0.86524074E+02</rscale>
<asrwt>0</asrwt>
<pdfrwt beam="1">  1        1 0.74123468E-01 0.86524074E+02</pdfrwt>
<pdfrwt beam="2">  1       -1 0.59762876E-03 0.86524074E+02</pdfrwt>
<totfact> 0.15921627E+05</totfact>
</mgrwt>
</event>
<event>
 7    1  0.2911475E-009  0.9211170E+02  0.7818608E-02  0.1297817E+00
         -1   -1    0    0    0  501 -0.00000000000E+00  0.00000000000E+00  0.11776403193E+02  0.11776404271E+02  0.50400000000E-02 0.  1.
          1   -1    0    0  501    0  0.00000000000E+00 -0.00000000000E+00 -0.18011790701E+03  0.18011790708E+03  0.50400000000E-02 0. -1.
         23    2    1    2    0    0  0.17763568394E-14  0.71054273576E-14 -0.16834150381E+03  0.19189431135E+03  0.92111697528E+02 0.  0.
    9000005    2    3    3    0    0  0.15020446046E+02  0.40258373160E+02 -0.55190329170E+02  0.70859032474E+02  0.11343704878E+02 0.  0.
         22    1    3    3    0    0 -0.15020446046E+02 -0.40258373160E+02 -0.11315117464E+03  0.12103527887E+03  0.00000000000E+00 0. -1.
         22    1    4    4    0    0  0.16814558940E+02  0.34052305622E+02 -0.47483283801E+02  0.60802558754E+02  0.00000000000E+00 0.  1.
         22    1    4    4    0    0 -0.17941128937E+01  0.62060675375E+01 -0.77070453690E+01  0.10056473720E+02  0.00000000000E+00 0.  1.
<mgrwt>
<rscale>  0 0.92111698E+02</rscale>
<asrwt>0</asrwt>
<pdfrwt beam="2">  1        1 0.27710445E-01 0.92111698E+02</pdfrwt>
<pdfrwt beam="1">  1       -1 0.18117546E-02 0.92111698E+02</pdfrwt>
<totfact> 0.11289877E+05</totfact>
</mgrwt>
</event>
<event>
 7    1  0.2911475E-009  0.9048936E+02  0.7818608E-02  0.1301671E+00
          1   -1    0    0  501    0  0.00000000000E+00  0.00000000000E+00  0.14631013613E+03  0.14631013622E+03  0.50400000000E-02 0. -1.
         -1   -1    0    0    0  501 -0.00000000000E+00 -0.00000000000E+00 -0.13991382881E+02  0.13991383788E+02  0.50400000000E-02 0.  1.
         23    2    1    2    0    0  0.00000000000E+00 -0.88817841970E-15  0.13231875325E+03  0.16030152001E+03  0.90489363212E+02 0.  0.
    9000005    2    3    3    0    0 -0.28625524043E+02  0.64861343040E+01  0.60007968253E+01  0.30618380468E+02  0.63233768702E+01 0.  0.
         22    1    3    3    0    0  0.28625524043E+02 -0.64861343040E+01  0.12631795643E+03  0.12968313954E+03  0.00000000000E+00 0. -1.
         22    1    4    4    0    0 -0.11888678897E+02  0.46166767075E+01  0.39993522396E-01  0.12753665717E+02  0.00000000000E+00 0. -1.
         22    1    4    4    0    0 -0.16736845146E+02  0.18694575965E+01  0.59608033029E+01  0.17864714752E+02  0.00000000000E+00 0. -1.
<mgrwt>
<rscale>  0 0.90489363E+02</rscale>
<asrwt>0</asrwt>
<pdfrwt beam="1">  1        1 0.22509253E-01 0.90489363E+02</pdfrwt>
<pdfrwt beam="2">  1       -1 0.21525204E-02 0.90489363E+02</pdfrwt>
<totfact> 0.11392343E+05</totfact>
</mgrwt>
</event>
<event>
 7    1  0.2911475E-009  0.9094293E+02  0.7818608E-02  0.1300584E+00
         -1   -1    0    0    0  501 -0.00000000000E+00  0.00000000000E+00  0.82755943982E+02  0.82755944136E+02  0.50400000000E-02 0.  1.
          1   -1    0    0  501    0  0.00000000000E+00 -0.00000000000E+00 -0.24984959464E+02  0.24984959972E+02  0.50400000000E-02 0. -1.
         23    2    1    2    0    0  0.30531133177E-15  0.71054273576E-14  0.57770984518E+02  0.10774090411E+03  0.90942925869E+02 0.  0.
    9000005    2    3    3    0    0 -0.18522973235E+00 -0.32954982367E+02  0.65297888549E+02  0.73936770378E+02  0.10805859159E+02 0.  0.
         22    1    3    3    0    0  0.18522973235E+00  0.32954982367E+02 -0.75269040305E+01  0.33804133729E+02  0.00000000000E+00 0. -1.
         22    1    4    4    0    0  0.19672101764E+01 -0.31218019098E+02  0.54987455991E+02  0.63261796912E+02  0.00000000000E+00 0.  1.
         22    1    4    4    0    0 -0.21524399087E+01 -0.17369632696E+01  0.10310432558E+02  0.10674973466E+02  0.00000000000E+00 0.  1.
<mgrwt>
<rscale>  0 0.90942926E+02</rscale>
<asrwt>0</asrwt>
<pdfrwt beam="2">  1        1 0.38438400E-02 0.90942926E+02</pdfrwt>
<pdfrwt beam="1">  1       -1 0.12731684E-01 0.90942926E+02</pdfrwt>
<totfact> 0.84720146E+04</totfact>
</mgrwt>
</event>
<event>
 7    1  0.2911475E-009  0.9125430E+02  0.7818608E-02  0.1299842E+00
         -1   -1    0    0    0  501 -0.00000000000E+00  0.00000000000E+00  0.43422157407E+02  0.43422157699E+02  0.50400000000E-02 0.  1.
          1   -1    0    0  501    0  0.00000000000E+00 -0.00000000000E+00 -0.47944107271E+02  0.47944107536E+02  0.50400000000E-02 0. -1.
         23    2    1    2    0    0  0.00000000000E+00  0.00000000000E+00 -0.45219498646E+01  0.91366265235E+02  0.91254295200E+02 0.  0.
    9000005    2    3    3    0    0 -0.17555640188E+02  0.39928130329E+02  0.58919706007E+01  0.46523140528E+02  0.15074189632E+02 0.  0.
         22    1    3    3    0    0  0.17555640188E+02 -0.39928130329E+02 -0.10413920465E+02  0.44843124707E+02  0.00000000000E+00 0.  1.
         22    1    4    4    0    0 -0.13009767550E+02  0.11965473080E+02  0.40494904309E+01  0.18133531661E+02  0.00000000000E+00 0.  1.
         22    1    4    4    0    0 -0.45458726375E+01  0.27962657249E+02  0.18424801698E+01  0.28389608868E+02  0.00000000000E+00 0.  1.
<mgrwt>
<rscale>  0 0.91254295E+02</rscale>
<asrwt>0</asrwt>
<pdfrwt beam="2">  1        1 0.73760165E-02 0.91254295E+02</pdfrwt>
<pdfrwt beam="1">  1       -1 0.66803320E-02 0.91254295E+02</pdfrwt>
<totfact> 0.92953298E+04</totfact>
</mgrwt>
</event>
<event>
 7    1  0.2911475E-009  0.9106740E+02  0.7818608E-02  0.1300287E+00
         -1   -1    0    0    0  501 -0.00000000000E+00  0.00000000000E+00  0.43676699777E+03  0.43676699780E+03  0.50400000000E-02 0.  1.
          1   -1    0    0  501    0  0.00000000000E+00 -0.00000000000E+00 -0.47469641015E+01  0.47469667771E+01  0.50400000000E-02 0. -1.
         23    2    1    2    0    0  0.00000000000E+00  0.00000000000E+00  0.43202003367E+03  0.44151396457E+03  0.91067400450E+02 0.  0.
    9000005    2    3    3    0    0 -0.44722779242E+02 -0.18273329902E+01  0.17778619094E+03  0.18336998746E+03  0.36271870431E+01 0.  0.
         22    1    3    3    0    0  0.44722779242E+02  0.18273329902E+01  0.25423384273E+03  0.25814397711E+03  0.00000000000E+00 0.  1.
         22    1    4    4    0    0 -0.24213278989E+02  0.23007229723E+00  0.10146352850E+03  0.10431291113E+03  0.00000000000E+00 0. -1.
         22    1    4    4    0    0 -0.20509500253E+02 -0.20574052875E+01  0.76322662437E+02  0.79057076335E+02  0.00000000000E+00 0. -1.
<mgrwt>
<rscale>  0 0.91067400E+02</rscale>
<asrwt>0</asrwt>
<pdfrwt beam="2">  1        1 0.73030237E-03 0.91067400E+02</pdfrwt>
<pdfrwt beam="1">  1       -1 0.67194924E-01 0.91067400E+02</pdfrwt>
<totfact> 0.51044754E+04</totfact>
</mgrwt>
</event>
<event>
 7    1  0.2911475E-009  0.9319350E+02  0.7818608E-02  0.1295297E+00
          1   -1    0    0  501    0  0.00000000000E+00  0.00000000000E+00  0.38663691298E+03  0.38663691301E+03  0.50400000000E-02 0. -1.
         -1   -1    0    0    0  501 -0.00000000000E+00 -0.00000000000E+00 -0.56157505638E+01  0.56157528254E+01  0.50400000000E-02 0.  1.
         23    2    1    2    0    0  0.35527136788E-14  0.00000000000E+00  0.38102116242E+03  0.39225266584E+03  0.93193495740E+02 0.  0.
    9000005    2    3    3    0    0 -0.30452016525E+02 -0.34636407992E+02  0.21047027562E+03  0.21557609395E+03  0.69504886196E+01 0.  0.
         22    1    3    3    0    0  0.30452016525E+02  0.34636407992E+02  0.17055088680E+03  0.17667657189E+03  0.00000000000E+00 0.  1.
         22    1    4    4    0    0 -0.25032140639E+02 -0.25779661200E+02  0.15188069448E+03  0.15607352227E+03  0.00000000000E+00 0.  1.
         22    1    4    4    0    0 -0.54198758855E+01 -0.88567467912E+01  0.58589581136E+02  0.59502571676E+02  0.00000000000E+00 0.  1.
<mgrwt>
<rscale>  0 0.93193496E+02</rscale>
<asrwt>0</asrwt>
<pdfrwt beam="1">  1        1 0.59482606E-01 0.93193496E+02</pdfrwt>
<pdfrwt beam="2">  1       -1 0.86396174E-03 0.93193496E+02</pdfrwt>
<totfact> 0.12654782E+05</totfact>
</mgrwt>
</event>
<event>
 6    1  0.2911475E-009  0.5018246E+03  0.7818608E-02  0.1013304E+00
         -1   -1    0    0    0  501 -0.00000000000E+00  0.00000000000E+00  0.21968683458E+02  0.21968684036E+02  0.50400000000E-02 0.  1.
          1   -1    0    0  501    0  0.00000000000E+00 -0.00000000000E+00 -0.28657607900E+04  0.28657607900E+04  0.50400000000E-02 0. -1.
    9000005    2    1    2    0    0 -0.40530163686E+02 -0.14416247011E+03 -0.25801850663E+04  0.25845559534E+04  0.12206059684E+02 0.  0.
         22    1    1    2    0    0  0.40530163686E+02  0.14416247011E+03 -0.26360704024E+03  0.30317352065E+03  0.00000000000E+00 0.  1.
         22    1    3    3    0    0 -0.13098753172E+02 -0.28910058994E+02 -0.52209966366E+03  0.52306350249E+03  0.00000000000E+00 0.  1.
         22    1    3    3    0    0 -0.27431410513E+02 -0.11525241112E+03 -0.20580854026E+04  0.20614924509E+04  0.00000000000E+00 0.  1.
<mgrwt>
<rscale>  0 0.50182464E+03</rscale>
<asrwt>0</asrwt>
<pdfrwt beam="2">  1        1 0.44088598E+00 0.50182464E+03</pdfrwt>
<pdfrwt beam="1">  1       -1 0.33797998E-02 0.50182464E+03</pdfrwt>
<totfact> 0.27285275E+02</totfact>
</mgrwt>
</event>
<event>
 7    1  0.2911475E-009  0.9700307E+02  0.7818608E-02  0.1286727E+00
          1   -1    0    0  501    0  0.00000000000E+00  0.00000000000E+00  0.49043345888E+02  0.49043346147E+02  0.50400000000E-02 0. -1.
         -1   -1    0    0    0  501 -0.00000000000E+00 -0.00000000000E+00 -0.47965707731E+02  0.47965707996E+02  0.50400000000E-02 0.  1.
         23    2    1    2    0    0  0.00000000000E+00  0.00000000000E+00  0.10776381571E+01  0.97009054144E+02  0.97003068415E+02 0.  0.
    9000005    2    3    3    0    0  0.44845871793E+01  0.47155519324E+02 -0.78056233509E+01  0.48814999947E+02  0.88443167611E+01 0.  0.
         22    1    3    3    0    0 -0.44845871793E+01 -0.47155519324E+02  0.88832615080E+01  0.48194054197E+02  0.00000000000E+00 0. -1.
         22    1    4    4    0    0  0.31382937499E+01  0.17047209638E+02 -0.69189938481E+01  0.18663566647E+02  0.00000000000E+00 0. -1.
         22    1    4    4    0    0  0.13462934294E+01  0.30108309686E+02 -0.88662950283E+00  0.30151433300E+02  0.00000000000E+00 0. -1.
<mgrwt>
<rscale>  0 0.97003068E+02</rscale>
<asrwt>0</asrwt>
<pdfrwt beam="1">  1        1 0.75451302E-02 0.97003068E+02</pdfrwt>
<pdfrwt beam="2">  1       -1 0.73793397E-02 0.97003068E+02</pdfrwt>
<totfact> 0.78537889E+04</totfact>
</mgrwt>
</event>
<event>
 7    1  0.2911475E-009  0.9166605E+02  0.7818608E-02  0.1298867E+00
          1   -1    0    0  501    0  0.00000000000E+00  0.00000000000E+00  0.21568173342E+03  0.21568173348E+03  0.50400000000E-02 0. -1.
         -1   -1    0    0    0  501 -0.00000000000E+00 -0.00000000000E+00 -0.97396559635E+01  0.97396572675E+01  0.50400000000E-02 0.  1.
         23    2    1    2    0    0  0.00000000000E+00  0.00000000000E+00  0.20594207746E+03  0.22542139075E+03  0.91666046817E+02 0.  0.
    9000005    2    3    3    0    0  0.98183070027E+01  0.21557336253E+02  0.19925281140E+03  0.20080708233E+03  0.77899656266E+01 0.  0.
         22    1    3    3    0    0 -0.98183070027E+01 -0.21557336253E+02  0.66892660645E+01  0.24614308424E+02  0.00000000000E+00 0.  1.
         22    1    4    4    0    0  0.86572502875E+01  0.15462096650E+02  0.11867815528E+03  0.11999387049E+03  0.00000000000E+00 0. -1.
         22    1    4    4    0    0  0.11610567151E+01  0.60952396033E+01  0.80574656119E+02  0.80813211835E+02  0.00000000000E+00 0. -1.
<mgrwt>
<rscale>  0 0.91666047E+02</rscale>
<asrwt>0</asrwt>
<pdfrwt beam="1">  1        1 0.33181805E-01 0.91666047E+02</pdfrwt>
<pdfrwt beam="2">  1       -1 0.14984087E-02 0.91666047E+02</pdfrwt>
<totfact> 0.11844608E+05</totfact>
</mgrwt>
</event>
<event>
 7    1  0.2911475E-009  0.9393807E+02  0.7818608E-02  0.1293586E+00
          1   -1    0    0  501    0  0.00000000000E+00  0.00000000000E+00  0.10320511621E+02  0.10320512851E+02  0.50400000000E-02 0. -1.
         -1   -1    0    0    0  501 -0.00000000000E+00 -0.00000000000E+00 -0.21375781099E+03  0.21375781105E+03  0.50400000000E-02 0.  1.
         23    2    1    2    0    0  0.00000000000E+00  0.00000000000E+00 -0.20343729937E+03  0.22407832391E+03  0.93938067192E+02 0.  0.
    9000005    2    3    3    0    0  0.27914975327E+02 -0.17067764722E+02 -0.18142746430E+03  0.18464499688E+03  0.10358360489E+02 0.  0.
         22    1    3    3    0    0 -0.27914975327E+02  0.17067764722E+02 -0.22009835078E+02  0.39433327025E+02  0.00000000000E+00 0. -1.
         22    1    4    4    0    0  0.14176255797E+02 -0.50271140538E+01 -0.60297308824E+02  0.62145020360E+02  0.00000000000E+00 0.  1.
         22    1    4    4    0    0  0.13738719530E+02 -0.12040650668E+02 -0.12113015547E+03  0.12249997652E+03  0.00000000000E+00 0.  1.
<mgrwt>
<rscale>  0 0.93938067E+02</rscale>
<asrwt>0</asrwt>
<pdfrwt beam="1">  1        1 0.15877713E-02 0.93938067E+02</pdfrwt>
<pdfrwt beam="2">  1       -1 0.32885814E-01 0.93938067E+02</pdfrwt>
<totfact> 0.62980147E+04</totfact>
</mgrwt>
</event>
<event>
 7    1  0.2911475E-009  0.8991720E+02  0.7818608E-02  0.1303052E+00
          1   -1    0    0  501    0  0.00000000000E+00  0.00000000000E+00  0.56574324479E+03  0.56574324482E+03  0.50400000000E-02 0. -1.
         -1   -1    0    0    0  501 -0.00000000000E+00 -0.00000000000E+00 -0.35727774000E+01  0.35727809549E+01  0.50400000000E-02 0.  1.
         23    2    1    2    0    0  0.00000000000E+00 -0.17763568394E-14  0.56217046739E+03  0.56931602577E+03  0.89917199635E+02 0.  0.
    9000005    2    3    3    0    0  0.19330824660E+02  0.15932767771E+02  0.51561760494E+03  0.51645107639E+03  0.15253389949E+02 0.  0.
         22    1    3    3    0    0 -0.19330824660E+02 -0.15932767771E+02  0.46552862452E+02  0.52864949384E+02  0.00000000000E+00 0.  1.
         22    1    4    4    0    0 -0.14065200714E+01  0.16978460161E+01  0.11688299112E+02  0.11894423733E+02  0.00000000000E+00 0.  1.
         22    1    4    4    0    0  0.20737344731E+02  0.14234921755E+02  0.50392930583E+03  0.50455665265E+03  0.00000000000E+00 0.  1.
<mgrwt>
<rscale>  0 0.89917200E+02</rscale>
<asrwt>0</asrwt>
<pdfrwt beam="1">  1        1 0.87037451E-01 0.89917200E+02</pdfrwt>
<pdfrwt beam="2">  1       -1 0.54965816E-03 0.89917200E+02</pdfrwt>
<totfact> 0.14628652E+05</totfact>
</mgrwt>
</event>
<event>
 7    1  0.2911475E-009  0.9218144E+02  0.7818608E-02  0.1297653E+00
         -1   -1    0    0    0  501 -0.00000000000E+00  0.00000000000E+00  0.44072032774E+01  0.44072061592E+01  0.50400000000E-02 0.  1.
          1   -1    0    0  501    0  0.00000000000E+00 -0.00000000000E+00 -0.48201852107E+03  0.48201852109E+03  0.50400000000E-02 0. -1.
         23    2    1    2    0    0  0.00000000000E+00  0.00000000000E+00 -0.47761131779E+03  0.48642572725E+03  0.92181436593E+02 0.  0.
    9000005    2    3    3    0    0 -0.11106195118E+02  0.33656037023E+02 -0.39400673687E+03  0.39561932688E+03  0.41553222200E+01 0.  0.
         22    1    3    3    0    0  0.11106195118E+02 -0.33656037023E+02 -0.83604580917E+02  0.90806400372E+02  0.00000000000E+00 0.  1.
         22    1    4    4    0    0  0.28578155965E+00  0.83690027353E+00 -0.67966380463E+01  0.68539303980E+01  0.00000000000E+00 0. -1.
         22    1    4    4    0    0 -0.11391976678E+02  0.32819136750E+02 -0.38721009882E+03  0.38876539648E+03  0.00000000000E+00 0. -1.
<mgrwt>
<rscale>  0 0.92181437E+02</rscale>
<asrwt>0</asrwt>
<pdfrwt beam="2">  1        1 0.74156654E-01 0.92181437E+02</pdfrwt>
<pdfrwt beam="1">  1       -1 0.67803188E-03 0.92181437E+02</pdfrwt>
<totfact> 0.13466761E+05</totfact>
</mgrwt>
</event>
<event>
 7    1  0.2911475E-009  0.8998396E+02  0.7818608E-02  0.1302891E+00
          1   -1    0    0  501    0  0.00000000000E+00  0.00000000000E+00  0.36102413147E+01  0.36102448327E+01  0.50400000000E-02 0. -1.
         -1   -1    0    0    0  501 -0.00000000000E+00 -0.00000000000E+00 -0.56070417145E+03  0.56070417148E+03  0.50400000000E-02 0.  1.
         23    2    1    2    0    0  0.00000000000E+00  0.00000000000E+00 -0.55709393014E+03  0.56431441631E+03  0.89983962219E+02 0.  0.
    9000005    2    3    3    0    0 -0.22353387129E+02 -0.23660523964E+02 -0.47279827442E+03  0.47395263300E+03  0.57789029187E+01 0.  0.
         22    1    3    3    0    0  0.22353387129E+02  0.23660523964E+02 -0.84295655717E+02  0.90361783311E+02  0.00000000000E+00 0. -1.
         22    1    4    4    0    0 -0.17142934087E+02 -0.21218031101E+02 -0.38299456258E+03  0.38396473797E+03  0.00000000000E+00 0.  1.
         22    1    4    4    0    0 -0.52104530422E+01 -0.24424928631E+01 -0.89803711840E+02  0.89987895033E+02  0.00000000000E+00 0.  1.
<mgrwt>
<rscale>  0 0.89983962E+02</rscale>
<asrwt>0</asrwt>
<pdfrwt beam="1">  1        1 0.55542246E-03 0.89983962E+02</pdfrwt>
<pdfrwt beam="2">  1       -1 0.86262111E-01 0.89983962E+02</pdfrwt>
<totfact> 0.45196073E+04</totfact>
</mgrwt>
</event>
<event>
 7    1  0.2911475E-009  0.9115693E+02  0.7818608E-02  0.1300074E+00
          1   -1    0    0  501    0  0.00000000000E+00  0.00000000000E+00  0.64562348103E+01  0.64562367776E+01  0.50400000000E-02 0. -1.
         -1   -1    0    0    0  501 -0.00000000000E+00 -0.00000000000E+00 -0.32176589194E+03  0.32176589198E+03  0.50400000000E-02 0.  1.
         23    2    1    2    0    0  0.00000000000E+00  0.35527136788E-14 -0.31530965713E+03  0.32822212876E+03  0.91156930217E+02 0.  0.
    9000005    2    3    3    0    0  0.32689469533E+02  0.22290224796E+02 -0.89144274099E+02  0.98621963205E+02  0.14633334619E+02 0.  0.
         22    1    3    3    0    0 -0.32689469533E+02 -0.22290224796E+02 -0.22616538303E+03  0.22960016555E+03  0.00000000000E+00 0.  1.
         22    1    4    4    0    0  0.11409096239E+01 -0.11938288394E+01 -0.63732317775E+00  0.17700516661E+01  0.00000000000E+00 0. -1.
         22    1    4    4    0    0  0.31548559909E+02  0.23484053636E+02 -0.88506950921E+02  0.96851911539E+02  0.00000000000E+00 0. -1.
<mgrwt>
<rscale>  0 0.91156930E+02</rscale>
<asrwt>0</asrwt>
<pdfrwt beam="1">  1        1 0.99326729E-03 0.91156930E+02</pdfrwt>
<pdfrwt beam="2">  1       -1 0.49502433E-01 0.91156930E+02</pdfrwt>
<totfact> 0.58924213E+04</totfact>
</mgrwt>
</event>
<event>
 7    1  0.2911475E-009  0.8879895E+02  0.7818608E-02  0.1305787E+00
          1   -1    0    0  501    0  0.00000000000E+00  0.00000000000E+00  0.12589538121E+02  0.12589539130E+02  0.50400000000E-02 0. -1.
         -1   -1    0    0    0  501 -0.00000000000E+00 -0.00000000000E+00 -0.15658345140E+03  0.15658345148E+03  0.50400000000E-02 0.  1.
         23    2    1    2    0    0  0.00000000000E+00  0.00000000000E+00 -0.14399391328E+03  0.16917299061E+03  0.88798950954E+02 0.  0.
    9000005    2    3    3    0    0 -0.19268618347E+02  0.35470897383E+02 -0.40197896455E+02  0.57803886624E+02  0.97956222534E+01 0.  0.
         22    1    3    3    0    0  0.19268618347E+02 -0.35470897383E+02 -0.10379601682E+03  0.11136910398E+03  0.00000000000E+00 0. -1.
         22    1    4    4    0    0 -0.78687155875E+01  0.21026963437E+02 -0.16818804199E+02  0.28052130954E+02  0.00000000000E+00 0.  1.
         22    1    4    4    0    0 -0.11399902759E+02  0.14443933946E+02 -0.23379092256E+02  0.29751755671E+02  0.00000000000E+00 0.  1.
<mgrwt>
<rscale>  0 0.88798951E+02</rscale>
<asrwt>0</asrwt>
<pdfrwt beam="1">  1        1 0.19368522E-02 0.88798951E+02</pdfrwt>
<pdfrwt beam="2">  1       -1 0.24089760E-01 0.88798951E+02</pdfrwt>
<totfact> 0.79280765E+04</totfact>
</mgrwt>
</event>
<event>
 7    1  0.2911475E-009  0.9246151E+02  0.7818608E-02  0.1296998E+00
         -1   -1    0    0    0  501 -0.00000000000E+00  0.00000000000E+00  0.36447694431E+02  0.36447694779E+02  0.50400000000E-02 0.  1.
          1   -1    0    0  501    0  0.00000000000E+00 -0.00000000000E+00 -0.58639728297E+02  0.58639728513E+02  0.50400000000E-02 0. -1.
         23    2    1    2    0    0  0.00000000000E+00  0.35527136788E-14 -0.22192033866E+02  0.95087423292E+02  0.92461514703E+02 0.  0.
    9000005    2    3    3    0    0  0.60038431681E+01 -0.22972119536E+02  0.28353317219E+02  0.39243024065E+02  0.13127830425E+02 0.  0.
         22    1    3    3    0    0 -0.60038431681E+01  0.22972119536E+02 -0.50545351085E+02  0.55844399227E+02  0.00000000000E+00 0. -1.
         22    1    4    4    0    0  0.46445901401E+01 -0.22471617075E+02  0.19038545422E+02  0.29816304320E+02  0.00000000000E+00 0.  1.
         22    1    4    4    0    0  0.13592530280E+01 -0.50050246095E+00  0.93147717976E+01  0.94267197449E+01  0.00000000000E+00 0.  1.
<mgrwt>
<rscale>  0 0.92461515E+02</rscale>
<asrwt>0</asrwt>
<pdfrwt beam="2">  1        1 0.90214967E-02 0.92461515E+02</pdfrwt>
<pdfrwt beam="1">  1       -1 0.56073377E-02 0.92461515E+02</pdfrwt>
<totfact> 0.92371406E+04</totfact>
</mgrwt>
</event>
<event>
 7    1  0.2911475E-009  0.8801413E+02  0.7818608E-02  0.1307733E+00
         -1   -1    0    0    0  501 -0.00000000000E+00  0.00000000000E+00  0.16930216640E+02  0.16930217390E+02  0.50400000000E-02 0. -1.
          1   -1    0    0  501    0  0.00000000000E+00 -0.00000000000E+00 -0.11438848316E+03  0.11438848327E+03  0.50400000000E-02 0.  1.
         23    2    1    2    0    0  0.00000000000E+00  0.00000000000E+00 -0.97458266520E+02  0.13131870066E+03  0.88014131991E+02 0.  0.
    9000005    2    3    3    0    0 -0.36916302769E+01  0.13017301830E+02 -0.11057205296E+03  0.11247593877E+03  0.15542831941E+02 0.  0.
         22    1    3    3    0    0  0.36916302769E+01 -0.13017301830E+02  0.13113786439E+02  0.18842761894E+02  0.00000000000E+00 0. -1.
         22    1    4    4    0    0 -0.46726390547E+01  0.15754377127E+02 -0.74692990282E+02  0.76479257003E+02  0.00000000000E+00 0. -1.
         22    1    4    4    0    0  0.98100877778E+00 -0.27370752976E+01 -0.35879062678E+02  0.35996681764E+02  0.00000000000E+00 0. -1.
<mgrwt>
<rscale>  0 0.88014132E+02</rscale>
<asrwt>0</asrwt>
<pdfrwt beam="2">  1        1 0.17598228E-01 0.88014132E+02</pdfrwt>
<pdfrwt beam="1">  1       -1 0.26046488E-02 0.88014132E+02</pdfrwt>
<totfact> 0.11756835E+05</totfact>
</mgrwt>
</event>
<event>
 7    1  0.2911475E-009  0.9092434E+02  0.7818608E-02  0.1300629E+00
          1   -1    0    0  501    0  0.00000000000E+00  0.00000000000E+00  0.19476189642E+03  0.19476189649E+03  0.50400000000E-02 0. -1.
         -1   -1    0    0    0  501 -0.00000000000E+00 -0.00000000000E+00 -0.10611977793E+02  0.10611978989E+02  0.50400000000E-02 0.  1.
         23    2    1    2    0    0  0.00000000000E+00  0.17763568394E-14  0.18414991863E+03  0.20537387548E+03  0.90924343259E+02 0.  0.
    9000005    2    3    3    0    0  0.41489362163E+02 -0.10581434502E+02  0.68824308550E+02  0.82356274016E+02  0.14575201322E+02 0.  0.
         22    1    3    3    0    0 -0.41489362163E+02  0.10581434502E+02  0.11532561008E+03  0.12301760146E+03  0.00000000000E+00 0. -1.
         22    1    4    4    0    0  0.73717404232E+01 -0.62420427814E+01  0.23902814343E+02  0.25780810469E+02  0.00000000000E+00 0.  1.
         22    1    4    4    0    0  0.34117621740E+02 -0.43393917210E+01  0.44921494207E+02  0.56575463546E+02  0.00000000000E+00 0.  1.
<mgrwt>
<rscale>  0 0.90924343E+02</rscale>
<asrwt>0</asrwt>
<pdfrwt beam="1">  1        1 0.29963367E-01 0.90924343E+02</pdfrwt>
<pdfrwt beam="2">  1       -1 0.16326122E-02 0.90924343E+02</pdfrwt>
<totfact> 0.11867875E+05</totfact>
</mgrwt>
</event>
<event>
 7    1  0.2911475E-009  0.9147501E+02  0.7818608E-02  0.1299319E+00
         -1   -1    0    0    0  501 -0.00000000000E+00  0.00000000000E+00  0.28872759075E+03  0.28872759080E+03  0.50400000000E-02 0.  1.
          1   -1    0    0  501    0  0.00000000000E+00 -0.00000000000E+00 -0.72453030373E+01  0.72453047903E+01  0.50400000000E-02 0. -1.
         23    2    1    2    0    0  0.00000000000E+00  0.35527136788E-14  0.28148228772E+03  0.29597289559E+03  0.91475005464E+02 0.  0.
    9000005    2    3    3    0    0 -0.12651816319E+02  0.27938162771E+02  0.24968111398E+03  0.25179231110E+03  0.10867375608E+02 0.  0.
         22    1    3    3    0    0  0.12651816319E+02 -0.27938162771E+02  0.31801173735E+02  0.44180584493E+02  0.00000000000E+00 0. -1.
         22    1    4    4    0    0 -0.63761138188E+01  0.20100263126E+02  0.19986622322E+03  0.20097557710E+03  0.00000000000E+00 0.  1.
         22    1    4    4    0    0 -0.62757025007E+01  0.78378996446E+01  0.49814890761E+02  0.50816733999E+02  0.00000000000E+00 0.  1.
<mgrwt>
<rscale>  0 0.91475005E+02</rscale>
<asrwt>0</asrwt>
<pdfrwt beam="2">  1        1 0.11146622E-02 0.91475005E+02</pdfrwt>
<pdfrwt beam="1">  1       -1 0.44419626E-01 0.91475005E+02</pdfrwt>
<totfact> 0.60969333E+04</totfact>
</mgrwt>
</event>
<event>
 7    1  0.2911475E-009  0.9104907E+02  0.7818608E-02  0.1300331E+00
          1   -1    0    0  501    0  0.00000000000E+00  0.00000000000E+00  0.10564640043E+04  0.10564640043E+04  0.50400000000E-02 0. -1.
         -1   -1    0    0    0  501 -0.00000000000E+00 -0.00000000000E+00 -0.19617137533E+01  0.19617202277E+01  0.50400000000E-02 0.  1.
         23    2    1    2    0    0  0.00000000000E+00 -0.88817841970E-15  0.10545022905E+04  0.10584257245E+04  0.91049072476E+02 0.  0.
    9000005    2    3    3    0    0  0.14256241511E+02  0.69898623152E+01  0.10229883315E+04  0.10231379333E+04  0.73488444054E+01 0.  0.
         22    1    3    3    0    0 -0.14256241511E+02 -0.69898623152E+01  0.31513958958E+02  0.35287791181E+02  0.00000000000E+00 0.  1.
         22    1    4    4    0    0  0.63575419228E+01 -0.77348606831E+00  0.39631815046E+03  0.39636989417E+03  0.00000000000E+00 0. -1.
         22    1    4    4    0    0  0.78986995887E+01  0.77633483835E+01  0.62667018108E+03  0.62676803914E+03  0.00000000000E+00 0. -1.
<mgrwt>
<rscale>  0 0.91049072E+02</rscale>
<asrwt>0</asrwt>
<pdfrwt beam="1">  1        1 0.16253271E+00 0.91049072E+02</pdfrwt>
<pdfrwt beam="2">  1       -1 0.30180301E-03 0.91049072E+02</pdfrwt>
<totfact> 0.13433915E+05</totfact>
</mgrwt>
</event>
<event>
 7    1  0.2911475E-009  0.9451286E+02  0.7818608E-02  0.1292277E+00
         -1   -1    0    0    0  501 -0.00000000000E+00  0.00000000000E+00  0.23458652931E+03  0.23458652936E+03  0.50400000000E-02 0.  1.
          1   -1    0    0  501    0  0.00000000000E+00 -0.00000000000E+00 -0.95195994776E+01  0.95196008118E+01  0.50400000000E-02 0. -1.
         23    2    1    2    0    0  0.00000000000E+00  0.00000000000E+00  0.22506692983E+03  0.24410613018E+03  0.94512855662E+02 0.  0.
    9000005    2    3    3    0    0  0.38135652586E+02 -0.17506005387E+02  0.66015968821E+02  0.79612980102E+02  0.14809802110E+02 0.  0.
         22    1    3    3    0    0 -0.38135652586E+02  0.17506005387E+02  0.15905096101E+03  0.16449315007E+03  0.00000000000E+00 0.  1.
         22    1    4    4    0    0  0.34290827394E+02 -0.17587020514E+02  0.49924605380E+02  0.63068457697E+02  0.00000000000E+00 0. -1.
         22    1    4    4    0    0  0.38448251918E+01  0.81015127176E-01  0.16091363441E+02  0.16544522404E+02  0.00000000000E+00 0. -1.
<mgrwt>
<rscale>  0 0.94512856E+02</rscale>
<asrwt>0</asrwt>
<pdfrwt beam="2">  1        1 0.14645538E-02 0.94512856E+02</pdfrwt>
<pdfrwt beam="1">  1       -1 0.36090238E-01 0.94512856E+02</pdfrwt>
<totfact> 0.60210505E+04</totfact>
</mgrwt>
</event>
<event>
 7    1  0.2911475E-009  0.9231240E+02  0.7818608E-02  0.1297347E+00
         -1   -1    0    0    0  501 -0.00000000000E+00  0.00000000000E+00  0.50316172784E+03  0.50316172786E+03  0.50400000000E-02 0.  1.
          1   -1    0    0  501    0  0.00000000000E+00 -0.00000000000E+00 -0.42340144562E+01  0.42340174559E+01  0.50400000000E-02 0. -1.
         23    2    1    2    0    0  0.00000000000E+00  0.00000000000E+00  0.49892771338E+03  0.50739574532E+03  0.92312399966E+02 0.  0.
    9000005    2    3    3    0    0 -0.36204626306E+02 -0.25936304855E+02  0.30324101683E+03  0.30670506272E+03  0.11376042074E+02 0.  0.
         22    1    3    3    0    0  0.36204626306E+02  0.25936304855E+02  0.19568669655E+03  0.20069068260E+03  0.00000000000E+00 0.  1.
         22    1    4    4    0    0 -0.22322140569E+02 -0.21758494009E+02  0.19006757390E+03  0.19260683443E+03  0.00000000000E+00 0.  1.
         22    1    4    4    0    0 -0.13882485737E+02 -0.41778108460E+01  0.11317344293E+03  0.11409822829E+03  0.00000000000E+00 0.  1.
<mgrwt>
<rscale>  0 0.92312400E+02</rscale>
<asrwt>0</asrwt>
<pdfrwt beam="2">  1        1 0.65138732E-03 0.92312400E+02</pdfrwt>
<pdfrwt beam="1">  1       -1 0.77409467E-01 0.92312400E+02</pdfrwt>
<totfact> 0.45361225E+04</totfact>
</mgrwt>
</event>
<event>
 7    1  0.2911475E-009  0.8863345E+02  0.7818608E-02  0.1306195E+00
         -1   -1    0    0    0  501 -0.00000000000E+00  0.00000000000E+00  0.57893721764E+01  0.57893743702E+01  0.50400000000E-02 0.  1.
          1   -1    0    0  501    0  0.00000000000E+00 -0.00000000000E+00 -0.33923746588E+03  0.33923746592E+03  0.50400000000E-02 0. -1.
         23    2    1    2    0    0  0.00000000000E+00  0.00000000000E+00 -0.33344809371E+03  0.34502684029E+03  0.88633454882E+02 0.  0.
    9000005    2    3    3    0    0 -0.17225894469E+02  0.36641699432E+02 -0.23172863126E+03  0.23554535958E+03  0.12004678166E+02 0.  0.
         22    1    3    3    0    0  0.17225894469E+02 -0.36641699432E+02 -0.10171946245E+03  0.10948148071E+03  0.00000000000E+00 0.  1.
         22    1    4    4    0    0 -0.21825819298E+01  0.76229358202E+00 -0.50735638878E+01  0.55754646361E+01  0.00000000000E+00 0. -1.
         22    1    4    4    0    0 -0.15043312539E+02  0.35879405850E+02 -0.22665506737E+03  0.22996989495E+03  0.00000000000E+00 0. -1.
<mgrwt>
<rscale>  0 0.88633455E+02</rscale>
<asrwt>0</asrwt>
<pdfrwt beam="2">  1        1 0.52190364E-01 0.88633455E+02</pdfrwt>
<pdfrwt beam="1">  1       -1 0.89067308E-03 0.88633455E+02</pdfrwt>
<totfact> 0.14131935E+05</totfact>
</mgrwt>
</event>
<event>
 7    1  0.2911475E-009  0.9085259E+02  0.7818608E-02  0.1300800E+00
         -1   -1    0    0    0  501 -0.00000000000E+00  0.00000000000E+00  0.30608331489E+03  0.30608331493E+03  0.50400000000E-02 0.  1.
          1   -1    0    0  501    0  0.00000000000E+00 -0.00000000000E+00 -0.67417855605E+01  0.67417874443E+01  0.50400000000E-02 0. -1.
         23    2    1    2    0    0  0.00000000000E+00 -0.71054273576E-14  0.29934152933E+03  0.31282510237E+03  0.90852592121E+02 0.  0.
    9000005    2    3    3    0    0 -0.72243712468E+01  0.37396934669E+02  0.23450765045E+03  0.23763099281E+03  0.48916625442E+01 0.  0.
         22    1    3    3    0    0  0.72243712468E+01 -0.37396934669E+02  0.64833878875E+02  0.75194109560E+02  0.00000000000E+00 0. -1.
         22    1    4    4    0    0 -0.26642211723E+01  0.14896742314E+02  0.78794953899E+02  0.80235003371E+02  0.00000000000E+00 0. -1.
         22    1    4    4    0    0 -0.45601500745E+01  0.22500192355E+02  0.15571269655E+03  0.15739598944E+03  0.00000000000E+00 0. -1.
<mgrwt>
<rscale>  0 0.90852592E+02</rscale>
<asrwt>0</asrwt>
<pdfrwt beam="2">  1        1 0.10371980E-02 0.90852592E+02</pdfrwt>
<pdfrwt beam="1">  1       -1 0.47089737E-01 0.90852592E+02</pdfrwt>
<totfact> 0.60668053E+04</totfact>
</mgrwt>
</event>
<event>
 7    1  0.2911475E-009  0.9122428E+02  0.7818608E-02  0.1299914E+00
         -1   -1    0    0    0  501 -0.00000000000E+00  0.00000000000E+00  0.42693039425E+02  0.42693039723E+02  0.50400000000E-02 0.  1.
          1   -1    0    0  501    0  0.00000000000E+00 -0.00000000000E+00 -0.48730829120E+02  0.48730829381E+02  0.50400000000E-02 0. -1.
         23    2    1    2    0    0  0.00000000000E+00  0.00000000000E+00 -0.60377896946E+01  0.91423869104E+02  0.91224278224E+02 0.  0.
    9000005    2    3    3    0    0 -0.23488725088E+01  0.11201215900E+02  0.40957348281E+02  0.43055207421E+02  0.67277089829E+01 0.  0.
         22    1    3    3    0    0  0.23488725088E+01 -0.11201215900E+02 -0.46995137975E+02  0.48368661683E+02  0.00000000000E+00 0. -1.
         22    1    4    4    0    0 -0.35936988418E+01  0.41104289868E+01  0.24349329696E+02  0.24953960697E+02  0.00000000000E+00 0.  1.
         22    1    4    4    0    0  0.12448263330E+01  0.70907869129E+01  0.16608018584E+02  0.18101246723E+02  0.00000000000E+00 0.  1.
<mgrwt>
<rscale>  0 0.91224278E+02</rscale>
<asrwt>0</asrwt>
<pdfrwt beam="2">  1        1 0.74970507E-02 0.91224278E+02</pdfrwt>
<pdfrwt beam="1">  1       -1 0.65681599E-02 0.91224278E+02</pdfrwt>
<totfact> 0.93266764E+04</totfact>
</mgrwt>
</event>
<event>
 6    1  0.2911475E-009  0.2268805E+03  0.7818608E-02  0.1128855E+00
          1   -1    0    0  501    0  0.00000000000E+00  0.00000000000E+00  0.21726677526E+02  0.21726678111E+02  0.50400000000E-02 0. -1.
         -1   -1    0    0    0  501 -0.00000000000E+00 -0.00000000000E+00 -0.59229925377E+03  0.59229925379E+03  0.50400000000E-02 0.  1.
    9000005    2    1    2    0    0  0.10324972301E+02 -0.83589884738E+02 -0.49086709487E+03  0.49806543154E+03  0.49794965317E+01 0.  0.
         22    1    1    2    0    0 -0.10324972301E+02  0.83589884738E+02 -0.79705481380E+02  0.11596050037E+03  0.00000000000E+00 0. -1.
         22    1    3    3    0    0  0.31854505410E+01 -0.45202425745E+02 -0.25948863146E+03  0.26341555810E+03  0.00000000000E+00 0.  1.
         22    1    3    3    0    0  0.71395217602E+01 -0.38387458993E+02 -0.23137846340E+03  0.23464987344E+03  0.00000000000E+00 0.  1.
<mgrwt>
<rscale>  0 0.22688054E+03</rscale>
<asrwt>0</asrwt>
<pdfrwt beam="1">  1        1 0.33425663E-02 0.22688054E+03</pdfrwt>
<pdfrwt beam="2">  1       -1 0.91122950E-01 0.22688054E+03</pdfrwt>
<totfact> 0.35805534E+03</totfact>
</mgrwt>
</event>
<event>
 7    1  0.2911475E-009  0.9093438E+02  0.7818608E-02  0.1300605E+00
          1   -1    0    0  501    0  0.00000000000E+00  0.00000000000E+00  0.48539168063E+03  0.48539168065E+03  0.50400000000E-02 0. -1.
         -1   -1    0    0    0  501 -0.00000000000E+00 -0.00000000000E+00 -0.42589617642E+01  0.42589647463E+01  0.50400000000E-02 0.  1.
         23    2    1    2    0    0  0.00000000000E+00  0.88817841970E-15  0.48113271886E+03  0.48965064540E+03  0.90934379526E+02 0.  0.
    9000005    2    3    3    0    0 -0.39676861098E+02  0.60572611445E+01  0.35225184682E+03  0.35466463539E+03  0.97312019106E+01 0.  0.
         22    1    3    3    0    0  0.39676861098E+02 -0.60572611445E+01  0.12888087204E+03  0.13498601001E+03  0.00000000000E+00 0. -1.
         22    1    4    4    0    0 -0.10773487595E+02 -0.26169901063E+01  0.88249282734E+02  0.88942973726E+02  0.00000000000E+00 0. -1.
         22    1    4    4    0    0 -0.28903373503E+02  0.86742512508E+01  0.26400256409E+03  0.26572166167E+03  0.00000000000E+00 0. -1.
<mgrwt>
<rscale>  0 0.90934380E+02</rscale>
<asrwt>0</asrwt>
<pdfrwt beam="1">  1        1 0.74675600E-01 0.90934380E+02</pdfrwt>
<pdfrwt beam="2">  1       -1 0.65522550E-03 0.90934380E+02</pdfrwt>
<totfact> 0.13974563E+05</totfact>
</mgrwt>
</event>
<event>
 7    1  0.2911475E-009  0.9944432E+02  0.7818608E-02  0.1281469E+00
         -1   -1    0    0    0  501 -0.00000000000E+00  0.00000000000E+00  0.30086757025E+02  0.30086757448E+02  0.50400000000E-02 0.  1.
          1   -1    0    0  501    0  0.00000000000E+00 -0.00000000000E+00 -0.82172134054E+02  0.82172134208E+02  0.50400000000E-02 0. -1.
         23    2    1    2    0    0  0.00000000000E+00 -0.17763568394E-14 -0.52085377028E+02  0.11225889166E+03  0.99444317362E+02 0.  0.
    9000005    2    3    3    0    0  0.69967827860E+01 -0.85615248334E+01 -0.80472615059E+02  0.81794322730E+02  0.96028526754E+01 0.  0.
         22    1    3    3    0    0 -0.69967827860E+01  0.85615248334E+01  0.28387238031E+02  0.30464568926E+02  0.00000000000E+00 0.  1.
         22    1    4    4    0    0  0.81435434836E+01 -0.71884903269E+01 -0.45602531686E+02  0.46878380836E+02  0.00000000000E+00 0.  1.
         22    1    4    4    0    0 -0.11467606976E+01 -0.13730345065E+01 -0.34870083373E+02  0.34915941893E+02  0.00000000000E+00 0.  1.
<mgrwt>
<rscale>  0 0.99444317E+02</rscale>
<asrwt>0</asrwt>
<pdfrwt beam="2">  1        1 0.12641867E-01 0.99444317E+02</pdfrwt>
<pdfrwt beam="1">  1       -1 0.46287319E-02 0.99444317E+02</pdfrwt>
<totfact> 0.79612619E+04</totfact>
</mgrwt>
</event>
<event>
 7    1  0.2911475E-009  0.9099989E+02  0.7818608E-02  0.1300448E+00
          1   -1    0    0  501    0  0.00000000000E+00  0.00000000000E+00  0.31701301364E+02  0.31701301765E+02  0.50400000000E-02 0. -1.
         -1   -1    0    0    0  501 -0.00000000000E+00 -0.00000000000E+00 -0.65304737707E+02  0.65304737901E+02  0.50400000000E-02 0.  1.
         23    2    1    2    0    0 -0.35527136788E-14  0.00000000000E+00 -0.33603436342E+02  0.97006039666E+02  0.90999894492E+02 0.  0.
    9000005    2    3    3    0    0  0.20566737883E+02  0.32501413473E+02 -0.42217569052E+02  0.57591120317E+02  0.74216856439E+01 0.  0.
         22    1    3    3    0    0 -0.20566737883E+02 -0.32501413473E+02  0.86141327099E+01  0.39414919349E+02  0.00000000000E+00 0. -1.
         22    1    4    4    0    0  0.20875857441E+02  0.32636109125E+02 -0.41365209437E+02  0.56674488039E+02  0.00000000000E+00 0. -1.
         22    1    4    4    0    0 -0.30911955780E+00 -0.13469565196E+00 -0.85235961494E+00  0.91663227788E+00  0.00000000000E+00 0. -1.
<mgrwt>
<rscale>  0 0.90999894E+02</rscale>
<asrwt>0</asrwt>
<pdfrwt beam="1">  1        1 0.48771234E-02 0.90999894E+02</pdfrwt>
<pdfrwt beam="2">  1       -1 0.10046883E-01 0.90999894E+02</pdfrwt>
<totfact> 0.87941047E+04</totfact>
</mgrwt>
</event>
<event>
 7    1  0.2911475E-009  0.9000244E+02  0.7818608E-02  0.1302846E+00
          1   -1    0    0  501    0  0.00000000000E+00  0.00000000000E+00  0.50847655491E+03  0.50847655493E+03  0.50400000000E-02 0. -1.
         -1   -1    0    0    0  501 -0.00000000000E+00 -0.00000000000E+00 -0.39826987907E+01  0.39827019796E+01  0.50400000000E-02 0.  1.
         23    2    1    2    0    0  0.00000000000E+00  0.00000000000E+00  0.50449385612E+03  0.51245925691E+03  0.90002439607E+02 0.  0.
    9000005    2    3    3    0    0 -0.25783468009E+02  0.99858962287E+01  0.45296794694E+03  0.45398341008E+03  0.12508810015E+02 0.  0.
         22    1    3    3    0    0  0.25783468009E+02 -0.99858962287E+01  0.51525909177E+02  0.58475846831E+02  0.00000000000E+00 0.  1.
         22    1    4    4    0    0  0.73309207875E+00 -0.13288943781E+01  0.22992519423E+02  0.23042554843E+02  0.00000000000E+00 0. -1.
         22    1    4    4    0    0 -0.26516560088E+02  0.11314790607E+02  0.42997542752E+03  0.43094085524E+03  0.00000000000E+00 0. -1.
<mgrwt>
<rscale>  0 0.90002440E+02</rscale>
<asrwt>0</asrwt>
<pdfrwt beam="1">  1        1 0.78227145E-01 0.90002440E+02</pdfrwt>
<pdfrwt beam="2">  1       -1 0.61272327E-03 0.90002440E+02</pdfrwt>
<totfact> 0.14440808E+05</totfact>
</mgrwt>
</event>
<event>
 7    1  0.2911475E-009  0.9287847E+02  0.7818608E-02  0.1296027E+00
          1   -1    0    0  501    0  0.00000000000E+00  0.00000000000E+00  0.33850158349E+03  0.33850158353E+03  0.50400000000E-02 0. -1.
         -1   -1    0    0    0  501 -0.00000000000E+00 -0.00000000000E+00 -0.63710254172E+01  0.63710274108E+01  0.50400000000E-02 0.  1.
         23    2    1    2    0    0  0.00000000000E+00  0.00000000000E+00  0.33213055807E+03  0.34487261094E+03  0.92878469893E+02 0.  0.
    9000005    2    3    3    0    0 -0.41535174525E+02 -0.12187843869E+02  0.12094926484E+03  0.12930069052E+03  0.14704748989E+02 0.  0.
         22    1    3    3    0    0  0.41535174525E+02  0.12187843869E+02  0.21118129323E+03  0.21557192042E+03  0.00000000000E+00 0. -1.
         22    1    4    4    0    0 -0.37111603264E+02 -0.10293139071E+02  0.88780142239E+02  0.96773619674E+02  0.00000000000E+00 0.  1.
         22    1    4    4    0    0 -0.44235712610E+01 -0.18947047980E+01  0.32169122603E+02  0.32527070849E+02  0.00000000000E+00 0.  1.
<mgrwt>
<rscale>  0 0.92878470E+02</rscale>
<asrwt>0</asrwt>
<pdfrwt beam="1">  1        1 0.52077164E-01 0.92878470E+02</pdfrwt>
<pdfrwt beam="2">  1       -1 0.98015797E-03 0.92878470E+02</pdfrwt>
<totfact> 0.12474183E+05</totfact>
</mgrwt>
</event>
<event>
 7    1  0.2911475E-009  0.9121150E+02  0.7818608E-02  0.1299944E+00
          1   -1    0    0  501    0  0.00000000000E+00  0.00000000000E+00  0.19737778356E+03  0.19737778362E+03  0.50400000000E-02 0. -1.
         -1   -1    0    0    0  501 -0.00000000000E+00 -0.00000000000E+00 -0.10537581656E+02  0.10537582861E+02  0.50400000000E-02 0.  1.
         23    2    1    2    0    0  0.00000000000E+00  0.00000000000E+00  0.18684020190E+03  0.20791536648E+03  0.91211504610E+02 0.  0.
    9000005    2    3    3    0    0 -0.85139661838E+01  0.37227402999E+02  0.14945325635E+03  0.15447239826E+03  0.81901671717E+01 0.  0.
         22    1    3    3    0    0  0.85139661838E+01 -0.37227402999E+02  0.37386945554E+02  0.53442968219E+02  0.00000000000E+00 0.  1.
         22    1    4    4    0    0 -0.38542348763E+01  0.20490236439E+02  0.65425144568E+02  0.68666982295E+02  0.00000000000E+00 0.  1.
         22    1    4    4    0    0 -0.46597313075E+01  0.16737166560E+02  0.84028111777E+02  0.85805415966E+02  0.00000000000E+00 0.  1.
<mgrwt>
<rscale>  0 0.91211505E+02</rscale>
<asrwt>0</asrwt>
<pdfrwt beam="1">  1        1 0.30365815E-01 0.91211505E+02</pdfrwt>
<pdfrwt beam="2">  1       -1 0.16211664E-02 0.91211505E+02</pdfrwt>
<totfact> 0.11798308E+05</totfact>
</mgrwt>
</event>
<event>
 7    1  0.2911475E-009  0.9324662E+02  0.7818608E-02  0.1295175E+00
          1   -1    0    0  501    0  0.00000000000E+00  0.00000000000E+00  0.29143553304E+03  0.29143553308E+03  0.50400000000E-02 0. -1.
         -1   -1    0    0    0  501 -0.00000000000E+00 -0.00000000000E+00 -0.74587082982E+01  0.74587100010E+01  0.50400000000E-02 0.  1.
         23    2    1    2    0    0  0.00000000000E+00  0.00000000000E+00  0.28397682474E+03  0.29889424308E+03  0.93246616874E+02 0.  0.
    9000005    2    3    3    0    0  0.10843253524E+01  0.42989542476E+02  0.19932064416E+03  0.20394191065E+03  0.37824869965E+01 0.  0.
         22    1    3    3    0    0 -0.10843253524E+01 -0.42989542476E+02  0.84656180575E+02  0.94952332427E+02  0.00000000000E+00 0.  1.
         22    1    4    4    0    0  0.83025694799E+00  0.19088279378E+01  0.88989165497E+01  0.91391283203E+01  0.00000000000E+00 0.  1.
         22    1    4    4    0    0  0.25406840438E+00  0.41080714538E+02  0.19042172761E+03  0.19480278233E+03  0.00000000000E+00 0.  1.
<mgrwt>
<rscale>  0 0.93246617E+02</rscale>
<asrwt>0</asrwt>
<pdfrwt beam="1">  1        1 0.44836231E-01 0.93246617E+02</pdfrwt>
<pdfrwt beam="2">  1       -1 0.11474939E-02 0.93246617E+02</pdfrwt>
<totfact> 0.12000084E+05</totfact>
</mgrwt>
</event>
<event>
 7    1  0.2911475E-009  0.9923435E+02  0.7818608E-02  0.1281914E+00
         -1   -1    0    0    0  501 -0.00000000000E+00  0.00000000000E+00  0.30302633434E+02  0.30302633853E+02  0.50400000000E-02 0.  1.
          1   -1    0    0  501    0  0.00000000000E+00 -0.00000000000E+00 -0.81242580888E+02  0.81242581044E+02  0.50400000000E-02 0. -1.
         23    2    1    2    0    0  0.00000000000E+00  0.71054273576E-14 -0.50939947454E+02  0.11154521490E+03  0.99234352519E+02 0.  0.
    9000005    2    3    3    0    0  0.26597960750E+02 -0.32942448185E+02  0.24497573102E+01  0.43404793830E+02  0.92367964171E+01 0.  0.
         22    1    3    3    0    0 -0.26597960750E+02  0.32942448185E+02 -0.53389704764E+02  0.68140421068E+02  0.00000000000E+00 0. -1.
         22    1    4    4    0    0  0.25561325329E+02 -0.32087523581E+02  0.48823406082E+00  0.41027172638E+02  0.00000000000E+00 0.  1.
         22    1    4    4    0    0  0.10366354208E+01 -0.85492460345E+00  0.19615232494E+01  0.23776211917E+01  0.00000000000E+00 0.  1.
<mgrwt>
<rscale>  0 0.99234353E+02</rscale>
<asrwt>0</asrwt>
<pdfrwt beam="2">  1        1 0.12498859E-01 0.99234353E+02</pdfrwt>
<pdfrwt beam="1">  1       -1 0.46619437E-02 0.99234353E+02</pdfrwt>
<totfact> 0.79929449E+04</totfact>
</mgrwt>
</event>
<event>
 7    1  0.2911475E-009  0.8836362E+02  0.7818608E-02  0.1306864E+00
         -1   -1    0    0    0  501 -0.00000000000E+00  0.00000000000E+00  0.33595078610E+03  0.33595078613E+03  0.50400000000E-02 0.  1.
          1   -1    0    0  501    0  0.00000000000E+00 -0.00000000000E+00 -0.58104701771E+01  0.58104723630E+01  0.50400000000E-02 0. -1.
         23    2    1    2    0    0  0.00000000000E+00 -0.88817841970E-15  0.33014031592E+03  0.34176125850E+03  0.88363621555E+02 0.  0.
    9000005    2    3    3    0    0 -0.39418150456E+02  0.76816038133E+01  0.23462443549E+03  0.23814619667E+03  0.72241012418E+01 0.  0.
         22    1    3    3    0    0  0.39418150456E+02 -0.76816038133E+01  0.95515880432E+02  0.10361506183E+03  0.00000000000E+00 0.  1.
         22    1    4    4    0    0 -0.44861041832E+01  0.13800592590E+01  0.43595115333E+02  0.43847049789E+02  0.00000000000E+00 0.  1.
         22    1    4    4    0    0 -0.34932046273E+02  0.63015445543E+01  0.19102932015E+03  0.19429914688E+03  0.00000000000E+00 0.  1.
<mgrwt>
<rscale>  0 0.88363622E+02</rscale>
<asrwt>0</asrwt>
<pdfrwt beam="2">  1        1 0.89391886E-03 0.88363622E+02</pdfrwt>
<pdfrwt beam="1">  1       -1 0.51684725E-01 0.88363622E+02</pdfrwt>
<totfact> 0.62754968E+04</totfact>
</mgrwt>
</event>
<event>
 7    1  0.2911475E-009  0.1051444E+03  0.7818608E-02  0.1269835E+00
         -1   -1    0    0    0  501 -0.00000000000E+00  0.00000000000E+00  0.47496821417E+01  0.47496848157E+01  0.50400000000E-02 0.  1.
          1   -1    0    0  501    0  0.00000000000E+00 -0.00000000000E+00 -0.58189889431E+03  0.58189889433E+03  0.50400000000E-02 0. -1.
         23    2    1    2    0    0  0.00000000000E+00  0.00000000000E+00 -0.57714921217E+03  0.58664857915E+03  0.10514438791E+03 0.  0.
    9000005    2    3    3    0    0  0.35971835394E+02  0.34939133778E+02 -0.36835028198E+03  0.37191220762E+03  0.11047349371E+02 0.  0.
         22    1    3    3    0    0 -0.35971835394E+02 -0.34939133778E+02 -0.20879893019E+03  0.21473637153E+03  0.00000000000E+00 0.  1.
         22    1    4    4    0    0  0.24385675827E+02  0.21797815450E+02 -0.20053049456E+03  0.20318042522E+03  0.00000000000E+00 0. -1.
         22    1    4    4    0    0  0.11586159567E+02  0.13141318329E+02 -0.16781978742E+03  0.16873178240E+03  0.00000000000E+00 0. -1.
<mgrwt>
<rscale>  0 0.10514439E+03</rscale>
<asrwt>0</asrwt>
<pdfrwt beam="2">  1        1 0.89522851E-01 0.10514439E+03</pdfrwt>
<pdfrwt beam="1">  1       -1 0.73072100E-03 0.10514439E+03</pdfrwt>
<totfact> 0.96634077E+04</totfact>
</mgrwt>
</event>
<event>
 7    1  0.2911475E-009  0.9148891E+02  0.7818608E-02  0.1299286E+00
          1   -1    0    0  501    0  0.00000000000E+00  0.00000000000E+00  0.38110248108E+03  0.38110248112E+03  0.50400000000E-02 0. -1.
         -1   -1    0    0    0  501 -0.00000000000E+00 -0.00000000000E+00 -0.54907930469E+01  0.54907953600E+01  0.50400000000E-02 0.  1.
         23    2    1    2    0    0  0.35527136788E-14  0.00000000000E+00  0.37561168804E+03  0.38659327648E+03  0.91488913139E+02 0.  0.
    9000005    2    3    3    0    0  0.28101507336E+02 -0.55608166880E+01  0.33783568629E+03  0.33918395561E+03  0.96014278879E+01 0.  0.
         22    1    3    3    0    0 -0.28101507336E+02  0.55608166880E+01  0.37776001748E+02  0.47409320865E+02  0.00000000000E+00 0.  1.
         22    1    4    4    0    0  0.17770832159E+02 -0.29628889715E-01  0.23809311781E+03  0.23875538968E+03  0.00000000000E+00 0.  1.
         22    1    4    4    0    0  0.10330675178E+02 -0.55311877983E+01  0.99742568483E+02  0.10042856594E+03  0.00000000000E+00 0.  1.
<mgrwt>
<rscale>  0 0.91488913E+02</rscale>
<asrwt>0</asrwt>
<pdfrwt beam="1">  1        1 0.58631155E-01 0.91488913E+02</pdfrwt>
<pdfrwt beam="2">  1       -1 0.84473752E-03 0.91488913E+02</pdfrwt>
<totfact> 0.13259433E+05</totfact>
</mgrwt>
</event>
<event>
 7    1  0.2911475E-009  0.8549368E+02  0.7818608E-02  0.1314147E+00
         -1   -1    0    0    0  501 -0.00000000000E+00  0.00000000000E+00  0.31025748285E+02  0.31025748694E+02  0.50400000000E-02 0.  1.
          1   -1    0    0  501    0  0.00000000000E+00 -0.00000000000E+00 -0.58895993848E+02  0.58895994064E+02  0.50400000000E-02 0. -1.
         23    2    1    2    0    0  0.00000000000E+00  0.35527136788E-14 -0.27870245563E+02  0.89921742758E+02  0.85493679491E+02 0.  0.
    9000005    2    3    3    0    0 -0.17353957626E+02 -0.28730352733E+02  0.13463337760E+02  0.36676478896E+02  0.61081607010E+01 0.  0.
         22    1    3    3    0    0  0.17353957626E+02  0.28730352733E+02 -0.41333583323E+02  0.53245263862E+02  0.00000000000E+00 0. -1.
         22    1    4    4    0    0 -0.34163871730E+01 -0.60566511106E+01  0.24062060171E+00  0.69579179548E+01  0.00000000000E+00 0. -1.
         22    1    4    4    0    0 -0.13937570453E+02 -0.22673701622E+02  0.13222717158E+02  0.29718560941E+02  0.00000000000E+00 0. -1.
<mgrwt>
<rscale>  0 0.85493679E+02</rscale>
<asrwt>0</asrwt>
<pdfrwt beam="2">  1        1 0.90609222E-02 0.85493679E+02</pdfrwt>
<pdfrwt beam="1">  1       -1 0.47731921E-02 0.85493679E+02</pdfrwt>
<totfact> 0.11478373E+05</totfact>
</mgrwt>
</event>
<event>
 7    1  0.2911475E-009  0.9510767E+02  0.7818608E-02  0.1290934E+00
          1   -1    0    0  501    0  0.00000000000E+00  0.00000000000E+00  0.46492261374E+02  0.46492261647E+02  0.50400000000E-02 0. -1.
         -1   -1    0    0    0  501 -0.00000000000E+00 -0.00000000000E+00 -0.48639649927E+02  0.48639650188E+02  0.50400000000E-02 0.  1.
         23    2    1    2    0    0  0.00000000000E+00  0.00000000000E+00 -0.21473885526E+01  0.95131911835E+02  0.95107672518E+02 0.  0.
    9000005    2    3    3    0    0  0.11160020973E+02  0.67983313375E+01 -0.46517194032E+02  0.48877798338E+02  0.73774285923E+01 0.  0.
         22    1    3    3    0    0 -0.11160020973E+02 -0.67983313375E+01  0.44369805480E+02  0.46254113497E+02  0.00000000000E+00 0. -1.
         22    1    4    4    0    0  0.40179748524E+01  0.67368857749E+01 -0.23087245093E+02  0.24383409070E+02  0.00000000000E+00 0. -1.
         22    1    4    4    0    0  0.71420461203E+01  0.61445562655E-01 -0.23429948939E+02  0.24494389268E+02  0.00000000000E+00 0. -1.
<mgrwt>
<rscale>  0 0.95107673E+02</rscale>
<asrwt>0</asrwt>
<pdfrwt beam="1">  1        1 0.71526556E-02 0.95107673E+02</pdfrwt>
<pdfrwt beam="2">  1       -1 0.74830231E-02 0.95107673E+02</pdfrwt>
<totfact> 0.82349828E+04</totfact>
</mgrwt>
</event>
<event>
 7    1  0.2911475E-009  0.9218056E+02  0.7818608E-02  0.1297655E+00
          1   -1    0    0  501    0  0.00000000000E+00  0.00000000000E+00  0.54316099705E+03  0.54316099708E+03  0.50400000000E-02 0. -1.
         -1   -1    0    0    0  501 -0.00000000000E+00 -0.00000000000E+00 -0.39110192845E+01  0.39110225319E+01  0.50400000000E-02 0.  1.
         23    2    1    2    0    0  0.00000000000E+00  0.00000000000E+00  0.53924997777E+03  0.54707201961E+03  0.92180562566E+02 0.  0.
    9000005    2    3    3    0    0  0.18123045805E+02  0.34647461238E+02  0.40947607210E+03  0.41153546383E+03  0.12723718349E+02 0.  0.
         22    1    3    3    0    0 -0.18123045805E+02 -0.34647461238E+02  0.12977390567E+03  0.13553655578E+03  0.00000000000E+00 0.  1.
         22    1    4    4    0    0  0.38253450826E+01  0.71846391890E+01  0.43718643390E+02  0.44469900890E+02  0.00000000000E+00 0.  1.
         22    1    4    4    0    0  0.14297700723E+02  0.27462822049E+02  0.36575742871E+03  0.36706556294E+03  0.00000000000E+00 0.  1.
<mgrwt>
<rscale>  0 0.92180563E+02</rscale>
<asrwt>0</asrwt>
<pdfrwt beam="1">  1        1 0.83563194E-01 0.92180563E+02</pdfrwt>
<pdfrwt beam="2">  1       -1 0.60169579E-03 0.92180563E+02</pdfrwt>
<totfact> 0.13647955E+05</totfact>
</mgrwt>
</event>
<event>
 7    1  0.2911475E-009  0.9037704E+02  0.7818608E-02  0.1301941E+00
         -1   -1    0    0    0  501 -0.00000000000E+00  0.00000000000E+00  0.42532137886E+01  0.42532167748E+01  0.50400000000E-02 0.  1.
          1   -1    0    0  501    0  0.00000000000E+00 -0.00000000000E+00 -0.48010786549E+03  0.48010786551E+03  0.50400000000E-02 0. -1.
         23    2    1    2    0    0  0.00000000000E+00  0.00000000000E+00 -0.47585465170E+03  0.48436108229E+03  0.90377035205E+02 0.  0.
    9000005    2    3    3    0    0  0.40153161270E+02 -0.19912098691E+02 -0.26729518432E+03  0.27104015161E+03  0.26981822249E+01 0.  0.
         22    1    3    3    0    0 -0.40153161270E+02  0.19912098691E+02 -0.20855946738E+03  0.21332093068E+03  0.00000000000E+00 0. -1.
         22    1    4    4    0    0  0.15248400240E+02 -0.75299640298E+01 -0.93636619327E+02  0.95168432514E+02  0.00000000000E+00 0.  1.
         22    1    4    4    0    0  0.24904761029E+02 -0.12382134662E+02 -0.17365856500E+03  0.17587171909E+03  0.00000000000E+00 0.  1.
<mgrwt>
<rscale>  0 0.90377035E+02</rscale>
<asrwt>0</asrwt>
<pdfrwt beam="2">  1        1 0.73862706E-01 0.90377035E+02</pdfrwt>
<pdfrwt beam="1">  1       -1 0.65434119E-03 0.90377035E+02</pdfrwt>
<totfact> 0.14184231E+05</totfact>
</mgrwt>
</event>
<event>
 7    1  0.2911475E-009  0.9219571E+02  0.7818608E-02  0.1297620E+00
         -1   -1    0    0    0  501 -0.00000000000E+00  0.00000000000E+00  0.32233494510E+01  0.32233533913E+01  0.50400000000E-02 0.  1.
          1   -1    0    0  501    0  0.00000000000E+00 -0.00000000000E+00 -0.65925547573E+03  0.65925547574E+03  0.50400000000E-02 0. -1.
         23    2    1    2    0    0 -0.17763568394E-14  0.00000000000E+00 -0.65603212627E+03  0.66247882914E+03  0.92195706783E+02 0.  0.
    9000005    2    3    3    0    0 -0.87028377564E+01 -0.26013086382E+02 -0.59226700933E+03  0.59306405991E+03  0.13868985709E+02 0.  0.
         22    1    3    3    0    0  0.87028377564E+01  0.26013086382E+02 -0.63765116941E+02  0.69414769226E+02  0.00000000000E+00 0.  1.
         22    1    4    4    0    0  0.45556592944E+00 -0.77267846338E+01 -0.76232264301E+02  0.76624205455E+02  0.00000000000E+00 0.  1.
         22    1    4    4    0    0 -0.91584036858E+01 -0.18286301748E+02 -0.51603474503E+03  0.51643985446E+03  0.00000000000E+00 0.  1.
<mgrwt>
<rscale>  0 0.92195707E+02</rscale>
<asrwt>0</asrwt>
<pdfrwt beam="2">  1        1 0.10142381E+00 0.92195707E+02</pdfrwt>
<pdfrwt beam="1">  1       -1 0.49590075E-03 0.92195707E+02</pdfrwt>
<totfact> 0.13800754E+05</totfact>
</mgrwt>
</event>
<event>
 7    1  0.2911475E-009  0.8843690E+02  0.7818608E-02  0.1306682E+00
          1   -1    0    0  501    0  0.00000000000E+00  0.00000000000E+00  0.69798156378E+02  0.69798156560E+02  0.50400000000E-02 0. -1.
         -1   -1    0    0    0  501 -0.00000000000E+00 -0.00000000000E+00 -0.28013222052E+02  0.28013222505E+02  0.50400000000E-02 0.  1.
         23    2    1    2    0    0 -0.35527136788E-14  0.00000000000E+00  0.41784934326E+02  0.97811379065E+02  0.88436899188E+02 0.  0.
    9000005    2    3    3    0    0 -0.27166573570E+02  0.12101829378E+02 -0.14507650536E+02  0.34145594657E+02  0.84245306424E+01 0.  0.
         22    1    3    3    0    0  0.27166573570E+02 -0.12101829378E+02  0.56292584863E+02  0.63665784408E+02  0.00000000000E+00 0. -1.
         22    1    4    4    0    0 -0.20932413392E+02  0.57036361138E+01 -0.81273315093E+01  0.23167885376E+02  0.00000000000E+00 0. -1.
         22    1    4    4    0    0 -0.62341601786E+01  0.63981932639E+01 -0.63803190267E+01  0.10977709281E+02  0.00000000000E+00 0. -1.
<mgrwt>
<rscale>  0 0.88436899E+02</rscale>
<asrwt>0</asrwt>
<pdfrwt beam="1">  1        1 0.10738178E-01 0.88436899E+02</pdfrwt>
<pdfrwt beam="2">  1       -1 0.43097266E-02 0.88436899E+02</pdfrwt>
<totfact> 0.10725471E+05</totfact>
</mgrwt>
</event>
<event>
 7    1  0.2911475E-009  0.9109300E+02  0.7818608E-02  0.1300226E+00
          1   -1    0    0  501    0  0.00000000000E+00  0.00000000000E+00  0.28882823853E+02  0.28882824292E+02  0.50400000000E-02 0. -1.
         -1   -1    0    0    0  501 -0.00000000000E+00 -0.00000000000E+00 -0.71824125200E+02  0.71824125377E+02  0.50400000000E-02 0.  1.
         23    2    1    2    0    0 -0.71054273576E-14  0.00000000000E+00 -0.42941301347E+02  0.10070694967E+03  0.91092998360E+02 0.  0.
    9000005    2    3    3    0    0 -0.33102694644E+02  0.23262669103E+02 -0.42666662624E+02  0.60246900325E+02  0.13126489737E+02 0.  0.
         22    1    3    3    0    0  0.33102694644E+02 -0.23262669103E+02 -0.27463872310E+00  0.40460049344E+02  0.00000000000E+00 0. -1.
         22    1    4    4    0    0 -0.59122940587E+00  0.34068517579E+01 -0.62665941197E+00  0.35140991917E+01  0.00000000000E+00 0.  1.
         22    1    4    4    0    0 -0.32511465238E+02  0.19855817346E+02 -0.42040003212E+02  0.56732801133E+02  0.00000000000E+00 0.  1.
<mgrwt>
<rscale>  0 0.91092998E+02</rscale>
<asrwt>0</asrwt>
<pdfrwt beam="1">  1        1 0.44435114E-02 0.91092998E+02</pdfrwt>
<pdfrwt beam="2">  1       -1 0.11049865E-01 0.91092998E+02</pdfrwt>
<totfact> 0.86381316E+04</totfact>
</mgrwt>
</event>
<event>
 7    1  0.2911475E-009  0.9147701E+02  0.7818608E-02  0.1299314E+00
         -1   -1    0    0    0  501 -0.00000000000E+00  0.00000000000E+00  0.31796997795E+01  0.31797037738E+01  0.50400000000E-02 0.  1.
          1   -1    0    0  501    0  0.00000000000E+00 -0.00000000000E+00 -0.65792679852E+03  0.65792679854E+03  0.50400000000E-02 0. -1.
         23    2    1    2    0    0  0.66613381478E-15  0.00000000000E+00 -0.65474709874E+03  0.66110650231E+03  0.91477014006E+02 0.  0.
    9000005    2    3    3    0    0 -0.18142376184E+01  0.23588804462E+02 -0.60949673047E+03  0.61004458908E+03  0.10412159342E+02 0.  0.
         22    1    3    3    0    0  0.18142376184E+01 -0.23588804462E+02 -0.45250368271E+02  0.51061913230E+02  0.00000000000E+00 0.  1.
         22    1    4    4    0    0 -0.48318917441E+01  0.19252060706E+02 -0.53061259511E+03  0.53098372395E+03  0.00000000000E+00 0. -1.
         22    1    4    4    0    0  0.30176541257E+01  0.43367437555E+01 -0.78884135362E+02  0.79060865127E+02  0.00000000000E+00 0. -1.
<mgrwt>
<rscale>  0 0.91477014E+02</rscale>
<asrwt>0</asrwt>
<pdfrwt beam="2">  1        1 0.10121940E+00 0.91477014E+02</pdfrwt>
<pdfrwt beam="1">  1       -1 0.48918541E-03 0.91477014E+02</pdfrwt>
<totfact> 0.14089149E+05</totfact>
</mgrwt>
</event>
<event>
 7    1  0.2911475E-009  0.9269956E+02  0.7818608E-02  0.1296443E+00
          1   -1    0    0  501    0  0.00000000000E+00  0.00000000000E+00  0.33251380738E+02  0.33251381120E+02  0.50400000000E-02 0. -1.
         -1   -1    0    0    0  501 -0.00000000000E+00 -0.00000000000E+00 -0.64607911168E+02  0.64607911364E+02  0.50400000000E-02 0.  1.
         23    2    1    2    0    0  0.35527136788E-14  0.71054273576E-14 -0.31356530429E+02  0.97859292484E+02  0.92699563780E+02 0.  0.
    9000005    2    3    3    0    0 -0.26424390746E+02 -0.35813137355E+02 -0.28455851133E+02  0.53258360051E+02  0.67740843022E+01 0.  0.
         22    1    3    3    0    0  0.26424390746E+02  0.35813137355E+02 -0.29006792963E+01  0.44600932433E+02  0.00000000000E+00 0. -1.
         22    1    4    4    0    0 -0.43203604344E+01 -0.35870499369E+01 -0.15905723626E+01  0.58362969402E+01  0.00000000000E+00 0. -1.
         22    1    4    4    0    0 -0.22104030312E+02 -0.32226087418E+02 -0.26865278770E+02  0.47422063111E+02  0.00000000000E+00 0. -1.
<mgrwt>
<rscale>  0 0.92699564E+02</rscale>
<asrwt>0</asrwt>
<pdfrwt beam="1">  1        1 0.51155971E-02 0.92699564E+02</pdfrwt>
<pdfrwt beam="2">  1       -1 0.99396787E-02 0.92699564E+02</pdfrwt>
<totfact> 0.84037992E+04</totfact>
</mgrwt>
</event>
<event>
 6    1  0.2911475E-009  0.1615099E+03  0.7818608E-02  0.1187003E+00
         -1   -1    0    0    0  501 -0.00000000000E+00  0.00000000000E+00  0.11757608407E+03  0.11757608418E+03  0.50400000000E-02 0.  1.
          1   -1    0    0  501    0  0.00000000000E+00 -0.00000000000E+00 -0.55465062359E+02  0.55465062588E+02  0.50400000000E-02 0. -1.
    9000005    2    1    2    0    0 -0.72224559945E+01  0.27578044076E+02  0.11187045326E+03  0.11569384158E+03  0.75732609084E+01 0.  0.
         22    1    1    2    0    0  0.72224559945E+01 -0.27578044076E+02 -0.49759431543E+02  0.57347305195E+02  0.00000000000E+00 0. -1.
         22    1    3    3    0    0 -0.47789221599E+01  0.58817931188E+01  0.32822784381E+02  0.33686329005E+02  0.00000000000E+00 0.  1.
         22    1    3    3    0    0 -0.24435338346E+01  0.21696250957E+02  0.79047668876E+02  0.82007512570E+02  0.00000000000E+00 0.  1.
<mgrwt>
<rscale>  0 0.16150994E+03</rscale>
<asrwt>0</asrwt>
<pdfrwt beam="2">  1        1 0.85330867E-02 0.16150994E+03</pdfrwt>
<pdfrwt beam="1">  1       -1 0.18088628E-01 0.16150994E+03</pdfrwt>
<totfact> 0.17847560E+04</totfact>
</mgrwt>
</event>
<event>
 7    1  0.2911475E-009  0.9156132E+02  0.7818608E-02  0.1299114E+00
          1   -1    0    0  501    0  0.00000000000E+00  0.00000000000E+00  0.36440217046E+03  0.36440217050E+03  0.50400000000E-02 0. -1.
         -1   -1    0    0    0  501 -0.00000000000E+00 -0.00000000000E+00 -0.57515252499E+01  0.57515274582E+01  0.50400000000E-02 0.  1.
         23    2    1    2    0    0  0.00000000000E+00  0.00000000000E+00  0.35865064521E+03  0.37015369795E+03  0.91561317153E+02 0.  0.
    9000005    2    3    3    0    0  0.42449042369E+02 -0.85782524471E+01  0.22686734146E+03  0.23143691180E+03  0.14790061185E+02 0.  0.
         22    1    3    3    0    0 -0.42449042369E+02  0.85782524471E+01  0.13178330375E+03  0.13871678616E+03  0.00000000000E+00 0.  1.
         22    1    4    4    0    0  0.16494589524E+02 -0.43163195048E+01  0.12800791526E+03  0.12913840817E+03  0.00000000000E+00 0.  1.
         22    1    4    4    0    0  0.25954452845E+02 -0.42619329423E+01  0.98859426202E+02  0.10229850362E+03  0.00000000000E+00 0.  1.
<mgrwt>
<rscale>  0 0.91561317E+02</rscale>
<asrwt>0</asrwt>
<pdfrwt beam="1">  1        1 0.56061896E-01 0.91561317E+02</pdfrwt>
<pdfrwt beam="2">  1       -1 0.88484984E-03 0.91561317E+02</pdfrwt>
<totfact> 0.13129602E+05</totfact>
</mgrwt>
</event>
<event>
 7    1  0.2911475E-009  0.9259354E+02  0.7818608E-02  0.1296690E+00
          1   -1    0    0  501    0  0.00000000000E+00  0.00000000000E+00  0.24409167869E+02  0.24409168390E+02  0.50400000000E-02 0. -1.
         -1   -1    0    0    0  501 -0.00000000000E+00 -0.00000000000E+00 -0.87810885779E+02  0.87810885924E+02  0.50400000000E-02 0.  1.
         23    2    1    2    0    0 -0.88817841970E-15  0.71054273576E-14 -0.63401717910E+02  0.11222005431E+03  0.92593535175E+02 0.  0.
    9000005    2    3    3    0    0  0.48310364075E+01 -0.31742259462E+02 -0.72108504769E+02  0.78952681620E+02  0.17261304781E+01 0.  0.
         22    1    3    3    0    0 -0.48310364075E+01  0.31742259462E+02  0.87067868594E+01  0.33267372693E+02  0.00000000000E+00 0. -1.
         22    1    4    4    0    0  0.15468384789E+01 -0.82299995083E+01 -0.20564070735E+02  0.22203752079E+02  0.00000000000E+00 0.  1.
         22    1    4    4    0    0  0.32841979286E+01 -0.23512259953E+02 -0.51544434034E+02  0.56748929541E+02  0.00000000000E+00 0.  1.
<mgrwt>
<rscale>  0 0.92593535E+02</rscale>
<asrwt>0</asrwt>
<pdfrwt beam="1">  1        1 0.37552567E-02 0.92593535E+02</pdfrwt>
<pdfrwt beam="2">  1       -1 0.13509367E-01 0.92593535E+02</pdfrwt>
<totfact> 0.80067252E+04</totfact>
</mgrwt>
</event>
<event>
 7    1  0.2911475E-009  0.8879966E+02  0.7818608E-02  0.1305785E+00
         -1   -1    0    0    0  501 -0.00000000000E+00  0.00000000000E+00  0.37093593131E+01  0.37093627371E+01  0.50400000000E-02 0.  1.
          1   -1    0    0  501    0  0.00000000000E+00 -0.00000000000E+00 -0.53145128865E+03  0.53145128868E+03  0.50400000000E-02 0. -1.
         23    2    1    2    0    0  0.00000000000E+00 -0.35527136788E-14 -0.52774192934E+03  0.53516065141E+03  0.88799655622E+02 0.  0.
    9000005    2    3    3    0    0 -0.20416443691E+02 -0.28389454135E+02 -0.42601031023E+03  0.42758688786E+03  0.11089182387E+02 0.  0.
         22    1    3    3    0    0  0.20416443691E+02  0.28389454135E+02 -0.10173161911E+03  0.10757376356E+03  0.00000000000E+00 0.  1.
         22    1    4    4    0    0 -0.20062725142E+02 -0.29409049570E+02 -0.41225497068E+03  0.41378927727E+03  0.00000000000E+00 0. -1.
         22    1    4    4    0    0 -0.35371854928E+00  0.10195954349E+01 -0.13755339553E+02  0.13797610586E+02  0.00000000000E+00 0. -1.
<mgrwt>
<rscale>  0 0.88799656E+02</rscale>
<asrwt>0</asrwt>
<pdfrwt beam="2">  1        1 0.81761677E-01 0.88799656E+02</pdfrwt>
<pdfrwt beam="1">  1       -1 0.57067135E-03 0.88799656E+02</pdfrwt>
<totfact> 0.15034472E+05</totfact>
</mgrwt>
</event>
<event>
 7    1  0.2911475E-009  0.9025609E+02  0.7818608E-02  0.1302233E+00
          1   -1    0    0  501    0  0.00000000000E+00  0.00000000000E+00  0.20414362100E+02  0.20414362722E+02  0.50400000000E-02 0. -1.
         -1   -1    0    0    0  501 -0.00000000000E+00 -0.00000000000E+00 -0.99760179544E+02  0.99760179671E+02  0.50400000000E-02 0.  1.
         23    2    1    2    0    0  0.00000000000E+00  0.00000000000E+00 -0.79345817444E+02  0.12017454239E+03  0.90256090617E+02 0.  0.
    9000005    2    3    3    0    0  0.14371376486E+02  0.41754498828E+02 -0.37020900058E+02  0.59007776366E+02  0.12704172388E+02 0.  0.
         22    1    3    3    0    0 -0.14371376486E+02 -0.41754498828E+02 -0.42324917387E+02  0.61166766028E+02  0.00000000000E+00 0. -1.
         22    1    4    4    0    0  0.15668175020E+02  0.30657441365E+02 -0.30933459230E+02  0.46284439280E+02  0.00000000000E+00 0. -1.
         22    1    4    4    0    0 -0.12967985342E+01  0.11097057463E+02 -0.60874408279E+01  0.12723337086E+02  0.00000000000E+00 0. -1.
<mgrwt>
<rscale>  0 0.90256091E+02</rscale>
<asrwt>0</asrwt>
<pdfrwt beam="1">  1        1 0.31406712E-02 0.90256091E+02</pdfrwt>
<pdfrwt beam="2">  1       -1 0.15347720E-01 0.90256091E+02</pdfrwt>
<totfact> 0.83560664E+04</totfact>
</mgrwt>
</event>
<event>
 7    1  0.2911475E-009  0.8436764E+02  0.7818608E-02  0.1317095E+00
          1   -1    0    0  501    0  0.00000000000E+00  0.00000000000E+00  0.13569249125E+02  0.13569250061E+02  0.50400000000E-02 0. -1.
         -1   -1    0    0    0  501 -0.00000000000E+00 -0.00000000000E+00 -0.13114024282E+03  0.13114024291E+03  0.50400000000E-02 0.  1.
         23    2    1    2    0    0  0.00000000000E+00  0.17763568394E-14 -0.11757099369E+03  0.14470949297E+03  0.84367640711E+02 0.  0.
    9000005    2    3    3    0    0 -0.23397853867E+02 -0.11826976669E+02 -0.11546351498E+03  0.11840781224E+03  0.11179298317E+01 0.  0.
         22    1    3    3    0    0  0.23397853867E+02  0.11826976669E+02 -0.21074787164E+01  0.26301680730E+02  0.00000000000E+00 0. -1.
         22    1    4    4    0    0 -0.28115937740E+01 -0.11349133648E+01 -0.14514471188E+02  0.14827776696E+02  0.00000000000E+00 0.  1.
         22    1    4    4    0    0 -0.20586260093E+02 -0.10692063304E+02 -0.10094904379E+03  0.10358003555E+03  0.00000000000E+00 0.  1.
<mgrwt>
<rscale>  0 0.84367641E+02</rscale>
<asrwt>0</asrwt>
<pdfrwt beam="1">  1        1 0.20875770E-02 0.84367641E+02</pdfrwt>
<pdfrwt beam="2">  1       -1 0.20175421E-01 0.84367641E+02</pdfrwt>
<totfact> 0.94191847E+04</totfact>
</mgrwt>
</event>
<event>
 7    1  0.2911475E-009  0.9088997E+02  0.7818608E-02  0.1300711E+00
          1   -1    0    0  501    0  0.00000000000E+00  0.00000000000E+00  0.13870356591E+02  0.13870357507E+02  0.50400000000E-02 0. -1.
         -1   -1    0    0    0  501 -0.00000000000E+00 -0.00000000000E+00 -0.14889641596E+03  0.14889641605E+03  0.50400000000E-02 0.  1.
         23    2    1    2    0    0 -0.35527136788E-14  0.00000000000E+00 -0.13502605937E+03  0.16276677355E+03  0.90889965694E+02 0.  0.
    9000005    2    3    3    0    0  0.29443396529E+02  0.25763218282E+02 -0.32335458610E+02  0.52875843536E+02  0.14819444346E+02 0.  0.
         22    1    3    3    0    0 -0.29443396529E+02 -0.25763218282E+02 -0.10269060076E+03  0.10989093002E+03  0.00000000000E+00 0. -1.
         22    1    4    4    0    0  0.21493501176E+01  0.32127803202E+01 -0.10716955027E+02  0.11392751571E+02  0.00000000000E+00 0. -1.
         22    1    4    4    0    0  0.27294046412E+02  0.22550437962E+02 -0.21618503583E+02  0.41483091965E+02  0.00000000000E+00 0. -1.
<mgrwt>
<rscale>  0 0.90889966E+02</rscale>
<asrwt>0</asrwt>
<pdfrwt beam="1">  1        1 0.21339012E-02 0.90889966E+02</pdfrwt>
<pdfrwt beam="2">  1       -1 0.22907140E-01 0.90889966E+02</pdfrwt>
<totfact> 0.75532790E+04</totfact>
</mgrwt>
</event>
<event>
 7    1  0.2911475E-009  0.8873156E+02  0.7818608E-02  0.1305953E+00
         -1   -1    0    0    0  501 -0.00000000000E+00  0.00000000000E+00  0.45307577082E+02  0.45307577362E+02  0.50400000000E-02 0.  1.
          1   -1    0    0  501    0  0.00000000000E+00 -0.00000000000E+00 -0.43443556125E+02  0.43443556418E+02  0.50400000000E-02 0. -1.
         23    2    1    2    0    0  0.00000000000E+00 -0.44408920985E-15  0.18640209564E+01  0.88751133780E+02  0.88731556805E+02 0.  0.
    9000005    2    3    3    0    0 -0.19421109323E+02 -0.27536794669E+01 -0.38510058159E+02  0.43864292697E+02  0.75026233041E+01 0.  0.
         22    1    3    3    0    0  0.19421109323E+02  0.27536794669E+01  0.40374079116E+02  0.44886841083E+02  0.00000000000E+00 0.  1.
         22    1    4    4    0    0 -0.48147294505E+01  0.33157124036E+00 -0.40167106665E+01  0.62789747370E+01  0.00000000000E+00 0. -1.
         22    1    4    4    0    0 -0.14606379872E+02 -0.30852507073E+01 -0.34493347493E+02  0.37585317960E+02  0.00000000000E+00 0. -1.
<mgrwt>
<rscale>  0 0.88731557E+02</rscale>
<asrwt>0</asrwt>
<pdfrwt beam="2">  1        1 0.66836240E-02 0.88731557E+02</pdfrwt>
<pdfrwt beam="1">  1       -1 0.69703965E-02 0.88731557E+02</pdfrwt>
<totfact> 0.99076939E+04</totfact>
</mgrwt>
</event>
<event>
 7    1  0.2911475E-009  0.8120614E+02  0.7818608E-02  0.1325663E+00
         -1   -1    0    0    0  501 -0.00000000000E+00  0.00000000000E+00  0.68630618262E+02  0.68630618447E+02  0.50400000000E-02 0. -1.
          1   -1    0    0  501    0  0.00000000000E+00 -0.00000000000E+00 -0.24021481800E+02  0.24021482328E+02  0.50400000000E-02 0.  1.
         23    2    1    2    0    0  0.00000000000E+00  0.00000000000E+00  0.44609136463E+02  0.92652100775E+02  0.81206137220E+02 0.  0.
    9000005    2    3    3    0    0 -0.57565224397E+01 -0.24090780867E+02  0.58836689094E+02  0.64087673121E+02  0.56542540718E+01 0.  0.
         22    1    3    3    0    0  0.57565224397E+01  0.24090780867E+02 -0.14227552631E+02  0.28564427655E+02  0.00000000000E+00 0.  1.
         22    1    4    4    0    0 -0.40895382709E+01 -0.19992607903E+02  0.52776629614E+02  0.56584461891E+02  0.00000000000E+00 0. -1.
         22    1    4    4    0    0 -0.16669841688E+01 -0.40981729642E+01  0.60600594794E+01  0.75032112298E+01  0.00000000000E+00 0. -1.
<mgrwt>
<rscale>  0 0.81206137E+02</rscale>
<asrwt>0</asrwt>
<pdfrwt beam="2">  1        1 0.36956127E-02 0.81206137E+02</pdfrwt>
<pdfrwt beam="1">  1       -1 0.10558557E-01 0.81206137E+02</pdfrwt>
<totfact> 0.11654972E+05</totfact>
</mgrwt>
</event>
<event>
 7    1  0.2911475E-009  0.8439948E+02  0.7818608E-02  0.1317010E+00
         -1   -1    0    0    0  501 -0.00000000000E+00  0.00000000000E+00  0.28697881497E+02  0.28697881940E+02  0.50400000000E-02 0.  1.
          1   -1    0    0  501    0  0.00000000000E+00 -0.00000000000E+00 -0.62053992907E+02  0.62053993112E+02  0.50400000000E-02 0. -1.
         23    2    1    2    0    0 -0.11102230246E-15  0.00000000000E+00 -0.33356111410E+02  0.90751875051E+02  0.84399482563E+02 0.  0.
    9000005    2    3    3    0    0 -0.94767029228E+00  0.25059965379E+02 -0.51905965661E+02  0.59558974633E+02  0.14971380844E+02 0.  0.
         22    1    3    3    0    0  0.94767029228E+00 -0.25059965379E+02  0.18549854251E+02  0.31192900418E+02  0.00000000000E+00 0.  1.
         22    1    4    4    0    0 -0.74185659273E+01  0.90404235148E+01 -0.17330620001E+02  0.20907289814E+02  0.00000000000E+00 0.  1.
         22    1    4    4    0    0  0.64708956351E+01  0.16019541864E+02 -0.34575345660E+02  0.38651684819E+02  0.00000000000E+00 0.  1.
<mgrwt>
<rscale>  0 0.84399483E+02</rscale>
<asrwt>0</asrwt>
<pdfrwt beam="2">  1        1 0.95467681E-02 0.84399483E+02</pdfrwt>
<pdfrwt beam="1">  1       -1 0.44150588E-02 0.84399483E+02</pdfrwt>
<totfact> 0.11981022E+05</totfact>
</mgrwt>
</event>
<event>
 7    1  0.2911475E-009  0.9084583E+02  0.7818608E-02  0.1300816E+00
         -1   -1    0    0    0  501 -0.00000000000E+00  0.00000000000E+00  0.16537488756E+02  0.16537489524E+02  0.50400000000E-02 0.  1.
          1   -1    0    0  501    0  0.00000000000E+00 -0.00000000000E+00 -0.12476146564E+03  0.12476146574E+03  0.50400000000E-02 0. -1.
         23    2    1    2    0    0  0.35527136788E-14 -0.71054273576E-14 -0.10822397688E+03  0.14129895526E+03  0.90845834171E+02 0.  0.
    9000005    2    3    3    0    0  0.25322877611E+02 -0.34697074673E+02 -0.74049045493E+02  0.86407598413E+02  0.11742095371E+02 0.  0.
         22    1    3    3    0    0 -0.25322877611E+02  0.34697074673E+02 -0.34174931387E+02  0.54891356849E+02  0.00000000000E+00 0.  1.
         22    1    4    4    0    0  0.95724973894E+01 -0.48475953680E+01 -0.16136977275E+02  0.19378697652E+02  0.00000000000E+00 0.  1.
         22    1    4    4    0    0  0.15750380221E+02 -0.29849479305E+02 -0.57912068217E+02  0.67028900760E+02  0.00000000000E+00 0.  1.
<mgrwt>
<rscale>  0 0.90845834E+02</rscale>
<asrwt>0</asrwt>
<pdfrwt beam="2">  1        1 0.19194071E-01 0.90845834E+02</pdfrwt>
<pdfrwt beam="1">  1       -1 0.25442292E-02 0.90845834E+02</pdfrwt>
<totfact> 0.10954862E+05</totfact>
</mgrwt>
</event>
<event>
 7    1  0.2911475E-009  0.9889724E+02  0.7818608E-02  0.1282632E+00
          1   -1    0    0  501    0  0.00000000000E+00  0.00000000000E+00  0.77336758822E+02  0.77336758987E+02  0.50400000000E-02 0. -1.
         -1   -1    0    0    0  501 -0.00000000000E+00 -0.00000000000E+00 -0.31617122363E+02  0.31617122764E+02  0.50400000000E-02 0.  1.
         23    2    1    2    0    0 -0.35527136788E-14 -0.17763568394E-14  0.45719636460E+02  0.10895388175E+03  0.98897235505E+02 0.  0.
    9000005    2    3    3    0    0  0.29372912854E+02 -0.13758953348E+02  0.63222150202E+02  0.72097202654E+02  0.12202030468E+02 0.  0.
         22    1    3    3    0    0 -0.29372912854E+02  0.13758953348E+02 -0.17502513742E+02  0.36856679097E+02  0.00000000000E+00 0.  1.
         22    1    4    4    0    0  0.19711565005E+02 -0.73133417669E+01  0.51357076538E+02  0.55493964296E+02  0.00000000000E+00 0. -1.
         22    1    4    4    0    0  0.96613478488E+01 -0.64456115812E+01  0.11865073664E+02  0.16603238358E+02  0.00000000000E+00 0. -1.
<mgrwt>
<rscale>  0 0.98897236E+02</rscale>
<asrwt>0</asrwt>
<pdfrwt beam="1">  1        1 0.11897963E-01 0.98897236E+02</pdfrwt>
<pdfrwt beam="2">  1       -1 0.48641728E-02 0.98897236E+02</pdfrwt>
<totfact> 0.80032578E+04</totfact>
</mgrwt>
</event>
<event>
 7    1  0.2911475E-009  0.9129695E+02  0.7818608E-02  0.1299741E+00
         -1   -1    0    0    0  501 -0.00000000000E+00  0.00000000000E+00  0.68445621058E+02  0.68445621244E+02  0.50400000000E-02 0. -1.
          1   -1    0    0  501    0  0.00000000000E+00 -0.00000000000E+00 -0.30444361166E+02  0.30444361583E+02  0.50400000000E-02 0.  1.
         23    2    1    2    0    0  0.00000000000E+00  0.00000000000E+00  0.38001259892E+02  0.98889982827E+02  0.91296949293E+02 0.  0.
    9000005    2    3    3    0    0  0.20971573677E+02  0.23369676082E+02  0.54394088625E+02  0.63468612208E+02  0.91432595652E+01 0.  0.
         22    1    3    3    0    0 -0.20971573677E+02 -0.23369676082E+02 -0.16392828733E+02  0.35421370619E+02  0.00000000000E+00 0.  1.
         22    1    4    4    0    0  0.16696622506E+00  0.15729914463E+01  0.79535499511E+01  0.81093240554E+01  0.00000000000E+00 0. -1.
         22    1    4    4    0    0  0.20804607452E+02  0.21796684636E+02  0.46440538674E+02  0.55359288152E+02  0.00000000000E+00 0. -1.
<mgrwt>
<rscale>  0 0.91296949E+02</rscale>
<asrwt>0</asrwt>
<pdfrwt beam="2">  1        1 0.46837479E-02 0.91296949E+02</pdfrwt>
<pdfrwt beam="1">  1       -1 0.10530096E-01 0.91296949E+02</pdfrwt>
<totfact> 0.86562093E+04</totfact>
</mgrwt>
</event>
<event>
 7    1  0.2911475E-009  0.8788156E+02  0.7818608E-02  0.1308064E+00
         -1   -1    0    0    0  501 -0.00000000000E+00  0.00000000000E+00  0.62949401717E+01  0.62949421893E+01  0.50400000000E-02 0.  1.
          1   -1    0    0  501    0  0.00000000000E+00 -0.00000000000E+00 -0.30672124340E+03  0.30672124344E+03  0.50400000000E-02 0. -1.
         23    2    1    2    0    0  0.71054273576E-14  0.88817841970E-15 -0.30042630323E+03  0.31301618563E+03  0.87881561179E+02 0.  0.
    9000005    2    3    3    0    0  0.40807787094E+02  0.46593091840E+01 -0.11504321829E+03  0.12313761172E+03  0.15522393361E+02 0.  0.
         22    1    3    3    0    0 -0.40807787094E+02 -0.46593091840E+01 -0.18538308494E+03  0.18987857391E+03  0.00000000000E+00 0. -1.
         22    1    4    4    0    0  0.98665525668E+01 -0.50428474071E+01 -0.37066563043E+02  0.38687326935E+02  0.00000000000E+00 0.  1.
         22    1    4    4    0    0  0.30941234528E+02  0.97021565911E+01 -0.77976655248E+02  0.84450284785E+02  0.00000000000E+00 0.  1.
<mgrwt>
<rscale>  0 0.87881561E+02</rscale>
<asrwt>0</asrwt>
<pdfrwt beam="2">  1        1 0.47187872E-01 0.87881561E+02</pdfrwt>
<pdfrwt beam="1">  1       -1 0.96845273E-03 0.87881561E+02</pdfrwt>
<totfact> 0.14188410E+05</totfact>
</mgrwt>
</event>
<event>
 7    1  0.2911475E-009  0.8595894E+02  0.7818608E-02  0.1312944E+00
         -1   -1    0    0    0  501 -0.00000000000E+00  0.00000000000E+00  0.68247981517E+01  0.68248000127E+01  0.50400000000E-02 0.  1.
          1   -1    0    0  501    0  0.00000000000E+00 -0.00000000000E+00 -0.27066505843E+03  0.27066505847E+03  0.50400000000E-02 0. -1.
         23    2    1    2    0    0  0.00000000000E+00  0.00000000000E+00 -0.26384026027E+03  0.27748985849E+03  0.85958935666E+02 0.  0.
    9000005    2    3    3    0    0  0.24951394851E+02  0.29721283833E+02 -0.18894587932E+03  0.19313883528E+03  0.98049764267E+01 0.  0.
         22    1    3    3    0    0 -0.24951394851E+02 -0.29721283833E+02 -0.74894380955E+02  0.84351023209E+02  0.00000000000E+00 0. -1.
         22    1    4    4    0    0  0.41367901221E+01  0.16490495734E+01 -0.12608825395E+02  0.13372167919E+02  0.00000000000E+00 0.  1.
         22    1    4    4    0    0  0.20814604729E+02  0.28072234260E+02 -0.17633705392E+03  0.17976666736E+03  0.00000000000E+00 0.  1.
<mgrwt>
<rscale>  0 0.85958936E+02</rscale>
<asrwt>0</asrwt>
<pdfrwt beam="2">  1        1 0.41640770E-01 0.85958936E+02</pdfrwt>
<pdfrwt beam="1">  1       -1 0.10499693E-02 0.85958936E+02</pdfrwt>
<totfact> 0.14690772E+05</totfact>
</mgrwt>
</event>
<event>
 7    1  0.2911475E-009  0.9394518E+02  0.7818608E-02  0.1293570E+00
          1   -1    0    0  501    0  0.00000000000E+00  0.00000000000E+00  0.45024147480E+03  0.45024147482E+03  0.50400000000E-02 0. -1.
         -1   -1    0    0    0  501 -0.00000000000E+00 -0.00000000000E+00 -0.49005343097E+01  0.49005369015E+01  0.50400000000E-02 0.  1.
         23    2    1    2    0    0  0.00000000000E+00 -0.44408920985E-15  0.44534094049E+03  0.45514201173E+03  0.93945183828E+02 0.  0.
    9000005    2    3    3    0    0 -0.27294157491E+02  0.19839671351E+01  0.40729655304E+03  0.40827749876E+03  0.71502952576E+01 0.  0.
         22    1    3    3    0    0  0.27294157491E+02 -0.19839671351E+01  0.38044387449E+02  0.46864512961E+02  0.00000000000E+00 0.  1.
         22    1    4    4    0    0 -0.27116552566E+02  0.27798196980E+01  0.38378912024E+03  0.38475592735E+03  0.00000000000E+00 0. -1.
         22    1    4    4    0    0 -0.17760492575E+00 -0.79585256287E+00  0.23507432800E+02  0.23521571411E+02  0.00000000000E+00 0. -1.
<mgrwt>
<rscale>  0 0.93945184E+02</rscale>
<asrwt>0</asrwt>
<pdfrwt beam="1">  1        1 0.69267930E-01 0.93945184E+02</pdfrwt>
<pdfrwt beam="2">  1       -1 0.75392844E-03 0.93945184E+02</pdfrwt>
<totfact> 0.12687218E+05</totfact>
</mgrwt>
</event>
<event>
 7    1  0.2911475E-009  0.9124481E+02  0.7818608E-02  0.1299865E+00
         -1   -1    0    0    0  501 -0.00000000000E+00  0.00000000000E+00  0.96764987353E+01  0.96765000478E+01  0.50400000000E-02 0.  1.
          1   -1    0    0  501    0  0.00000000000E+00 -0.00000000000E+00 -0.21509885508E+03  0.21509885513E+03  0.50400000000E-02 0. -1.
         23    2    1    2    0    0  0.00000000000E+00  0.00000000000E+00 -0.20542235634E+03  0.22477535518E+03  0.91244812526E+02 0.  0.
    9000005    2    3    3    0    0 -0.14689982509E+02 -0.15055762311E+02 -0.20196993389E+03  0.20345891116E+03  0.12696565308E+02 0.  0.
         22    1    3    3    0    0  0.14689982509E+02  0.15055762311E+02 -0.34524224493E+01  0.21316444020E+02  0.00000000000E+00 0.  1.
         22    1    4    4    0    0 -0.78473155882E+01 -0.12559097131E+02 -0.17116884698E+03  0.17180828111E+03  0.00000000000E+00 0. -1.
         22    1    4    4    0    0 -0.68426669205E+01 -0.24966651810E+01 -0.30801086912E+02  0.31650630050E+02  0.00000000000E+00 0. -1.
<mgrwt>
<rscale>  0 0.91244813E+02</rscale>
<asrwt>0</asrwt>
<pdfrwt beam="2">  1        1 0.33092128E-01 0.91244813E+02</pdfrwt>
<pdfrwt beam="1">  1       -1 0.14886924E-02 0.91244813E+02</pdfrwt>
<totfact> 0.11985460E+05</totfact>
</mgrwt>
</event>
<event>
 7    1  0.2911475E-009  0.9408338E+02  0.7818608E-02  0.1293254E+00
         -1   -1    0    0    0  501 -0.00000000000E+00  0.00000000000E+00  0.25705045538E+02  0.25705046032E+02  0.50400000000E-02 0.  1.
          1   -1    0    0  501    0  0.00000000000E+00 -0.00000000000E+00 -0.86088964208E+02  0.86088964355E+02  0.50400000000E-02 0. -1.
         23    2    1    2    0    0 -0.71054273576E-14  0.17763568394E-14 -0.60383918669E+02  0.11179401039E+03  0.94083383893E+02 0.  0.
    9000005    2    3    3    0    0 -0.40684137268E+02  0.10204873290E+02 -0.86309276246E+01  0.45177867103E+02  0.14394731682E+02 0.  0.
         22    1    3    3    0    0  0.40684137268E+02 -0.10204873290E+02 -0.51752991045E+02  0.66616143285E+02  0.00000000000E+00 0. -1.
         22    1    4    4    0    0 -0.81479375240E+01 -0.36446553088E+01 -0.81399780094E+00  0.89629788929E+01  0.00000000000E+00 0.  1.
         22    1    4    4    0    0 -0.32536199744E+02  0.13849528599E+02 -0.78169298236E+01  0.36214888210E+02  0.00000000000E+00 0.  1.
<mgrwt>
<rscale>  0 0.94083384E+02</rscale>
<asrwt>0</asrwt>
<pdfrwt beam="2">  1        1 0.13244456E-01 0.94083384E+02</pdfrwt>
<pdfrwt beam="1">  1       -1 0.39546225E-02 0.94083384E+02</pdfrwt>
<totfact> 0.93510068E+04</totfact>
</mgrwt>
</event>
<event>
 7    1  0.2911475E-009  0.9327965E+02  0.7818608E-02  0.1295098E+00
          1   -1    0    0  501    0  0.00000000000E+00  0.00000000000E+00  0.14156205002E+03  0.14156205011E+03  0.50400000000E-02 0. -1.
         -1   -1    0    0    0  501 -0.00000000000E+00 -0.00000000000E+00 -0.15366215807E+02  0.15366216633E+02  0.50400000000E-02 0.  1.
         23    2    1    2    0    0  0.00000000000E+00  0.00000000000E+00  0.12619583421E+03  0.15692826674E+03  0.93279645851E+02 0.  0.
    9000005    2    3    3    0    0  0.64186513588E+01  0.37611016334E+02  0.23171708455E+02  0.47065815818E+02  0.14915606290E+02 0.  0.
         22    1    3    3    0    0 -0.64186513588E+01 -0.37611016334E+02  0.10302412576E+03  0.10986245092E+03  0.00000000000E+00 0. -1.
         22    1    4    4    0    0  0.42577207495E+01  0.30974999622E+01  0.73395411007E+01  0.90328044131E+01  0.00000000000E+00 0.  1.
         22    1    4    4    0    0  0.21609306093E+01  0.34513516371E+02  0.15832167354E+02  0.38033011405E+02  0.00000000000E+00 0.  1.
<mgrwt>
<rscale>  0 0.93279646E+02</rscale>
<asrwt>0</asrwt>
<pdfrwt beam="1">  1        1 0.21778778E-01 0.93279646E+02</pdfrwt>
<pdfrwt beam="2">  1       -1 0.23640332E-02 0.93279646E+02</pdfrwt>
<totfact> 0.10431124E+05</totfact>
</mgrwt>
</event>
<event>
 7    1  0.2911475E-009  0.9145229E+02  0.7818608E-02  0.1299372E+00
         -1   -1    0    0    0  501 -0.00000000000E+00  0.00000000000E+00  0.44566973519E+01  0.44567002017E+01  0.50400000000E-02 0.  1.
          1   -1    0    0  501    0  0.00000000000E+00 -0.00000000000E+00 -0.46915454589E+03  0.46915454592E+03  0.50400000000E-02 0. -1.
         23    2    1    2    0    0  0.35527136788E-14  0.00000000000E+00 -0.46469784854E+03  0.47361124612E+03  0.91452293652E+02 0.  0.
    9000005    2    3    3    0    0  0.31241974785E+02  0.98676806429E+01 -0.39515902576E+03  0.39674070571E+03  0.13382817935E+02 0.  0.
         22    1    3    3    0    0 -0.31241974785E+02 -0.98676806429E+01 -0.69538822777E+02  0.76870540410E+02  0.00000000000E+00 0. -1.
         22    1    4    4    0    0  0.11863173198E+02  0.55227026956E+01 -0.91254313461E+02  0.92187769518E+02  0.00000000000E+00 0. -1.
         22    1    4    4    0    0  0.19378801587E+02  0.43449779473E+01 -0.30390471230E+03  0.30455293619E+03  0.00000000000E+00 0. -1.
<mgrwt>
<rscale>  0 0.91452294E+02</rscale>
<asrwt>0</asrwt>
<pdfrwt beam="2">  1        1 0.72177584E-01 0.91452294E+02</pdfrwt>
<pdfrwt beam="1">  1       -1 0.68564634E-03 0.91452294E+02</pdfrwt>
<totfact> 0.13705051E+05</totfact>
</mgrwt>
</event>
<event>
 7    1  0.3330113E-009  0.9090026E+02  0.7818608E-02  0.1300686E+00
         -1   -1    0    0    0  501 -0.00000000000E+00  0.00000000000E+00  0.98124787163E+02  0.98124787292E+02  0.50400000000E-02 0.  1.
          1   -1    0    0  501    0  0.00000000000E+00 -0.00000000000E+00 -0.21051909975E+02  0.21051910579E+02  0.50400000000E-02 0. -1.
         23    2    1    2    0    0  0.17763568394E-14  0.55511151231E-16  0.77072877188E+02  0.11917669787E+03  0.90900258071E+02 0.  0.
    9000005    2    3    3    0    0 -0.10084713623E+02  0.31625516100E+00  0.96063992301E+02  0.97671723576E+02  0.14480107155E+02 0.  0.
         22    1    3    3    0    0  0.10084713623E+02 -0.31625516100E+00 -0.18991115114E+02  0.21504974295E+02  0.00000000000E+00 0. -1.
         22    1    4    4    0    0 -0.13339435149E+02  0.17864407804E+01  0.63379470996E+02  0.64792663509E+02  0.00000000000E+00 0. -1.
         22    1    4    4    0    0  0.32547215265E+01 -0.14701856194E+01  0.32684521305E+02  0.32879060067E+02  0.00000000000E+00 0. -1.
<mgrwt>
<rscale>  0 0.90900258E+02</rscale>
<asrwt>0</asrwt>
<pdfrwt beam="2">  1        1 0.32387554E-02 0.90900258E+02</pdfrwt>
<pdfrwt beam="1">  1       -1 0.15096121E-01 0.90900258E+02</pdfrwt>
<totfact> 0.82297330E+04</totfact>
</mgrwt>
</event>
<event>
 7    1  0.2911475E-009  0.9060573E+02  0.7818608E-02  0.1301391E+00
          1   -1    0    0  501    0  0.00000000000E+00  0.00000000000E+00  0.56947709516E+02  0.56947709739E+02  0.50400000000E-02 0. -1.
         -1   -1    0    0    0  501 -0.00000000000E+00 -0.00000000000E+00 -0.36039196346E+02  0.36039196698E+02  0.50400000000E-02 0.  1.
         23    2    1    2    0    0 -0.35527136788E-14  0.00000000000E+00  0.20908513171E+02  0.92986906437E+02  0.90605732963E+02 0.  0.
    9000005    2    3    3    0    0  0.27403694705E+02  0.13859641972E+02  0.43461316547E+02  0.54885973388E+02  0.13436215230E+02 0.  0.
         22    1    3    3    0    0 -0.27403694705E+02 -0.13859641972E+02 -0.22552803377E+02  0.38100933049E+02  0.00000000000E+00 0.  1.
         22    1    4    4    0    0  0.18458580947E+02  0.14263738166E+02  0.37380490279E+02  0.44062166204E+02  0.00000000000E+00 0. -1.
         22    1    4    4    0    0  0.89451137576E+01 -0.40409619334E+00  0.60808262680E+01  0.10823807185E+02  0.00000000000E+00 0. -1.
<mgrwt>
<rscale>  0 0.90605733E+02</rscale>
<asrwt>0</asrwt>
<pdfrwt beam="1">  1        1 0.87611862E-02 0.90605733E+02</pdfrwt>
<pdfrwt beam="2">  1       -1 0.55444918E-02 0.90605733E+02</pdfrwt>
<totfact> 0.97297448E+04</totfact>
</mgrwt>
</event>
<event>
 7    1  0.2911475E-009  0.8600788E+02  0.7818608E-02  0.1312818E+00
         -1   -1    0    0    0  501 -0.00000000000E+00  0.00000000000E+00  0.84023413006E+02  0.84023413157E+02  0.50400000000E-02 0.  1.
          1   -1    0    0  501    0  0.00000000000E+00 -0.00000000000E+00 -0.22009803607E+02  0.22009804184E+02  0.50400000000E-02 0. -1.
         23    2    1    2    0    0  0.00000000000E+00  0.00000000000E+00  0.62013609399E+02  0.10603321734E+03  0.86007880041E+02 0.  0.
    9000005    2    3    3    0    0 -0.41582728746E+02  0.78269145128E+01  0.23502386516E+02  0.48818724347E+02  0.63656699712E+01 0.  0.
         22    1    3    3    0    0  0.41582728746E+02 -0.78269145128E+01  0.38511222882E+02  0.57214492994E+02  0.00000000000E+00 0.  1.
         22    1    4    4    0    0 -0.30165455128E+02  0.53128561273E+01  0.20125761899E+02  0.36650067057E+02  0.00000000000E+00 0. -1.
         22    1    4    4    0    0 -0.11417273618E+02  0.25140583855E+01  0.33766246180E+01  0.12168657290E+02  0.00000000000E+00 0. -1.
<mgrwt>
<rscale>  0 0.86007880E+02</rscale>
<asrwt>0</asrwt>
<pdfrwt beam="2">  1        1 0.33861237E-02 0.86007880E+02</pdfrwt>
<pdfrwt beam="1">  1       -1 0.12926679E-01 0.86007880E+02</pdfrwt>
<totfact> 0.97468501E+04</totfact>
</mgrwt>
</event>
<event>
 7    1  0.2911475E-009  0.1003068E+03  0.7818608E-02  0.1279652E+00
         -1   -1    0    0    0  501 -0.00000000000E+00  0.00000000000E+00  0.29764675015E+01  0.29764717686E+01  0.50400000000E-02 0.  1.
          1   -1    0    0  501    0  0.00000000000E+00 -0.00000000000E+00 -0.84508267930E+03  0.84508267931E+03  0.50400000000E-02 0. -1.
         23    2    1    2    0    0  0.00000000000E+00  0.00000000000E+00 -0.84210621180E+03  0.84805915108E+03  0.10030678834E+03 0.  0.
    9000005    2    3    3    0    0  0.44313847477E+02 -0.92774951361E+01 -0.59697445990E+03  0.59878146500E+03  0.10533188083E+02 0.  0.
         22    1    3    3    0    0 -0.44313847477E+02  0.92774951361E+01 -0.24513175189E+03  0.24927768609E+03  0.00000000000E+00 0.  1.
         22    1    4    4    0    0  0.86319173940E+01  0.23656846976E+01 -0.11505955286E+03  0.11540713655E+03  0.00000000000E+00 0. -1.
         22    1    4    4    0    0  0.35681930083E+02 -0.11643179834E+02 -0.48191490704E+03  0.48337432844E+03  0.00000000000E+00 0. -1.
<mgrwt>
<rscale>  0 0.10030679E+03</rscale>
<asrwt>0</asrwt>
<pdfrwt beam="2">  1        1 0.13001253E+00 0.10030679E+03</pdfrwt>
<pdfrwt beam="1">  1       -1 0.45791908E-03 0.10030679E+03</pdfrwt>
<totfact> 0.10903169E+05</totfact>
</mgrwt>
</event>
<event>
 7    1  0.2911475E-009  0.9137580E+02  0.7818608E-02  0.1299554E+00
         -1   -1    0    0    0  501 -0.00000000000E+00  0.00000000000E+00  0.43128269744E+01  0.43128299193E+01  0.50400000000E-02 0.  1.
          1   -1    0    0  501    0  0.00000000000E+00 -0.00000000000E+00 -0.48399427287E+03  0.48399427290E+03  0.50400000000E-02 0. -1.
         23    2    1    2    0    0  0.17763568394E-14  0.35527136788E-14 -0.47968144590E+03  0.48830710282E+03  0.91375801631E+02 0.  0.
    9000005    2    3    3    0    0 -0.11446134999E+02 -0.19609123821E+02 -0.45157946222E+03  0.45217881431E+03  0.51125018258E+01 0.  0.
         22    1    3    3    0    0  0.11446134999E+02  0.19609123821E+02 -0.28101983684E+02  0.36128288507E+02  0.00000000000E+00 0.  1.
         22    1    4    4    0    0 -0.94344632650E+01 -0.18867265592E+02 -0.41656325874E+03  0.41709702869E+03  0.00000000000E+00 0. -1.
         22    1    4    4    0    0 -0.20116717343E+01 -0.74185822908E+00 -0.35016203471E+02  0.35081785620E+02  0.00000000000E+00 0. -1.
<mgrwt>
<rscale>  0 0.91375802E+02</rscale>
<asrwt>0</asrwt>
<pdfrwt beam="2">  1        1 0.74460615E-01 0.91375802E+02</pdfrwt>
<pdfrwt beam="1">  1       -1 0.66351245E-03 0.91375802E+02</pdfrwt>
<totfact> 0.13791287E+05</totfact>
</mgrwt>
</event>
<event>
 7    1  0.2911475E-009  0.9291328E+02  0.7818608E-02  0.1295946E+00
          1   -1    0    0  501    0  0.00000000000E+00  0.00000000000E+00  0.13434451161E+04  0.13434451161E+04  0.50400000000E-02 0. -1.
         -1   -1    0    0    0  501 -0.00000000000E+00 -0.00000000000E+00 -0.16064771835E+01  0.16064850895E+01  0.50400000000E-02 0.  1.
         23    2    1    2    0    0  0.00000000000E+00  0.00000000000E+00  0.13418386389E+04  0.13450516012E+04  0.92913276763E+02 0.  0.
    9000005    2    3    3    0    0 -0.12920942951E+02  0.12650165414E+02  0.12891203441E+04  0.12893183431E+04  0.13548091899E+02 0.  0.
         22    1    3    3    0    0  0.12920942951E+02 -0.12650165414E+02  0.52718294857E+02  0.55733258153E+02  0.00000000000E+00 0.  1.
         22    1    4    4    0    0 -0.49436654719E+01  0.11302477605E+02  0.48341490285E+03  0.48357228428E+03  0.00000000000E+00 0. -1.
         22    1    4    4    0    0 -0.79772774795E+01  0.13476878093E+01  0.80570544122E+03  0.80574605878E+03  0.00000000000E+00 0. -1.
<mgrwt>
<rscale>  0 0.92913277E+02</rscale>
<asrwt>0</asrwt>
<pdfrwt beam="1">  1        1 0.20668295E+00 0.92913277E+02</pdfrwt>
<pdfrwt beam="2">  1       -1 0.24715204E-03 0.92913277E+02</pdfrwt>
<totfact> 0.11383225E+05</totfact>
</mgrwt>
</event>
<event>
 7    1  0.2911475E-009  0.9129822E+02  0.7818608E-02  0.1299738E+00
         -1   -1    0    0    0  501 -0.00000000000E+00  0.00000000000E+00  0.92663121900E+02  0.92663122037E+02  0.50400000000E-02 0.  1.
          1   -1    0    0  501    0  0.00000000000E+00 -0.00000000000E+00 -0.22488356841E+02  0.22488357406E+02  0.50400000000E-02 0. -1.
         23    2    1    2    0    0  0.00000000000E+00  0.00000000000E+00  0.70174765059E+02  0.11515147944E+03  0.91298223240E+02 0.  0.
    9000005    2    3    3    0    0 -0.20843749756E+02 -0.29589564178E+02  0.39487016407E+01  0.39680321455E+02  0.15777561724E+02 0.  0.
         22    1    3    3    0    0  0.20843749756E+02  0.29589564178E+02  0.66226063418E+02  0.75471157988E+02  0.00000000000E+00 0.  1.
         22    1    4    4    0    0 -0.33438443215E+01  0.10684509841E+01  0.25732642512E+01  0.43525361869E+01  0.00000000000E+00 0. -1.
         22    1    4    4    0    0 -0.17499905435E+02 -0.30658015163E+02  0.13754373895E+01  0.35327785268E+02  0.00000000000E+00 0. -1.
<mgrwt>
<rscale>  0 0.91298223E+02</rscale>
<asrwt>0</asrwt>
<pdfrwt beam="2">  1        1 0.34597473E-02 0.91298223E+02</pdfrwt>
<pdfrwt beam="1">  1       -1 0.14255865E-01 0.91298223E+02</pdfrwt>
<totfact> 0.82229549E+04</totfact>
</mgrwt>
</event>
<event>
 7    1  0.2911475E-009  0.9057525E+02  0.7818608E-02  0.1301465E+00
         -1   -1    0    0    0  501 -0.00000000000E+00  0.00000000000E+00  0.53484680465E+03  0.53484680467E+03  0.50400000000E-02 0.  1.
          1   -1    0    0  501    0  0.00000000000E+00 -0.00000000000E+00 -0.38346831242E+01  0.38346864363E+01  0.50400000000E-02 0. -1.
         23    2    1    2    0    0  0.00000000000E+00 -0.71054273576E-14  0.53101212152E+03  0.53868149111E+03  0.90575248590E+02 0.  0.
    9000005    2    3    3    0    0  0.22007893474E+02  0.37346378429E+02  0.33036145489E+03  0.33340170794E+03  0.11785950251E+02 0.  0.
         22    1    3    3    0    0 -0.22007893474E+02 -0.37346378429E+02  0.20065066663E+03  0.20527978317E+03  0.00000000000E+00 0. -1.
         22    1    4    4    0    0  0.55382493913E+01  0.91398995271E+01  0.12533639211E+03  0.12579118076E+03  0.00000000000E+00 0.  1.
         22    1    4    4    0    0  0.16469644083E+02  0.28206478902E+02  0.20502506278E+03  0.20761052718E+03  0.00000000000E+00 0.  1.
<mgrwt>
<rscale>  0 0.90575249E+02</rscale>
<asrwt>0</asrwt>
<pdfrwt beam="2">  1        1 0.58995163E-03 0.90575249E+02</pdfrwt>
<pdfrwt beam="1">  1       -1 0.82284107E-01 0.90575249E+02</pdfrwt>
<totfact> 0.45857477E+04</totfact>
</mgrwt>
</event>
<event>
 7    1  0.2911475E-009  0.9069039E+02  0.7818608E-02  0.1301188E+00
          1   -1    0    0  501    0  0.00000000000E+00  0.00000000000E+00  0.56029024992E+03  0.56029024994E+03  0.50400000000E-02 0. -1.
         -1   -1    0    0    0  501 -0.00000000000E+00 -0.00000000000E+00 -0.36698577634E+01  0.36698612243E+01  0.50400000000E-02 0.  1.
         23    2    1    2    0    0  0.00000000000E+00 -0.35527136788E-14  0.55662039215E+03  0.56396011116E+03  0.90690385504E+02 0.  0.
    9000005    2    3    3    0    0  0.35754629315E+01  0.24307506026E+02  0.51449144281E+03  0.51519037509E+03  0.10772143282E+02 0.  0.
         22    1    3    3    0    0 -0.35754629315E+01 -0.24307506026E+02  0.42128949340E+02  0.48769736075E+02  0.00000000000E+00 0.  1.
         22    1    4    4    0    0 -0.28257025383E+01  0.28794323619E+01  0.11778481864E+03  0.11785388932E+03  0.00000000000E+00 0.  1.
         22    1    4    4    0    0  0.64011654698E+01  0.21428073664E+02  0.39670662418E+03  0.39733648577E+03  0.00000000000E+00 0.  1.
<mgrwt>
<rscale>  0 0.90690386E+02</rscale>
<asrwt>0</asrwt>
<pdfrwt beam="1">  1        1 0.86198467E-01 0.90690386E+02</pdfrwt>
<pdfrwt beam="2">  1       -1 0.56459399E-03 0.90690386E+02</pdfrwt>
<totfact> 0.14289738E+05</totfact>
</mgrwt>
</event>
<event>
 7    1  0.2911475E-009  0.8990624E+02  0.7818608E-02  0.1303079E+00
          1   -1    0    0  501    0  0.00000000000E+00  0.00000000000E+00  0.20627826712E+02  0.20627827328E+02  0.50400000000E-02 0. -1.
         -1   -1    0    0    0  501 -0.00000000000E+00 -0.00000000000E+00 -0.97963934948E+02  0.97963935077E+02  0.50400000000E-02 0.  1.
         23    2    1    2    0    0  0.00000000000E+00  0.00000000000E+00 -0.77336108236E+02  0.11859176241E+03  0.89906242682E+02 0.  0.
    9000005    2    3    3    0    0  0.40691786731E+01 -0.31865217318E+02 -0.78751343225E+02  0.86436620051E+02  0.15413141676E+02 0.  0.
         22    1    3    3    0    0 -0.40691786731E+01  0.31865217318E+02  0.14152349887E+01  0.32155142355E+02  0.00000000000E+00 0. -1.
         22    1    4    4    0    0  0.65415130727E+01 -0.59714349896E+01 -0.13033453604E+02  0.15758183333E+02  0.00000000000E+00 0. -1.
         22    1    4    4    0    0 -0.24723343996E+01 -0.25893782328E+02 -0.65717889620E+02  0.70678436717E+02  0.00000000000E+00 0. -1.
<mgrwt>
<rscale>  0 0.89906243E+02</rscale>
<asrwt>0</asrwt>
<pdfrwt beam="1">  1        1 0.31735119E-02 0.89906243E+02</pdfrwt>
<pdfrwt beam="2">  1       -1 0.15071374E-01 0.89906243E+02</pdfrwt>
<totfact> 0.84682113E+04</totfact>
</mgrwt>
</event>
<event>
 7    1  0.2911475E-009  0.8986304E+02  0.7818608E-02  0.1303184E+00
         -1   -1    0    0    0  501 -0.00000000000E+00  0.00000000000E+00  0.18405525310E+02  0.18405526000E+02  0.50400000000E-02 0.  1.
          1   -1    0    0  501    0  0.00000000000E+00 -0.00000000000E+00 -0.10968670034E+03  0.10968670046E+03  0.50400000000E-02 0. -1.
         23    2    1    2    0    0  0.00000000000E+00  0.00000000000E+00 -0.91281175032E+02  0.12809222646E+03  0.89863037805E+02 0.  0.
    9000005    2    3    3    0    0  0.40253184990E+02  0.30365781987E+01 -0.23873072058E+02  0.49521290001E+02  0.15902669113E+02 0.  0.
         22    1    3    3    0    0 -0.40253184990E+02 -0.30365781987E+01 -0.67408102974E+02  0.78570936456E+02  0.00000000000E+00 0. -1.
         22    1    4    4    0    0  0.12804114680E+02 -0.42111982732E+00 -0.16500263608E+02  0.20889743746E+02  0.00000000000E+00 0. -1.
         22    1    4    4    0    0  0.27449070310E+02  0.34576980260E+01 -0.73728084498E+01  0.28631546255E+02  0.00000000000E+00 0. -1.
<mgrwt>
<rscale>  0 0.89863038E+02</rscale>
<asrwt>0</asrwt>
<pdfrwt beam="2">  1        1 0.16874877E-01 0.89863038E+02</pdfrwt>
<pdfrwt beam="1">  1       -1 0.28316194E-02 0.89863038E+02</pdfrwt>
<totfact> 0.11035086E+05</totfact>
</mgrwt>
</event>
<event>
 7    1  0.2911475E-009  0.9488869E+02  0.7818608E-02  0.1291427E+00
         -1   -1    0    0    0  501 -0.00000000000E+00  0.00000000000E+00  0.11034859204E+02  0.11034860355E+02  0.50400000000E-02 0.  1.
          1   -1    0    0  501    0  0.00000000000E+00 -0.00000000000E+00 -0.20398683266E+03  0.20398683272E+03  0.50400000000E-02 0. -1.
         23    2    1    2    0    0  0.00000000000E+00  0.00000000000E+00 -0.19295197345E+03  0.21502169307E+03  0.94888694969E+02 0.  0.
    9000005    2    3    3    0    0  0.18398708787E+02  0.36249165417E+02 -0.15154628447E+03  0.15699630588E+03  0.53897352316E+01 0.  0.
         22    1    3    3    0    0 -0.18398708787E+02 -0.36249165417E+02 -0.41405688982E+02  0.58025387189E+02  0.00000000000E+00 0.  1.
         22    1    4    4    0    0  0.24103009333E+01  0.97011337016E+01 -0.39105518274E+02  0.40362892676E+02  0.00000000000E+00 0. -1.
         22    1    4    4    0    0  0.15988407854E+02  0.26548031715E+02 -0.11244076620E+03  0.11663341321E+03  0.00000000000E+00 0. -1.
<mgrwt>
<rscale>  0 0.94888695E+02</rscale>
<asrwt>0</asrwt>
<pdfrwt beam="2">  1        1 0.31382587E-01 0.94888695E+02</pdfrwt>
<pdfrwt beam="1">  1       -1 0.16976709E-02 0.94888695E+02</pdfrwt>
<totfact> 0.10676870E+05</totfact>
</mgrwt>
</event>
<event>
 7    1  0.3776428E-009  0.9140481E+02  0.7818608E-02  0.1299485E+00
          1   -1    0    0  501    0  0.00000000000E+00  0.00000000000E+00  0.13539156184E+03  0.13539156194E+03  0.50400000000E-02 0. -1.
         -1   -1    0    0    0  501 -0.00000000000E+00 -0.00000000000E+00 -0.15427176923E+02  0.15427177747E+02  0.50400000000E-02 0.  1.
         23    2    1    2    0    0  0.00000000000E+00  0.00000000000E+00  0.11996438492E+03  0.15081873968E+03  0.91404806168E+02 0.  0.
    9000005    2    3    3    0    0  0.28149293849E+02 -0.24563436967E+02  0.22404759734E+02  0.46350439964E+02  0.15831766999E+02 0.  0.
         22    1    3    3    0    0 -0.28149293849E+02  0.24563436967E+02  0.97559625185E+02  0.10446829972E+03  0.00000000000E+00 0. -1.
         22    1    4    4    0    0  0.10989730065E+02 -0.13193715120E+01  0.27443672138E+01  0.11403791453E+02  0.00000000000E+00 0.  1.
         22    1    4    4    0    0  0.17159563784E+02 -0.23244065455E+02  0.19660392520E+02  0.34946648511E+02  0.00000000000E+00 0.  1.
<mgrwt>
<rscale>  0 0.91404806E+02</rscale>
<asrwt>0</asrwt>
<pdfrwt beam="1">  1        1 0.20829471E-01 0.91404806E+02</pdfrwt>
<pdfrwt beam="2">  1       -1 0.23734119E-02 0.91404806E+02</pdfrwt>
<totfact> 0.10932221E+05</totfact>
</mgrwt>
</event>
<event>
 7    1  0.2911475E-009  0.9059313E+02  0.7818608E-02  0.1301422E+00
          1   -1    0    0  501    0  0.00000000000E+00  0.00000000000E+00  0.17998738068E+03  0.17998738075E+03  0.50400000000E-02 0. -1.
         -1   -1    0    0    0  501 -0.00000000000E+00 -0.00000000000E+00 -0.11399569834E+02  0.11399570948E+02  0.50400000000E-02 0.  1.
         23    2    1    2    0    0 -0.17763568394E-14  0.71054273576E-14  0.16858781084E+03  0.19138695170E+03  0.90593130614E+02 0.  0.
    9000005    2    3    3    0    0  0.10832165280E+02 -0.43619307934E+02  0.83137662776E+02  0.94837960846E+02  0.78986085032E+01 0.  0.
         22    1    3    3    0    0 -0.10832165280E+02  0.43619307934E+02  0.85450148068E+02  0.96548990850E+02  0.00000000000E+00 0.  1.
         22    1    4    4    0    0  0.10946539628E+02 -0.39489109406E+02  0.70526163521E+02  0.81566881959E+02  0.00000000000E+00 0.  1.
         22    1    4    4    0    0 -0.11437434819E+00 -0.41301985288E+01  0.12611499255E+02  0.13271078888E+02  0.00000000000E+00 0.  1.
<mgrwt>
<rscale>  0 0.90593131E+02</rscale>
<asrwt>0</asrwt>
<pdfrwt beam="1">  1        1 0.27690365E-01 0.90593131E+02</pdfrwt>
<pdfrwt beam="2">  1       -1 0.17537802E-02 0.90593131E+02</pdfrwt>
<totfact> 0.11804278E+05</totfact>
</mgrwt>
</event>
<event>
 7    1  0.2911475E-009  0.9050333E+02  0.7818608E-02  0.1301637E+00
          1   -1    0    0  501    0  0.00000000000E+00  0.00000000000E+00  0.14717544129E+03  0.14717544137E+03  0.50400000000E-02 0. -1.
         -1   -1    0    0    0  501 -0.00000000000E+00 -0.00000000000E+00 -0.13913415418E+02  0.13913416331E+02  0.50400000000E-02 0.  1.
         23    2    1    2    0    0 -0.88817841970E-15  0.00000000000E+00  0.13326202587E+03  0.16108885770E+03  0.90503328876E+02 0.  0.
    9000005    2    3    3    0    0 -0.73330303342E+01  0.43795866797E+02  0.52922277699E+02  0.69293833774E+02  0.53867095541E+01 0.  0.
         22    1    3    3    0    0  0.73330303342E+01 -0.43795866797E+02  0.80339748171E+02  0.91795023931E+02  0.00000000000E+00 0.  1.
         22    1    4    4    0    0 -0.32357988290E+01  0.30335968911E+02  0.33486502740E+02  0.45299969863E+02  0.00000000000E+00 0. -1.
         22    1    4    4    0    0 -0.40972315052E+01  0.13459897886E+02  0.19435774959E+02  0.23993863911E+02  0.00000000000E+00 0. -1.
<mgrwt>
<rscale>  0 0.90503329E+02</rscale>
<asrwt>0</asrwt>
<pdfrwt beam="1">  1        1 0.22642375E-01 0.90503329E+02</pdfrwt>
<pdfrwt beam="2">  1       -1 0.21405256E-02 0.90503329E+02</pdfrwt>
<totfact> 0.11399870E+05</totfact>
</mgrwt>
</event>
<event>
 7    1  0.2911475E-009  0.8275142E+02  0.7818608E-02  0.1321420E+00
          1   -1    0    0  501    0  0.00000000000E+00  0.00000000000E+00  0.70125523598E+02  0.70125523779E+02  0.50400000000E-02 0. -1.
         -1   -1    0    0    0  501 -0.00000000000E+00 -0.00000000000E+00 -0.24412640050E+02  0.24412640570E+02  0.50400000000E-02 0.  1.
         23    2    1    2    0    0  0.00000000000E+00  0.00000000000E+00  0.45712883548E+02  0.94538164349E+02  0.82751415675E+02 0.  0.
    9000005    2    3    3    0    0 -0.80200464741E+01  0.38836670434E+02  0.17604358728E+02  0.45930579720E+02  0.15069724329E+02 0.  0.
         22    1    3    3    0    0  0.80200464741E+01 -0.38836670434E+02  0.28108524820E+02  0.48607584629E+02  0.00000000000E+00 0.  1.
         22    1    4    4    0    0 -0.68640641838E+00  0.14708626498E+02  0.14249314654E+02  0.20490432287E+02  0.00000000000E+00 0. -1.
         22    1    4    4    0    0 -0.73336400557E+01  0.24128043936E+02  0.33550440738E+01  0.25440147433E+02  0.00000000000E+00 0. -1.
<mgrwt>
<rscale>  0 0.82751416E+02</rscale>
<asrwt>0</asrwt>
<pdfrwt beam="1">  1        1 0.10788542E-01 0.82751416E+02</pdfrwt>
<pdfrwt beam="2">  1       -1 0.37557909E-02 0.82751416E+02</pdfrwt>
<totfact> 0.12868581E+05</totfact>
</mgrwt>
</event>
<event>
 7    1  0.2911475E-009  0.9268022E+02  0.7818608E-02  0.1296488E+00
         -1   -1    0    0    0  501 -0.00000000000E+00  0.00000000000E+00  0.12790306749E+03  0.12790306759E+03  0.50400000000E-02 0.  1.
          1   -1    0    0  501    0  0.00000000000E+00 -0.00000000000E+00 -0.16789320905E+02  0.16789321661E+02  0.50400000000E-02 0. -1.
         23    2    1    2    0    0  0.00000000000E+00  0.00000000000E+00  0.11111374659E+03  0.14469238925E+03  0.92680218100E+02 0.  0.
    9000005    2    3    3    0    0  0.18157133419E+02 -0.13009003259E+02 -0.49285476226E+01  0.26519931780E+02  0.13420154252E+02 0.  0.
         22    1    3    3    0    0 -0.18157133419E+02  0.13009003259E+02  0.11604229421E+03  0.11817245747E+03  0.00000000000E+00 0.  1.
         22    1    4    4    0    0  0.10144889798E+02  0.61031884333E+00 -0.30279883947E+01  0.10604715547E+02  0.00000000000E+00 0.  1.
         22    1    4    4    0    0  0.80122436210E+01 -0.13619322102E+02 -0.19005592278E+01  0.15915216233E+02  0.00000000000E+00 0.  1.
<mgrwt>
<rscale>  0 0.92680218E+02</rscale>
<asrwt>0</asrwt>
<pdfrwt beam="2">  1        1 0.25829725E-02 0.92680218E+02</pdfrwt>
<pdfrwt beam="1">  1       -1 0.19677395E-01 0.92680218E+02</pdfrwt>
<totfact> 0.74277373E+04</totfact>
</mgrwt>
</event>
<event>
 7    1  0.2911475E-009  0.9146975E+02  0.7818608E-02  0.1299331E+00
         -1   -1    0    0    0  501 -0.00000000000E+00  0.00000000000E+00  0.12029173221E+02  0.12029174277E+02  0.50400000000E-02 0.  1.
          1   -1    0    0  501    0  0.00000000000E+00 -0.00000000000E+00 -0.17388383468E+03  0.17388383475E+03  0.50400000000E-02 0. -1.
         23    2    1    2    0    0  0.00000000000E+00  0.35527136788E-14 -0.16185466146E+03  0.18591300903E+03  0.91469751778E+02 0.  0.
    9000005    2    3    3    0    0  0.37018206810E+02  0.25033510000E+02 -0.96629559968E+02  0.10684760495E+03  0.90617087074E+01 0.  0.
         22    1    3    3    0    0 -0.37018206810E+02 -0.25033510000E+02 -0.65225101490E+02  0.79065404082E+02  0.00000000000E+00 0. -1.
         22    1    4    4    0    0  0.27047125025E+02  0.21397905563E+02 -0.80034873453E+02  0.87149287452E+02  0.00000000000E+00 0.  1.
         22    1    4    4    0    0  0.99710817852E+01  0.36356044363E+01 -0.16594686514E+02  0.19698317494E+02  0.00000000000E+00 0.  1.
<mgrwt>
<rscale>  0 0.91469752E+02</rscale>
<asrwt>0</asrwt>
<pdfrwt beam="2">  1        1 0.26751357E-01 0.91469752E+02</pdfrwt>
<pdfrwt beam="1">  1       -1 0.18506423E-02 0.91469752E+02</pdfrwt>
<totfact> 0.11427487E+05</totfact>
</mgrwt>
</event>
<event>
 7    1  0.2911475E-009  0.9101830E+02  0.7818608E-02  0.1300404E+00
          1   -1    0    0  501    0  0.00000000000E+00  0.00000000000E+00  0.83651153725E+02  0.83651153877E+02  0.50400000000E-02 0. -1.
         -1   -1    0    0    0  501 -0.00000000000E+00 -0.00000000000E+00 -0.24758565129E+02  0.24758565642E+02  0.50400000000E-02 0.  1.
         23    2    1    2    0    0  0.00000000000E+00  0.00000000000E+00  0.58892588596E+02  0.10840971952E+03  0.91018296482E+02 0.  0.
    9000005    2    3    3    0    0  0.38575236329E+02 -0.18301561356E+02  0.44810853648E+02  0.63450946569E+02  0.13964741672E+02 0.  0.
         22    1    3    3    0    0 -0.38575236329E+02  0.18301561356E+02  0.14081734948E+02  0.44958772949E+02  0.00000000000E+00 0. -1.
         22    1    4    4    0    0  0.20894193544E+02 -0.44702131019E+01  0.28876853546E+02  0.35922455369E+02  0.00000000000E+00 0.  1.
         22    1    4    4    0    0  0.17681042786E+02 -0.13831348254E+02  0.15934000101E+02  0.27528491200E+02  0.00000000000E+00 0.  1.
<mgrwt>
<rscale>  0 0.91018296E+02</rscale>
<asrwt>0</asrwt>
<pdfrwt beam="1">  1        1 0.12869408E-01 0.91018296E+02</pdfrwt>
<pdfrwt beam="2">  1       -1 0.38090100E-02 0.91018296E+02</pdfrwt>
<totfact> 0.10194510E+05</totfact>
</mgrwt>
</event>
<event>
 6    1  0.2911475E-009  0.5639656E+03  0.7818608E-02  0.9983121E-01
          1   -1    0    0  501    0  0.00000000000E+00  0.00000000000E+00  0.71531853248E+03  0.71531853250E+03  0.50400000000E-02 0.  1.
         -1   -1    0    0    0  501 -0.00000000000E+00 -0.00000000000E+00 -0.11115929904E+03  0.11115929916E+03  0.50400000000E-02 0. -1.
    9000005    2    1    2    0    0 -0.16016250772E+03  0.11419793857E+03  0.61189911773E+01  0.19691820031E+03  0.67924596847E+01 0.  0.
         22    1    1    2    0    0  0.16016250772E+03 -0.11419793857E+03  0.59804024226E+03  0.62955963134E+03  0.00000000000E+00 0.  1.
         22    1    3    3    0    0 -0.14233258135E+03  0.99411768021E+02  0.67913280484E+01  0.17374517395E+03  0.00000000000E+00 0. -1.
         22    1    3    3    0    0 -0.17829926371E+02  0.14786170550E+02 -0.67233687107E+00  0.23173026363E+02  0.00000000000E+00 0. -1.
<mgrwt>
<rscale>  0 0.56396563E+03</rscale>
<asrwt>0</asrwt>
<pdfrwt beam="1">  1        1 0.11004901E+00 0.56396563E+03</pdfrwt>
<pdfrwt beam="2">  1       -1 0.17101430E-01 0.56396563E+03</pdfrwt>
<totfact> 0.70594370E+02</totfact>
</mgrwt>
</event>
<event>
 7    1  0.2911475E-009  0.1144516E+03  0.7818608E-02  0.1252541E+00
          1   -1    0    0  501    0  0.00000000000E+00  0.00000000000E+00  0.90049997769E+03  0.90049997771E+03  0.50400000000E-02 0. -1.
         -1   -1    0    0    0  501 -0.00000000000E+00 -0.00000000000E+00 -0.36366346071E+01  0.36366380996E+01  0.50400000000E-02 0.  1.
         23    2    1    2    0    0  0.00000000000E+00  0.00000000000E+00  0.89686334309E+03  0.90413661581E+03  0.11445157872E+03 0.  0.
    9000005    2    3    3    0    0 -0.24413338631E+02 -0.44868867118E+02  0.65212313973E+03  0.65412262924E+03  0.16119475339E+01 0.  0.
         22    1    3    3    0    0  0.24413338631E+02  0.44868867118E+02  0.24474020336E+03  0.25001398657E+03  0.00000000000E+00 0.  1.
         22    1    4    4    0    0 -0.12292036546E+02 -0.21296008965E+02  0.30723424210E+03  0.30821663433E+03  0.00000000000E+00 0. -1.
         22    1    4    4    0    0 -0.12121302086E+02 -0.23572858153E+02  0.34488889763E+03  0.34590599491E+03  0.00000000000E+00 0. -1.
<mgrwt>
<rscale>  0 0.11445158E+03</rscale>
<asrwt>0</asrwt>
<pdfrwt beam="1">  1        1 0.13853867E+00 0.11445158E+03</pdfrwt>
<pdfrwt beam="2">  1       -1 0.55948167E-03 0.11445158E+03</pdfrwt>
<totfact> 0.75805252E+04</totfact>
</mgrwt>
</event>
<event>
 7    1  0.2911475E-009  0.9210233E+02  0.7818608E-02  0.1297839E+00
          1   -1    0    0  501    0  0.00000000000E+00  0.00000000000E+00  0.31275908618E+02  0.31275909024E+02  0.50400000000E-02 0. -1.
         -1   -1    0    0    0  501 -0.00000000000E+00 -0.00000000000E+00 -0.67806503098E+02  0.67806503285E+02  0.50400000000E-02 0.  1.
         23    2    1    2    0    0  0.00000000000E+00  0.00000000000E+00 -0.36530594480E+02  0.99082412309E+02  0.92102334910E+02 0.  0.
    9000005    2    3    3    0    0  0.19769541480E+02 -0.30174648528E+02 -0.48638372344E+02  0.61030573077E+02  0.75957489230E+01 0.  0.
         22    1    3    3    0    0 -0.19769541480E+02  0.30174648528E+02  0.12107777864E+02  0.38051839232E+02  0.00000000000E+00 0. -1.
         22    1    4    4    0    0  0.12759835358E+02 -0.18199640808E+02 -0.35727691004E+02  0.42077407577E+02  0.00000000000E+00 0.  1.
         22    1    4    4    0    0  0.70097061215E+01 -0.11975007720E+02 -0.12910681340E+02  0.18953165500E+02  0.00000000000E+00 0.  1.
<mgrwt>
<rscale>  0 0.92102335E+02</rscale>
<asrwt>0</asrwt>
<pdfrwt beam="1">  1        1 0.48116783E-02 0.92102335E+02</pdfrwt>
<pdfrwt beam="2">  1       -1 0.10431770E-01 0.92102335E+02</pdfrwt>
<totfact> 0.84773010E+04</totfact>
</mgrwt>
</event>
<event>
 7    1  0.2911475E-009  0.9081725E+02  0.7818608E-02  0.1300885E+00
         -1   -1    0    0    0  501 -0.00000000000E+00  0.00000000000E+00  0.83508178004E+01  0.83508193213E+01  0.50400000000E-02 0.  1.
          1   -1    0    0  501    0  0.00000000000E+00 -0.00000000000E+00 -0.24691511772E+03  0.24691511777E+03  0.50400000000E-02 0. -1.
         23    2    1    2    0    0  0.00000000000E+00  0.00000000000E+00 -0.23856429992E+03  0.25526593709E+03  0.90817253007E+02 0.  0.
    9000005    2    3    3    0    0 -0.19305487793E+02 -0.18695495649E+02 -0.22175456370E+03  0.22356750419E+03  0.92259955409E+01 0.  0.
         22    1    3    3    0    0  0.19305487793E+02  0.18695495649E+02 -0.16809736222E+02  0.31698432900E+02  0.00000000000E+00 0.  1.
         22    1    4    4    0    0 -0.91566725131E+00 -0.10869853855E+01 -0.41429951493E+02  0.41454322627E+02  0.00000000000E+00 0. -1.
         22    1    4    4    0    0 -0.18389820541E+02 -0.17608510263E+02 -0.18032461221E+03  0.18211318157E+03  0.00000000000E+00 0. -1.
<mgrwt>
<rscale>  0 0.90817253E+02</rscale>
<asrwt>0</asrwt>
<pdfrwt beam="2">  1        1 0.37986936E-01 0.90817253E+02</pdfrwt>
<pdfrwt beam="1">  1       -1 0.12847415E-02 0.90817253E+02</pdfrwt>
<totfact> 0.12468033E+05</totfact>
</mgrwt>
</event>
<event>
 7    1  0.2911475E-009  0.9213049E+02  0.7818608E-02  0.1297773E+00
          1   -1    0    0  501    0  0.00000000000E+00  0.00000000000E+00  0.56243674191E+03  0.56243674194E+03  0.50400000000E-02 0. -1.
         -1   -1    0    0    0  501 -0.00000000000E+00 -0.00000000000E+00 -0.37728791186E+01  0.37728824849E+01  0.50400000000E-02 0.  1.
         23    2    1    2    0    0 -0.35527136788E-14  0.44408920985E-15  0.55866386280E+03  0.56620962442E+03  0.92130490034E+02 0.  0.
    9000005    2    3    3    0    0 -0.27027598117E+02  0.34825749894E+01  0.50626216620E+03  0.50714561512E+03  0.12356157276E+02 0.  0.
         22    1    3    3    0    0  0.27027598117E+02 -0.34825749894E+01  0.52401696596E+02  0.59064009301E+02  0.00000000000E+00 0.  1.
         22    1    4    4    0    0 -0.49315369641E+01  0.38521014633E+01  0.57470601743E+02  0.57810282885E+02  0.00000000000E+00 0. -1.
         22    1    4    4    0    0 -0.22096061153E+02 -0.36952647391E+00  0.44879156446E+03  0.44933533224E+03  0.00000000000E+00 0. -1.
<mgrwt>
<rscale>  0 0.92130490E+02</rscale>
<asrwt>0</asrwt>
<pdfrwt beam="1">  1        1 0.86528719E-01 0.92130490E+02</pdfrwt>
<pdfrwt beam="2">  1       -1 0.58044327E-03 0.92130490E+02</pdfrwt>
<totfact> 0.13710063E+05</totfact>
</mgrwt>
</event>
<event>
 7    1  0.2911475E-009  0.9140179E+02  0.7818608E-02  0.1299492E+00
          1   -1    0    0  501    0  0.00000000000E+00  0.00000000000E+00  0.12995145197E+02  0.12995146174E+02  0.50400000000E-02 0. -1.
         -1   -1    0    0    0  501 -0.00000000000E+00 -0.00000000000E+00 -0.16071938894E+03  0.16071938902E+03  0.50400000000E-02 0.  1.
         23    2    1    2    0    0  0.00000000000E+00  0.00000000000E+00 -0.14772424375E+03  0.17371453520E+03  0.91401791820E+02 0.  0.
    9000005    2    3    3    0    0  0.20061259081E+02 -0.40307849257E+02 -0.68811364107E+02  0.82860699831E+02  0.10184052168E+02 0.  0.
         22    1    3    3    0    0 -0.20061259081E+02  0.40307849257E+02 -0.78912879640E+02  0.90853835366E+02  0.00000000000E+00 0.  1.
         22    1    4    4    0    0  0.17620976111E+02 -0.25501871782E+02 -0.49500479206E+02  0.58404980140E+02  0.00000000000E+00 0.  1.
         22    1    4    4    0    0  0.24402829703E+01 -0.14805977474E+02 -0.19310884901E+02  0.24455719691E+02  0.00000000000E+00 0.  1.
<mgrwt>
<rscale>  0 0.91401792E+02</rscale>
<asrwt>0</asrwt>
<pdfrwt beam="1">  1        1 0.19992533E-02 0.91401792E+02</pdfrwt>
<pdfrwt beam="2">  1       -1 0.24726059E-01 0.91401792E+02</pdfrwt>
<totfact> 0.73092558E+04</totfact>
</mgrwt>
</event>
<event>
 7    1  0.2911475E-009  0.9205034E+02  0.7818608E-02  0.1297961E+00
          1   -1    0    0  501    0  0.00000000000E+00  0.00000000000E+00  0.80436206576E+02  0.80436206734E+02  0.50400000000E-02 0. -1.
         -1   -1    0    0    0  501 -0.00000000000E+00 -0.00000000000E+00 -0.26335356740E+02  0.26335357222E+02  0.50400000000E-02 0.  1.
         23    2    1    2    0    0 -0.88817841970E-15  0.35527136788E-14  0.54100849836E+02  0.10677156396E+03  0.92050339036E+02 0.  0.
    9000005    2    3    3    0    0  0.76477901229E+01  0.28908738905E+02 -0.12380376190E+02  0.33874669011E+02  0.10000780327E+02 0.  0.
         22    1    3    3    0    0 -0.76477901229E+01 -0.28908738905E+02  0.66481226026E+02  0.72896894946E+02  0.00000000000E+00 0. -1.
         22    1    4    4    0    0  0.11780956167E+01  0.66563220057E+01  0.14138194428E+01  0.69060420895E+01  0.00000000000E+00 0. -1.
         22    1    4    4    0    0  0.64696945062E+01  0.22252416899E+02 -0.13794195633E+02  0.26968626921E+02  0.00000000000E+00 0. -1.
<mgrwt>
<rscale>  0 0.92050339E+02</rscale>
<asrwt>0</asrwt>
<pdfrwt beam="1">  1        1 0.12374801E-01 0.92050339E+02</pdfrwt>
<pdfrwt beam="2">  1       -1 0.40515933E-02 0.92050339E+02</pdfrwt>
<totfact> 0.98222446E+04</totfact>
</mgrwt>
</event>
<event>
 7    1  0.2911475E-009  0.9329538E+02  0.7818608E-02  0.1295062E+00
         -1   -1    0    0    0  501 -0.00000000000E+00  0.00000000000E+00  0.27606818639E+02  0.27606819099E+02  0.50400000000E-02 0.  1.
          1   -1    0    0  501    0  0.00000000000E+00 -0.00000000000E+00 -0.78821362419E+02  0.78821362580E+02  0.50400000000E-02 0. -1.
         23    2    1    2    0    0  0.00000000000E+00  0.00000000000E+00 -0.51214543780E+02  0.10642818168E+03  0.93295382312E+02 0.  0.
    9000005    2    3    3    0    0 -0.14296738097E+02 -0.25687811126E+02  0.15666255253E+02  0.33371343258E+02  0.19886268070E+01 0.  0.
         22    1    3    3    0    0  0.14296738097E+02  0.25687811126E+02 -0.66880799033E+02  0.73056838420E+02  0.00000000000E+00 0. -1.
         22    1    4    4    0    0 -0.12501555150E+02 -0.23629054679E+02  0.14113032070E+02  0.30229104856E+02  0.00000000000E+00 0.  1.
         22    1    4    4    0    0 -0.17951829477E+01 -0.20587564462E+01  0.15532231827E+01  0.31422384022E+01  0.00000000000E+00 0.  1.
<mgrwt>
<rscale>  0 0.93295382E+02</rscale>
<asrwt>0</asrwt>
<pdfrwt beam="2">  1        1 0.12126363E-01 0.93295382E+02</pdfrwt>
<pdfrwt beam="1">  1       -1 0.42472030E-02 0.93295382E+02</pdfrwt>
<totfact> 0.94349662E+04</totfact>
</mgrwt>
</event>
<event>
 7    1  0.4177159E-009  0.9113937E+02  0.7818608E-02  0.1300116E+00
         -1   -1    0    0    0  501 -0.00000000000E+00  0.00000000000E+00  0.19161669804E+02  0.19161670467E+02  0.50400000000E-02 0.  1.
          1   -1    0    0  501    0  0.00000000000E+00 -0.00000000000E+00 -0.10837238797E+03  0.10837238809E+03  0.50400000000E-02 0. -1.
         23    2    1    2    0    0  0.00000000000E+00  0.35527136788E-14 -0.89210718169E+02  0.12753405856E+03  0.91139365018E+02 0.  0.
    9000005    2    3    3    0    0  0.44570448371E+01  0.25109136564E+02  0.53666670114E+01  0.29578886283E+02  0.13991976675E+02 0.  0.
         22    1    3    3    0    0 -0.44570448371E+01 -0.25109136564E+02 -0.94577385181E+02  0.97955172274E+02  0.00000000000E+00 0. -1.
         22    1    4    4    0    0  0.60805369263E+01  0.25981686927E+02  0.64347955725E+01  0.27448635283E+02  0.00000000000E+00 0. -1.
         22    1    4    4    0    0 -0.16234920892E+01 -0.87255036253E+00 -0.10681285610E+01  0.21302509997E+01  0.00000000000E+00 0. -1.
<mgrwt>
<rscale>  0 0.91139365E+02</rscale>
<asrwt>0</asrwt>
<pdfrwt beam="2">  1        1 0.16672675E-01 0.91139365E+02</pdfrwt>
<pdfrwt beam="1">  1       -1 0.29479493E-02 0.91139365E+02</pdfrwt>
<totfact> 0.10598995E+05</totfact>
</mgrwt>
</event>
<event>
 7    1  0.2911475E-009  0.9052655E+02  0.7818608E-02  0.1301582E+00
          1   -1    0    0  501    0  0.00000000000E+00  0.00000000000E+00  0.14651255185E+02  0.14651256052E+02  0.50400000000E-02 0. -1.
         -1   -1    0    0    0  501 -0.00000000000E+00 -0.00000000000E+00 -0.13983538179E+03  0.13983538188E+03  0.50400000000E-02 0.  1.
         23    2    1    2    0    0  0.00000000000E+00  0.00000000000E+00 -0.12518412660E+03  0.15448663793E+03  0.90526547190E+02 0.  0.
    9000005    2    3    3    0    0  0.10448067662E+01 -0.40130230277E+02 -0.29550828383E+02  0.50769451642E+02  0.96311348579E+01 0.  0.
         22    1    3    3    0    0 -0.10448067662E+01  0.40130230277E+02 -0.95633298222E+02  0.10371718629E+03  0.00000000000E+00 0. -1.
         22    1    4    4    0    0 -0.40407033894E+00 -0.35400538724E+02 -0.29053054260E+02  0.45797831571E+02  0.00000000000E+00 0.  1.
         22    1    4    4    0    0  0.14488771052E+01 -0.47296915531E+01 -0.49777412313E+00  0.49716200711E+01  0.00000000000E+00 0.  1.
<mgrwt>
<rscale>  0 0.90526547E+02</rscale>
<asrwt>0</asrwt>
<pdfrwt beam="1">  1        1 0.22540394E-02 0.90526547E+02</pdfrwt>
<pdfrwt beam="2">  1       -1 0.21513135E-01 0.90526547E+02</pdfrwt>
<totfact> 0.77422579E+04</totfact>
</mgrwt>
</event>
<event>
 7    1  0.2911475E-009  0.8974506E+02  0.7818608E-02  0.1303470E+00
         -1   -1    0    0    0  501 -0.00000000000E+00  0.00000000000E+00  0.20642896574E+02  0.20642897189E+02  0.50400000000E-02 0.  1.
          1   -1    0    0  501    0  0.00000000000E+00 -0.00000000000E+00 -0.97541730208E+02  0.97541730338E+02  0.50400000000E-02 0. -1.
         23    2    1    2    0    0 -0.71054273576E-14  0.35527136788E-14 -0.76898833634E+02  0.11818462753E+03  0.89745058746E+02 0.  0.
    9000005    2    3    3    0    0 -0.32858121828E+02  0.30157827946E+02 -0.39938244732E+02  0.60260229486E+02  0.68615675286E+01 0.  0.
         22    1    3    3    0    0  0.32858121828E+02 -0.30157827946E+02 -0.36960588902E+02  0.57924398041E+02  0.00000000000E+00 0. -1.
         22    1    4    4    0    0 -0.24252768834E+02  0.23528001672E+02 -0.26267106523E+02  0.42798651192E+02  0.00000000000E+00 0.  1.
         22    1    4    4    0    0 -0.86053529943E+01  0.66298262734E+01 -0.13671138209E+02  0.17461578293E+02  0.00000000000E+00 0.  1.
<mgrwt>
<rscale>  0 0.89745059E+02</rscale>
<asrwt>0</asrwt>
<pdfrwt beam="2">  1        1 0.15006420E-01 0.89745059E+02</pdfrwt>
<pdfrwt beam="1">  1       -1 0.31758304E-02 0.89745059E+02</pdfrwt>
<totfact> 0.10860322E+05</totfact>
</mgrwt>
</event>
<event>
 7    1  0.2911475E-009  0.9374116E+02  0.7818608E-02  0.1294037E+00
         -1   -1    0    0    0  501 -0.00000000000E+00  0.00000000000E+00  0.23620643821E+03  0.23620643827E+03  0.50400000000E-02 0.  1.
          1   -1    0    0  501    0  0.00000000000E+00 -0.00000000000E+00 -0.93005553424E+01  0.93005567079E+01  0.50400000000E-02 0. -1.
         23    2    1    2    0    0  0.00000000000E+00  0.00000000000E+00  0.22690588287E+03  0.24550699497E+03  0.93741159051E+02 0.  0.
    9000005    2    3    3    0    0 -0.41902043670E+01 -0.38717352993E+02  0.18109788518E+03  0.18538242522E+03  0.73217709226E+01 0.  0.
         22    1    3    3    0    0  0.41902043670E+01  0.38717352993E+02  0.45807997692E+02  0.60124569753E+02  0.00000000000E+00 0. -1.
         22    1    4    4    0    0  0.18755641299E+01 -0.16096749618E+02  0.74437155459E+02  0.76180792868E+02  0.00000000000E+00 0. -1.
         22    1    4    4    0    0 -0.60657684969E+01 -0.22620603375E+02  0.10666072972E+03  0.10920163235E+03  0.00000000000E+00 0. -1.
<mgrwt>
<rscale>  0 0.93741159E+02</rscale>
<asrwt>0</asrwt>
<pdfrwt beam="2">  1        1 0.14308547E-02 0.93741159E+02</pdfrwt>
<pdfrwt beam="1">  1       -1 0.36339455E-01 0.93741159E+02</pdfrwt>
<totfact> 0.61379156E+04</totfact>
</mgrwt>
</event>
<event>
 7    1  0.2911475E-009  0.9427927E+02  0.7818608E-02  0.1292808E+00
          1   -1    0    0  501    0  0.00000000000E+00  0.00000000000E+00  0.12329144036E+03  0.12329144046E+03  0.50400000000E-02 0. -1.
         -1   -1    0    0    0  501 -0.00000000000E+00 -0.00000000000E+00 -0.18023513978E+02  0.18023514682E+02  0.50400000000E-02 0.  1.
         23    2    1    2    0    0  0.00000000000E+00  0.17763568394E-14  0.10526792638E+03  0.14131495515E+03  0.94279267195E+02 0.  0.
    9000005    2    3    3    0    0  0.40096862711E+02  0.13714985189E+02  0.81579782356E+02  0.92766140686E+02  0.12427258361E+02 0.  0.
         22    1    3    3    0    0 -0.40096862711E+02 -0.13714985189E+02  0.23688144026E+02  0.48548814459E+02  0.00000000000E+00 0.  1.
         22    1    4    4    0    0  0.27473670867E+02  0.13656243622E+02  0.65448698960E+02  0.72282970168E+02  0.00000000000E+00 0.  1.
         22    1    4    4    0    0  0.12623191844E+02  0.58741566899E-01  0.16131083397E+02  0.20483170518E+02  0.00000000000E+00 0.  1.
<mgrwt>
<rscale>  0 0.94279267E+02</rscale>
<asrwt>0</asrwt>
<pdfrwt beam="1">  1        1 0.18967914E-01 0.94279267E+02</pdfrwt>
<pdfrwt beam="2">  1       -1 0.27728484E-02 0.94279267E+02</pdfrwt>
<totfact> 0.98838379E+04</totfact>
</mgrwt>
</event>
<event>
 7    1  0.2911475E-009  0.9072560E+02  0.7818608E-02  0.1301104E+00
         -1   -1    0    0    0  501 -0.00000000000E+00  0.00000000000E+00  0.28243331427E+02  0.28243331877E+02  0.50400000000E-02 0.  1.
          1   -1    0    0  501    0  0.00000000000E+00 -0.00000000000E+00 -0.72859095102E+02  0.72859095276E+02  0.50400000000E-02 0. -1.
         23    2    1    2    0    0  0.00000000000E+00  0.35527136788E-14 -0.44615763674E+02  0.10110242715E+03  0.90725599518E+02 0.  0.
    9000005    2    3    3    0    0 -0.23286907304E+02  0.19895060383E+02  0.12403018197E+02  0.36378127500E+02  0.15213146308E+02 0.  0.
         22    1    3    3    0    0  0.23286907304E+02 -0.19895060383E+02 -0.57018781872E+02  0.64724299653E+02  0.00000000000E+00 0. -1.
         22    1    4    4    0    0 -0.30370998161E+01 -0.16280261092E+01  0.47201049077E+01  0.58441282194E+01  0.00000000000E+00 0. -1.
         22    1    4    4    0    0 -0.20249807488E+02  0.21523086493E+02  0.76829132897E+01  0.30533999281E+02  0.00000000000E+00 0. -1.
<mgrwt>
<rscale>  0 0.90725600E+02</rscale>
<asrwt>0</asrwt>
<pdfrwt beam="2">  1        1 0.11209091E-01 0.90725600E+02</pdfrwt>
<pdfrwt beam="1">  1       -1 0.43451280E-02 0.90725600E+02</pdfrwt>
<totfact> 0.10064531E+05</totfact>
</mgrwt>
</event>
<event>
 7    1  0.2911475E-009  0.8984524E+02  0.7818608E-02  0.1303227E+00
         -1   -1    0    0    0  501 -0.00000000000E+00  0.00000000000E+00  0.16123350466E+03  0.16123350474E+03  0.50400000000E-02 0.  1.
          1   -1    0    0  501    0  0.00000000000E+00 -0.00000000000E+00 -0.12516268172E+02  0.12516269186E+02  0.50400000000E-02 0. -1.
         23    2    1    2    0    0  0.00000000000E+00 -0.17763568394E-14  0.14871723649E+03  0.17374977393E+03  0.89845242002E+02 0.  0.
    9000005    2    3    3    0    0  0.40718388965E+02  0.80920217561E+01  0.10201513334E+03  0.11126333976E+03  0.15778952079E+02 0.  0.
         22    1    3    3    0    0 -0.40718388965E+02 -0.80920217561E+01  0.46702103152E+02  0.62486434166E+02  0.00000000000E+00 0.  1.
         22    1    4    4    0    0  0.26841226405E+01 -0.36617792393E+01  0.12359161994E+02  0.13166701437E+02  0.00000000000E+00 0.  1.
         22    1    4    4    0    0  0.38034266324E+02  0.11753800995E+02  0.89655971344E+02  0.98096638323E+02  0.00000000000E+00 0.  1.
<mgrwt>
<rscale>  0 0.89845242E+02</rscale>
<asrwt>0</asrwt>
<pdfrwt beam="2">  1        1 0.19255798E-02 0.89845242E+02</pdfrwt>
<pdfrwt beam="1">  1       -1 0.24805155E-01 0.89845242E+02</pdfrwt>
<totfact> 0.76365593E+04</totfact>
</mgrwt>
</event>
<event>
 7    1  0.2911475E-009  0.9508388E+02  0.7818608E-02  0.1290987E+00
         -1   -1    0    0    0  501 -0.00000000000E+00  0.00000000000E+00  0.21207921642E+03  0.21207921648E+03  0.50400000000E-02 0.  1.
          1   -1    0    0  501    0  0.00000000000E+00 -0.00000000000E+00 -0.10657508035E+02  0.10657509227E+02  0.50400000000E-02 0. -1.
         23    2    1    2    0    0  0.71054273576E-14  0.00000000000E+00  0.20142170839E+03  0.22273672571E+03  0.95083880706E+02 0.  0.
    9000005    2    3    3    0    0 -0.35600761787E+02 -0.43876304811E+01  0.27862411114E+02  0.45509483980E+02  0.28519533646E+01 0.  0.
         22    1    3    3    0    0  0.35600761787E+02  0.43876304811E+01  0.17355929727E+03  0.17722724173E+03  0.00000000000E+00 0.  1.
         22    1    4    4    0    0 -0.19453186524E+02 -0.22811571084E+01  0.16995565605E+02  0.25932207657E+02  0.00000000000E+00 0. -1.
         22    1    4    4    0    0 -0.16147575263E+02 -0.21064733728E+01  0.10866845509E+02  0.19577276324E+02  0.00000000000E+00 0. -1.
<mgrwt>
<rscale>  0 0.95083881E+02</rscale>
<asrwt>0</asrwt>
<pdfrwt beam="2">  1        1 0.16396167E-02 0.95083881E+02</pdfrwt>
<pdfrwt beam="1">  1       -1 0.32627573E-01 0.95083881E+02</pdfrwt>
<totfact> 0.61159983E+04</totfact>
</mgrwt>
</event>
<event>
 7    1  0.2911475E-009  0.9168930E+02  0.7818608E-02  0.1298812E+00
          1   -1    0    0  501    0  0.00000000000E+00  0.00000000000E+00  0.27964495631E+03  0.27964495636E+03  0.50400000000E-02 0.  1.
         -1   -1    0    0    0  501 -0.00000000000E+00 -0.00000000000E+00 -0.75157147009E+01  0.75157163908E+01  0.50400000000E-02 0. -1.
         23    2    1    2    0    0 -0.35527136788E-14 -0.17763568394E-14  0.27212924161E+03  0.28716067275E+03  0.91689300540E+02 0.  0.
    9000005    2    3    3    0    0  0.21287097263E+02  0.15070748242E+02  0.25387606756E+03  0.25532600100E+03  0.76184738973E+01 0.  0.
         22    1    3    3    0    0 -0.21287097263E+02 -0.15070748242E+02  0.18253174054E+02  0.31834671751E+02  0.00000000000E+00 0. -1.
         22    1    4    4    0    0  0.14555440345E+02  0.84219167477E+01  0.12890318844E+03  0.12999546729E+03  0.00000000000E+00 0.  1.
         22    1    4    4    0    0  0.67316569179E+01  0.66488314940E+01  0.12497287912E+03  0.12533053371E+03  0.00000000000E+00 0.  1.
<mgrwt>
<rscale>  0 0.91689301E+02</rscale>
<asrwt>0</asrwt>
<pdfrwt beam="1">  1        1 0.43022305E-01 0.91689301E+02</pdfrwt>
<pdfrwt beam="2">  1       -1 0.11562638E-02 0.91689301E+02</pdfrwt>
<totfact> 0.12452476E+05</totfact>
</mgrwt>
</event>
<event>
 7    1  0.2911475E-009  0.9204009E+02  0.7818608E-02  0.1297985E+00
         -1   -1    0    0    0  501 -0.00000000000E+00  0.00000000000E+00  0.14657266925E+03  0.14657266933E+03  0.50400000000E-02 0.  1.
          1   -1    0    0  501    0  0.00000000000E+00 -0.00000000000E+00 -0.14449108967E+02  0.14449109846E+02  0.50400000000E-02 0. -1.
         23    2    1    2    0    0  0.00000000000E+00 -0.71054273576E-14  0.13212356028E+03  0.16102177918E+03  0.92040090120E+02 0.  0.
    9000005    2    3    3    0    0  0.11931928130E+02 -0.38836365355E+02  0.10038440687E+03  0.10946590617E+03  0.15972516634E+02 0.  0.
         22    1    3    3    0    0 -0.11931928130E+02  0.38836365355E+02  0.31739153412E+02  0.51555873014E+02  0.00000000000E+00 0. -1.
         22    1    4    4    0    0  0.43805987573E+01 -0.11976208746E+02  0.15267571454E+02  0.19892660946E+02  0.00000000000E+00 0.  1.
         22    1    4    4    0    0  0.75513293732E+01 -0.26860156609E+02  0.85116835416E+02  0.89573245221E+02  0.00000000000E+00 0.  1.
<mgrwt>
<rscale>  0 0.92040090E+02</rscale>
<asrwt>0</asrwt>
<pdfrwt beam="2">  1        1 0.22229399E-02 0.92040090E+02</pdfrwt>
<pdfrwt beam="1">  1       -1 0.22549641E-01 0.92040090E+02</pdfrwt>
<totfact> 0.73373191E+04</totfact>
</mgrwt>
</event>
<event>
 7    1  0.2911475E-009  0.1026053E+03  0.7818608E-02  0.1274911E+00
          1   -1    0    0  501    0  0.00000000000E+00  0.00000000000E+00  0.10818485888E+04  0.10818485888E+04  0.50400000000E-02 0. -1.
         -1   -1    0    0    0  501 -0.00000000000E+00 -0.00000000000E+00 -0.24328362182E+01  0.24328414388E+01  0.50400000000E-02 0.  1.
         23    2    1    2    0    0 -0.44408920985E-15  0.00000000000E+00  0.10794157525E+04  0.10842814302E+04  0.10260532668E+03 0.  0.
    9000005    2    3    3    0    0  0.31871414468E+01  0.29133899274E+02  0.98224356269E+03  0.98278573356E+03  0.14368009275E+02 0.  0.
         22    1    3    3    0    0 -0.31871414468E+01 -0.29133899274E+02  0.97172189859E+02  0.10149569666E+03  0.00000000000E+00 0.  1.
         22    1    4    4    0    0 -0.31523689077E+01  0.24369108573E+02  0.70169966530E+03  0.70212976804E+03  0.00000000000E+00 0.  1.
         22    1    4    4    0    0  0.63395103545E+01  0.47647907016E+01  0.28054389739E+03  0.28065596552E+03  0.00000000000E+00 0.  1.
<mgrwt>
<rscale>  0 0.10260533E+03</rscale>
<asrwt>0</asrwt>
<pdfrwt beam="1">  1        1 0.16643788E+00 0.10260533E+03</pdfrwt>
<pdfrwt beam="2">  1       -1 0.37428373E-03 0.10260533E+03</pdfrwt>
<totfact> 0.97007828E+04</totfact>
</mgrwt>
</event>
<event>
 7    1  0.2911475E-009  0.7293517E+02  0.7818608E-02  0.1350387E+00
          1   -1    0    0  501    0  0.00000000000E+00  0.00000000000E+00  0.88732678127E+02  0.88732678270E+02  0.50400000000E-02 0. -1.
         -1   -1    0    0    0  501 -0.00000000000E+00 -0.00000000000E+00 -0.14987542609E+02  0.14987543456E+02  0.50400000000E-02 0.  1.
         23    2    1    2    0    0  0.00000000000E+00  0.00000000000E+00  0.73745135519E+02  0.10372022173E+03  0.72935172464E+02 0.  0.
    9000005    2    3    3    0    0 -0.79722530472E+01  0.34445497686E+02  0.41731277252E+02  0.56023929936E+02  0.12129801929E+02 0.  0.
         22    1    3    3    0    0  0.79722530472E+01 -0.34445497686E+02  0.32013858266E+02  0.47696291791E+02  0.00000000000E+00 0.  1.
         22    1    4    4    0    0 -0.70574751634E+01  0.31403906196E+02  0.30465004209E+02  0.44318503602E+02  0.00000000000E+00 0.  1.
         22    1    4    4    0    0 -0.91477788383E+00  0.30415914899E+01  0.11266273044E+02  0.11705426334E+02  0.00000000000E+00 0.  1.
<mgrwt>
<rscale>  0 0.72935172E+02</rscale>
<asrwt>0</asrwt>
<pdfrwt beam="1">  1        1 0.13651182E-01 0.72935172E+02</pdfrwt>
<pdfrwt beam="2">  1       -1 0.23057758E-02 0.72935172E+02</pdfrwt>
<totfact> 0.18690406E+05</totfact>
</mgrwt>
</event>
<event>
 7    1  0.2911475E-009  0.1037027E+03  0.7818608E-02  0.1272697E+00
          1   -1    0    0  501    0  0.00000000000E+00  0.00000000000E+00  0.18707766376E+03  0.18707766383E+03  0.50400000000E-02 0.  1.
         -1   -1    0    0    0  501 -0.00000000000E+00 -0.00000000000E+00 -0.14371377058E+02  0.14371377942E+02  0.50400000000E-02 0. -1.
         23    2    1    2    0    0  0.00000000000E+00  0.00000000000E+00  0.17270628670E+03  0.20144904177E+03  0.10370272399E+03 0.  0.
    9000005    2    3    3    0    0  0.21365467179E+01 -0.15979478380E+02  0.18175343812E+03  0.18296230301E+03  0.13453010639E+02 0.  0.
         22    1    3    3    0    0 -0.21365467179E+01  0.15979478380E+02 -0.90471514138E+01  0.18486738757E+02  0.00000000000E+00 0. -1.
         22    1    4    4    0    0  0.21145027791E+01 -0.12905668594E+02  0.72786995559E+02  0.73952512644E+02  0.00000000000E+00 0.  1.
         22    1    4    4    0    0  0.22043938831E-01 -0.30738097868E+01  0.10896644256E+03  0.10900979037E+03  0.00000000000E+00 0.  1.
<mgrwt>
<rscale>  0 0.10370272E+03</rscale>
<asrwt>0</asrwt>
<pdfrwt beam="1">  1        1 0.28781177E-01 0.10370272E+03</pdfrwt>
<pdfrwt beam="2">  1       -1 0.22109813E-02 0.10370272E+03</pdfrwt>
<totfact> 0.82505652E+04</totfact>
</mgrwt>
</event>
<event>
 7    1  0.2911475E-009  0.1183517E+03  0.7818608E-02  0.1245841E+00
          1   -1    0    0  501    0  0.00000000000E+00  0.00000000000E+00  0.61815149508E+03  0.61815149510E+03  0.50400000000E-02 0. -1.
         -1   -1    0    0    0  501 -0.00000000000E+00 -0.00000000000E+00 -0.56649206944E+01  0.56649229364E+01  0.50400000000E-02 0.  1.
         23    2    1    2    0    0  0.00000000000E+00  0.00000000000E+00  0.61248657438E+03  0.62381641803E+03  0.11835167768E+03 0.  0.
    9000005    2    3    3    0    0 -0.65834489667E+01  0.18884464022E+02  0.59974023230E+03  0.60010072664E+03  0.57071094443E+01 0.  0.
         22    1    3    3    0    0  0.65834489667E+01 -0.18884464022E+02  0.12746342087E+02  0.23715691394E+02  0.00000000000E+00 0.  1.
         22    1    4    4    0    0 -0.41604335003E+01  0.89813205739E+01  0.37313591856E+03  0.37326717917E+03  0.00000000000E+00 0.  1.
         22    1    4    4    0    0 -0.24230154664E+01  0.99031434480E+01  0.22660431374E+03  0.22683354747E+03  0.00000000000E+00 0.  1.
<mgrwt>
<rscale>  0 0.11835168E+03</rscale>
<asrwt>0</asrwt>
<pdfrwt beam="1">  1        1 0.95100157E-01 0.11835168E+03</pdfrwt>
<pdfrwt beam="2">  1       -1 0.87152710E-03 0.11835168E+03</pdfrwt>
<totfact> 0.70485024E+04</totfact>
</mgrwt>
</event>
<event>
 7    1  0.2911475E-009  0.9008877E+02  0.7818608E-02  0.1302637E+00
         -1   -1    0    0    0  501 -0.00000000000E+00  0.00000000000E+00  0.48565929221E+02  0.48565929482E+02  0.50400000000E-02 0.  1.
          1   -1    0    0  501    0  0.00000000000E+00 -0.00000000000E+00 -0.41778191444E+02  0.41778191748E+02  0.50400000000E-02 0. -1.
         23    2    1    2    0    0  0.00000000000E+00  0.00000000000E+00  0.67877377773E+01  0.90344121230E+02  0.90088772090E+02 0.  0.
    9000005    2    3    3    0    0 -0.49361420169E+01  0.41377497110E+02  0.18443695360E+02  0.47073760563E+02  0.11802807713E+02 0.  0.
         22    1    3    3    0    0  0.49361420169E+01 -0.41377497110E+02 -0.11655957582E+02  0.43270360667E+02  0.00000000000E+00 0. -1.
         22    1    4    4    0    0  0.17557270269E+01  0.42726420330E+01 -0.88690233296E+00  0.47036839906E+01  0.00000000000E+00 0. -1.
         22    1    4    4    0    0 -0.66918690438E+01  0.37104855077E+02  0.19330597693E+02  0.42370076572E+02  0.00000000000E+00 0. -1.
<mgrwt>
<rscale>  0 0.90088772E+02</rscale>
<asrwt>0</asrwt>
<pdfrwt beam="2">  1        1 0.64274141E-02 0.90088772E+02</pdfrwt>
<pdfrwt beam="1">  1       -1 0.74716814E-02 0.90088772E+02</pdfrwt>
<totfact> 0.94399001E+04</totfact>
</mgrwt>
</event>
<event>
 7    1  0.2911475E-009  0.1010361E+03  0.7818608E-02  0.1278132E+00
         -1   -1    0    0    0  501 -0.00000000000E+00  0.00000000000E+00  0.13353933627E+02  0.13353934578E+02  0.50400000000E-02 0.  1.
          1   -1    0    0  501    0  0.00000000000E+00 -0.00000000000E+00 -0.19111015240E+03  0.19111015247E+03  0.50400000000E-02 0. -1.
         23    2    1    2    0    0  0.00000000000E+00  0.00000000000E+00 -0.17775621878E+03  0.20446408705E+03  0.10103608058E+03 0.  0.
    9000005    2    3    3    0    0  0.16252846729E+02  0.34605871606E+02 -0.26971148736E+02  0.48907477663E+02  0.14239983527E+02 0.  0.
         22    1    3    3    0    0 -0.16252846729E+02 -0.34605871606E+02 -0.15078507004E+03  0.15555660939E+03  0.00000000000E+00 0. -1.
         22    1    4    4    0    0  0.12990505567E+02  0.17684083940E+02 -0.81988647391E+01  0.23424377104E+02  0.00000000000E+00 0.  1.
         22    1    4    4    0    0  0.32623411618E+01  0.16921787666E+02 -0.18772283997E+02  0.25483100560E+02  0.00000000000E+00 0.  1.
<mgrwt>
<rscale>  0 0.10103608E+03</rscale>
<asrwt>0</asrwt>
<pdfrwt beam="2">  1        1 0.29401560E-01 0.10103608E+03</pdfrwt>
<pdfrwt beam="1">  1       -1 0.20544515E-02 0.10103608E+03</pdfrwt>
<totfact> 0.88942672E+04</totfact>
</mgrwt>
</event>
<event>
 7    1  0.2911475E-009  0.9147207E+02  0.7818608E-02  0.1299326E+00
          1   -1    0    0  501    0  0.00000000000E+00  0.00000000000E+00  0.20426352472E+03  0.20426352478E+03  0.50400000000E-02 0. -1.
         -1   -1    0    0    0  501 -0.00000000000E+00 -0.00000000000E+00 -0.10240619100E+02  0.10240620340E+02  0.50400000000E-02 0.  1.
         23    2    1    2    0    0  0.00000000000E+00  0.71054273576E-14  0.19402290562E+03  0.21450414512E+03  0.91472074258E+02 0.  0.
    9000005    2    3    3    0    0 -0.26649142792E+02 -0.35913898145E+02  0.10096596755E+03  0.11125890981E+03  0.13580630227E+02 0.  0.
         22    1    3    3    0    0  0.26649142792E+02  0.35913898145E+02  0.93056938071E+02  0.10324523531E+03  0.00000000000E+00 0. -1.
         22    1    4    4    0    0 -0.20324643311E+02 -0.30561690787E+02  0.68058158700E+02  0.77324129708E+02  0.00000000000E+00 0. -1.
         22    1    4    4    0    0 -0.63244994815E+01 -0.53522073576E+01  0.32907808846E+02  0.33934780099E+02  0.00000000000E+00 0. -1.
<mgrwt>
<rscale>  0 0.91472074E+02</rscale>
<asrwt>0</asrwt>
<pdfrwt beam="1">  1        1 0.31425157E-01 0.91472074E+02</pdfrwt>
<pdfrwt beam="2">  1       -1 0.15754800E-02 0.91472074E+02</pdfrwt>
<totfact> 0.11786495E+05</totfact>
</mgrwt>
</event>
<event>
 7    1  0.2911475E-009  0.9175900E+02  0.7818608E-02  0.1298647E+00
          1   -1    0    0  501    0  0.00000000000E+00  0.00000000000E+00  0.28906665430E+02  0.28906665869E+02  0.50400000000E-02 0. -1.
         -1   -1    0    0    0  501 -0.00000000000E+00 -0.00000000000E+00 -0.72818097628E+02  0.72818097803E+02  0.50400000000E-02 0.  1.
         23    2    1    2    0    0  0.00000000000E+00  0.00000000000E+00 -0.43911432198E+02  0.10172476367E+03  0.91758997741E+02 0.  0.
    9000005    2    3    3    0    0 -0.21040033512E+01  0.44754459489E+02 -0.30724261960E+02  0.55020481929E+02  0.87111815772E+01 0.  0.
         22    1    3    3    0    0  0.21040033512E+01 -0.44754459489E+02 -0.13187170238E+02  0.46704281743E+02  0.00000000000E+00 0. -1.
         22    1    4    4    0    0 -0.35441608731E+01  0.42239400110E+02 -0.30270984767E+02  0.52087047495E+02  0.00000000000E+00 0. -1.
         22    1    4    4    0    0  0.14401575220E+01  0.25150593789E+01 -0.45327719322E+00  0.29334344345E+01  0.00000000000E+00 0. -1.
<mgrwt>
<rscale>  0 0.91758998E+02</rscale>
<asrwt>0</asrwt>
<pdfrwt beam="1">  1        1 0.44471794E-02 0.91758998E+02</pdfrwt>
<pdfrwt beam="2">  1       -1 0.11202784E-01 0.91758998E+02</pdfrwt>
<totfact> 0.84598082E+04</totfact>
</mgrwt>
</event>
<event>
 7    1  0.2911475E-009  0.8792256E+02  0.7818608E-02  0.1307962E+00
         -1   -1    0    0    0  501 -0.00000000000E+00  0.00000000000E+00  0.73035659728E+02  0.73035659902E+02  0.50400000000E-02 0.  1.
          1   -1    0    0  501    0  0.00000000000E+00 -0.00000000000E+00 -0.26460963993E+02  0.26460964473E+02  0.50400000000E-02 0. -1.
         23    2    1    2    0    0  0.00000000000E+00  0.00000000000E+00  0.46574695735E+02  0.99496624376E+02  0.87922556715E+02 0.  0.
    9000005    2    3    3    0    0 -0.26363834780E+02 -0.23979816951E+02  0.52055316443E+02  0.63439439118E+02  0.66875302156E+01 0.  0.
         22    1    3    3    0    0  0.26363834780E+02  0.23979816951E+02 -0.54806207077E+01  0.36057185257E+02  0.00000000000E+00 0. -1.
         22    1    4    4    0    0 -0.12514338525E+01 -0.35115409995E+01  0.72004524661E+01  0.81082379464E+01  0.00000000000E+00 0.  1.
         22    1    4    4    0    0 -0.25112400927E+02 -0.20468275952E+02  0.44854863977E+02  0.55331201172E+02  0.00000000000E+00 0.  1.
<mgrwt>
<rscale>  0 0.87922557E+02</rscale>
<asrwt>0</asrwt>
<pdfrwt beam="2">  1        1 0.40709176E-02 0.87922557E+02</pdfrwt>
<pdfrwt beam="1">  1       -1 0.11236255E-01 0.87922557E+02</pdfrwt>
<totfact> 0.94287854E+04</totfact>
</mgrwt>
</event>
<event>
 7    1  0.2911475E-009  0.9629457E+02  0.7818608E-02  0.1288287E+00
         -1   -1    0    0    0  501 -0.00000000000E+00  0.00000000000E+00  0.30050004099E+01  0.30050046364E+01  0.50400000000E-02 0.  1.
          1   -1    0    0  501    0  0.00000000000E+00 -0.00000000000E+00 -0.77143404681E+03  0.77143404682E+03  0.50400000000E-02 0. -1.
         23    2    1    2    0    0  0.00000000000E+00  0.00000000000E+00 -0.76842904640E+03  0.77443905146E+03  0.96294574506E+02 0.  0.
    9000005    2    3    3    0    0 -0.26048603400E+02 -0.59169355510E+01 -0.70438181861E+03  0.70504461902E+03  0.14853570809E+02 0.  0.
         22    1    3    3    0    0  0.26048603400E+02  0.59169355510E+01 -0.64047227789E+02  0.69394432434E+02  0.00000000000E+00 0.  1.
         22    1    4    4    0    0 -0.25747975179E+02 -0.11488974349E+01 -0.58653485911E+03  0.58710085942E+03  0.00000000000E+00 0. -1.
         22    1    4    4    0    0 -0.30062822111E+00 -0.47680381161E+01 -0.11784695950E+03  0.11794375960E+03  0.00000000000E+00 0. -1.
<mgrwt>
<rscale>  0 0.96294575E+02</rscale>
<asrwt>0</asrwt>
<pdfrwt beam="2">  1        1 0.11868200E+00 0.96294575E+02</pdfrwt>
<pdfrwt beam="1">  1       -1 0.46230870E-03 0.96294575E+02</pdfrwt>
<totfact> 0.12258969E+05</totfact>
</mgrwt>
</event>
<event>
 7    1  0.2911475E-009  0.9135516E+02  0.7818608E-02  0.1299603E+00
         -1   -1    0    0    0  501 -0.00000000000E+00  0.00000000000E+00  0.36057414078E+02  0.36057414431E+02  0.50400000000E-02 0.  1.
          1   -1    0    0  501    0  0.00000000000E+00 -0.00000000000E+00 -0.57864413548E+02  0.57864413767E+02  0.50400000000E-02 0. -1.
         23    2    1    2    0    0 -0.35527136788E-14 -0.17763568394E-14 -0.21806999470E+02  0.93921828198E+02  0.91355156320E+02 0.  0.
    9000005    2    3    3    0    0  0.23054485839E+02  0.15921852877E+02 -0.46545360072E+02  0.56545348941E+02  0.15680919179E+02 0.  0.
         22    1    3    3    0    0 -0.23054485839E+02 -0.15921852877E+02  0.24738360603E+02  0.37376479257E+02  0.00000000000E+00 0.  1.
         22    1    4    4    0    0  0.21043092645E+02  0.59811296969E+01 -0.33712160198E+02  0.40188249597E+02  0.00000000000E+00 0.  1.
         22    1    4    4    0    0  0.20113931942E+01  0.99407231801E+01 -0.12833199875E+02  0.16357099344E+02  0.00000000000E+00 0.  1.
<mgrwt>
<rscale>  0 0.91355156E+02</rscale>
<asrwt>0</asrwt>
<pdfrwt beam="2">  1        1 0.89022175E-02 0.91355156E+02</pdfrwt>
<pdfrwt beam="1">  1       -1 0.55472945E-02 0.91355156E+02</pdfrwt>
<totfact> 0.95325602E+04</totfact>
</mgrwt>
</event>
<event>
 7    1  0.2911475E-009  0.9455403E+02  0.7818608E-02  0.1292184E+00
          1   -1    0    0  501    0  0.00000000000E+00  0.00000000000E+00  0.19341698309E+03  0.19341698315E+03  0.50400000000E-02 0. -1.
         -1   -1    0    0    0  501 -0.00000000000E+00 -0.00000000000E+00 -0.11555944393E+02  0.11555945492E+02  0.50400000000E-02 0.  1.
         23    2    1    2    0    0  0.00000000000E+00 -0.71054273576E-14  0.18186103869E+03  0.20497292864E+03  0.94554027319E+02 0.  0.
    9000005    2    3    3    0    0 -0.19282584993E+02 -0.37571734554E+02  0.13675402398E+03  0.14318218421E+03  0.40026839435E+01 0.  0.
         22    1    3    3    0    0  0.19282584993E+02  0.37571734554E+02  0.45107014714E+02  0.61790744435E+02  0.00000000000E+00 0.  1.
         22    1    4    4    0    0 -0.99949145052E+01 -0.21787838531E+02  0.71800054139E+02  0.75695812290E+02  0.00000000000E+00 0.  1.
         22    1    4    4    0    0 -0.92876704883E+01 -0.15783896024E+02  0.64953969840E+02  0.67486371918E+02  0.00000000000E+00 0.  1.
<mgrwt>
<rscale>  0 0.94554027E+02</rscale>
<asrwt>0</asrwt>
<pdfrwt beam="1">  1        1 0.29756457E-01 0.94554027E+02</pdfrwt>
<pdfrwt beam="2">  1       -1 0.17778378E-02 0.94554027E+02</pdfrwt>
<totfact> 0.10667355E+05</totfact>
</mgrwt>
</event>
<event>
 7    1  0.2911475E-009  0.8602820E+02  0.7818608E-02  0.1312765E+00
         -1   -1    0    0    0  501 -0.00000000000E+00  0.00000000000E+00  0.14032151858E+03  0.14032151867E+03  0.50400000000E-02 0.  1.
          1   -1    0    0  501    0  0.00000000000E+00 -0.00000000000E+00 -0.13185524959E+02  0.13185525922E+02  0.50400000000E-02 0. -1.
         23    2    1    2    0    0  0.00000000000E+00  0.00000000000E+00  0.12713599362E+03  0.15350704459E+03  0.86028203894E+02 0.  0.
    9000005    2    3    3    0    0 -0.40575222219E+01  0.41621804387E+02  0.81081899125E+02  0.91299185708E+02  0.35254585811E+01 0.  0.
         22    1    3    3    0    0  0.40575222219E+01 -0.41621804387E+02  0.46054094494E+02  0.62207858882E+02  0.00000000000E+00 0. -1.
         22    1    4    4    0    0 -0.22412931327E+01  0.30912598898E+02  0.57017684827E+02  0.64897061171E+02  0.00000000000E+00 0. -1.
         22    1    4    4    0    0 -0.18162290892E+01  0.10709205489E+02  0.24064214298E+02  0.26402124537E+02  0.00000000000E+00 0. -1.
<mgrwt>
<rscale>  0 0.86028204E+02</rscale>
<asrwt>0</asrwt>
<pdfrwt beam="2">  1        1 0.20285424E-02 0.86028204E+02</pdfrwt>
<pdfrwt beam="1">  1       -1 0.21587926E-01 0.86028204E+02</pdfrwt>
<totfact> 0.88263994E+04</totfact>
</mgrwt>
</event>
<event>
 7    1  0.2911475E-009  0.9188044E+02  0.7818608E-02  0.1298361E+00
          1   -1    0    0  501    0  0.00000000000E+00  0.00000000000E+00  0.86765166613E+02  0.86765166759E+02  0.50400000000E-02 0. -1.
         -1   -1    0    0    0  501 -0.00000000000E+00 -0.00000000000E+00 -0.24324321529E+02  0.24324322051E+02  0.50400000000E-02 0.  1.
         23    2    1    2    0    0  0.71054273576E-14  0.00000000000E+00  0.62440845084E+02  0.11108948881E+03  0.91880440733E+02 0.  0.
    9000005    2    3    3    0    0  0.35316071752E+02  0.27579062300E+02  0.27191519124E+02  0.54077695451E+02  0.13311229534E+02 0.  0.
         22    1    3    3    0    0 -0.35316071752E+02 -0.27579062300E+02  0.35249325960E+02  0.57011793359E+02  0.00000000000E+00 0.  1.
         22    1    4    4    0    0  0.20476819328E+02  0.80643450464E+01  0.15490449864E+02  0.26912596081E+02  0.00000000000E+00 0.  1.
         22    1    4    4    0    0  0.14839252425E+02  0.19514717253E+02  0.11701069260E+02  0.27165099371E+02  0.00000000000E+00 0.  1.
<mgrwt>
<rscale>  0 0.91880441E+02</rscale>
<asrwt>0</asrwt>
<pdfrwt beam="1">  1        1 0.13348487E-01 0.91880441E+02</pdfrwt>
<pdfrwt beam="2">  1       -1 0.37422033E-02 0.91880441E+02</pdfrwt>
<totfact> 0.99926873E+04</totfact>
</mgrwt>
</event>
<event>
 7    1  0.2911475E-009  0.9006944E+02  0.7818608E-02  0.1302684E+00
          1   -1    0    0  501    0  0.00000000000E+00  0.00000000000E+00  0.13863159774E+03  0.13863159783E+03  0.50400000000E-02 0. -1.
         -1   -1    0    0    0  501 -0.00000000000E+00 -0.00000000000E+00 -0.14629609452E+02  0.14629610320E+02  0.50400000000E-02 0.  1.
         23    2    1    2    0    0  0.00000000000E+00  0.00000000000E+00  0.12400198829E+03  0.15326120815E+03  0.90069444456E+02 0.  0.
    9000005    2    3    3    0    0 -0.17054250902E+02 -0.31764984677E+02  0.16541958755E+02  0.39914308447E+02  0.44332712590E+01 0.  0.
         22    1    3    3    0    0  0.17054250902E+02  0.31764984677E+02  0.10746002953E+03  0.11334689970E+03  0.00000000000E+00 0.  1.
         22    1    4    4    0    0 -0.87755704344E+01 -0.18261134725E+02  0.11474196010E+02  0.23283832416E+02  0.00000000000E+00 0. -1.
         22    1    4    4    0    0 -0.82786804674E+01 -0.13503849952E+02  0.50677627452E+01  0.16630476032E+02  0.00000000000E+00 0. -1.
<mgrwt>
<rscale>  0 0.90069444E+02</rscale>
<asrwt>0</asrwt>
<pdfrwt beam="1">  1        1 0.21327939E-01 0.90069444E+02</pdfrwt>
<pdfrwt beam="2">  1       -1 0.22507092E-02 0.90069444E+02</pdfrwt>
<totfact> 0.11423971E+05</totfact>
</mgrwt>
</event>
<event>
 7    1  0.2911475E-009  0.9610136E+02  0.7818608E-02  0.1288715E+00
         -1   -1    0    0    0  501 -0.00000000000E+00  0.00000000000E+00  0.79974632203E+03  0.79974632204E+03  0.50400000000E-02 0.  1.
          1   -1    0    0  501    0  0.00000000000E+00 -0.00000000000E+00 -0.28869978648E+01  0.28870022641E+01  0.50400000000E-02 0. -1.
         23    2    1    2    0    0  0.35527136788E-14 -0.17763568394E-14  0.79685932416E+03  0.80263332431E+03  0.96101356827E+02 0.  0.
    9000005    2    3    3    0    0  0.22338918261E+02 -0.96915204620E+01  0.74327465505E+03  0.74377527811E+03  0.12308478962E+02 0.  0.
         22    1    3    3    0    0 -0.22338918261E+02  0.96915204620E+01  0.53584669115E+02  0.58858046197E+02  0.00000000000E+00 0. -1.
         22    1    4    4    0    0  0.47057439438E+01 -0.27937851977E+01  0.63021960194E+02  0.63259123678E+02  0.00000000000E+00 0.  1.
         22    1    4    4    0    0  0.17633174318E+02 -0.68977352643E+01  0.68025269485E+03  0.68051615443E+03  0.00000000000E+00 0.  1.
<mgrwt>
<rscale>  0 0.96101357E+02</rscale>
<asrwt>0</asrwt>
<pdfrwt beam="2">  1        1 0.44415401E-03 0.96101357E+02</pdfrwt>
<pdfrwt beam="1">  1       -1 0.12303785E+00 0.96101357E+02</pdfrwt>
<totfact> 0.28435902E+04</totfact>
</mgrwt>
</event>
<event>
 7    1  0.2911475E-009  0.9274084E+02  0.7818608E-02  0.1296347E+00
          1   -1    0    0  501    0  0.00000000000E+00  0.00000000000E+00  0.44700842032E+02  0.44700842316E+02  0.50400000000E-02 0. -1.
         -1   -1    0    0    0  501 -0.00000000000E+00 -0.00000000000E+00 -0.48102354093E+02  0.48102354357E+02  0.50400000000E-02 0.  1.
         23    2    1    2    0    0  0.00000000000E+00  0.00000000000E+00 -0.34015120606E+01  0.92803196673E+02  0.92740837976E+02 0.  0.
    9000005    2    3    3    0    0  0.48473380937E+01 -0.16556671314E+02  0.40188315722E+02  0.45923636760E+02  0.14009269829E+02 0.  0.
         22    1    3    3    0    0 -0.48473380937E+01  0.16556671314E+02 -0.43589827782E+02  0.46879559913E+02  0.00000000000E+00 0.  1.
         22    1    4    4    0    0 -0.26690733380E+01 -0.12497660341E+02  0.17414851003E+02  0.21600752347E+02  0.00000000000E+00 0.  1.
         22    1    4    4    0    0  0.75164114317E+01 -0.40590109722E+01  0.22773464718E+02  0.24322884413E+02  0.00000000000E+00 0.  1.
<mgrwt>
<rscale>  0 0.92740838E+02</rscale>
<asrwt>0</asrwt>
<pdfrwt beam="1">  1        1 0.68770527E-02 0.92740838E+02</pdfrwt>
<pdfrwt beam="2">  1       -1 0.74003622E-02 0.92740838E+02</pdfrwt>
<totfact> 0.87887188E+04</totfact>
</mgrwt>
</event>
<event>
 7    1  0.2911475E-009  0.9128490E+02  0.7818608E-02  0.1299770E+00
          1   -1    0    0  501    0  0.00000000000E+00  0.00000000000E+00  0.13539233566E+03  0.13539233576E+03  0.50400000000E-02 0. -1.
         -1   -1    0    0    0  501 -0.00000000000E+00 -0.00000000000E+00 -0.15386641427E+02  0.15386642252E+02  0.50400000000E-02 0.  1.
         23    2    1    2    0    0  0.35527136788E-14  0.00000000000E+00  0.12000569424E+03  0.15077897801E+03  0.91284903245E+02 0.  0.
    9000005    2    3    3    0    0  0.26522095762E+02 -0.30688595788E+02  0.94337813003E+02  0.10277844049E+03  0.43096859144E+01 0.  0.
         22    1    3    3    0    0 -0.26522095762E+02  0.30688595788E+02  0.25667881235E+02  0.48000537520E+02  0.00000000000E+00 0.  1.
         22    1    4    4    0    0  0.10874495752E+02 -0.13908714059E+02  0.46002526665E+02  0.49274125504E+02  0.00000000000E+00 0. -1.
         22    1    4    4    0    0  0.15647600011E+02 -0.16779881729E+02  0.48335286338E+02  0.53504314988E+02  0.00000000000E+00 0. -1.
<mgrwt>
<rscale>  0 0.91284903E+02</rscale>
<asrwt>0</asrwt>
<pdfrwt beam="1">  1        1 0.20829590E-01 0.91284903E+02</pdfrwt>
<pdfrwt beam="2">  1       -1 0.23671757E-02 0.91284903E+02</pdfrwt>
<totfact> 0.10971148E+05</totfact>
</mgrwt>
</event>
<event>
 7    1  0.2911475E-009  0.9481984E+02  0.7818608E-02  0.1291582E+00
          1   -1    0    0  501    0  0.00000000000E+00  0.00000000000E+00  0.62678805813E+01  0.62678826076E+01  0.50400000000E-02 0. -1.
         -1   -1    0    0    0  501 -0.00000000000E+00 -0.00000000000E+00 -0.35860607279E+03  0.35860607282E+03  0.50400000000E-02 0.  1.
         23    2    1    2    0    0 -0.35527136788E-14  0.00000000000E+00 -0.35233819221E+03  0.36487395543E+03  0.94819837927E+02 0.  0.
    9000005    2    3    3    0    0 -0.31988962860E+02  0.37251118950E+01 -0.30987128148E+03  0.31157659424E+03  0.47531870630E+01 0.  0.
         22    1    3    3    0    0  0.31988962860E+02 -0.37251118950E+01 -0.42466910724E+02  0.53297361191E+02  0.00000000000E+00 0. -1.
         22    1    4    4    0    0 -0.83740440900E+01  0.76249441791E+00 -0.62519149799E+02  0.63082090198E+02  0.00000000000E+00 0.  1.
         22    1    4    4    0    0 -0.23614918770E+02  0.29626174771E+01 -0.24735213168E+03  0.24849450404E+03  0.00000000000E+00 0.  1.
<mgrwt>
<rscale>  0 0.94819838E+02</rscale>
<asrwt>0</asrwt>
<pdfrwt beam="1">  1        1 0.96428975E-03 0.94819838E+02</pdfrwt>
<pdfrwt beam="2">  1       -1 0.55170149E-01 0.94819838E+02</pdfrwt>
<totfact> 0.50680189E+04</totfact>
</mgrwt>
</event>
<event>
 7    1  0.2911475E-009  0.9141063E+02  0.7818608E-02  0.1299471E+00
          1   -1    0    0  501    0  0.00000000000E+00  0.00000000000E+00  0.13752571496E+03  0.13752571505E+03  0.50400000000E-02 0. -1.
         -1   -1    0    0    0  501 -0.00000000000E+00 -0.00000000000E+00 -0.15189710753E+02  0.15189711589E+02  0.50400000000E-02 0.  1.
         23    2    1    2    0    0 -0.35527136788E-14  0.00000000000E+00  0.12233600420E+03  0.15271542664E+03  0.91410631816E+02 0.  0.
    9000005    2    3    3    0    0 -0.26896035225E+02  0.32572707987E+02  0.90260141158E+02  0.99675451087E+02  0.19810227273E+01 0.  0.
         22    1    3    3    0    0  0.26896035225E+02 -0.32572707987E+02  0.32075863045E+02  0.53039975552E+02  0.00000000000E+00 0. -1.
         22    1    4    4    0    0 -0.25717151914E+02  0.30744176071E+02  0.84714417896E+02  0.93718241897E+02  0.00000000000E+00 0. -1.
         22    1    4    4    0    0 -0.11788833115E+01  0.18285319161E+01  0.55457232621E+01  0.59572091897E+01  0.00000000000E+00 0. -1.
<mgrwt>
<rscale>  0 0.91410632E+02</rscale>
<asrwt>0</asrwt>
<pdfrwt beam="1">  1        1 0.21157802E-01 0.91410632E+02</pdfrwt>
<pdfrwt beam="2">  1       -1 0.23368787E-02 0.91410632E+02</pdfrwt>
<totfact> 0.10961168E+05</totfact>
</mgrwt>
</event>
<event>
 7    1  0.2911475E-009  0.9467506E+02  0.7818608E-02  0.1291910E+00
          1   -1    0    0  501    0  0.00000000000E+00  0.00000000000E+00  0.12514091291E+01  0.12514192782E+01  0.50400000000E-02 0. -1.
         -1   -1    0    0    0  501 -0.00000000000E+00 -0.00000000000E+00 -0.17906476254E+04  0.17906476254E+04  0.50400000000E-02 0.  1.
         23    2    1    2    0    0  0.35527136788E-14  0.17763568394E-14 -0.17893962163E+04  0.17918990447E+04  0.94675062923E+02 0.  0.
    9000005    2    3    3    0    0 -0.13248947581E+02 -0.93020781867E+01 -0.17350588157E+04  0.17352014577E+04  0.15262422853E+02 0.  0.
         22    1    3    3    0    0  0.13248947581E+02  0.93020781867E+01 -0.54337400572E+02  0.56697586999E+02  0.00000000000E+00 0. -1.
         22    1    4    4    0    0 -0.11599328307E+02 -0.38544773957E+01 -0.15643990587E+04  0.15644468084E+04  0.00000000000E+00 0.  1.
         22    1    4    4    0    0 -0.16496192740E+01 -0.54476007911E+01 -0.17065975702E+03  0.17075464932E+03  0.00000000000E+00 0.  1.
<mgrwt>
<rscale>  0 0.94675063E+02</rscale>
<asrwt>0</asrwt>
<pdfrwt beam="1">  1        1 0.19252669E-03 0.94675063E+02</pdfrwt>
<pdfrwt beam="2">  1       -1 0.27548220E+00 0.94675063E+02</pdfrwt>
<totfact> 0.84829746E+03</totfact>
</mgrwt>
</event>
<event>
 7    1  0.2911475E-009  0.8066079E+02  0.7818608E-02  0.1327187E+00
          1   -1    0    0  501    0  0.00000000000E+00  0.00000000000E+00  0.99610753252E+02  0.99610753380E+02  0.50400000000E-02 0. -1.
         -1   -1    0    0    0  501 -0.00000000000E+00 -0.00000000000E+00 -0.16328965371E+02  0.16328966148E+02  0.50400000000E-02 0.  1.
         23    2    1    2    0    0  0.00000000000E+00 -0.88817841970E-15  0.83281787882E+02  0.11593971953E+03  0.80660785835E+02 0.  0.
    9000005    2    3    3    0    0  0.13841091210E+02 -0.75102204097E+01  0.94750947763E+02  0.96458424785E+02  0.88603833783E+01 0.  0.
         22    1    3    3    0    0 -0.13841091210E+02  0.75102204097E+01 -0.11469159881E+02  0.19481294743E+02  0.00000000000E+00 0.  1.
         22    1    4    4    0    0  0.34346828500E+01 -0.65689742042E+01  0.32325086533E+02  0.33164132549E+02  0.00000000000E+00 0. -1.
         22    1    4    4    0    0  0.10406408360E+02 -0.94124620556E+00  0.62425861230E+02  0.63294292236E+02  0.00000000000E+00 0. -1.
<mgrwt>
<rscale>  0 0.80660786E+02</rscale>
<asrwt>0</asrwt>
<pdfrwt beam="1">  1        1 0.15324731E-01 0.80660786E+02</pdfrwt>
<pdfrwt beam="2">  1       -1 0.25121486E-02 0.80660786E+02</pdfrwt>
<totfact> 0.14537970E+05</totfact>
</mgrwt>
</event>
<event>
 7    1  0.2911475E-009  0.9049261E+02  0.7818608E-02  0.1301663E+00
         -1   -1    0    0    0  501 -0.00000000000E+00  0.00000000000E+00  0.40694925549E+03  0.40694925552E+03  0.50400000000E-02 0.  1.
          1   -1    0    0  501    0  0.00000000000E+00 -0.00000000000E+00 -0.50306704322E+01  0.50306729569E+01  0.50400000000E-02 0. -1.
         23    2    1    2    0    0  0.00000000000E+00  0.00000000000E+00  0.40191858506E+03  0.41197992848E+03  0.90492609941E+02 0.  0.
    9000005    2    3    3    0    0 -0.21587157304E+01 -0.24378858738E+02  0.37288331830E+03  0.37400578566E+03  0.15471581561E+02 0.  0.
         22    1    3    3    0    0  0.21587157304E+01  0.24378858738E+02  0.29035266764E+02  0.37974142821E+02  0.00000000000E+00 0. -1.
         22    1    4    4    0    0 -0.13025035386E+01 -0.66659036248E-01  0.24587102116E+01  0.27832022564E+01  0.00000000000E+00 0. -1.
         22    1    4    4    0    0 -0.85621219178E+00 -0.24312199701E+02  0.37042460808E+03  0.37122258340E+03  0.00000000000E+00 0. -1.
<mgrwt>
<rscale>  0 0.90492610E+02</rscale>
<asrwt>0</asrwt>
<pdfrwt beam="2">  1        1 0.77394957E-03 0.90492610E+02</pdfrwt>
<pdfrwt beam="1">  1       -1 0.62607572E-01 0.90492610E+02</pdfrwt>
<totfact> 0.53877019E+04</totfact>
</mgrwt>
</event>
<event>
 7    1  0.2911475E-009  0.9173262E+02  0.7818608E-02  0.1298709E+00
          1   -1    0    0  501    0  0.00000000000E+00  0.00000000000E+00  0.19158858082E+03  0.19158858089E+03  0.50400000000E-02 0. -1.
         -1   -1    0    0    0  501 -0.00000000000E+00 -0.00000000000E+00 -0.10980394445E+02  0.10980395601E+02  0.50400000000E-02 0.  1.
         23    2    1    2    0    0  0.00000000000E+00  0.71054273576E-14  0.18060818638E+03  0.20256897649E+03  0.91732618243E+02 0.  0.
    9000005    2    3    3    0    0  0.80830471797E+01  0.33323231752E+02  0.15687473628E+03  0.16086705712E+03  0.96308751190E+01 0.  0.
         22    1    3    3    0    0 -0.80830471797E+01 -0.33323231752E+02  0.23733450099E+02  0.41701919377E+02  0.00000000000E+00 0.  1.
         22    1    4    4    0    0  0.79024530089E+01  0.16834485690E+02  0.69213634451E+02  0.71668513769E+02  0.00000000000E+00 0.  1.
         22    1    4    4    0    0  0.18059417081E+00  0.16488746062E+02  0.87661101830E+02  0.89198543346E+02  0.00000000000E+00 0.  1.
<mgrwt>
<rscale>  0 0.91732618E+02</rscale>
<asrwt>0</asrwt>
<pdfrwt beam="1">  1        1 0.29475164E-01 0.91732618E+02</pdfrwt>
<pdfrwt beam="2">  1       -1 0.16892917E-02 0.91732618E+02</pdfrwt>
<totfact> 0.11552381E+05</totfact>
</mgrwt>
</event>
<event>
 7    1  0.2911475E-009  0.9075321E+02  0.7818608E-02  0.1301038E+00
         -1   -1    0    0    0  501 -0.00000000000E+00  0.00000000000E+00  0.45680047241E+02  0.45680047519E+02  0.50400000000E-02 0.  1.
          1   -1    0    0  501    0  0.00000000000E+00 -0.00000000000E+00 -0.45075178829E+02  0.45075179111E+02  0.50400000000E-02 0. -1.
         23    2    1    2    0    0  0.35527136788E-14 -0.17763568394E-14  0.60486841173E+00  0.90755226630E+02  0.90753210934E+02 0.  0.
    9000005    2    3    3    0    0 -0.23276837946E+02  0.12922100150E+02  0.36932715569E+02  0.45716306393E+02  0.41428654253E+01 0.  0.
         22    1    3    3    0    0  0.23276837946E+02 -0.12922100150E+02 -0.36327847157E+02  0.45038920237E+02  0.00000000000E+00 0. -1.
         22    1    4    4    0    0 -0.12251606607E+02  0.67782442804E+01  0.15891113704E+02  0.21179564555E+02  0.00000000000E+00 0.  1.
         22    1    4    4    0    0 -0.11025231339E+02  0.61438558695E+01  0.21041601864E+02  0.24536741838E+02  0.00000000000E+00 0.  1.
<mgrwt>
<rscale>  0 0.90753211E+02</rscale>
<asrwt>0</asrwt>
<pdfrwt beam="2">  1        1 0.69346430E-02 0.90753211E+02</pdfrwt>
<pdfrwt beam="1">  1       -1 0.70276996E-02 0.90753211E+02</pdfrwt>
<totfact> 0.93529395E+04</totfact>
</mgrwt>
</event>
<event>
 7    1  0.2911475E-009  0.9060448E+02  0.7818608E-02  0.1301394E+00
          1   -1    0    0  501    0  0.00000000000E+00  0.00000000000E+00  0.17385050930E+03  0.17385050937E+03  0.50400000000E-02 0. -1.
         -1   -1    0    0    0  501 -0.00000000000E+00 -0.00000000000E+00 -0.11804929361E+02  0.11804930437E+02  0.50400000000E-02 0.  1.
         23    2    1    2    0    0  0.00000000000E+00 -0.88817841970E-15  0.16204557994E+03  0.18565543981E+03  0.90604483075E+02 0.  0.
    9000005    2    3    3    0    0 -0.18766537306E+02 -0.43018390318E+01  0.16467127693E+03  0.16622394408E+03  0.11961663723E+02 0.  0.
         22    1    3    3    0    0  0.18766537306E+02  0.43018390318E+01 -0.26256969910E+01  0.19431495727E+02  0.00000000000E+00 0.  1.
         22    1    4    4    0    0 -0.10812922039E+02 -0.81451841282E+01  0.86114795343E+02  0.87172365371E+02  0.00000000000E+00 0. -1.
         22    1    4    4    0    0 -0.79536152672E+01  0.38433450965E+01  0.78556481587E+02  0.79051578711E+02  0.00000000000E+00 0. -1.
<mgrwt>
<rscale>  0 0.90604483E+02</rscale>
<asrwt>0</asrwt>
<pdfrwt beam="1">  1        1 0.26746232E-01 0.90604483E+02</pdfrwt>
<pdfrwt beam="2">  1       -1 0.18161431E-02 0.90604483E+02</pdfrwt>
<totfact> 0.11722840E+05</totfact>
</mgrwt>
</event>
<event>
 7    1  0.2911475E-009  0.9197046E+02  0.7818608E-02  0.1298149E+00
          1   -1    0    0  501    0  0.00000000000E+00  0.00000000000E+00  0.55007653294E+03  0.55007653296E+03  0.50400000000E-02 0. -1.
         -1   -1    0    0    0  501 -0.00000000000E+00 -0.00000000000E+00 -0.38442659042E+01  0.38442692080E+01  0.50400000000E-02 0.  1.
         23    2    1    2    0    0 -0.17763568394E-14  0.35527136788E-14  0.54623226704E+03  0.55392080217E+03  0.91970460077E+02 0.  0.
    9000005    2    3    3    0    0  0.14349349279E+02 -0.12647434921E+02  0.52483353530E+03  0.52521945804E+03  0.62751811218E+01 0.  0.
         22    1    3    3    0    0 -0.14349349279E+02  0.12647434921E+02  0.21398731740E+02  0.28701344130E+02  0.00000000000E+00 0.  1.
         22    1    4    4    0    0  0.14071441100E+02 -0.99902781147E+01  0.42508742907E+03  0.42543757881E+03  0.00000000000E+00 0. -1.
         22    1    4    4    0    0  0.27790817976E+00 -0.26571568067E+01  0.99746106227E+02  0.99781879230E+02  0.00000000000E+00 0. -1.
<mgrwt>
<rscale>  0 0.91970460E+02</rscale>
<asrwt>0</asrwt>
<pdfrwt beam="1">  1        1 0.84627153E-01 0.91970460E+02</pdfrwt>
<pdfrwt beam="2">  1       -1 0.59142582E-03 0.91970460E+02</pdfrwt>
<totfact> 0.13746855E+05</totfact>
</mgrwt>
</event>
<event>
 7    1  0.2911475E-009  0.9144328E+02  0.7818608E-02  0.1299394E+00
          1   -1    0    0  501    0  0.00000000000E+00  0.00000000000E+00  0.31278377144E+02  0.31278377550E+02  0.50400000000E-02 0. -1.
         -1   -1    0    0    0  501 -0.00000000000E+00 -0.00000000000E+00 -0.66834303027E+02  0.66834303217E+02  0.50400000000E-02 0.  1.
         23    2    1    2    0    0  0.00000000000E+00  0.00000000000E+00 -0.35555925883E+02  0.98112680767E+02  0.91443284401E+02 0.  0.
    9000005    2    3    3    0    0 -0.36593332346E+02  0.18038817872E+01 -0.45389590315E+02  0.60178172495E+02  0.14794308842E+02 0.  0.
         22    1    3    3    0    0  0.36593332346E+02 -0.18038817872E+01  0.98336644321E+01  0.37934508273E+02  0.00000000000E+00 0. -1.
         22    1    4    4    0    0 -0.15202145819E-01 -0.67990418065E-01  0.10394185140E+01  0.10417507617E+01  0.00000000000E+00 0. -1.
         22    1    4    4    0    0 -0.36578130201E+02  0.18718722053E+01 -0.46429008829E+02  0.59136421733E+02  0.00000000000E+00 0. -1.
<mgrwt>
<rscale>  0 0.91443284E+02</rscale>
<asrwt>0</asrwt>
<pdfrwt beam="1">  1        1 0.48120581E-02 0.91443284E+02</pdfrwt>
<pdfrwt beam="2">  1       -1 0.10282200E-01 0.91443284E+02</pdfrwt>
<totfact> 0.86539459E+04</totfact>
</mgrwt>
</event>
<event>
 7    1  0.2911475E-009  0.9219136E+02  0.7818608E-02  0.1297630E+00
         -1   -1    0    0    0  501 -0.00000000000E+00  0.00000000000E+00  0.29224630638E+01  0.29224674097E+01  0.50400000000E-02 0.  1.
          1   -1    0    0  501    0  0.00000000000E+00 -0.00000000000E+00 -0.72706136874E+03  0.72706136875E+03  0.50400000000E-02 0. -1.
         23    2    1    2    0    0  0.35527136788E-14  0.00000000000E+00 -0.72413890567E+03  0.72998383616E+03  0.92191357248E+02 0.  0.
    9000005    2    3    3    0    0 -0.30023323637E+02  0.29883374619E+02 -0.50139799293E+03  0.50325066645E+03  0.81774031988E+01 0.  0.
         22    1    3    3    0    0  0.30023323637E+02 -0.29883374619E+02 -0.22274091274E+03  0.22673316972E+03  0.00000000000E+00 0. -1.
         22    1    4    4    0    0 -0.98964266283E+00  0.43207986254E+01 -0.46420478838E+02  0.46631636782E+02  0.00000000000E+00 0.  1.
         22    1    4    4    0    0 -0.29033680974E+02  0.25562575993E+02 -0.45497751409E+03  0.45661902967E+03  0.00000000000E+00 0.  1.
<mgrwt>
<rscale>  0 0.92191357E+02</rscale>
<asrwt>0</asrwt>
<pdfrwt beam="2">  1        1 0.11185545E+00 0.92191357E+02</pdfrwt>
<pdfrwt beam="1">  1       -1 0.44961062E-03 0.92191357E+02</pdfrwt>
<totfact> 0.13797312E+05</totfact>
</mgrwt>
</event>
<event>
 7    1  0.2911475E-009  0.9195571E+02  0.7818608E-02  0.1298184E+00
          1   -1    0    0  501    0  0.00000000000E+00  0.00000000000E+00  0.36304880785E+01  0.36304915768E+01  0.50400000000E-02 0. -1.
         -1   -1    0    0    0  501 -0.00000000000E+00 -0.00000000000E+00 -0.58228038894E+03  0.58228038896E+03  0.50400000000E-02 0.  1.
         23    2    1    2    0    0 -0.35527136788E-14 -0.35527136788E-14 -0.57864990086E+03  0.58591088054E+03  0.91955707634E+02 0.  0.
    9000005    2    3    3    0    0  0.20537966660E+02  0.17659297413E+02 -0.52413025499E+03  0.52503353955E+03  0.14629921355E+02 0.  0.
         22    1    3    3    0    0 -0.20537966660E+02 -0.17659297413E+02 -0.54519645872E+02  0.60877340987E+02  0.00000000000E+00 0. -1.
         22    1    4    4    0    0  0.21790551167E+02  0.16912973351E+02 -0.42582881276E+03  0.42672128440E+03  0.00000000000E+00 0.  1.
         22    1    4    4    0    0 -0.12525845073E+01  0.74632406256E+00 -0.98301442233E+02  0.98312255150E+02  0.00000000000E+00 0.  1.
<mgrwt>
<rscale>  0 0.91955708E+02</rscale>
<asrwt>0</asrwt>
<pdfrwt beam="1">  1        1 0.55853736E-03 0.91955708E+02</pdfrwt>
<pdfrwt beam="2">  1       -1 0.89581524E-01 0.91955708E+02</pdfrwt>
<totfact> 0.41585648E+04</totfact>
</mgrwt>
</event>
<event>
 7    1  0.2911475E-009  0.8993559E+02  0.7818608E-02  0.1303008E+00
          1   -1    0    0  501    0  0.00000000000E+00  0.00000000000E+00  0.66516090577E+01  0.66516109672E+01  0.50400000000E-02 0. -1.
         -1   -1    0    0    0  501 -0.00000000000E+00 -0.00000000000E+00 -0.30400198024E+03  0.30400198028E+03  0.50400000000E-02 0.  1.
         23    2    1    2    0    0 -0.35527136788E-14  0.00000000000E+00 -0.29735037118E+03  0.31065359125E+03  0.89935590917E+02 0.  0.
    9000005    2    3    3    0    0 -0.30951696834E+02  0.30983719333E+02 -0.12561067290E+03  0.13341780940E+03  0.10211381822E+02 0.  0.
         22    1    3    3    0    0  0.30951696834E+02 -0.30983719333E+02 -0.17173969828E+03  0.17723578185E+03  0.00000000000E+00 0.  1.
         22    1    4    4    0    0 -0.18827326874E+02  0.12130204533E+02 -0.68357245681E+02  0.71932768168E+02  0.00000000000E+00 0. -1.
         22    1    4    4    0    0 -0.12124369960E+02  0.18853514801E+02 -0.57253427217E+02  0.61485041233E+02  0.00000000000E+00 0. -1.
<mgrwt>
<rscale>  0 0.89935591E+02</rscale>
<asrwt>0</asrwt>
<pdfrwt beam="1">  1        1 0.10233249E-02 0.89935591E+02</pdfrwt>
<pdfrwt beam="2">  1       -1 0.46769525E-01 0.89935591E+02</pdfrwt>
<totfact> 0.62467072E+04</totfact>
</mgrwt>
</event>
<event>
 7    1  0.2911475E-009  0.9108999E+02  0.7818608E-02  0.1300233E+00
          1   -1    0    0  501    0  0.00000000000E+00  0.00000000000E+00  0.74439989834E+01  0.74440006895E+01  0.50400000000E-02 0. -1.
         -1   -1    0    0    0  501 -0.00000000000E+00 -0.00000000000E+00 -0.27866018103E+03  0.27866018108E+03  0.50400000000E-02 0.  1.
         23    2    1    2    0    0  0.00000000000E+00 -0.35527136788E-14 -0.27121618205E+03  0.28610418177E+03  0.91089985287E+02 0.  0.
    9000005    2    3    3    0    0 -0.32203636690E+02 -0.31216887323E+02 -0.11304015414E+03  0.12169243013E+03  0.44048647776E+01 0.  0.
         22    1    3    3    0    0  0.32203636690E+02  0.31216887323E+02 -0.15817602791E+03  0.16441175164E+03  0.00000000000E+00 0.  1.
         22    1    4    4    0    0 -0.11825290469E+02 -0.11860995977E+02 -0.48047020056E+02  0.50882579107E+02  0.00000000000E+00 0. -1.
         22    1    4    4    0    0 -0.20378346220E+02 -0.19355891345E+02 -0.64993134080E+02  0.70809851024E+02  0.00000000000E+00 0. -1.
<mgrwt>
<rscale>  0 0.91089985E+02</rscale>
<asrwt>0</asrwt>
<pdfrwt beam="1">  1        1 0.11452310E-02 0.91089985E+02</pdfrwt>
<pdfrwt beam="2">  1       -1 0.42870789E-01 0.91089985E+02</pdfrwt>
<totfact> 0.62474248E+04</totfact>
</mgrwt>
</event>
<event>
 7    1  0.2911475E-009  0.9427073E+02  0.7818608E-02  0.1292827E+00
          1   -1    0    0  501    0  0.00000000000E+00  0.00000000000E+00  0.33917324596E+02  0.33917324970E+02  0.50400000000E-02 0. -1.
         -1   -1    0    0    0  501 -0.00000000000E+00 -0.00000000000E+00 -0.65504655921E+02  0.65504656115E+02  0.50400000000E-02 0.  1.
         23    2    1    2    0    0  0.00000000000E+00 -0.35527136788E-14 -0.31587331325E+02  0.99421981085E+02  0.94270731527E+02 0.  0.
    9000005    2    3    3    0    0  0.23619690855E+02 -0.18129869591E+02  0.21786095618E+02  0.38304842154E+02  0.10297815432E+02 0.  0.
         22    1    3    3    0    0 -0.23619690855E+02  0.18129869591E+02 -0.53373426943E+02  0.61117138931E+02  0.00000000000E+00 0.  1.
         22    1    4    4    0    0  0.10907997736E+02 -0.23903796054E+01  0.62555668273E+01  0.12799626776E+02  0.00000000000E+00 0.  1.
         22    1    4    4    0    0  0.12711693119E+02 -0.15739489986E+02  0.15530528791E+02  0.25505215378E+02  0.00000000000E+00 0.  1.
<mgrwt>
<rscale>  0 0.94270732E+02</rscale>
<asrwt>0</asrwt>
<pdfrwt beam="1">  1        1 0.52180500E-02 0.94270732E+02</pdfrwt>
<pdfrwt beam="2">  1       -1 0.10077639E-01 0.94270732E+02</pdfrwt>
<totfact> 0.80339851E+04</totfact>
</mgrwt>
</event>
<event>
 7    1  0.2911475E-009  0.9239659E+02  0.7818608E-02  0.1297150E+00
          1   -1    0    0  501    0  0.00000000000E+00  0.00000000000E+00  0.12762767975E+03  0.12762767985E+03  0.50400000000E-02 0. -1.
         -1   -1    0    0    0  501 -0.00000000000E+00 -0.00000000000E+00 -0.16722721977E+02  0.16722722736E+02  0.50400000000E-02 0.  1.
         23    2    1    2    0    0  0.00000000000E+00  0.00000000000E+00  0.11090495777E+03  0.14435040258E+03  0.92396585802E+02 0.  0.
    9000005    2    3    3    0    0 -0.81047409071E+01 -0.40238166814E+02  0.28158892924E+02  0.51983156541E+02  0.14984272406E+02 0.  0.
         22    1    3    3    0    0  0.81047409071E+01  0.40238166814E+02  0.82746064845E+02  0.92367246040E+02  0.00000000000E+00 0.  1.
         22    1    4    4    0    0 -0.72985228278E+01 -0.12264253807E+02  0.16086433695E+02  0.21504736826E+02  0.00000000000E+00 0. -1.
         22    1    4    4    0    0 -0.80621807923E+00 -0.27973913007E+02  0.12072459229E+02  0.30478419715E+02  0.00000000000E+00 0. -1.
<mgrwt>
<rscale>  0 0.92396586E+02</rscale>
<asrwt>0</asrwt>
<pdfrwt beam="1">  1        1 0.19635028E-01 0.92396586E+02</pdfrwt>
<pdfrwt beam="2">  1       -1 0.25727265E-02 0.92396586E+02</pdfrwt>
<totfact> 0.10505464E+05</totfact>
</mgrwt>
</event>
<event>
 7    1  0.3333570E-009  0.9191351E+02  0.7818608E-02  0.1298283E+00
          1   -1    0    0  501    0  0.00000000000E+00  0.00000000000E+00  0.18605069563E+03  0.18605069570E+03  0.50400000000E-02 0. -1.
         -1   -1    0    0    0  501 -0.00000000000E+00 -0.00000000000E+00 -0.11351868345E+02  0.11351869463E+02  0.50400000000E-02 0.  1.
         23    2    1    2    0    0  0.00000000000E+00  0.00000000000E+00  0.17469882729E+03  0.19740256516E+03  0.91913505415E+02 0.  0.
    9000005    2    3    3    0    0  0.32419901994E+02  0.20016177247E+02  0.14070555506E+03  0.14634142579E+03  0.12886515526E+02 0.  0.
         22    1    3    3    0    0 -0.32419901994E+02 -0.20016177247E+02  0.33993272231E+02  0.51061139371E+02  0.00000000000E+00 0.  1.
         22    1    4    4    0    0  0.33228728304E+02  0.20444855334E+02  0.13369297177E+03  0.13926934765E+03  0.00000000000E+00 0.  1.
         22    1    4    4    0    0 -0.80882630959E+00 -0.42867808689E+00  0.70125832835E+01  0.70720781394E+01  0.00000000000E+00 0.  1.
<mgrwt>
<rscale>  0 0.91913505E+02</rscale>
<asrwt>0</asrwt>
<pdfrwt beam="1">  1        1 0.28623182E-01 0.91913505E+02</pdfrwt>
<pdfrwt beam="2">  1       -1 0.17464415E-02 0.91913505E+02</pdfrwt>
<totfact> 0.11426483E+05</totfact>
</mgrwt>
</event>
<event>
 7    1  0.2911475E-009  0.9056095E+02  0.7818608E-02  0.1301499E+00
         -1   -1    0    0    0  501 -0.00000000000E+00  0.00000000000E+00  0.12315043294E+03  0.12315043305E+03  0.50400000000E-02 0.  1.
          1   -1    0    0  501    0  0.00000000000E+00 -0.00000000000E+00 -0.16648917987E+02  0.16648918750E+02  0.50400000000E-02 0. -1.
         23    2    1    2    0    0  0.00000000000E+00  0.00000000000E+00  0.10650151496E+03  0.13979935180E+03  0.90560952264E+02 0.  0.
    9000005    2    3    3    0    0 -0.38048852821E+01  0.27864577324E+02 -0.31466703617E+00  0.29342986852E+02  0.83666026898E+01 0.  0.
         22    1    3    3    0    0  0.38048852821E+01 -0.27864577324E+02  0.10681618199E+03  0.11045636495E+03  0.00000000000E+00 0.  1.
         22    1    4    4    0    0  0.13174967912E+00  0.43012734320E+01 -0.30823566002E+01  0.52933196886E+01  0.00000000000E+00 0. -1.
         22    1    4    4    0    0 -0.39366349612E+01  0.23563303892E+02  0.27676895640E+01  0.24049667163E+02  0.00000000000E+00 0. -1.
<mgrwt>
<rscale>  0 0.90560952E+02</rscale>
<asrwt>0</asrwt>
<pdfrwt beam="2">  1        1 0.25613721E-02 0.90560952E+02</pdfrwt>
<pdfrwt beam="1">  1       -1 0.18946220E-01 0.90560952E+02</pdfrwt>
<totfact> 0.79492794E+04</totfact>
</mgrwt>
</event>
<event>
 7    1  0.2911475E-009  0.9123506E+02  0.7818608E-02  0.1299888E+00
         -1   -1    0    0    0  501 -0.00000000000E+00  0.00000000000E+00  0.50742767743E+02  0.50742767994E+02  0.50400000000E-02 0.  1.
          1   -1    0    0  501    0  0.00000000000E+00 -0.00000000000E+00 -0.41009967036E+02  0.41009967346E+02  0.50400000000E-02 0. -1.
         23    2    1    2    0    0  0.00000000000E+00  0.00000000000E+00  0.97328007075E+01  0.91752735339E+02  0.91235064710E+02 0.  0.
    9000005    2    3    3    0    0 -0.42981013945E+02  0.91230671063E+01  0.15368699818E+02  0.47454188276E+02  0.92252445845E+01 0.  0.
         22    1    3    3    0    0  0.42981013945E+02 -0.91230671063E+01 -0.56358991103E+01  0.44298547064E+02  0.00000000000E+00 0. -1.
         22    1    4    4    0    0 -0.38675395914E+02  0.73663815916E+01  0.16467642846E+02  0.42675907580E+02  0.00000000000E+00 0.  1.
         22    1    4    4    0    0 -0.43056180306E+01  0.17566855147E+01 -0.10989430286E+01  0.47782806953E+01  0.00000000000E+00 0.  1.
<mgrwt>
<rscale>  0 0.91235065E+02</rscale>
<asrwt>0</asrwt>
<pdfrwt beam="2">  1        1 0.63092258E-02 0.91235065E+02</pdfrwt>
<pdfrwt beam="1">  1       -1 0.78065797E-02 0.91235065E+02</pdfrwt>
<totfact> 0.90843503E+04</totfact>
</mgrwt>
</event>
<event>
 7    1  0.2911475E-009  0.9152440E+02  0.7818608E-02  0.1299202E+00
          1   -1    0    0  501    0  0.00000000000E+00  0.00000000000E+00  0.28150553586E+02  0.28150554037E+02  0.50400000000E-02 0. -1.
         -1   -1    0    0    0  501 -0.00000000000E+00 -0.00000000000E+00 -0.74392106121E+02  0.74392106292E+02  0.50400000000E-02 0.  1.
         23    2    1    2    0    0  0.00000000000E+00  0.00000000000E+00 -0.46241552535E+02  0.10254266033E+03  0.91524401153E+02 0.  0.
    9000005    2    3    3    0    0  0.11840127273E+02  0.26896491729E+02 -0.61608328791E+02  0.69380216304E+02  0.12426518292E+02 0.  0.
         22    1    3    3    0    0 -0.11840127273E+02 -0.26896491729E+02  0.15366776256E+02  0.33162444025E+02  0.00000000000E+00 0. -1.
         22    1    4    4    0    0  0.10469142154E+02  0.26809289827E+02 -0.50007058255E+02  0.57697892802E+02  0.00000000000E+00 0.  1.
         22    1    4    4    0    0  0.13709851195E+01  0.87201902080E-01 -0.11601270536E+02  0.11682323502E+02  0.00000000000E+00 0.  1.
<mgrwt>
<rscale>  0 0.91524401E+02</rscale>
<asrwt>0</asrwt>
<pdfrwt beam="1">  1        1 0.43308545E-02 0.91524401E+02</pdfrwt>
<pdfrwt beam="2">  1       -1 0.11444939E-01 0.91524401E+02</pdfrwt>
<totfact> 0.84854218E+04</totfact>
</mgrwt>
</event>
<event>
 7    1  0.2911475E-009  0.9032492E+02  0.7818608E-02  0.1302067E+00
         -1   -1    0    0    0  501 -0.00000000000E+00  0.00000000000E+00  0.23762760614E+01  0.23762814063E+01  0.50400000000E-02 0.  1.
          1   -1    0    0  501    0  0.00000000000E+00 -0.00000000000E+00 -0.85833693886E+03  0.85833693888E+03  0.50400000000E-02 0. -1.
         23    2    1    2    0    0  0.00000000000E+00 -0.71054273576E-14 -0.85596066280E+03  0.86071322028E+03  0.90324920747E+02 0.  0.
    9000005    2    3    3    0    0  0.40127821083E+01  0.36803941954E+02 -0.67397098205E+03  0.67499602543E+03  0.34809682504E+01 0.  0.
         22    1    3    3    0    0 -0.40127821083E+01 -0.36803941954E+02 -0.18198968075E+03  0.18571719485E+03  0.00000000000E+00 0.  1.
         22    1    4    4    0    0  0.18330659913E+01  0.14344781953E+02 -0.29431522240E+03  0.29467029547E+03  0.00000000000E+00 0.  1.
         22    1    4    4    0    0  0.21797161170E+01  0.22459160002E+02 -0.37965575965E+03  0.38032572996E+03  0.00000000000E+00 0.  1.
<mgrwt>
<rscale>  0 0.90324921E+02</rscale>
<asrwt>0</asrwt>
<pdfrwt beam="2">  1        1 0.13205159E+00 0.90324921E+02</pdfrwt>
<pdfrwt beam="1">  1       -1 0.36558203E-03 0.90324921E+02</pdfrwt>
<totfact> 0.14371831E+05</totfact>
</mgrwt>
</event>
<event>
 7    1  0.2911475E-009  0.9226424E+02  0.7818608E-02  0.1297459E+00
         -1   -1    0    0    0  501 -0.00000000000E+00  0.00000000000E+00  0.22317165254E+03  0.22317165260E+03  0.50400000000E-02 0.  1.
          1   -1    0    0  501    0  0.00000000000E+00 -0.00000000000E+00 -0.95360342483E+01  0.95360355802E+01  0.50400000000E-02 0. -1.
         23    2    1    2    0    0  0.00000000000E+00  0.00000000000E+00  0.21363561829E+03  0.23270768818E+03  0.92264244070E+02 0.  0.
    9000005    2    3    3    0    0 -0.24140520188E+02  0.25515073441E+02  0.18135522752E+03  0.18500226589E+03  0.10116132963E+02 0.  0.
         22    1    3    3    0    0  0.24140520188E+02 -0.25515073441E+02  0.32280390770E+02  0.47705422291E+02  0.00000000000E+00 0. -1.
         22    1    4    4    0    0 -0.22689467234E+02  0.18617813279E+02  0.15250027545E+03  0.15529896621E+03  0.00000000000E+00 0. -1.
         22    1    4    4    0    0 -0.14510529539E+01  0.68972601617E+01  0.28854952070E+02  0.29703299671E+02  0.00000000000E+00 0. -1.
<mgrwt>
<rscale>  0 0.92264244E+02</rscale>
<asrwt>0</asrwt>
<pdfrwt beam="2">  1        1 0.14670824E-02 0.92264244E+02</pdfrwt>
<pdfrwt beam="1">  1       -1 0.34334099E-01 0.92264244E+02</pdfrwt>
<totfact> 0.65145100E+04</totfact>
</mgrwt>
</event>
<event>
 7    1  0.2911475E-009  0.9162464E+02  0.7818608E-02  0.1298964E+00
          1   -1    0    0  501    0  0.00000000000E+00  0.00000000000E+00  0.33035064055E+01  0.33035102501E+01  0.50400000000E-02 0. -1.
         -1   -1    0    0    0  501 -0.00000000000E+00 -0.00000000000E+00 -0.63531512645E+03  0.63531512647E+03  0.50400000000E-02 0.  1.
         23    2    1    2    0    0  0.00000000000E+00  0.00000000000E+00 -0.63201162005E+03  0.63861863672E+03  0.91624643492E+02 0.  0.
    9000005    2    3    3    0    0 -0.16884540653E+02 -0.41122386741E+02 -0.38759505038E+03  0.39019239429E+03  0.66364955835E+01 0.  0.
         22    1    3    3    0    0  0.16884540653E+02  0.41122386741E+02 -0.24441656966E+03  0.24842624244E+03  0.00000000000E+00 0.  1.
         22    1    4    4    0    0 -0.85633797341E+01 -0.27824014804E+02 -0.26655086340E+03  0.26813591713E+03  0.00000000000E+00 0. -1.
         22    1    4    4    0    0 -0.83211609188E+01 -0.13298371937E+02 -0.12104418698E+03  0.12205647716E+03  0.00000000000E+00 0. -1.
<mgrwt>
<rscale>  0 0.91624643E+02</rscale>
<asrwt>0</asrwt>
<pdfrwt beam="1">  1        1 0.50823255E-03 0.91624643E+02</pdfrwt>
<pdfrwt beam="2">  1       -1 0.97740692E-01 0.91624643E+02</pdfrwt>
<totfact> 0.39355068E+04</totfact>
</mgrwt>
</event>
<event>
 7    1  0.2911475E-009  0.9212909E+02  0.7818608E-02  0.1297776E+00
         -1   -1    0    0    0  501 -0.00000000000E+00  0.00000000000E+00  0.43355120177E+02  0.43355120470E+02  0.50400000000E-02 0.  1.
          1   -1    0    0  501    0  0.00000000000E+00 -0.00000000000E+00 -0.48943286157E+02  0.48943286417E+02  0.50400000000E-02 0. -1.
         23    2    1    2    0    0  0.44408920985E-15 -0.71054273576E-14 -0.55881659807E+01  0.92298406886E+02  0.92129085064E+02 0.  0.
    9000005    2    3    3    0    0 -0.37562652271E+01 -0.45456418675E+02 -0.82613548317E+01  0.46608785900E+02  0.48716950063E+01 0.  0.
         22    1    3    3    0    0  0.37562652271E+01  0.45456418675E+02  0.26731888510E+01  0.45689620986E+02  0.00000000000E+00 0. -1.
         22    1    4    4    0    0 -0.41758380388E+01 -0.36433897282E+02 -0.81919394947E+01  0.37576247380E+02  0.00000000000E+00 0.  1.
         22    1    4    4    0    0  0.41957281170E+00 -0.90225213933E+01 -0.69415337043E-01  0.90325385206E+01  0.00000000000E+00 0.  1.
<mgrwt>
<rscale>  0 0.92129085E+02</rscale>
<asrwt>0</asrwt>
<pdfrwt beam="2">  1        1 0.75297364E-02 0.92129085E+02</pdfrwt>
<pdfrwt beam="1">  1       -1 0.66700185E-02 0.92129085E+02</pdfrwt>
<totfact> 0.90781161E+04</totfact>
</mgrwt>
</event>
<event>
 7    1  0.2911475E-009  0.8651649E+02  0.7818608E-02  0.1311514E+00
         -1   -1    0    0    0  501 -0.00000000000E+00  0.00000000000E+00  0.12812333694E+02  0.12812334685E+02  0.50400000000E-02 0.  1.
          1   -1    0    0  501    0  0.00000000000E+00 -0.00000000000E+00 -0.14605267803E+03  0.14605267812E+03  0.50400000000E-02 0. -1.
         23    2    1    2    0    0 -0.88817841970E-15 -0.71054273576E-14 -0.13324034434E+03  0.15886501280E+03  0.86516489374E+02 0.  0.
    9000005    2    3    3    0    0 -0.71170800383E+01 -0.38716011312E+02 -0.39774472532E+02  0.57447797536E+02  0.12986855519E+02 0.  0.
         22    1    3    3    0    0  0.71170800383E+01  0.38716011312E+02 -0.93465871803E+02  0.10141721527E+03  0.00000000000E+00 0. -1.
         22    1    4    4    0    0 -0.76522059278E+01 -0.39646526614E+02 -0.38745777236E+02  0.55961045217E+02  0.00000000000E+00 0. -1.
         22    1    4    4    0    0  0.53512588943E+00  0.93051530210E+00 -0.10286952959E+01  0.14867523185E+01  0.00000000000E+00 0. -1.
<mgrwt>
<rscale>  0 0.86516489E+02</rscale>
<asrwt>0</asrwt>
<pdfrwt beam="2">  1        1 0.22469642E-01 0.86516489E+02</pdfrwt>
<pdfrwt beam="1">  1       -1 0.19711284E-02 0.86516489E+02</pdfrwt>
<totfact> 0.12849385E+05</totfact>
</mgrwt>
</event>
<event>
 7    1  0.2911475E-009  0.9038893E+02  0.7818608E-02  0.1301913E+00
         -1   -1    0    0    0  501 -0.00000000000E+00  0.00000000000E+00  0.21167444271E+01  0.21167504273E+01  0.50400000000E-02 0.  1.
          1   -1    0    0  501    0  0.00000000000E+00 -0.00000000000E+00 -0.96494247093E+03  0.96494247094E+03  0.50400000000E-02 0. -1.
         23    2    1    2    0    0  0.00000000000E+00  0.00000000000E+00 -0.96282572650E+03  0.96705922137E+03  0.90388926433E+02 0.  0.
    9000005    2    3    3    0    0  0.68257530369E+01  0.19837999484E+02 -0.90921990534E+03  0.90949429116E+03  0.76741286240E+01 0.  0.
         22    1    3    3    0    0 -0.68257530369E+01 -0.19837999484E+02 -0.53605821155E+02  0.57564930207E+02  0.00000000000E+00 0.  1.
         22    1    4    4    0    0  0.36909158905E+01  0.19510517144E+01 -0.17721339834E+03  0.17726256800E+03  0.00000000000E+00 0.  1.
         22    1    4    4    0    0  0.31348371464E+01  0.17886947769E+02 -0.73200650700E+03  0.73223172316E+03  0.00000000000E+00 0.  1.
<mgrwt>
<rscale>  0 0.90388926E+02</rscale>
<asrwt>0</asrwt>
<pdfrwt beam="2">  1        1 0.14845234E+00 0.90388926E+02</pdfrwt>
<pdfrwt beam="1">  1       -1 0.32565422E-03 0.90388926E+02</pdfrwt>
<totfact> 0.14041273E+05</totfact>
</mgrwt>
</event>
<event>
 7    1  0.3169354E-009  0.9425338E+02  0.7818608E-02  0.1292867E+00
         -1   -1    0    0    0  501 -0.00000000000E+00  0.00000000000E+00  0.15479360216E+02  0.15479361037E+02  0.50400000000E-02 0.  1.
          1   -1    0    0  501    0  0.00000000000E+00 -0.00000000000E+00 -0.14347654095E+03  0.14347654104E+03  0.50400000000E-02 0. -1.
         23    2    1    2    0    0  0.00000000000E+00  0.00000000000E+00 -0.12799718073E+03  0.15895590207E+03  0.94253384707E+02 0.  0.
    9000005    2    3    3    0    0  0.35437023527E+02 -0.23413031950E+02 -0.34684766642E+02  0.56431956945E+02  0.13325915580E+02 0.  0.
         22    1    3    3    0    0 -0.35437023527E+02  0.23413031950E+02 -0.93312414089E+02  0.10252394513E+03  0.00000000000E+00 0. -1.
         22    1    4    4    0    0  0.38017043911E+01 -0.88789389355E-01 -0.81954521873E+01  0.90347261379E+01  0.00000000000E+00 0. -1.
         22    1    4    4    0    0  0.31635319136E+02 -0.23324242561E+02 -0.26489314455E+02  0.47397230807E+02  0.00000000000E+00 0. -1.
<mgrwt>
<rscale>  0 0.94253385E+02</rscale>
<asrwt>0</asrwt>
<pdfrwt beam="2">  1        1 0.22073313E-01 0.94253385E+02</pdfrwt>
<pdfrwt beam="1">  1       -1 0.23814402E-02 0.94253385E+02</pdfrwt>
<totfact> 0.10166496E+05</totfact>
</mgrwt>
</event>
<event>
 7    1  0.2911475E-009  0.9234586E+02  0.7818608E-02  0.1297268E+00
          1   -1    0    0  501    0  0.00000000000E+00  0.00000000000E+00  0.16913164917E+03  0.16913164924E+03  0.50400000000E-02 0.  1.
         -1   -1    0    0    0  501 -0.00000000000E+00 -0.00000000000E+00 -0.12605205290E+02  0.12605206297E+02  0.50400000000E-02 0. -1.
         23    2    1    2    0    0  0.00000000000E+00  0.00000000000E+00  0.15652644388E+03  0.18173685554E+03  0.92345855504E+02 0.  0.
    9000005    2    3    3    0    0  0.17204086627E+02  0.38869072807E+02  0.48169252365E+02  0.65340694220E+02  0.11930801743E+02 0.  0.
         22    1    3    3    0    0 -0.17204086627E+02 -0.38869072807E+02  0.10835719152E+03  0.11639616132E+03  0.00000000000E+00 0. -1.
         22    1    4    4    0    0  0.39179725396E+01  0.36111208652E+01  0.18684363888E+01  0.56463932968E+01  0.00000000000E+00 0.  1.
         22    1    4    4    0    0  0.13286114088E+02  0.35257951941E+02  0.46300815976E+02  0.59694300923E+02  0.00000000000E+00 0.  1.
<mgrwt>
<rscale>  0 0.92345856E+02</rscale>
<asrwt>0</asrwt>
<pdfrwt beam="1">  1        1 0.26020252E-01 0.92345856E+02</pdfrwt>
<pdfrwt beam="2">  1       -1 0.19392626E-02 0.92345856E+02</pdfrwt>
<totfact> 0.11079533E+05</totfact>
</mgrwt>
</event>
<event>
 7    1  0.2911475E-009  0.9044741E+02  0.7818608E-02  0.1301772E+00
         -1   -1    0    0    0  501 -0.00000000000E+00  0.00000000000E+00  0.53746140911E+01  0.53746164543E+01  0.50400000000E-02 0.  1.
          1   -1    0    0  501    0  0.00000000000E+00 -0.00000000000E+00 -0.38052652460E+03  0.38052652464E+03  0.50400000000E-02 0. -1.
         23    2    1    2    0    0  0.00000000000E+00  0.71054273576E-14 -0.37515191051E+03  0.38590114109E+03  0.90447414194E+02 0.  0.
    9000005    2    3    3    0    0  0.29629927765E+02  0.33448232326E+02 -0.19058500102E+03  0.19600206014E+03  0.98715805051E+01 0.  0.
         22    1    3    3    0    0 -0.29629927765E+02 -0.33448232326E+02 -0.18456690949E+03  0.18989908095E+03  0.00000000000E+00 0.  1.
         22    1    4    4    0    0  0.15704955896E+02  0.17251544984E+02 -0.78220721768E+02  0.81625625621E+02  0.00000000000E+00 0. -1.
         22    1    4    4    0    0  0.13924971869E+02  0.16196687342E+02 -0.11236427925E+03  0.11437643452E+03  0.00000000000E+00 0. -1.
<mgrwt>
<rscale>  0 0.90447414E+02</rscale>
<asrwt>0</asrwt>
<pdfrwt beam="2">  1        1 0.58542522E-01 0.90447414E+02</pdfrwt>
<pdfrwt beam="1">  1       -1 0.82686419E-03 0.90447414E+02</pdfrwt>
<totfact> 0.13665283E+05</totfact>
</mgrwt>
</event>
<event>
 7    1  0.2911475E-009  0.9173351E+02  0.7818608E-02  0.1298707E+00
          1   -1    0    0  501    0  0.00000000000E+00  0.00000000000E+00  0.26219694287E+03  0.26219694292E+03  0.50400000000E-02 0. -1.
         -1   -1    0    0    0  501 -0.00000000000E+00 -0.00000000000E+00 -0.80235830769E+01  0.80235846598E+01  0.50400000000E-02 0.  1.
         23    2    1    2    0    0  0.00000000000E+00  0.00000000000E+00  0.25417335980E+03  0.27022052758E+03  0.91733509125E+02 0.  0.
    9000005    2    3    3    0    0  0.43730816008E+02  0.50517271634E+01  0.10130142181E+03  0.11113648174E+03  0.12305904998E+02 0.  0.
         22    1    3    3    0    0 -0.43730816008E+02 -0.50517271634E+01  0.15287193799E+03  0.15908404584E+03  0.00000000000E+00 0. -1.
         22    1    4    4    0    0  0.28676170939E+02  0.36187343693E+01  0.51114433833E+02  0.58720553167E+02  0.00000000000E+00 0. -1.
         22    1    4    4    0    0  0.15054645069E+02  0.14329927941E+01  0.50186987972E+02  0.52415928573E+02  0.00000000000E+00 0. -1.
<mgrwt>
<rscale>  0 0.91733509E+02</rscale>
<asrwt>0</asrwt>
<pdfrwt beam="1">  1        1 0.40338004E-01 0.91733509E+02</pdfrwt>
<pdfrwt beam="2">  1       -1 0.12343971E-02 0.91733509E+02</pdfrwt>
<totfact> 0.12281126E+05</totfact>
</mgrwt>
</event>
<event>
 7    1  0.2911475E-009  0.8750322E+02  0.7818608E-02  0.1309013E+00
         -1   -1    0    0    0  501 -0.00000000000E+00  0.00000000000E+00  0.65072253100E+01  0.65072272618E+01  0.50400000000E-02 0.  1.
          1   -1    0    0  501    0  0.00000000000E+00 -0.00000000000E+00 -0.29416577235E+03  0.29416577240E+03  0.50400000000E-02 0. -1.
         23    2    1    2    0    0  0.35527136788E-14  0.00000000000E+00 -0.28765854704E+03  0.30067299966E+03  0.87503217292E+02 0.  0.
    9000005    2    3    3    0    0 -0.27713960133E+02  0.27980237802E+02 -0.80671381627E+02  0.89972634351E+02  0.60204505397E+01 0.  0.
         22    1    3    3    0    0  0.27713960133E+02 -0.27980237802E+02 -0.20698716542E+03  0.21070036531E+03  0.00000000000E+00 0. -1.
         22    1    4    4    0    0 -0.22702489007E+02  0.25788404064E+02 -0.70343572605E+02  0.78285777751E+02  0.00000000000E+00 0. -1.
         22    1    4    4    0    0 -0.50114711267E+01  0.21918337380E+01 -0.10327809022E+02  0.11686856600E+02  0.00000000000E+00 0. -1.
<mgrwt>
<rscale>  0 0.87503217E+02</rscale>
<asrwt>0</asrwt>
<pdfrwt beam="2">  1        1 0.45256263E-01 0.87503217E+02</pdfrwt>
<pdfrwt beam="1">  1       -1 0.10011120E-02 0.87503217E+02</pdfrwt>
<totfact> 0.14238662E+05</totfact>
</mgrwt>
</event>
<event>
 7    1  0.2911475E-009  0.9989149E+02  0.7818608E-02  0.1280524E+00
         -1   -1    0    0    0  501 -0.00000000000E+00  0.00000000000E+00  0.76757272919E+01  0.76757289466E+01  0.50400000000E-02 0.  1.
          1   -1    0    0  501    0  0.00000000000E+00 -0.00000000000E+00 -0.32499553752E+03  0.32499553756E+03  0.50400000000E-02 0. -1.
         23    2    1    2    0    0  0.88817841970E-15  0.17763568394E-14 -0.31731981023E+03  0.33267126650E+03  0.99891489103E+02 0.  0.
    9000005    2    3    3    0    0  0.51840697701E+01  0.11093525615E+02 -0.31977383772E+03  0.32018274614E+03  0.10570843946E+02 0.  0.
         22    1    3    3    0    0 -0.51840697701E+01 -0.11093525615E+02  0.24540274986E+01  0.12488520365E+02  0.00000000000E+00 0.  1.
         22    1    4    4    0    0  0.10079302069E+01  0.11536482220E+02 -0.19969668754E+03  0.20003218081E+03  0.00000000000E+00 0.  1.
         22    1    4    4    0    0  0.41761395632E+01 -0.44295660550E+00 -0.12007715018E+03  0.12015056533E+03  0.00000000000E+00 0.  1.
<mgrwt>
<rscale>  0 0.99891489E+02</rscale>
<asrwt>0</asrwt>
<pdfrwt beam="2">  1        1 0.49999303E-01 0.99891489E+02</pdfrwt>
<pdfrwt beam="1">  1       -1 0.11808815E-02 0.99891489E+02</pdfrwt>
<totfact> 0.10188280E+05</totfact>
</mgrwt>
</event>
<event>
 7    1  0.2911475E-009  0.9383728E+02  0.7818608E-02  0.1293816E+00
         -1   -1    0    0    0  501 -0.00000000000E+00  0.00000000000E+00  0.77959926021E+01  0.77959942313E+01  0.50400000000E-02 0.  1.
          1   -1    0    0  501    0  0.00000000000E+00 -0.00000000000E+00 -0.28237052673E+03  0.28237052678E+03  0.50400000000E-02 0. -1.
         23    2    1    2    0    0  0.00000000000E+00  0.00000000000E+00 -0.27457453413E+03  0.29016652101E+03  0.93837280019E+02 0.  0.
    9000005    2    3    3    0    0 -0.35930871759E+02 -0.10065739715E+02 -0.50451372260E+02  0.62958382184E+02  0.51059047122E+01 0.  0.
         22    1    3    3    0    0  0.35930871759E+02  0.10065739715E+02 -0.22412316187E+03  0.22720813882E+03  0.00000000000E+00 0. -1.
         22    1    4    4    0    0 -0.23647301465E+02 -0.91003314479E+01 -0.33603593320E+02  0.42085774118E+02  0.00000000000E+00 0. -1.
         22    1    4    4    0    0 -0.12283570294E+02 -0.96540826664E+00 -0.16847778940E+02  0.20872608066E+02  0.00000000000E+00 0. -1.
<mgrwt>
<rscale>  0 0.93837280E+02</rscale>
<asrwt>0</asrwt>
<pdfrwt beam="2">  1        1 0.43441612E-01 0.93837280E+02</pdfrwt>
<pdfrwt beam="1">  1       -1 0.11993838E-02 0.93837280E+02</pdfrwt>
<totfact> 0.11727077E+05</totfact>
</mgrwt>
</event>
<event>
 7    1  0.2911475E-009  0.9981639E+02  0.7818608E-02  0.1280683E+00
          1   -1    0    0  501    0  0.00000000000E+00  0.00000000000E+00  0.99831249514E+01  0.99831262236E+01  0.50400000000E-02 0. -1.
         -1   -1    0    0    0  501 -0.00000000000E+00 -0.00000000000E+00 -0.24950379445E+03  0.24950379450E+03  0.50400000000E-02 0.  1.
         23    2    1    2    0    0  0.00000000000E+00  0.88817841970E-15 -0.23952066950E+03  0.25948692073E+03  0.99816385980E+02 0.  0.
    9000005    2    3    3    0    0 -0.38317091581E+02 -0.79887873402E+01 -0.42150237704E+02  0.58272836782E+02  0.93306343639E+01 0.  0.
         22    1    3    3    0    0  0.38317091581E+02  0.79887873402E+01 -0.19737043180E+03  0.20121408395E+03  0.00000000000E+00 0.  1.
         22    1    4    4    0    0 -0.32470365855E+02 -0.47538716451E+01 -0.38739227177E+02  0.50770578848E+02  0.00000000000E+00 0. -1.
         22    1    4    4    0    0 -0.58467257265E+01 -0.32349156951E+01 -0.34110105275E+01  0.75022579331E+01  0.00000000000E+00 0. -1.
<mgrwt>
<rscale>  0 0.99816386E+02</rscale>
<asrwt>0</asrwt>
<pdfrwt beam="1">  1        1 0.15358657E-02 0.99816386E+02</pdfrwt>
<pdfrwt beam="2">  1       -1 0.38385194E-01 0.99816386E+02</pdfrwt>
<totfact> 0.51123675E+04</totfact>
</mgrwt>
</event>
<event>
 7    1  0.2911475E-009  0.9158188E+02  0.7818608E-02  0.1299066E+00
         -1   -1    0    0    0  501 -0.00000000000E+00  0.00000000000E+00  0.24890445621E+03  0.24890445626E+03  0.50400000000E-02 0.  1.
          1   -1    0    0  501    0  0.00000000000E+00 -0.00000000000E+00 -0.84241565091E+01  0.84241580168E+01  0.50400000000E-02 0. -1.
         23    2    1    2    0    0  0.00000000000E+00  0.00000000000E+00  0.24048029970E+03  0.25732861427E+03  0.91581882388E+02 0.  0.
    9000005    2    3    3    0    0 -0.31498345747E+02 -0.11971877928E+02  0.40104432148E+02  0.54139146186E+02  0.13682471483E+02 0.  0.
         22    1    3    3    0    0  0.31498345747E+02  0.11971877928E+02  0.20037586755E+03  0.20318946809E+03  0.00000000000E+00 0.  1.
         22    1    4    4    0    0 -0.22325207489E+02 -0.79477443374E+01  0.36450230252E+02  0.43476439767E+02  0.00000000000E+00 0. -1.
         22    1    4    4    0    0 -0.91731382584E+01 -0.40241335905E+01  0.36542018963E+01  0.10662706418E+02  0.00000000000E+00 0. -1.
<mgrwt>
<rscale>  0 0.91581882E+02</rscale>
<asrwt>0</asrwt>
<pdfrwt beam="2">  1        1 0.12960245E-02 0.91581882E+02</pdfrwt>
<pdfrwt beam="1">  1       -1 0.38292983E-01 0.91581882E+02</pdfrwt>
<totfact> 0.64114238E+04</totfact>
</mgrwt>
</event>
<event>
 7    1  0.2911475E-009  0.6893505E+02  0.7818608E-02  0.1363752E+00
          1   -1    0    0  501    0  0.00000000000E+00  0.00000000000E+00  0.34234831366E+02  0.34234831736E+02  0.50400000000E-02 0. -1.
         -1   -1    0    0    0  501 -0.00000000000E+00 -0.00000000000E+00 -0.34701795525E+02  0.34701795891E+02  0.50400000000E-02 0.  1.
         23    2    1    2    0    0  0.88817841970E-15  0.00000000000E+00 -0.46696415992E+00  0.68936627628E+02  0.68935046045E+02 0.  0.
    9000005    2    3    3    0    0  0.74907789753E+01 -0.26115281379E+02  0.19918752430E+02  0.34970510216E+02  0.93840393860E+01 0.  0.
         22    1    3    3    0    0 -0.74907789753E+01  0.26115281379E+02 -0.20385716590E+02  0.33966117412E+02  0.00000000000E+00 0.  1.
         22    1    4    4    0    0  0.48059268818E+01 -0.25456993321E+02  0.18692942739E+02  0.31946542073E+02  0.00000000000E+00 0. -1.
         22    1    4    4    0    0  0.26848520935E+01 -0.65828805800E+00  0.12258096910E+01  0.30239681430E+01  0.00000000000E+00 0. -1.
<mgrwt>
<rscale>  0 0.68935046E+02</rscale>
<asrwt>0</asrwt>
<pdfrwt beam="1">  1        1 0.52668972E-02 0.68935046E+02</pdfrwt>
<pdfrwt beam="2">  1       -1 0.53387378E-02 0.68935046E+02</pdfrwt>
<totfact> 0.19248594E+05</totfact>
</mgrwt>
</event>
<event>
 7    1  0.2911475E-009  0.9155247E+02  0.7818608E-02  0.1299135E+00
          1   -1    0    0  501    0  0.00000000000E+00  0.00000000000E+00  0.69510984483E+02  0.69510984666E+02  0.50400000000E-02 0. -1.
         -1   -1    0    0    0  501 -0.00000000000E+00 -0.00000000000E+00 -0.30145788698E+02  0.30145789119E+02  0.50400000000E-02 0.  1.
         23    2    1    2    0    0 -0.88817841970E-15  0.00000000000E+00  0.39365195785E+02  0.99656773785E+02  0.91552465407E+02 0.  0.
    9000005    2    3    3    0    0 -0.53280549639E+01  0.14187848136E+02 -0.26474914037E+02  0.32094926076E+02  0.99739662203E+01 0.  0.
         22    1    3    3    0    0  0.53280549639E+01 -0.14187848136E+02  0.65840109822E+02  0.67561847709E+02  0.00000000000E+00 0. -1.
         22    1    4    4    0    0 -0.36197099344E+01  0.10679897491E+00 -0.31696740268E+01  0.48125398145E+01  0.00000000000E+00 0.  1.
         22    1    4    4    0    0 -0.17083450295E+01  0.14081049161E+02 -0.23305240010E+02  0.27282386262E+02  0.00000000000E+00 0.  1.
<mgrwt>
<rscale>  0 0.91552465E+02</rscale>
<asrwt>0</asrwt>
<pdfrwt beam="1">  1        1 0.10693998E-01 0.91552465E+02</pdfrwt>
<pdfrwt beam="2">  1       -1 0.46378137E-02 0.91552465E+02</pdfrwt>
<totfact> 0.97447407E+04</totfact>
</mgrwt>
</event>
<event>
 7    1  0.2911475E-009  0.8983723E+02  0.7818608E-02  0.1303246E+00
         -1   -1    0    0    0  501 -0.00000000000E+00  0.00000000000E+00  0.15963898529E+01  0.15963978088E+01  0.50400000000E-02 0.  1.
          1   -1    0    0  501    0  0.00000000000E+00 -0.00000000000E+00 -0.12638999693E+04  0.12638999693E+04  0.50400000000E-02 0. -1.
         23    2    1    2    0    0  0.35527136788E-14  0.00000000000E+00 -0.12623035794E+04  0.12654963671E+04  0.89837233405E+02 0.  0.
    9000005    2    3    3    0    0 -0.22095832774E+02 -0.18410665862E+02 -0.11143127329E+04  0.11147367270E+04  0.10859339474E+02 0.  0.
         22    1    3    3    0    0  0.22095832774E+02  0.18410665862E+02 -0.14799084653E+03  0.15075964015E+03  0.00000000000E+00 0.  1.
         22    1    4    4    0    0 -0.25028157573E+01 -0.85677818824E+00 -0.27300137893E+03  0.27301419570E+03  0.00000000000E+00 0. -1.
         22    1    4    4    0    0 -0.19593017017E+02 -0.17553887674E+02 -0.84131135398E+03  0.84172253126E+03  0.00000000000E+00 0. -1.
<mgrwt>
<rscale>  0 0.89837233E+02</rscale>
<asrwt>0</asrwt>
<pdfrwt beam="2">  1        1 0.19444535E+00 0.89837233E+02</pdfrwt>
<pdfrwt beam="1">  1       -1 0.24560006E-03 0.89837233E+02</pdfrwt>
<totfact> 0.12896034E+05</totfact>
</mgrwt>
</event>
<event>
 6    1  0.2911475E-009  0.1928039E+03  0.7818608E-02  0.1155956E+00
          1   -1    0    0  501    0  0.00000000000E+00  0.00000000000E+00  0.19802379110E+03  0.19802379116E+03  0.50400000000E-02 0. -1.
         -1   -1    0    0    0  501 -0.00000000000E+00 -0.00000000000E+00 -0.46930382751E+02  0.46930383021E+02  0.50400000000E-02 0.  1.
    9000005    2    1    2    0    0 -0.28637209528E+02 -0.85489490318E+02  0.11887975358E+03  0.14921357528E+03  0.19371402785E+01 0.  0.
         22    1    1    2    0    0  0.28637209528E+02  0.85489490318E+02  0.32213654764E+02  0.95740598899E+02  0.00000000000E+00 0.  1.
         22    1    3    3    0    0 -0.25531608482E+02 -0.74448145316E+02  0.10322986052E+03  0.12981060617E+03  0.00000000000E+00 0. -1.
         22    1    3    3    0    0 -0.31056010455E+01 -0.11041345001E+02  0.15649893064E+02  0.19402969108E+02  0.00000000000E+00 0. -1.
<mgrwt>
<rscale>  0 0.19280386E+03</rscale>
<asrwt>0</asrwt>
<pdfrwt beam="1">  1        1 0.30465198E-01 0.19280386E+03</pdfrwt>
<pdfrwt beam="2">  1       -1 0.72200590E-02 0.19280386E+03</pdfrwt>
<totfact> 0.14425189E+04</totfact>
</mgrwt>
</event>
<event>
 7    1  0.2911475E-009  0.9191639E+02  0.7818608E-02  0.1298276E+00
          1   -1    0    0  501    0  0.00000000000E+00  0.00000000000E+00  0.43269699884E+01  0.43269729237E+01  0.50400000000E-02 0. -1.
         -1   -1    0    0    0  501 -0.00000000000E+00 -0.00000000000E+00 -0.48813722947E+03  0.48813722949E+03  0.50400000000E-02 0.  1.
         23    2    1    2    0    0  0.71054273576E-14  0.00000000000E+00 -0.48381025948E+03  0.49246420241E+03  0.91916393995E+02 0.  0.
    9000005    2    3    3    0    0  0.34188922126E+02 -0.17309559126E+02 -0.37670177622E+03  0.37870687114E+03  0.67943217496E+01 0.  0.
         22    1    3    3    0    0 -0.34188922126E+02  0.17309559126E+02 -0.10710848326E+03  0.11375733128E+03  0.00000000000E+00 0. -1.
         22    1    4    4    0    0  0.83762392314E+01 -0.15186376895E+01 -0.69899505442E+02  0.70415967685E+02  0.00000000000E+00 0. -1.
         22    1    4    4    0    0  0.25812682894E+02 -0.15790921436E+02 -0.30680227078E+03  0.30829090345E+03  0.00000000000E+00 0. -1.
<mgrwt>
<rscale>  0 0.91916394E+02</rscale>
<asrwt>0</asrwt>
<pdfrwt beam="1">  1        1 0.66568830E-03 0.91916394E+02</pdfrwt>
<pdfrwt beam="2">  1       -1 0.75097992E-01 0.91916394E+02</pdfrwt>
<totfact> 0.46735388E+04</totfact>
</mgrwt>
</event>
<event>
 7    1  0.2911475E-009  0.9231211E+02  0.7818608E-02  0.1297347E+00
         -1   -1    0    0    0  501 -0.00000000000E+00  0.00000000000E+00  0.44902532996E+02  0.44902533279E+02  0.50400000000E-02 0.  1.
          1   -1    0    0  501    0  0.00000000000E+00 -0.00000000000E+00 -0.47444566174E+02  0.47444566441E+02  0.50400000000E-02 0. -1.
         23    2    1    2    0    0  0.00000000000E+00  0.00000000000E+00 -0.25420331779E+01  0.92347099720E+02  0.92312105891E+02 0.  0.
    9000005    2    3    3    0    0 -0.48191873731E+01  0.42543099822E+02 -0.14894246132E+02  0.47785714259E+02  0.15116084481E+02 0.  0.
         22    1    3    3    0    0  0.48191873731E+01 -0.42543099822E+02  0.12352212954E+02  0.44561385461E+02  0.00000000000E+00 0.  1.
         22    1    4    4    0    0 -0.82577989704E+01  0.13953370737E+02 -0.23774283317E+01  0.16387189028E+02  0.00000000000E+00 0.  1.
         22    1    4    4    0    0  0.34386115974E+01  0.28589729084E+02 -0.12516817800E+02  0.31398525231E+02  0.00000000000E+00 0.  1.
<mgrwt>
<rscale>  0 0.92312106E+02</rscale>
<asrwt>0</asrwt>
<pdfrwt beam="2">  1        1 0.72991641E-02 0.92312106E+02</pdfrwt>
<pdfrwt beam="1">  1       -1 0.69080821E-02 0.92312106E+02</pdfrwt>
<totfact> 0.89852205E+04</totfact>
</mgrwt>
</event>
<event>
 7    1  0.2911475E-009  0.9552376E+02  0.7818608E-02  0.1290001E+00
          1   -1    0    0  501    0  0.00000000000E+00  0.00000000000E+00  0.14500780541E+03  0.14500780550E+03  0.50400000000E-02 0. -1.
         -1   -1    0    0    0  501 -0.00000000000E+00 -0.00000000000E+00 -0.15731547826E+02  0.15731548633E+02  0.50400000000E-02 0.  1.
         23    2    1    2    0    0  0.00000000000E+00  0.00000000000E+00  0.12927625758E+03  0.16073935413E+03  0.95523762445E+02 0.  0.
    9000005    2    3    3    0    0  0.47375635887E+01  0.38052634257E+02  0.11177012753E+03  0.11858591925E+03  0.99805488073E+01 0.  0.
         22    1    3    3    0    0 -0.47375635887E+01 -0.38052634257E+02  0.17506130058E+02  0.42153434881E+02  0.00000000000E+00 0.  1.
         22    1    4    4    0    0  0.36059254041E+01  0.16391771061E+02  0.35094340696E+02  0.38901228842E+02  0.00000000000E+00 0.  1.
         22    1    4    4    0    0  0.11316381846E+01  0.21660863196E+02  0.76675786831E+02  0.79684690408E+02  0.00000000000E+00 0.  1.
<mgrwt>
<rscale>  0 0.95523762E+02</rscale>
<asrwt>0</asrwt>
<pdfrwt beam="1">  1        1 0.22308893E-01 0.95523762E+02</pdfrwt>
<pdfrwt beam="2">  1       -1 0.24202382E-02 0.95523762E+02</pdfrwt>
<totfact> 0.98228756E+04</totfact>
</mgrwt>
</event>
<event>
 7    1  0.2911475E-009  0.9478237E+02  0.7818608E-02  0.1291667E+00
         -1   -1    0    0    0  501 -0.00000000000E+00  0.00000000000E+00  0.10519082724E+02  0.10519083931E+02  0.50400000000E-02 0.  1.
          1   -1    0    0  501    0  0.00000000000E+00 -0.00000000000E+00 -0.21350953441E+03  0.21350953447E+03  0.50400000000E-02 0. -1.
         23    2    1    2    0    0 -0.35527136788E-14  0.00000000000E+00 -0.20299045168E+03  0.22402861840E+03  0.94782373819E+02 0.  0.
    9000005    2    3    3    0    0  0.26406878739E+02  0.34133296613E+02 -0.62748661420E+02  0.77297009947E+02  0.13229816866E+02 0.  0.
         22    1    3    3    0    0 -0.26406878739E+02 -0.34133296613E+02 -0.14024179026E+03  0.14673160845E+03  0.00000000000E+00 0. -1.
         22    1    4    4    0    0  0.12942561871E+02  0.11988729200E+02 -0.35786448136E+02  0.39898739401E+02  0.00000000000E+00 0. -1.
         22    1    4    4    0    0  0.13464316868E+02  0.22144567414E+02 -0.26962213285E+02  0.37398270547E+02  0.00000000000E+00 0. -1.
<mgrwt>
<rscale>  0 0.94782374E+02</rscale>
<asrwt>0</asrwt>
<pdfrwt beam="2">  1        1 0.32847618E-01 0.94782374E+02</pdfrwt>
<pdfrwt beam="1">  1       -1 0.16183207E-02 0.94782374E+02</pdfrwt>
<totfact> 0.10805628E+05</totfact>
</mgrwt>
</event>
<event>
 7    1  0.2911475E-009  0.9150299E+02  0.7818608E-02  0.1299252E+00
         -1   -1    0    0    0  501 -0.00000000000E+00  0.00000000000E+00  0.53968755792E+01  0.53968779325E+01  0.50400000000E-02 0.  1.
          1   -1    0    0  501    0  0.00000000000E+00 -0.00000000000E+00 -0.38785380464E+03  0.38785380467E+03  0.50400000000E-02 0. -1.
         23    2    1    2    0    0  0.00000000000E+00  0.00000000000E+00 -0.38245692906E+03  0.39325068260E+03  0.91502987835E+02 0.  0.
    9000005    2    3    3    0    0 -0.16154445605E+02 -0.25376658651E+02 -0.33934801946E+03  0.34068340187E+03  0.17779424912E+01 0.  0.
         22    1    3    3    0    0  0.16154445605E+02  0.25376658651E+02 -0.43108909596E+02  0.52567280733E+02  0.00000000000E+00 0.  1.
         22    1    4    4    0    0 -0.19988390055E+01 -0.43408509967E+01 -0.54592159431E+02  0.54800932620E+02  0.00000000000E+00 0.  1.
         22    1    4    4    0    0 -0.14155606600E+02 -0.21035807655E+02 -0.28475586003E+03  0.28588246925E+03  0.00000000000E+00 0.  1.
<mgrwt>
<rscale>  0 0.91502988E+02</rscale>
<asrwt>0</asrwt>
<pdfrwt beam="2">  1        1 0.59669795E-01 0.91502988E+02</pdfrwt>
<pdfrwt beam="1">  1       -1 0.83028904E-03 0.91502988E+02</pdfrwt>
<totfact> 0.13293512E+05</totfact>
</mgrwt>
</event>
<event>
 7    1  0.2911475E-009  0.9061523E+02  0.7818608E-02  0.1301369E+00
         -1   -1    0    0    0  501 -0.00000000000E+00  0.00000000000E+00  0.97432890814E+02  0.97432890945E+02  0.50400000000E-02 0.  1.
          1   -1    0    0  501    0  0.00000000000E+00 -0.00000000000E+00 -0.21068654204E+02  0.21068654806E+02  0.50400000000E-02 0. -1.
         23    2    1    2    0    0  0.17763568394E-14  0.00000000000E+00  0.76364236611E+02  0.11850154575E+03  0.90615228920E+02 0.  0.
    9000005    2    3    3    0    0  0.92310393362E+01  0.23059418244E+02  0.87144869799E+02  0.91424416862E+02  0.12134529630E+02 0.  0.
         22    1    3    3    0    0 -0.92310393362E+01 -0.23059418244E+02 -0.10780633188E+02  0.27077128889E+02  0.00000000000E+00 0. -1.
         22    1    4    4    0    0  0.22916245132E+00  0.15320194563E+02  0.57079953767E+02  0.59100609125E+02  0.00000000000E+00 0. -1.
         22    1    4    4    0    0  0.90018768849E+01  0.77392236809E+01  0.30064916032E+02  0.32323807737E+02  0.00000000000E+00 0. -1.
<mgrwt>
<rscale>  0 0.90615229E+02</rscale>
<asrwt>0</asrwt>
<pdfrwt beam="2">  1        1 0.32413314E-02 0.90615229E+02</pdfrwt>
<pdfrwt beam="1">  1       -1 0.14989676E-01 0.90615229E+02</pdfrwt>
<totfact> 0.83072351E+04</totfact>
</mgrwt>
</event>
<event>
 7    1  0.2911475E-009  0.9175979E+02  0.7818608E-02  0.1298645E+00
         -1   -1    0    0    0  501 -0.00000000000E+00  0.00000000000E+00  0.15281177378E+03  0.15281177386E+03  0.50400000000E-02 0.  1.
          1   -1    0    0  501    0  0.00000000000E+00 -0.00000000000E+00 -0.13774884492E+02  0.13774885414E+02  0.50400000000E-02 0. -1.
         23    2    1    2    0    0  0.00000000000E+00  0.00000000000E+00  0.13903688929E+03  0.16658665928E+03  0.91759786761E+02 0.  0.
    9000005    2    3    3    0    0 -0.37017730537E+02  0.17323573394E+02  0.10710935242E+03  0.11472351071E+03  0.43187919136E+01 0.  0.
         22    1    3    3    0    0  0.37017730537E+02 -0.17323573394E+02  0.31927536863E+02  0.51863148567E+02  0.00000000000E+00 0. -1.
         22    1    4    4    0    0 -0.20285316367E+01  0.81010124514E+00  0.89885038828E+01  0.92501030631E+01  0.00000000000E+00 0. -1.
         22    1    4    4    0    0 -0.34989198900E+02  0.16513472149E+02  0.98120848542E+02  0.10547340765E+03  0.00000000000E+00 0. -1.
<mgrwt>
<rscale>  0 0.91759787E+02</rscale>
<asrwt>0</asrwt>
<pdfrwt beam="2">  1        1 0.21192130E-02 0.91759787E+02</pdfrwt>
<pdfrwt beam="1">  1       -1 0.23509505E-01 0.91759787E+02</pdfrwt>
<totfact> 0.73238781E+04</totfact>
</mgrwt>
</event>
<event>
 7    1  0.2911475E-009  0.9132504E+02  0.7818608E-02  0.1299674E+00
         -1   -1    0    0    0  501 -0.00000000000E+00  0.00000000000E+00  0.92527172935E+01  0.92527186662E+01  0.50400000000E-02 0.  1.
          1   -1    0    0  501    0  0.00000000000E+00 -0.00000000000E+00 -0.22534631485E+03  0.22534631491E+03  0.50400000000E-02 0. -1.
         23    2    1    2    0    0  0.00000000000E+00  0.00000000000E+00 -0.21609359756E+03  0.23459903357E+03  0.91325043927E+02 0.  0.
    9000005    2    3    3    0    0 -0.24575945870E+02  0.14748796915E+02 -0.19876590020E+03  0.20110644900E+03  0.10696570529E+02 0.  0.
         22    1    3    3    0    0  0.24575945870E+02 -0.14748796915E+02 -0.17327697361E+02  0.33492584577E+02  0.00000000000E+00 0.  1.
         22    1    4    4    0    0 -0.12250134739E+02  0.12674437311E+02 -0.98535730022E+02  0.10009993633E+03  0.00000000000E+00 0. -1.
         22    1    4    4    0    0 -0.12325811130E+02  0.20743596041E+01 -0.10023017017E+03  0.10100651267E+03  0.00000000000E+00 0. -1.
<mgrwt>
<rscale>  0 0.91325044E+02</rscale>
<asrwt>0</asrwt>
<pdfrwt beam="2">  1        1 0.34668660E-01 0.91325044E+02</pdfrwt>
<pdfrwt beam="1">  1       -1 0.14234952E-02 0.91325044E+02</pdfrwt>
<totfact> 0.12066404E+05</totfact>
</mgrwt>
</event>
<event>
 7    1  0.2911475E-009  0.9383097E+02  0.7818608E-02  0.1293831E+00
         -1   -1    0    0    0  501 -0.00000000000E+00  0.00000000000E+00  0.16802044649E+03  0.16802044656E+03  0.50400000000E-02 0.  1.
          1   -1    0    0  501    0  0.00000000000E+00 -0.00000000000E+00 -0.13099968421E+02  0.13099969390E+02  0.50400000000E-02 0. -1.
         23    2    1    2    0    0  0.00000000000E+00  0.00000000000E+00  0.15492047806E+03  0.18112041595E+03  0.93830967972E+02 0.  0.
    9000005    2    3    3    0    0  0.23770103917E+02  0.39802794445E+02  0.74881490176E+02  0.88624362694E+02  0.98873558692E+01 0.  0.
         22    1    3    3    0    0 -0.23770103917E+02 -0.39802794445E+02  0.80038987889E+02  0.92496053257E+02  0.00000000000E+00 0. -1.
         22    1    4    4    0    0  0.58006123582E+01  0.17282464890E+02  0.34476137573E+02  0.38999163560E+02  0.00000000000E+00 0. -1.
         22    1    4    4    0    0  0.17969491558E+02  0.22520329556E+02  0.40405352603E+02  0.49625199134E+02  0.00000000000E+00 0. -1.
<mgrwt>
<rscale>  0 0.93830968E+02</rscale>
<asrwt>0</asrwt>
<pdfrwt beam="2">  1        1 0.20153798E-02 0.93830968E+02</pdfrwt>
<pdfrwt beam="1">  1       -1 0.25849300E-01 0.93830968E+02</pdfrwt>
<totfact> 0.67516609E+04</totfact>
</mgrwt>
</event>
<event>
 7    1  0.2911475E-009  0.9119101E+02  0.7818608E-02  0.1299993E+00
          1   -1    0    0  501    0  0.00000000000E+00  0.00000000000E+00  0.30733965029E+02  0.30733965442E+02  0.50400000000E-02 0. -1.
         -1   -1    0    0    0  501 -0.00000000000E+00 -0.00000000000E+00 -0.67643410786E+02  0.67643410974E+02  0.50400000000E-02 0.  1.
         23    2    1    2    0    0  0.00000000000E+00  0.35527136788E-14 -0.36909445758E+02  0.98377376416E+02  0.91191013836E+02 0.  0.
    9000005    2    3    3    0    0  0.33906573592E+02  0.22172409402E+02  0.47843685868E+00  0.43249114717E+02  0.15132268517E+02 0.  0.
         22    1    3    3    0    0 -0.33906573592E+02 -0.22172409402E+02 -0.37387882617E+02  0.55128261699E+02  0.00000000000E+00 0.  1.
         22    1    4    4    0    0  0.37315028843E+01  0.46700424382E+01 -0.51796112964E+01  0.79096007062E+01  0.00000000000E+00 0. -1.
         22    1    4    4    0    0  0.30175070708E+02  0.17502366964E+02  0.56580481551E+01  0.35339514010E+02  0.00000000000E+00 0. -1.
<mgrwt>
<rscale>  0 0.91191014E+02</rscale>
<asrwt>0</asrwt>
<pdfrwt beam="1">  1        1 0.47283024E-02 0.91191014E+02</pdfrwt>
<pdfrwt beam="2">  1       -1 0.10406679E-01 0.91191014E+02</pdfrwt>
<totfact> 0.86983199E+04</totfact>
</mgrwt>
</event>
<event>
 7    1  0.2911475E-009  0.9088517E+02  0.7818608E-02  0.1300722E+00
         -1   -1    0    0    0  501 -0.00000000000E+00  0.00000000000E+00  0.13903226900E+02  0.13903227814E+02  0.50400000000E-02 0.  1.
          1   -1    0    0  501    0  0.00000000000E+00 -0.00000000000E+00 -0.14852872116E+03  0.14852872125E+03  0.50400000000E-02 0. -1.
         23    2    1    2    0    0  0.00000000000E+00 -0.35527136788E-14 -0.13462549426E+03  0.16243194906E+03  0.90885171346E+02 0.  0.
    9000005    2    3    3    0    0 -0.34288146662E+01  0.18907692762E+02 -0.14077519073E+03  0.14225581508E+03  0.70572646205E+01 0.  0.
         22    1    3    3    0    0  0.34288146662E+01 -0.18907692762E+02  0.61496964703E+01  0.20176133977E+02  0.00000000000E+00 0.  1.
         22    1    4    4    0    0 -0.51588787267E+01  0.17110930080E+02 -0.12773987936E+03  0.12898400962E+03  0.00000000000E+00 0.  1.
         22    1    4    4    0    0  0.17300640605E+01  0.17967626823E+01 -0.13035311373E+02  0.13271805468E+02  0.00000000000E+00 0.  1.
<mgrwt>
<rscale>  0 0.90885171E+02</rscale>
<asrwt>0</asrwt>
<pdfrwt beam="2">  1        1 0.22850571E-01 0.90885171E+02</pdfrwt>
<pdfrwt beam="1">  1       -1 0.21389582E-02 0.90885171E+02</pdfrwt>
<totfact> 0.11290163E+05</totfact>
</mgrwt>
</event>
<event>
 7    1  0.2911475E-009  0.8881547E+02  0.7818608E-02  0.1305746E+00
         -1   -1    0    0    0  501 -0.00000000000E+00  0.00000000000E+00  0.62779875345E+03  0.62779875347E+03  0.50400000000E-02 0.  1.
          1   -1    0    0  501    0  0.00000000000E+00 -0.00000000000E+00 -0.31412066372E+01  0.31412106805E+01  0.50400000000E-02 0. -1.
         23    2    1    2    0    0 -0.35527136788E-14 -0.35527136788E-14  0.62465754681E+03  0.63093996415E+03  0.88815469217E+02 0.  0.
    9000005    2    3    3    0    0 -0.24692760698E+02 -0.27436006248E+02  0.47938294456E+03  0.48104941432E+03  0.15429342503E+02 0.  0.
         22    1    3    3    0    0  0.24692760698E+02  0.27436006248E+02  0.14527460225E+03  0.14989054983E+03  0.00000000000E+00 0. -1.
         22    1    4    4    0    0 -0.24060646174E+02 -0.21072077300E+02  0.33455526630E+03  0.33608060543E+03  0.00000000000E+00 0. -1.
         22    1    4    4    0    0 -0.63211452412E+00 -0.63639289472E+01  0.14482767826E+03  0.14496880889E+03  0.00000000000E+00 0. -1.
<mgrwt>
<rscale>  0 0.88815469E+02</rscale>
<asrwt>0</asrwt>
<pdfrwt beam="2">  1        1 0.48326290E-03 0.88815469E+02</pdfrwt>
<pdfrwt beam="1">  1       -1 0.96584419E-01 0.88815469E+02</pdfrwt>
<totfact> 0.43096485E+04</totfact>
</mgrwt>
</event>
<event>
 7    1  0.2911475E-009  0.9244472E+02  0.7818608E-02  0.1297037E+00
          1   -1    0    0  501    0  0.00000000000E+00  0.00000000000E+00  0.35112639514E+01  0.35112675686E+01  0.50400000000E-02 0. -1.
         -1   -1    0    0    0  501 -0.00000000000E+00 -0.00000000000E+00 -0.60847195881E+03  0.60847195883E+03  0.50400000000E-02 0.  1.
         23    2    1    2    0    0 -0.17763568394E-14  0.00000000000E+00 -0.60496069485E+03  0.61198322640E+03  0.92444724406E+02 0.  0.
    9000005    2    3    3    0    0  0.11048098784E+02 -0.63941320097E+01 -0.59631843929E+03  0.59656784472E+03  0.11600297680E+02 0.  0.
         22    1    3    3    0    0 -0.11048098784E+02  0.63941320097E+01 -0.86422555613E+01  0.15415381672E+02  0.00000000000E+00 0. -1.
         22    1    4    4    0    0  0.13202318247E+02 -0.41357023547E+01 -0.52308837991E+03  0.52327130481E+03  0.00000000000E+00 0.  1.
         22    1    4    4    0    0 -0.21542194626E+01 -0.22584296550E+01 -0.73230059385E+02  0.73296539915E+02  0.00000000000E+00 0.  1.
<mgrwt>
<rscale>  0 0.92444724E+02</rscale>
<asrwt>0</asrwt>
<pdfrwt beam="1">  1        1 0.54019522E-03 0.92444724E+02</pdfrwt>
<pdfrwt beam="2">  1       -1 0.93610987E-01 0.92444724E+02</pdfrwt>
<totfact> 0.39720569E+04</totfact>
</mgrwt>
</event>
<event>
 7    1  0.2911475E-009  0.8940470E+02  0.7818608E-02  0.1304300E+00
          1   -1    0    0  501    0  0.00000000000E+00  0.00000000000E+00  0.40591870938E+03  0.40591870941E+03  0.50400000000E-02 0. -1.
         -1   -1    0    0    0  501 -0.00000000000E+00 -0.00000000000E+00 -0.49229059944E+01  0.49229085744E+01  0.50400000000E-02 0.  1.
         23    2    1    2    0    0  0.00000000000E+00  0.00000000000E+00  0.40099580339E+03  0.41084161799E+03  0.89404701981E+02 0.  0.
    9000005    2    3    3    0    0 -0.14127360138E+02 -0.40885824802E+02  0.18597315900E+03  0.19151088468E+03  0.14804394885E+02 0.  0.
         22    1    3    3    0    0  0.14127360138E+02  0.40885824802E+02  0.21502264439E+03  0.21933073331E+03  0.00000000000E+00 0.  1.
         22    1    4    4    0    0 -0.10676445021E+02 -0.30833744259E+02  0.10814377661E+03  0.11295920805E+03  0.00000000000E+00 0. -1.
         22    1    4    4    0    0 -0.34509151171E+01 -0.10052080543E+02  0.77829382384E+02  0.78551676625E+02  0.00000000000E+00 0. -1.
<mgrwt>
<rscale>  0 0.89404702E+02</rscale>
<asrwt>0</asrwt>
<pdfrwt beam="1">  1        1 0.62449036E-01 0.89404702E+02</pdfrwt>
<pdfrwt beam="2">  1       -1 0.75737031E-03 0.89404702E+02</pdfrwt>
<totfact> 0.14243667E+05</totfact>
</mgrwt>
</event>
<event>
 7    1  0.2911475E-009  0.9310875E+02  0.7818608E-02  0.1295493E+00
         -1   -1    0    0    0  501 -0.00000000000E+00  0.00000000000E+00  0.14326189527E+03  0.14326189536E+03  0.50400000000E-02 0.  1.
          1   -1    0    0  501    0  0.00000000000E+00 -0.00000000000E+00 -0.15128306740E+02  0.15128307579E+02  0.50400000000E-02 0. -1.
         23    2    1    2    0    0  0.35527136788E-14  0.00000000000E+00  0.12813358853E+03  0.15839020294E+03  0.93108752957E+02 0.  0.
    9000005    2    3    3    0    0 -0.30877612285E+02  0.27605720424E+02  0.98525003517E+02  0.10747683488E+03  0.11339796178E+02 0.  0.
         22    1    3    3    0    0  0.30877612285E+02 -0.27605720424E+02  0.29608585015E+02  0.50913368059E+02  0.00000000000E+00 0. -1.
         22    1    4    4    0    0 -0.22322188546E+02  0.24182649981E+02  0.67221843660E+02  0.74845553820E+02  0.00000000000E+00 0.  1.
         22    1    4    4    0    0 -0.85554237392E+01  0.34230704432E+01  0.31303159857E+02  0.32631281061E+02  0.00000000000E+00 0.  1.
<mgrwt>
<rscale>  0 0.93108753E+02</rscale>
<asrwt>0</asrwt>
<pdfrwt beam="2">  1        1 0.23274318E-02 0.93108753E+02</pdfrwt>
<pdfrwt beam="1">  1       -1 0.22040292E-01 0.93108753E+02</pdfrwt>
<totfact> 0.71579894E+04</totfact>
</mgrwt>
</event>
<event>
 7    1  0.2911475E-009  0.9292029E+02  0.7818608E-02  0.1295930E+00
          1   -1    0    0  501    0  0.00000000000E+00  0.00000000000E+00  0.64441111102E+03  0.64441111104E+03  0.50400000000E-02 0. -1.
         -1   -1    0    0    0  501 -0.00000000000E+00 -0.00000000000E+00 -0.33496378939E+01  0.33496416856E+01  0.50400000000E-02 0.  1.
         23    2    1    2    0    0  0.00000000000E+00  0.00000000000E+00  0.64106147312E+03  0.64776075272E+03  0.92920290812E+02 0.  0.
    9000005    2    3    3    0    0 -0.63289549056E+01 -0.16164312268E+02  0.62071974801E+03  0.62101890459E+03  0.83745816815E+01 0.  0.
         22    1    3    3    0    0  0.63289549056E+01  0.16164312268E+02  0.20341725110E+02  0.26741848137E+02  0.00000000000E+00 0.  1.
         22    1    4    4    0    0  0.10043662554E+01 -0.47611359414E+00  0.11623192814E+02  0.11676217150E+02  0.00000000000E+00 0. -1.
         22    1    4    4    0    0 -0.73333211610E+01 -0.15688198674E+02  0.60909655520E+03  0.60934268744E+03  0.00000000000E+00 0. -1.
<mgrwt>
<rscale>  0 0.92920291E+02</rscale>
<asrwt>0</asrwt>
<pdfrwt beam="1">  1        1 0.99140107E-01 0.92920291E+02</pdfrwt>
<pdfrwt beam="2">  1       -1 0.51532953E-03 0.92920291E+02</pdfrwt>
<totfact> 0.13509641E+05</totfact>
</mgrwt>
</event>
<event>
 7    1  0.2911475E-009  0.9180985E+02  0.7818608E-02  0.1298527E+00
         -1   -1    0    0    0  501 -0.00000000000E+00  0.00000000000E+00  0.17329791321E+02  0.17329792053E+02  0.50400000000E-02 0.  1.
          1   -1    0    0  501    0  0.00000000000E+00 -0.00000000000E+00 -0.12159765057E+03  0.12159765068E+03  0.50400000000E-02 0. -1.
         23    2    1    2    0    0  0.00000000000E+00  0.00000000000E+00 -0.10426785925E+03  0.13892744273E+03  0.91809846262E+02 0.  0.
    9000005    2    3    3    0    0 -0.26863181431E+02  0.11526029954E+01 -0.10842378159E+03  0.11172026168E+03  0.16557314512E+01 0.  0.
         22    1    3    3    0    0  0.26863181431E+02 -0.11526029954E+01  0.41559223319E+01  0.27207181050E+02  0.00000000000E+00 0.  1.
         22    1    4    4    0    0 -0.26526720096E+01 -0.36109318600E+00 -0.10219597021E+02  0.10564431852E+02  0.00000000000E+00 0.  1.
         22    1    4    4    0    0 -0.24210509422E+02  0.15136961814E+01 -0.98204184565E+02  0.10115582983E+03  0.00000000000E+00 0.  1.
<mgrwt>
<rscale>  0 0.91809846E+02</rscale>
<asrwt>0</asrwt>
<pdfrwt beam="2">  1        1 0.18707330E-01 0.91809846E+02</pdfrwt>
<pdfrwt beam="1">  1       -1 0.26661219E-02 0.91809846E+02</pdfrwt>
<totfact> 0.10597766E+05</totfact>
</mgrwt>
</event>
<event>
 7    1  0.2911475E-009  0.1253326E+03  0.7818608E-02  0.1234550E+00
          1   -1    0    0  501    0  0.00000000000E+00  0.00000000000E+00  0.88158631449E+02  0.88158631593E+02  0.50400000000E-02 0. -1.
         -1   -1    0    0    0  501 -0.00000000000E+00 -0.00000000000E+00 -0.44545420363E+02  0.44545420648E+02  0.50400000000E-02 0.  1.
         23    2    1    2    0    0  0.00000000000E+00  0.00000000000E+00  0.43613211086E+02  0.13270405224E+03  0.12533257079E+03 0.  0.
    9000005    2    3    3    0    0  0.17798390329E+02 -0.10324940376E+02  0.84055310248E+02  0.87328392724E+02  0.11728849163E+02 0.  0.
         22    1    3    3    0    0 -0.17798390329E+02  0.10324940376E+02 -0.40442099162E+02  0.45375659518E+02  0.00000000000E+00 0.  1.
         22    1    4    4    0    0  0.15910794016E+02 -0.11607567005E+02  0.59664608858E+02  0.62831158895E+02  0.00000000000E+00 0.  1.
         22    1    4    4    0    0  0.18875963124E+01  0.12826266288E+01  0.24390701391E+02  0.24497233828E+02  0.00000000000E+00 0.  1.
<mgrwt>
<rscale>  0 0.12533257E+03</rscale>
<asrwt>0</asrwt>
<pdfrwt beam="1">  1        1 0.13562866E-01 0.12533257E+03</pdfrwt>
<pdfrwt beam="2">  1       -1 0.68531417E-02 0.12533257E+03</pdfrwt>
<totfact> 0.41975185E+04</totfact>
</mgrwt>
</event>
<event>
 7    1  0.2911475E-009  0.9098030E+02  0.7818608E-02  0.1300495E+00
         -1   -1    0    0    0  501 -0.00000000000E+00  0.00000000000E+00  0.37318653711E+02  0.37318654052E+02  0.50400000000E-02 0.  1.
          1   -1    0    0  501    0  0.00000000000E+00 -0.00000000000E+00 -0.55450921017E+02  0.55450921246E+02  0.50400000000E-02 0. -1.
         23    2    1    2    0    0  0.00000000000E+00 -0.71054273576E-14 -0.18132267306E+02  0.92769575298E+02  0.90980299974E+02 0.  0.
    9000005    2    3    3    0    0  0.17087667797E+02  0.39376937857E+02  0.61259415192E+01  0.43464481027E+02  0.30170060815E+01 0.  0.
         22    1    3    3    0    0 -0.17087667797E+02 -0.39376937857E+02 -0.24258208825E+02  0.49305094271E+02  0.00000000000E+00 0. -1.
         22    1    4    4    0    0  0.15426004441E+02  0.37246271007E+02  0.54676003906E+01  0.40683423786E+02  0.00000000000E+00 0. -1.
         22    1    4    4    0    0  0.16616633553E+01  0.21306668501E+01  0.65834112866E+00  0.27810572403E+01  0.00000000000E+00 0. -1.
<mgrwt>
<rscale>  0 0.90980300E+02</rscale>
<asrwt>0</asrwt>
<pdfrwt beam="2">  1        1 0.85309110E-02 0.90980300E+02</pdfrwt>
<pdfrwt beam="1">  1       -1 0.57413314E-02 0.90980300E+02</pdfrwt>
<totfact> 0.95805748E+04</totfact>
</mgrwt>
</event>
<event>
 7    1  0.2911475E-009  0.9377814E+02  0.7818608E-02  0.1293952E+00
          1   -1    0    0  501    0  0.00000000000E+00  0.00000000000E+00  0.95704824108E+01  0.95704837379E+01  0.50400000000E-02 0. -1.
         -1   -1    0    0    0  501 -0.00000000000E+00 -0.00000000000E+00 -0.22972557911E+03  0.22972557916E+03  0.50400000000E-02 0.  1.
         23    2    1    2    0    0  0.00000000000E+00  0.00000000000E+00 -0.22015509670E+03  0.23929606290E+03  0.93778137741E+02 0.  0.
    9000005    2    3    3    0    0 -0.39848699196E+01  0.46027424184E+02 -0.11148214933E+03  0.12121044797E+03  0.11371020686E+02 0.  0.
         22    1    3    3    0    0  0.39848699196E+01 -0.46027424184E+02 -0.10867294736E+03  0.11808561493E+03  0.00000000000E+00 0.  1.
         22    1    4    4    0    0 -0.34514603059E+01  0.59432272040E+01 -0.10362333256E+02  0.12434326614E+02  0.00000000000E+00 0.  1.
         22    1    4    4    0    0 -0.53340961372E+00  0.40084196980E+02 -0.10111981608E+03  0.10877612136E+03  0.00000000000E+00 0.  1.
<mgrwt>
<rscale>  0 0.93778138E+02</rscale>
<asrwt>0</asrwt>
<pdfrwt beam="1">  1        1 0.14723822E-02 0.93778138E+02</pdfrwt>
<pdfrwt beam="2">  1       -1 0.35342393E-01 0.93778138E+02</pdfrwt>
<totfact> 0.61866460E+04</totfact>
</mgrwt>
</event>
<event>
 7    1  0.2911475E-009  0.9170840E+02  0.7818608E-02  0.1298767E+00
         -1   -1    0    0    0  501 -0.00000000000E+00  0.00000000000E+00  0.26847621599E+03  0.26847621604E+03  0.50400000000E-02 0.  1.
          1   -1    0    0  501    0  0.00000000000E+00 -0.00000000000E+00 -0.78316345529E+01  0.78316361746E+01  0.50400000000E-02 0. -1.
         23    2    1    2    0    0  0.00000000000E+00 -0.17763568394E-14  0.26064458144E+03  0.27630785221E+03  0.91708403985E+02 0.  0.
    9000005    2    3    3    0    0  0.12444741633E+02 -0.10681764308E+02  0.25895629966E+03  0.25982082767E+03  0.13398719018E+02 0.  0.
         22    1    3    3    0    0 -0.12444741633E+02  0.10681764308E+02  0.16882817755E+01  0.16487024546E+02  0.00000000000E+00 0. -1.
         22    1    4    4    0    0  0.48354818090E+00  0.24422968692E+01  0.66640962812E+02  0.66687454273E+02  0.00000000000E+00 0. -1.
         22    1    4    4    0    0  0.11961193452E+02 -0.13124061177E+02  0.19231533685E+03  0.19313337339E+03  0.00000000000E+00 0. -1.
<mgrwt>
<rscale>  0 0.91708404E+02</rscale>
<asrwt>0</asrwt>
<pdfrwt beam="2">  1        1 0.12048671E-02 0.91708404E+02</pdfrwt>
<pdfrwt beam="1">  1       -1 0.41304030E-01 0.91708404E+02</pdfrwt>
<totfact> 0.62218673E+04</totfact>
</mgrwt>
</event>
<event>
 7    1  0.2911475E-009  0.9016186E+02  0.7818608E-02  0.1302460E+00
          1   -1    0    0  501    0  0.00000000000E+00  0.00000000000E+00  0.58402927984E+03  0.58402927986E+03  0.50400000000E-02 0. -1.
         -1   -1    0    0    0  501 -0.00000000000E+00 -0.00000000000E+00 -0.34797725676E+01  0.34797762175E+01  0.50400000000E-02 0.  1.
         23    2    1    2    0    0  0.00000000000E+00  0.00000000000E+00  0.58054950727E+03  0.58750905608E+03  0.90161857683E+02 0.  0.
    9000005    2    3    3    0    0  0.33493490570E+02  0.52147786923E+00  0.48673648718E+03  0.48789495774E+03  0.26449919516E+01 0.  0.
         22    1    3    3    0    0 -0.33493490570E+02 -0.52147786923E+00  0.93813020084E+02  0.99614098335E+02  0.00000000000E+00 0.  1.
         22    1    4    4    0    0  0.29664402941E+01  0.19181365963E+00  0.55163289705E+02  0.55243326218E+02  0.00000000000E+00 0. -1.
         22    1    4    4    0    0  0.30527050276E+02  0.32966420960E+00  0.43157319748E+03  0.43265163152E+03  0.00000000000E+00 0. -1.
<mgrwt>
<rscale>  0 0.90161858E+02</rscale>
<asrwt>0</asrwt>
<pdfrwt beam="1">  1        1 0.89850664E-01 0.90161858E+02</pdfrwt>
<pdfrwt beam="2">  1       -1 0.53534988E-03 0.90161858E+02</pdfrwt>
<totfact> 0.14558771E+05</totfact>
</mgrwt>
</event>
<event>
 7    1  0.2911475E-009  0.9196668E+02  0.7818608E-02  0.1298158E+00
          1   -1    0    0  501    0  0.00000000000E+00  0.00000000000E+00  0.25668881922E+02  0.25668882417E+02  0.50400000000E-02 0. -1.
         -1   -1    0    0    0  501 -0.00000000000E+00 -0.00000000000E+00 -0.82374735104E+02  0.82374735258E+02  0.50400000000E-02 0.  1.
         23    2    1    2    0    0  0.00000000000E+00  0.17763568394E-14 -0.56705853181E+02  0.10804361768E+03  0.91966676222E+02 0.  0.
    9000005    2    3    3    0    0  0.91852059012E+00 -0.14900191821E+02  0.20578702400E+02  0.29330455321E+02  0.14626456185E+02 0.  0.
         22    1    3    3    0    0 -0.91852059012E+00  0.14900191821E+02 -0.77284555581E+02  0.78713162354E+02  0.00000000000E+00 0.  1.
         22    1    4    4    0    0  0.12963281542E+01 -0.89224815433E+01  0.12590762603E+01  0.91036485324E+01  0.00000000000E+00 0.  1.
         22    1    4    4    0    0 -0.37780756406E+00 -0.59777102775E+01  0.19319626139E+02  0.20226806789E+02  0.00000000000E+00 0.  1.
<mgrwt>
<rscale>  0 0.91966676E+02</rscale>
<asrwt>0</asrwt>
<pdfrwt beam="1">  1        1 0.39490589E-02 0.91966676E+02</pdfrwt>
<pdfrwt beam="2">  1       -1 0.12673036E-01 0.91966676E+02</pdfrwt>
<totfact> 0.82387679E+04</totfact>
</mgrwt>
</event>
<event>
 7    1  0.2911475E-009  0.8971923E+02  0.7818608E-02  0.1303533E+00
          1   -1    0    0  501    0  0.00000000000E+00  0.00000000000E+00  0.32300755082E+02  0.32300755475E+02  0.50400000000E-02 0. -1.
         -1   -1    0    0    0  501 -0.00000000000E+00 -0.00000000000E+00 -0.62301483140E+02  0.62301483344E+02  0.50400000000E-02 0.  1.
         23    2    1    2    0    0  0.00000000000E+00  0.17763568394E-14 -0.30000728058E+02  0.94602238819E+02  0.89719228182E+02 0.  0.
    9000005    2    3    3    0    0 -0.44869895070E+01  0.15034956291E+02 -0.58665013545E+02  0.61924658616E+02  0.12120088486E+02 0.  0.
         22    1    3    3    0    0  0.44869895070E+01 -0.15034956291E+02  0.28664285487E+02  0.32677580204E+02  0.00000000000E+00 0. -1.
         22    1    4    4    0    0 -0.75702986977E+01  0.12607212226E+02 -0.35430691284E+02  0.38361244862E+02  0.00000000000E+00 0. -1.
         22    1    4    4    0    0  0.30833091907E+01  0.24277440656E+01 -0.23234322261E+02  0.23563413754E+02  0.00000000000E+00 0. -1.
<mgrwt>
<rscale>  0 0.89719228E+02</rscale>
<asrwt>0</asrwt>
<pdfrwt beam="1">  1        1 0.49693470E-02 0.89719228E+02</pdfrwt>
<pdfrwt beam="2">  1       -1 0.95848436E-02 0.89719228E+02</pdfrwt>
<totfact> 0.91838662E+04</totfact>
</mgrwt>
</event>
<event>
 7    1  0.2911475E-009  0.8801107E+02  0.7818608E-02  0.1307741E+00
          1   -1    0    0  501    0  0.00000000000E+00  0.00000000000E+00  0.34641005817E+02  0.34641006183E+02  0.50400000000E-02 0. -1.
         -1   -1    0    0    0  501 -0.00000000000E+00 -0.00000000000E+00 -0.55901587710E+02  0.55901587937E+02  0.50400000000E-02 0.  1.
         23    2    1    2    0    0  0.00000000000E+00  0.71054273576E-14 -0.21260581893E+02  0.90542594120E+02  0.88011073210E+02 0.  0.
    9000005    2    3    3    0    0 -0.13687072211E+02 -0.41274612547E+02 -0.15894670086E+02  0.46727955058E+02  0.63191502697E+01 0.  0.
         22    1    3    3    0    0  0.13687072211E+02  0.41274612547E+02 -0.53659118073E+01  0.43814639062E+02  0.00000000000E+00 0. -1.
         22    1    4    4    0    0 -0.38236700143E+01 -0.50495077827E+01 -0.14249952935E+01  0.64921947608E+01  0.00000000000E+00 0.  1.
         22    1    4    4    0    0 -0.98634021965E+01 -0.36225104765E+02 -0.14469674792E+02  0.40235760297E+02  0.00000000000E+00 0.  1.
<mgrwt>
<rscale>  0 0.88011073E+02</rscale>
<asrwt>0</asrwt>
<pdfrwt beam="1">  1        1 0.53293856E-02 0.88011073E+02</pdfrwt>
<pdfrwt beam="2">  1       -1 0.86002443E-02 0.88011073E+02</pdfrwt>
<totfact> 0.98026942E+04</totfact>
</mgrwt>
</event>
<event>
 7    1  0.2911475E-009  0.8944960E+02  0.7818608E-02  0.1304190E+00
         -1   -1    0    0    0  501 -0.00000000000E+00  0.00000000000E+00  0.26952396816E+02  0.26952397287E+02  0.50400000000E-02 0.  1.
          1   -1    0    0  501    0  0.00000000000E+00 -0.00000000000E+00 -0.74216323343E+02  0.74216323514E+02  0.50400000000E-02 0. -1.
         23    2    1    2    0    0  0.00000000000E+00 -0.35527136788E-14 -0.47263926527E+02  0.10116872080E+03  0.89449602111E+02 0.  0.
    9000005    2    3    3    0    0 -0.97124999080E+01 -0.23132565517E+02  0.15827517790E+02  0.33271897696E+02  0.15068530619E+02 0.  0.
         22    1    3    3    0    0  0.97124999080E+01  0.23132565517E+02 -0.63091444317E+02  0.67896823106E+02  0.00000000000E+00 0. -1.
         22    1    4    4    0    0 -0.25384285782E+01 -0.76454976945E+01 -0.22958615515E+01  0.83766481904E+01  0.00000000000E+00 0. -1.
         22    1    4    4    0    0 -0.71740713298E+01 -0.15487067823E+02  0.18123379341E+02  0.24895249505E+02  0.00000000000E+00 0. -1.
<mgrwt>
<rscale>  0 0.89449602E+02</rscale>
<asrwt>0</asrwt>
<pdfrwt beam="2">  1        1 0.11417896E-01 0.89449602E+02</pdfrwt>
<pdfrwt beam="1">  1       -1 0.41465227E-02 0.89449602E+02</pdfrwt>
<totfact> 0.10493490E+05</totfact>
</mgrwt>
</event>
<event>
 7    1  0.2911475E-009  0.9032577E+02  0.7818608E-02  0.1302065E+00
          1   -1    0    0  501    0  0.00000000000E+00  0.00000000000E+00  0.20454275924E+03  0.20454275930E+03  0.50400000000E-02 0. -1.
         -1   -1    0    0    0  501 -0.00000000000E+00 -0.00000000000E+00 -0.99719299434E+01  0.99719312171E+01  0.50400000000E-02 0.  1.
         23    2    1    2    0    0  0.00000000000E+00  0.00000000000E+00  0.19457082930E+03  0.21451469052E+03  0.90325770605E+02 0.  0.
    9000005    2    3    3    0    0 -0.31923252856E+02  0.28154383868E+02  0.12544237336E+03  0.13333275395E+03  0.15168086216E+02 0.  0.
         22    1    3    3    0    0  0.31923252856E+02 -0.28154383868E+02  0.69128455939E+02  0.81181936565E+02  0.00000000000E+00 0.  1.
         22    1    4    4    0    0 -0.20839966959E+02  0.10174035653E+02  0.52502827977E+02  0.57396534476E+02  0.00000000000E+00 0.  1.
         22    1    4    4    0    0 -0.11083285897E+02  0.17980348216E+02  0.72939545379E+02  0.75936219476E+02  0.00000000000E+00 0.  1.
<mgrwt>
<rscale>  0 0.90325771E+02</rscale>
<asrwt>0</asrwt>
<pdfrwt beam="1">  1        1 0.31468116E-01 0.90325771E+02</pdfrwt>
<pdfrwt beam="2">  1       -1 0.15341432E-02 0.90325771E+02</pdfrwt>
<totfact> 0.12194797E+05</totfact>
</mgrwt>
</event>
<event>
 7    1  0.2911475E-009  0.1118825E+03  0.7818608E-02  0.1257123E+00
          1   -1    0    0  501    0  0.00000000000E+00  0.00000000000E+00  0.24943349517E+03  0.24943349523E+03  0.50400000000E-02 0. -1.
         -1   -1    0    0    0  501 -0.00000000000E+00 -0.00000000000E+00 -0.12546131756E+02  0.12546132769E+02  0.50400000000E-02 0.  1.
         23    2    1    2    0    0  0.00000000000E+00  0.71054273576E-14  0.23688736342E+03  0.26197962799E+03  0.11188253902E+03 0.  0.
    9000005    2    3    3    0    0  0.12797378709E+02  0.54122841874E+02  0.12538416129E+03  0.13737618101E+03  0.76139538547E+01 0.  0.
         22    1    3    3    0    0 -0.12797378709E+02 -0.54122841874E+02  0.11150320213E+03  0.12460344698E+03  0.00000000000E+00 0.  1.
         22    1    4    4    0    0  0.73305646306E+01  0.24334426766E+02  0.48805670873E+02  0.55026312008E+02  0.00000000000E+00 0. -1.
         22    1    4    4    0    0  0.54668140789E+01  0.29788415109E+02  0.76578490413E+02  0.82349869003E+02  0.00000000000E+00 0. -1.
<mgrwt>
<rscale>  0 0.11188254E+03</rscale>
<asrwt>0</asrwt>
<pdfrwt beam="1">  1        1 0.38374388E-01 0.11188254E+03</pdfrwt>
<pdfrwt beam="2">  1       -1 0.19301740E-02 0.11188254E+03</pdfrwt>
<totfact> 0.71107211E+04</totfact>
</mgrwt>
</event>
<event>
 7    1  0.2911475E-009  0.9685781E+02  0.7818608E-02  0.1287046E+00
         -1   -1    0    0    0  501 -0.00000000000E+00  0.00000000000E+00  0.39463091480E+01  0.39463123664E+01  0.50400000000E-02 0.  1.
          1   -1    0    0  501    0  0.00000000000E+00 -0.00000000000E+00 -0.59431683132E+03  0.59431683134E+03  0.50400000000E-02 0. -1.
         23    2    1    2    0    0  0.88817841970E-15  0.71054273576E-14 -0.59037052217E+03  0.59826314371E+03  0.96857811607E+02 0.  0.
    9000005    2    3    3    0    0 -0.73367571198E+01 -0.32077187958E+02 -0.51196497020E+03  0.51323253409E+03  0.14721730256E+02 0.  0.
         22    1    3    3    0    0  0.73367571198E+01  0.32077187958E+02 -0.78405551969E+02  0.85030609617E+02  0.00000000000E+00 0.  1.
         22    1    4    4    0    0 -0.63449533728E+01 -0.33072666344E+02 -0.50530603034E+03  0.50642693845E+03  0.00000000000E+00 0. -1.
         22    1    4    4    0    0 -0.99180374699E+00  0.99547838654E+00 -0.66589398685E+01  0.68055956435E+01  0.00000000000E+00 0. -1.
<mgrwt>
<rscale>  0 0.96857812E+02</rscale>
<asrwt>0</asrwt>
<pdfrwt beam="2">  1        1 0.91433288E-01 0.96857812E+02</pdfrwt>
<pdfrwt beam="1">  1       -1 0.60712520E-03 0.96857812E+02</pdfrwt>
<totfact> 0.12052284E+05</totfact>
</mgrwt>
</event>
<event>
 7    1  0.2911475E-009  0.9191283E+02  0.7818608E-02  0.1298285E+00
          1   -1    0    0  501    0  0.00000000000E+00  0.00000000000E+00  0.25958355033E+03  0.25958355038E+03  0.50400000000E-02 0. -1.
         -1   -1    0    0    0  501 -0.00000000000E+00 -0.00000000000E+00 -0.81360781962E+01  0.81360797572E+01  0.50400000000E-02 0.  1.
         23    2    1    2    0    0  0.00000000000E+00  0.00000000000E+00  0.25144747214E+03  0.26771963014E+03  0.91912834348E+02 0.  0.
    9000005    2    3    3    0    0  0.21180185433E+02 -0.26392071276E+02  0.21490529028E+03  0.21791528559E+03  0.12555724646E+02 0.  0.
         22    1    3    3    0    0 -0.21180185433E+02  0.26392071276E+02  0.36542181854E+02  0.49804344548E+02  0.00000000000E+00 0.  1.
         22    1    4    4    0    0  0.94535691354E+01 -0.31928701413E+01  0.51930146509E+02  0.52880095552E+02  0.00000000000E+00 0. -1.
         22    1    4    4    0    0  0.11726616298E+02 -0.23199201135E+02  0.16297514377E+03  0.16503519004E+03  0.00000000000E+00 0. -1.
<mgrwt>
<rscale>  0 0.91912834E+02</rscale>
<asrwt>0</asrwt>
<pdfrwt beam="1">  1        1 0.39935932E-01 0.91912834E+02</pdfrwt>
<pdfrwt beam="2">  1       -1 0.12517044E-02 0.91912834E+02</pdfrwt>
<totfact> 0.12193197E+05</totfact>
</mgrwt>
</event>
<event>
 7    1  0.2911475E-009  0.9312638E+02  0.7818608E-02  0.1295453E+00
          1   -1    0    0  501    0  0.00000000000E+00  0.00000000000E+00  0.45170855919E+03  0.45170855922E+03  0.50400000000E-02 0. -1.
         -1   -1    0    0    0  501 -0.00000000000E+00 -0.00000000000E+00 -0.47998429366E+01  0.47998455826E+01  0.50400000000E-02 0.  1.
         23    2    1    2    0    0  0.00000000000E+00  0.00000000000E+00  0.44690871626E+03  0.45650840481E+03  0.93126381818E+02 0.  0.
    9000005    2    3    3    0    0  0.43473765241E+02 -0.12147381041E+02  0.18085457707E+03  0.18665227256E+03  0.96522367846E+01 0.  0.
         22    1    3    3    0    0 -0.43473765241E+02  0.12147381041E+02  0.26605413919E+03  0.26985613225E+03  0.00000000000E+00 0.  1.
         22    1    4    4    0    0  0.36122132140E+02 -0.12279339559E+02  0.16157212839E+03  0.16601549109E+03  0.00000000000E+00 0.  1.
         22    1    4    4    0    0  0.73516331004E+01  0.13195851791E+00  0.19282448679E+02  0.20636781468E+02  0.00000000000E+00 0.  1.
<mgrwt>
<rscale>  0 0.93126382E+02</rscale>
<asrwt>0</asrwt>
<pdfrwt beam="1">  1        1 0.69493613E-01 0.93126382E+02</pdfrwt>
<pdfrwt beam="2">  1       -1 0.73843770E-03 0.93126382E+02</pdfrwt>
<totfact> 0.12992152E+05</totfact>
</mgrwt>
</event>
<event>
 7    1  0.2911475E-009  0.9230597E+02  0.7818608E-02  0.1297362E+00
         -1   -1    0    0    0  501 -0.00000000000E+00  0.00000000000E+00  0.10021528063E+03  0.10021528075E+03  0.50400000000E-02 0.  1.
          1   -1    0    0  501    0  0.00000000000E+00 -0.00000000000E+00 -0.21255223023E+02  0.21255223620E+02  0.50400000000E-02 0. -1.
         23    2    1    2    0    0  0.00000000000E+00  0.35527136788E-14  0.78960057605E+02  0.12147050437E+03  0.92305973458E+02 0.  0.
    9000005    2    3    3    0    0 -0.31927824630E+02 -0.31443976515E+02  0.48074081847E+02  0.67045756849E+02  0.13262975582E+02 0.  0.
         22    1    3    3    0    0  0.31927824630E+02  0.31443976515E+02  0.30885975757E+02  0.54424747525E+02  0.00000000000E+00 0. -1.
         22    1    4    4    0    0 -0.32362403041E+02 -0.28833627066E+02  0.41709763523E+02  0.60153200693E+02  0.00000000000E+00 0.  1.
         22    1    4    4    0    0  0.43457841098E+00 -0.26103494493E+01  0.63643183239E+01  0.68925561565E+01  0.00000000000E+00 0.  1.
<mgrwt>
<rscale>  0 0.92305973E+02</rscale>
<asrwt>0</asrwt>
<pdfrwt beam="2">  1        1 0.32700343E-02 0.92305973E+02</pdfrwt>
<pdfrwt beam="1">  1       -1 0.15417736E-01 0.92305973E+02</pdfrwt>
<totfact> 0.78797318E+04</totfact>
</mgrwt>
</event>
<event>
 7    1  0.2911475E-009  0.8716562E+02  0.7818608E-02  0.1309864E+00
          1   -1    0    0  501    0  0.00000000000E+00  0.00000000000E+00  0.90380872399E+02  0.90380872539E+02  0.50400000000E-02 0. -1.
         -1   -1    0    0    0  501 -0.00000000000E+00 -0.00000000000E+00 -0.21016186666E+02  0.21016187270E+02  0.50400000000E-02 0.  1.
         23    2    1    2    0    0  0.35527136788E-14  0.00000000000E+00  0.69364685732E+02  0.11139705981E+03  0.87165619986E+02 0.  0.
    9000005    2    3    3    0    0  0.24560885209E+02 -0.34925265933E+01  0.80294314334E+02  0.84288175553E+02  0.64718466756E+01 0.  0.
         22    1    3    3    0    0 -0.24560885209E+02  0.34925265933E+01 -0.10929628602E+02  0.27108884257E+02  0.00000000000E+00 0.  1.
         22    1    4    4    0    0  0.22691698330E+02 -0.41646227053E+01  0.77491342335E+02  0.80852738929E+02  0.00000000000E+00 0.  1.
         22    1    4    4    0    0  0.18691868787E+01  0.67209611203E+00  0.28029719994E+01  0.34354366244E+01  0.00000000000E+00 0.  1.
<mgrwt>
<rscale>  0 0.87165620E+02</rscale>
<asrwt>0</asrwt>
<pdfrwt beam="1">  1        1 0.13904750E-01 0.87165620E+02</pdfrwt>
<pdfrwt beam="2">  1       -1 0.32332596E-02 0.87165620E+02</pdfrwt>
<totfact> 0.11612442E+05</totfact>
</mgrwt>
</event>
<event>
 7    1  0.2911475E-009  0.9190721E+02  0.7818608E-02  0.1298298E+00
         -1   -1    0    0    0  501 -0.00000000000E+00  0.00000000000E+00  0.49965503284E+02  0.49965503538E+02  0.50400000000E-02 0.  1.
          1   -1    0    0  501    0  0.00000000000E+00 -0.00000000000E+00 -0.42263836591E+02  0.42263836891E+02  0.50400000000E-02 0. -1.
         23    2    1    2    0    0  0.00000000000E+00  0.00000000000E+00  0.77016666934E+01  0.92229340429E+02  0.91907211720E+02 0.  0.
    9000005    2    3    3    0    0  0.40477726384E+02  0.20545165740E+02 -0.26889046565E+00  0.46141598567E+02  0.82719192294E+01 0.  0.
         22    1    3    3    0    0 -0.40477726384E+02 -0.20545165740E+02  0.79705571591E+01  0.46087741862E+02  0.00000000000E+00 0. -1.
         22    1    4    4    0    0  0.26209453606E+02  0.16919263585E+02  0.19336252438E+01  0.31255972951E+02  0.00000000000E+00 0. -1.
         22    1    4    4    0    0  0.14268272779E+02  0.36259021552E+01 -0.22025157094E+01  0.14885625616E+02  0.00000000000E+00 0. -1.
<mgrwt>
<rscale>  0 0.91907212E+02</rscale>
<asrwt>0</asrwt>
<pdfrwt beam="2">  1        1 0.65021287E-02 0.91907212E+02</pdfrwt>
<pdfrwt beam="1">  1       -1 0.76870006E-02 0.91907212E+02</pdfrwt>
<totfact> 0.89387854E+04</totfact>
</mgrwt>
</event>
<event>
 7    1  0.2911475E-009  0.9125964E+02  0.7818608E-02  0.1299830E+00
          1   -1    0    0  501    0  0.00000000000E+00  0.00000000000E+00  0.51508436942E+02  0.51508437189E+02  0.50400000000E-02 0. -1.
         -1   -1    0    0    0  501 -0.00000000000E+00 -0.00000000000E+00 -0.40422127841E+02  0.40422128155E+02  0.50400000000E-02 0.  1.
         23    2    1    2    0    0  0.35527136788E-14  0.00000000000E+00  0.11086309102E+02  0.91930565344E+02  0.91259643846E+02 0.  0.
    9000005    2    3    3    0    0 -0.26895965272E+02  0.31780752751E+02  0.23569352851E+02  0.48465227722E+02  0.77430427435E+01 0.  0.
         22    1    3    3    0    0  0.26895965272E+02 -0.31780752751E+02 -0.12483043750E+02  0.43465337622E+02  0.00000000000E+00 0.  1.
         22    1    4    4    0    0 -0.20055744667E+01  0.88713213176E+00  0.31707302173E+01  0.38552383158E+01  0.00000000000E+00 0.  1.
         22    1    4    4    0    0 -0.24890390806E+02  0.30893620619E+02  0.20398622634E+02  0.44609989406E+02  0.00000000000E+00 0.  1.
<mgrwt>
<rscale>  0 0.91259644E+02</rscale>
<asrwt>0</asrwt>
<pdfrwt beam="1">  1        1 0.79243750E-02 0.91259644E+02</pdfrwt>
<pdfrwt beam="2">  1       -1 0.62187889E-02 0.91259644E+02</pdfrwt>
<totfact> 0.93944541E+04</totfact>
</mgrwt>
</event>
<event>
 7    1  0.2911475E-009  0.8908083E+02  0.7818608E-02  0.1305093E+00
         -1   -1    0    0    0  501 -0.00000000000E+00  0.00000000000E+00  0.17593115187E+03  0.17593115194E+03  0.50400000000E-02 0.  1.
          1   -1    0    0  501    0  0.00000000000E+00 -0.00000000000E+00 -0.11276276081E+02  0.11276277207E+02  0.50400000000E-02 0. -1.
         23    2    1    2    0    0  0.00000000000E+00  0.00000000000E+00  0.16465487579E+03  0.18720742915E+03  0.89080825141E+02 0.  0.
    9000005    2    3    3    0    0 -0.86333571498E+01 -0.35705600430E+02  0.30251982175E+02  0.47874868097E+02  0.52341008786E+01 0.  0.
         22    1    3    3    0    0  0.86333571498E+01  0.35705600430E+02  0.13440289361E+03  0.13933256105E+03  0.00000000000E+00 0.  1.
         22    1    4    4    0    0 -0.69334908555E+01 -0.33702269458E+02  0.28816059925E+02  0.44880748341E+02  0.00000000000E+00 0.  1.
         22    1    4    4    0    0 -0.16998662943E+01 -0.20033309726E+01  0.14359222499E+01  0.29941197559E+01  0.00000000000E+00 0.  1.
<mgrwt>
<rscale>  0 0.89080825E+02</rscale>
<asrwt>0</asrwt>
<pdfrwt beam="2">  1        1 0.17348119E-02 0.89080825E+02</pdfrwt>
<pdfrwt beam="1">  1       -1 0.27066330E-01 0.89080825E+02</pdfrwt>
<totfact> 0.76378207E+04</totfact>
</mgrwt>
</event>
<event>
 7    1  0.2911475E-009  0.9072132E+02  0.7818608E-02  0.1301114E+00
          1   -1    0    0  501    0  0.00000000000E+00  0.00000000000E+00  0.18735395606E+03  0.18735395613E+03  0.50400000000E-02 0. -1.
         -1   -1    0    0    0  501 -0.00000000000E+00 -0.00000000000E+00 -0.10982363633E+02  0.10982364789E+02  0.50400000000E-02 0.  1.
         23    2    1    2    0    0  0.00000000000E+00  0.00000000000E+00  0.17637159243E+03  0.19833632092E+03  0.90721318222E+02 0.  0.
    9000005    2    3    3    0    0 -0.28351755952E+02  0.33677203268E+02  0.81726170154E+02  0.93953697638E+02  0.14496700531E+02 0.  0.
         22    1    3    3    0    0  0.28351755952E+02 -0.33677203268E+02  0.94645422275E+02  0.10438262328E+03  0.00000000000E+00 0.  1.
         22    1    4    4    0    0 -0.16864243217E+02  0.96927881188E+01  0.29307465857E+02  0.35174996741E+02  0.00000000000E+00 0. -1.
         22    1    4    4    0    0 -0.11487512734E+02  0.23984415149E+02  0.52418704298E+02  0.58778700897E+02  0.00000000000E+00 0. -1.
<mgrwt>
<rscale>  0 0.90721318E+02</rscale>
<asrwt>0</asrwt>
<pdfrwt beam="1">  1        1 0.28823684E-01 0.90721318E+02</pdfrwt>
<pdfrwt beam="2">  1       -1 0.16895946E-02 0.90721318E+02</pdfrwt>
<totfact> 0.11850310E+05</totfact>
</mgrwt>
</event>
<event>
 7    1  0.2911475E-009  0.8775752E+02  0.7818608E-02  0.1308375E+00
          1   -1    0    0  501    0  0.00000000000E+00  0.00000000000E+00  0.64464735821E+03  0.64464735823E+03  0.50400000000E-02 0. -1.
         -1   -1    0    0    0  501 -0.00000000000E+00 -0.00000000000E+00 -0.29866623881E+01  0.29866666406E+01  0.50400000000E-02 0.  1.
         23    2    1    2    0    0  0.00000000000E+00  0.00000000000E+00  0.64166069583E+03  0.64763402487E+03  0.87757515958E+02 0.  0.
    9000005    2    3    3    0    0  0.10682545795E+02  0.15202243223E+02  0.61297561290E+03  0.61345714722E+03  0.15663476078E+02 0.  0.
         22    1    3    3    0    0 -0.10682545795E+02 -0.15202243223E+02  0.28685082927E+02  0.34176877654E+02  0.00000000000E+00 0.  1.
         22    1    4    4    0    0  0.29376342368E+01  0.15090425192E+02  0.30828212003E+03  0.30866521696E+03  0.00000000000E+00 0. -1.
         22    1    4    4    0    0  0.77449115579E+01  0.11181803075E+00  0.30469349286E+03  0.30479193026E+03  0.00000000000E+00 0. -1.
<mgrwt>
<rscale>  0 0.87757516E+02</rscale>
<asrwt>0</asrwt>
<pdfrwt beam="1">  1        1 0.99176589E-01 0.87757516E+02</pdfrwt>
<pdfrwt beam="2">  1       -1 0.45948651E-03 0.87757516E+02</pdfrwt>
<totfact> 0.15713365E+05</totfact>
</mgrwt>
</event>
<event>
 7    1  0.2911475E-009  0.9209901E+02  0.7818608E-02  0.1297847E+00
         -1   -1    0    0    0  501 -0.00000000000E+00  0.00000000000E+00  0.38879204756E+02  0.38879205083E+02  0.50400000000E-02 0.  1.
          1   -1    0    0  501    0  0.00000000000E+00 -0.00000000000E+00 -0.54542185174E+02  0.54542185406E+02  0.50400000000E-02 0. -1.
         23    2    1    2    0    0  0.00000000000E+00  0.00000000000E+00 -0.15662980417E+02  0.93421390490E+02  0.92099007842E+02 0.  0.
    9000005    2    3    3    0    0  0.26183735803E+02 -0.30512436992E+02  0.13122484919E+02  0.43972428454E+02  0.12032373911E+02 0.  0.
         22    1    3    3    0    0 -0.26183735803E+02  0.30512436992E+02 -0.28785465336E+02  0.49448962035E+02  0.00000000000E+00 0. -1.
         22    1    4    4    0    0  0.15390816931E+02 -0.23295034333E+02  0.13436039432E+02  0.30984883830E+02  0.00000000000E+00 0. -1.
         22    1    4    4    0    0  0.10792918872E+02 -0.72174026591E+01 -0.31355451303E+00  0.12987544624E+02  0.00000000000E+00 0. -1.
<mgrwt>
<rscale>  0 0.92099008E+02</rscale>
<asrwt>0</asrwt>
<pdfrwt beam="2">  1        1 0.83911054E-02 0.92099008E+02</pdfrwt>
<pdfrwt beam="1">  1       -1 0.59814162E-02 0.92099008E+02</pdfrwt>
<totfact> 0.92366293E+04</totfact>
</mgrwt>
</event>
<event>
 7    1  0.2911475E-009  0.9686332E+02  0.7818608E-02  0.1287034E+00
          1   -1    0    0  501    0  0.00000000000E+00  0.00000000000E+00  0.54629225122E+02  0.54629225355E+02  0.50400000000E-02 0. -1.
         -1   -1    0    0    0  501 -0.00000000000E+00 -0.00000000000E+00 -0.42937194910E+02  0.42937195206E+02  0.50400000000E-02 0.  1.
         23    2    1    2    0    0  0.00000000000E+00  0.00000000000E+00  0.11692030212E+02  0.97566420560E+02  0.96863320460E+02 0.  0.
    9000005    2    3    3    0    0  0.68811554469E+00  0.33638871679E+02 -0.28681820234E+02  0.45010783463E+02  0.84425485003E+01 0.  0.
         22    1    3    3    0    0 -0.68811554469E+00 -0.33638871679E+02  0.40373850446E+02  0.52555637097E+02  0.00000000000E+00 0. -1.
         22    1    4    4    0    0 -0.12498732799E+01  0.46574090964E+00 -0.19541268030E+01  0.23659478804E+01  0.00000000000E+00 0.  1.
         22    1    4    4    0    0  0.19379888246E+01  0.33173130769E+02 -0.26727693431E+02  0.42644835583E+02  0.00000000000E+00 0.  1.
<mgrwt>
<rscale>  0 0.96863320E+02</rscale>
<asrwt>0</asrwt>
<pdfrwt beam="1">  1        1 0.84044962E-02 0.96863320E+02</pdfrwt>
<pdfrwt beam="2">  1       -1 0.66057224E-02 0.96863320E+02</pdfrwt>
<totfact> 0.80212158E+04</totfact>
</mgrwt>
</event>
<event>
 7    1  0.2911475E-009  0.8062746E+02  0.7818608E-02  0.1327280E+00
          1   -1    0    0  501    0  0.00000000000E+00  0.00000000000E+00  0.40825806021E+03  0.40825806024E+03  0.50400000000E-02 0. -1.
         -1   -1    0    0    0  501 -0.00000000000E+00 -0.00000000000E+00 -0.39808061721E+01  0.39808093626E+01  0.50400000000E-02 0.  1.
         23    2    1    2    0    0  0.00000000000E+00  0.00000000000E+00  0.40427725404E+03  0.41223886961E+03  0.80627461077E+02 0.  0.
    9000005    2    3    3    0    0 -0.33480017804E+02 -0.91343318915E+00  0.31522106607E+03  0.31709292609E+03  0.78649429580E+01 0.  0.
         22    1    3    3    0    0  0.33480017804E+02  0.91343318915E+00  0.89056187968E+02  0.95145943517E+02  0.00000000000E+00 0.  1.
         22    1    4    4    0    0 -0.17214389864E+02  0.24900971618E+01  0.13726160926E+03  0.13835926126E+03  0.00000000000E+00 0.  1.
         22    1    4    4    0    0 -0.16265627940E+02 -0.34035303510E+01  0.17795945682E+03  0.17873366482E+03  0.00000000000E+00 0.  1.
<mgrwt>
<rscale>  0 0.80627461E+02</rscale>
<asrwt>0</asrwt>
<pdfrwt beam="1">  1        1 0.62808922E-01 0.80627461E+02</pdfrwt>
<pdfrwt beam="2">  1       -1 0.61243207E-03 0.80627461E+02</pdfrwt>
<totfact> 0.18719089E+05</totfact>
</mgrwt>
</event>
<event>
 7    1  0.2911475E-009  0.9742754E+02  0.7818608E-02  0.1285800E+00
          1   -1    0    0  501    0  0.00000000000E+00  0.00000000000E+00  0.51169234239E+03  0.51169234241E+03  0.50400000000E-02 0. -1.
         -1   -1    0    0    0  501 -0.00000000000E+00 -0.00000000000E+00 -0.46376121812E+01  0.46376149199E+01  0.50400000000E-02 0.  1.
         23    2    1    2    0    0  0.00000000000E+00  0.00000000000E+00  0.50705473021E+03  0.51632995733E+03  0.97427539300E+02 0.  0.
    9000005    2    3    3    0    0  0.17972168955E+02  0.41462064755E+02  0.34471151187E+03  0.34781461022E+03  0.10338036563E+02 0.  0.
         22    1    3    3    0    0 -0.17972168955E+02 -0.41462064755E+02  0.16234321834E+03  0.16851534711E+03  0.00000000000E+00 0.  1.
         22    1    4    4    0    0  0.15490505799E+02  0.23019660873E+02  0.20471699631E+03  0.20658874397E+03  0.00000000000E+00 0.  1.
         22    1    4    4    0    0  0.24816631560E+01  0.18442403882E+02  0.13999451556E+03  0.14122586625E+03  0.00000000000E+00 0.  1.
<mgrwt>
<rscale>  0 0.97427539E+02</rscale>
<asrwt>0</asrwt>
<pdfrwt beam="1">  1        1 0.78721905E-01 0.97427539E+02</pdfrwt>
<pdfrwt beam="2">  1       -1 0.71347896E-03 0.97427539E+02</pdfrwt>
<totfact> 0.11706506E+05</totfact>
</mgrwt>
</event>
<event>
 7    1  0.2911475E-009  0.9003941E+02  0.7818608E-02  0.1302756E+00
          1   -1    0    0  501    0  0.00000000000E+00  0.00000000000E+00  0.77060545219E+02  0.77060545384E+02  0.50400000000E-02 0. -1.
         -1   -1    0    0    0  501 -0.00000000000E+00 -0.00000000000E+00 -0.26301059586E+02  0.26301060069E+02  0.50400000000E-02 0.  1.
         23    2    1    2    0    0  0.00000000000E+00  0.00000000000E+00  0.50759485633E+02  0.10336160545E+03  0.90039414148E+02 0.  0.
    9000005    2    3    3    0    0 -0.54027176251E+01  0.25138553049E+02 -0.16428560283E+02  0.31421562910E+02  0.75020540903E+01 0.  0.
         22    1    3    3    0    0  0.54027176251E+01 -0.25138553049E+02  0.67188045916E+02  0.71940042543E+02  0.00000000000E+00 0. -1.
         22    1    4    4    0    0 -0.71665694532E+01  0.22451075206E+02 -0.14605173610E+02  0.27725828965E+02  0.00000000000E+00 0. -1.
         22    1    4    4    0    0  0.17638518280E+01  0.26874778432E+01 -0.18233866727E+01  0.36957339443E+01  0.00000000000E+00 0. -1.
<mgrwt>
<rscale>  0 0.90039414E+02</rscale>
<asrwt>0</asrwt>
<pdfrwt beam="1">  1        1 0.11855468E-01 0.90039414E+02</pdfrwt>
<pdfrwt beam="2">  1       -1 0.40463170E-02 0.90039414E+02</pdfrwt>
<totfact> 0.10366256E+05</totfact>
</mgrwt>
</event>
<event>
 7    1  0.2911475E-009  0.8878830E+02  0.7818608E-02  0.1305813E+00
         -1   -1    0    0    0  501 -0.00000000000E+00  0.00000000000E+00  0.20110145330E+03  0.20110145336E+03  0.50400000000E-02 0.  1.
          1   -1    0    0  501    0  0.00000000000E+00 -0.00000000000E+00 -0.98002290544E+01  0.98002303504E+01  0.50400000000E-02 0. -1.
         23    2    1    2    0    0  0.00000000000E+00  0.00000000000E+00  0.19130122424E+03  0.21090168371E+03  0.88788297626E+02 0.  0.
    9000005    2    3    3    0    0 -0.78429761217E+01 -0.42034647065E+02  0.73774443869E+02  0.85837828287E+02  0.98509069918E+01 0.  0.
         22    1    3    3    0    0  0.78429761217E+01  0.42034647065E+02  0.11752678037E+03  0.12506385542E+03  0.00000000000E+00 0.  1.
         22    1    4    4    0    0 -0.13914572109E-02 -0.16169710258E+02  0.20593888518E+02  0.26183349214E+02  0.00000000000E+00 0. -1.
         22    1    4    4    0    0 -0.78415846644E+01 -0.25864936808E+02  0.53180555351E+02  0.59654479074E+02  0.00000000000E+00 0. -1.
<mgrwt>
<rscale>  0 0.88788298E+02</rscale>
<asrwt>0</asrwt>
<pdfrwt beam="2">  1        1 0.15077278E-02 0.88788298E+02</pdfrwt>
<pdfrwt beam="1">  1       -1 0.30938682E-01 0.88788298E+02</pdfrwt>
<totfact> 0.74271888E+04</totfact>
</mgrwt>
</event>
<event>
 7    1  0.2911475E-009  0.9442970E+02  0.7818608E-02  0.1292466E+00
          1   -1    0    0  501    0  0.00000000000E+00  0.00000000000E+00  0.39340743633E+03  0.39340743636E+03  0.50400000000E-02 0. -1.
         -1   -1    0    0    0  501 -0.00000000000E+00 -0.00000000000E+00 -0.56664964048E+01  0.56664986462E+01  0.50400000000E-02 0.  1.
         23    2    1    2    0    0  0.00000000000E+00  0.00000000000E+00  0.38774093993E+03  0.39907393501E+03  0.94429704591E+02 0.  0.
    9000005    2    3    3    0    0  0.15642616363E+02  0.40766636112E+02  0.12809973641E+03  0.13578670663E+03  0.11039798973E+02 0.  0.
         22    1    3    3    0    0 -0.15642616363E+02 -0.40766636112E+02  0.25964120352E+03  0.26328722838E+03  0.00000000000E+00 0.  1.
         22    1    4    4    0    0  0.40936429674E+01  0.13522131638E+02  0.27383146669E+02  0.30813027736E+02  0.00000000000E+00 0.  1.
         22    1    4    4    0    0  0.11548973396E+02  0.27244504475E+02  0.10071658974E+03  0.10497367889E+03  0.00000000000E+00 0.  1.
<mgrwt>
<rscale>  0 0.94429705E+02</rscale>
<asrwt>0</asrwt>
<pdfrwt beam="1">  1        1 0.60524236E-01 0.94429705E+02</pdfrwt>
<pdfrwt beam="2">  1       -1 0.87176865E-03 0.94429705E+02</pdfrwt>
<totfact> 0.12253862E+05</totfact>
</mgrwt>
</event>
<event>
 7    1  0.2911475E-009  0.1011528E+03  0.7818608E-02  0.1277890E+00
         -1   -1    0    0    0  501 -0.00000000000E+00  0.00000000000E+00  0.12340603511E+03  0.12340603522E+03  0.50400000000E-02 0.  1.
          1   -1    0    0  501    0  0.00000000000E+00 -0.00000000000E+00 -0.20728107921E+02  0.20728108534E+02  0.50400000000E-02 0. -1.
         23    2    1    2    0    0  0.00000000000E+00 -0.44408920985E-15  0.10267792719E+03  0.14413414375E+03  0.10115282825E+03 0.  0.
    9000005    2    3    3    0    0  0.43407394771E+02 -0.94857672953E+00  0.86958972047E+02  0.97958530388E+02  0.12202833189E+02 0.  0.
         22    1    3    3    0    0 -0.43407394771E+02  0.94857672953E+00  0.15718955147E+02  0.46175613363E+02  0.00000000000E+00 0. -1.
         22    1    4    4    0    0  0.26499241348E+02  0.36479209254E+01  0.43061337163E+02  0.50693154147E+02  0.00000000000E+00 0. -1.
         22    1    4    4    0    0  0.16908153423E+02 -0.45964976549E+01  0.43897634884E+02  0.47265376242E+02  0.00000000000E+00 0. -1.
<mgrwt>
<rscale>  0 0.10115283E+03</rscale>
<asrwt>0</asrwt>
<pdfrwt beam="2">  1        1 0.31889397E-02 0.10115283E+03</pdfrwt>
<pdfrwt beam="1">  1       -1 0.18985544E-01 0.10115283E+03</pdfrwt>
<totfact> 0.59646849E+04</totfact>
</mgrwt>
</event>
<event>
 7    1  0.2911475E-009  0.9097667E+02  0.7818608E-02  0.1300504E+00
         -1   -1    0    0    0  501 -0.00000000000E+00  0.00000000000E+00  0.63773069735E+01  0.63773089651E+01  0.50400000000E-02 0.  1.
          1   -1    0    0  501    0  0.00000000000E+00 -0.00000000000E+00 -0.32446111163E+03  0.32446111167E+03  0.50400000000E-02 0. -1.
         23    2    1    2    0    0 -0.71054273576E-14  0.00000000000E+00 -0.31808380466E+03  0.33083842064E+03  0.90976666146E+02 0.  0.
    9000005    2    3    3    0    0 -0.40265329663E+02 -0.20027445216E+02 -0.18197737361E+03  0.18749493140E+03  0.40236126136E+01 0.  0.
         22    1    3    3    0    0  0.40265329663E+02  0.20027445216E+02 -0.13610643104E+03  0.14334348924E+03  0.00000000000E+00 0. -1.
         22    1    4    4    0    0 -0.15849689374E+01 -0.17586741674E+01 -0.10224832889E+02  0.10495345109E+02  0.00000000000E+00 0. -1.
         22    1    4    4    0    0 -0.38680360726E+02 -0.18268771048E+02 -0.17175254073E+03  0.17699958629E+03  0.00000000000E+00 0. -1.
<mgrwt>
<rscale>  0 0.90976666E+02</rscale>
<asrwt>0</asrwt>
<pdfrwt beam="2">  1        1 0.49917081E-01 0.90976666E+02</pdfrwt>
<pdfrwt beam="1">  1       -1 0.98112456E-03 0.90976666E+02</pdfrwt>
<totfact> 0.13078875E+05</totfact>
</mgrwt>
</event>
<event>
 7    1  0.2911475E-009  0.9188305E+02  0.7818608E-02  0.1298355E+00
          1   -1    0    0  501    0  0.00000000000E+00  0.00000000000E+00  0.16668755388E+02  0.16668756150E+02  0.50400000000E-02 0. -1.
         -1   -1    0    0    0  501 -0.00000000000E+00 -0.00000000000E+00 -0.12662154269E+03  0.12662154279E+03  0.50400000000E-02 0.  1.
         23    2    1    2    0    0  0.00000000000E+00  0.00000000000E+00 -0.10995278730E+03  0.14329029894E+03  0.91883047048E+02 0.  0.
    9000005    2    3    3    0    0 -0.21770907741E+02  0.24088113488E+02 -0.57248407760E+01  0.34122197041E+02  0.87943671576E+01 0.  0.
         22    1    3    3    0    0  0.21770907741E+02 -0.24088113488E+02 -0.10422794653E+03  0.10916810190E+03  0.00000000000E+00 0.  1.
         22    1    4    4    0    0 -0.21419318570E+02  0.20459632016E+02 -0.66568451349E+01  0.30359468661E+02  0.00000000000E+00 0.  1.
         22    1    4    4    0    0 -0.35158917144E+00  0.36284814713E+01  0.93200435891E+00  0.37627283796E+01  0.00000000000E+00 0.  1.
<mgrwt>
<rscale>  0 0.91883047E+02</rscale>
<asrwt>0</asrwt>
<pdfrwt beam="1">  1        1 0.25644241E-02 0.91883047E+02</pdfrwt>
<pdfrwt beam="2">  1       -1 0.19480237E-01 0.91883047E+02</pdfrwt>
<totfact> 0.76121781E+04</totfact>
</mgrwt>
</event>
<event>
 7    1  0.2911475E-009  0.8690541E+02  0.7818608E-02  0.1310524E+00
          1   -1    0    0  501    0  0.00000000000E+00  0.00000000000E+00  0.41417459434E+02  0.41417459741E+02  0.50400000000E-02 0. -1.
         -1   -1    0    0    0  501 -0.00000000000E+00 -0.00000000000E+00 -0.45587961045E+02  0.45587961323E+02  0.50400000000E-02 0.  1.
         23    2    1    2    0    0  0.00000000000E+00  0.00000000000E+00 -0.41705016109E+01  0.87005421064E+02  0.86905409560E+02 0.  0.
    9000005    2    3    3    0    0  0.37179468780E+02 -0.20444724795E+02  0.26269806556E+01  0.44034437414E+02  0.11481767298E+02 0.  0.
         22    1    3    3    0    0 -0.37179468780E+02  0.20444724795E+02 -0.67974822665E+01  0.42970983650E+02  0.00000000000E+00 0.  1.
         22    1    4    4    0    0  0.25103048924E+01 -0.52482799492E+01  0.20758332123E+01  0.61769860452E+01  0.00000000000E+00 0. -1.
         22    1    4    4    0    0  0.34669163888E+02 -0.15196444846E+02  0.55114744335E+00  0.37857451369E+02  0.00000000000E+00 0. -1.
<mgrwt>
<rscale>  0 0.86905410E+02</rscale>
<asrwt>0</asrwt>
<pdfrwt beam="1">  1        1 0.63719169E-02 0.86905410E+02</pdfrwt>
<pdfrwt beam="2">  1       -1 0.70135325E-02 0.86905410E+02</pdfrwt>
<totfact> 0.10427994E+05</totfact>
</mgrwt>
</event>
<event>
 7    1  0.2911475E-009  0.9214306E+02  0.7818608E-02  0.1297743E+00
         -1   -1    0    0    0  501 -0.00000000000E+00  0.00000000000E+00  0.92248645971E+01  0.92248659739E+01  0.50400000000E-02 0.  1.
          1   -1    0    0  501    0  0.00000000000E+00 -0.00000000000E+00 -0.23009399255E+03  0.23009399260E+03  0.50400000000E-02 0. -1.
         23    2    1    2    0    0  0.00000000000E+00 -0.35527136788E-14 -0.22086912795E+03  0.23931885858E+03  0.92143064790E+02 0.  0.
    9000005    2    3    3    0    0 -0.17834602264E+02  0.29006000421E+02 -0.19020908392E+03  0.19349900046E+03  0.10146254147E+02 0.  0.
         22    1    3    3    0    0  0.17834602264E+02 -0.29006000421E+02 -0.30660044031E+02  0.45819858122E+02  0.00000000000E+00 0.  1.
         22    1    4    4    0    0 -0.84786279836E+01  0.10695981910E+02 -0.51668580288E+02  0.53440933286E+02  0.00000000000E+00 0. -1.
         22    1    4    4    0    0 -0.93559742807E+01  0.18310018510E+02 -0.13854050363E+03  0.14005806717E+03  0.00000000000E+00 0. -1.
<mgrwt>
<rscale>  0 0.92143065E+02</rscale>
<asrwt>0</asrwt>
<pdfrwt beam="2">  1        1 0.35399072E-01 0.92143065E+02</pdfrwt>
<pdfrwt beam="1">  1       -1 0.14192102E-02 0.92143065E+02</pdfrwt>
<totfact> 0.11829651E+05</totfact>
</mgrwt>
</event>
<event>
 7    1  0.2911475E-009  0.9212639E+02  0.7818608E-02  0.1297783E+00
          1   -1    0    0  501    0  0.00000000000E+00  0.00000000000E+00  0.87855018606E+03  0.87855018607E+03  0.50400000000E-02 0. -1.
         -1   -1    0    0    0  501 -0.00000000000E+00 -0.00000000000E+00 -0.24151331305E+01  0.24151383893E+01  0.50400000000E-02 0.  1.
         23    2    1    2    0    0  0.00000000000E+00  0.00000000000E+00  0.87613505293E+03  0.88096532446E+03  0.92126391093E+02 0.  0.
    9000005    2    3    3    0    0  0.87895550086E+01 -0.16973937549E+02  0.83814341826E+03  0.83843609759E+03  0.11195058988E+02 0.  0.
         22    1    3    3    0    0 -0.87895550086E+01  0.16973937549E+02  0.37991634672E+02  0.42529226870E+02  0.00000000000E+00 0.  1.
         22    1    4    4    0    0  0.21888583592E+01 -0.46418009318E+01  0.46852839175E+03  0.46855649744E+03  0.00000000000E+00 0. -1.
         22    1    4    4    0    0  0.66006966495E+01 -0.12332136617E+02  0.36961502651E+03  0.36987960016E+03  0.00000000000E+00 0. -1.
<mgrwt>
<rscale>  0 0.92126391E+02</rscale>
<asrwt>0</asrwt>
<pdfrwt beam="1">  1        1 0.13516152E+00 0.92126391E+02</pdfrwt>
<pdfrwt beam="2">  1       -1 0.37155948E-03 0.92126391E+02</pdfrwt>
<totfact> 0.13594883E+05</totfact>
</mgrwt>
</event>
<event>
 7    1  0.2911475E-009  0.9746428E+02  0.7818608E-02  0.1285720E+00
         -1   -1    0    0    0  501 -0.00000000000E+00  0.00000000000E+00  0.44604212439E+02  0.44604212724E+02  0.50400000000E-02 0.  1.
          1   -1    0    0  501    0  0.00000000000E+00 -0.00000000000E+00 -0.53242089018E+02  0.53242089257E+02  0.50400000000E-02 0. -1.
         23    2    1    2    0    0  0.00000000000E+00  0.00000000000E+00 -0.86378765789E+01  0.97846301980E+02  0.97464280121E+02 0.  0.
    9000005    2    3    3    0    0 -0.19282319457E+02  0.43216558206E+02 -0.12418317381E+02  0.50372409371E+02  0.11986920893E+02 0.  0.
         22    1    3    3    0    0  0.19282319457E+02 -0.43216558206E+02  0.37804408025E+01  0.47473892609E+02  0.00000000000E+00 0. -1.
         22    1    4    4    0    0 -0.30438561109E+00  0.10623806702E+02  0.11584586111E+00  0.10628797660E+02  0.00000000000E+00 0. -1.
         22    1    4    4    0    0 -0.18977933846E+02  0.32592751504E+02 -0.12534163243E+02  0.39743611711E+02  0.00000000000E+00 0. -1.
<mgrwt>
<rscale>  0 0.97464280E+02</rscale>
<asrwt>0</asrwt>
<pdfrwt beam="2">  1        1 0.81910907E-02 0.97464280E+02</pdfrwt>
<pdfrwt beam="1">  1       -1 0.68621865E-02 0.97464280E+02</pdfrwt>
<totfact> 0.78507324E+04</totfact>
</mgrwt>
</event>
<event>
 7    1  0.2911475E-009  0.8422934E+02  0.7818608E-02  0.1317460E+00
          1   -1    0    0  501    0  0.00000000000E+00  0.00000000000E+00  0.68444158256E+01  0.68444176812E+01  0.50400000000E-02 0. -1.
         -1   -1    0    0    0  501 -0.00000000000E+00 -0.00000000000E+00 -0.25913752539E+03  0.25913752544E+03  0.50400000000E-02 0.  1.
         23    2    1    2    0    0  0.00000000000E+00 -0.22204460493E-15 -0.25229310956E+03  0.26598194312E+03  0.84229335343E+02 0.  0.
    9000005    2    3    3    0    0 -0.40880744638E+02 -0.19352451760E+01 -0.10066662140E+03  0.10892917375E+03  0.75376237747E+01 0.  0.
         22    1    3    3    0    0  0.40880744638E+02  0.19352451760E+01 -0.15162648816E+03  0.15705276937E+03  0.00000000000E+00 0. -1.
         22    1    4    4    0    0 -0.84416911579E+01  0.17045053157E+01 -0.27357599255E+02  0.28681103971E+02  0.00000000000E+00 0. -1.
         22    1    4    4    0    0 -0.32439053480E+02 -0.36397504917E+01 -0.73309022150E+02  0.80248069777E+02  0.00000000000E+00 0. -1.
<mgrwt>
<rscale>  0 0.84229335E+02</rscale>
<asrwt>0</asrwt>
<pdfrwt beam="1">  1        1 0.10529874E-02 0.84229335E+02</pdfrwt>
<pdfrwt beam="2">  1       -1 0.39867304E-01 0.84229335E+02</pdfrwt>
<totfact> 0.78632667E+04</totfact>
</mgrwt>
</event>
<event>
 7    1  0.2911475E-009  0.8925238E+02  0.7818608E-02  0.1304672E+00
         -1   -1    0    0    0  501 -0.00000000000E+00  0.00000000000E+00  0.45678961665E+02  0.45678961943E+02  0.50400000000E-02 0.  1.
          1   -1    0    0  501    0  0.00000000000E+00 -0.00000000000E+00 -0.43597682488E+02  0.43597682780E+02  0.50400000000E-02 0. -1.
         23    2    1    2    0    0  0.00000000000E+00  0.17763568394E-14  0.20812791767E+01  0.89276644723E+02  0.89252381313E+02 0.  0.
    9000005    2    3    3    0    0 -0.47288856651E+01  0.11090277004E+02 -0.41283688358E+02  0.44266901189E+02  0.10481365022E+02 0.  0.
         22    1    3    3    0    0  0.47288856651E+01 -0.11090277004E+02  0.43364967535E+02  0.45009743534E+02  0.00000000000E+00 0.  1.
         22    1    4    4    0    0 -0.24840654000E+01  0.27152781832E+01 -0.28992817225E+02  0.29225447253E+02  0.00000000000E+00 0. -1.
         22    1    4    4    0    0 -0.22448202652E+01  0.83749988212E+01 -0.12290871134E+02  0.15041453936E+02  0.00000000000E+00 0. -1.
<mgrwt>
<rscale>  0 0.89252381E+02</rscale>
<asrwt>0</asrwt>
<pdfrwt beam="2">  1        1 0.67073358E-02 0.89252381E+02</pdfrwt>
<pdfrwt beam="1">  1       -1 0.70275326E-02 0.89252381E+02</pdfrwt>
<totfact> 0.97517976E+04</totfact>
</mgrwt>
</event>
<event>
 7    1  0.2911475E-009  0.8857331E+02  0.7818608E-02  0.1306344E+00
         -1   -1    0    0    0  501 -0.00000000000E+00  0.00000000000E+00  0.22679595594E+02  0.22679596154E+02  0.50400000000E-02 0.  1.
          1   -1    0    0  501    0  0.00000000000E+00 -0.00000000000E+00 -0.86478955004E+02  0.86478955151E+02  0.50400000000E-02 0. -1.
         23    2    1    2    0    0  0.00000000000E+00  0.00000000000E+00 -0.63799359410E+02  0.10915855131E+03  0.88573308970E+02 0.  0.
    9000005    2    3    3    0    0  0.13865647107E+02 -0.11820295689E+02  0.16171111436E+02  0.27138725853E+02  0.11959516545E+02 0.  0.
         22    1    3    3    0    0 -0.13865647107E+02  0.11820295689E+02 -0.79970470846E+02  0.82019825452E+02  0.00000000000E+00 0. -1.
         22    1    4    4    0    0  0.61526365180E+01  0.78957365814E+00  0.83899522736E+01  0.10434062576E+02  0.00000000000E+00 0.  1.
         22    1    4    4    0    0  0.77130105891E+01 -0.12609869347E+02  0.77811591625E+01  0.16704663277E+02  0.00000000000E+00 0.  1.
<mgrwt>
<rscale>  0 0.88573309E+02</rscale>
<asrwt>0</asrwt>
<pdfrwt beam="2">  1        1 0.13304454E-01 0.88573309E+02</pdfrwt>
<pdfrwt beam="1">  1       -1 0.34891687E-02 0.88573309E+02</pdfrwt>
<totfact> 0.11039707E+05</totfact>
</mgrwt>
</event>
<event>
 7    1  0.2911475E-009  0.9121236E+02  0.7818608E-02  0.1299942E+00
          1   -1    0    0  501    0  0.00000000000E+00  0.00000000000E+00  0.89587272155E+03  0.89587272157E+03  0.50400000000E-02 0. -1.
         -1   -1    0    0    0  501 -0.00000000000E+00 -0.00000000000E+00 -0.23216703801E+01  0.23216758506E+01  0.50400000000E-02 0.  1.
         23    2    1    2    0    0  0.17763568394E-14  0.00000000000E+00  0.89355105117E+03  0.89819439742E+03  0.91212359363E+02 0.  0.
    9000005    2    3    3    0    0  0.14449701642E+02 -0.23226391052E+02  0.80405463652E+03  0.80461091942E+03  0.12108427587E+02 0.  0.
         22    1    3    3    0    0 -0.14449701642E+02  0.23226391052E+02  0.89496414656E+02  0.93583478003E+02  0.00000000000E+00 0.  1.
         22    1    4    4    0    0  0.27076503499E+01 -0.90266224932E+01  0.42946160297E+03  0.42956498893E+03  0.00000000000E+00 0.  1.
         22    1    4    4    0    0  0.11742051292E+02 -0.14199768559E+02  0.37459303354E+03  0.37504593049E+03  0.00000000000E+00 0.  1.
<mgrwt>
<rscale>  0 0.91212359E+02</rscale>
<asrwt>0</asrwt>
<pdfrwt beam="1">  1        1 0.13782676E+00 0.91212359E+02</pdfrwt>
<pdfrwt beam="2">  1       -1 0.35717998E-03 0.91212359E+02</pdfrwt>
<totfact> 0.13914243E+05</totfact>
</mgrwt>
</event>
<event>
 7    1  0.2911475E-009  0.8868387E+02  0.7818608E-02  0.1306071E+00
         -1   -1    0    0    0  501 -0.00000000000E+00  0.00000000000E+00  0.47223900750E+02  0.47223901019E+02  0.50400000000E-02 0.  1.
          1   -1    0    0  501    0  0.00000000000E+00 -0.00000000000E+00 -0.41635845203E+02  0.41635845508E+02  0.50400000000E-02 0. -1.
         23    2    1    2    0    0  0.00000000000E+00  0.00000000000E+00  0.55880555472E+01  0.88859746527E+02  0.88683866560E+02 0.  0.
    9000005    2    3    3    0    0  0.40637714261E+02  0.44292195794E+01  0.19851292713E+02  0.45564461092E+02  0.33173009846E+01 0.  0.
         22    1    3    3    0    0 -0.40637714261E+02 -0.44292195794E+01 -0.14263237166E+02  0.43295285435E+02  0.00000000000E+00 0. -1.
         22    1    4    4    0    0  0.10738337180E+02  0.19748960567E+01  0.39509122665E+01  0.11611279325E+02  0.00000000000E+00 0. -1.
         22    1    4    4    0    0  0.29899377081E+02  0.24543235227E+01  0.15900380446E+02  0.33953181767E+02  0.00000000000E+00 0. -1.
<mgrwt>
<rscale>  0 0.88683867E+02</rscale>
<asrwt>0</asrwt>
<pdfrwt beam="2">  1        1 0.64055147E-02 0.88683867E+02</pdfrwt>
<pdfrwt beam="1">  1       -1 0.72652156E-02 0.88683867E+02</pdfrwt>
<totfact> 0.98606778E+04</totfact>
</mgrwt>
</event>
<event>
 7    1  0.2911475E-009  0.9145986E+02  0.7818608E-02  0.1299354E+00
          1   -1    0    0  501    0  0.00000000000E+00  0.00000000000E+00  0.33157232239E+03  0.33157232243E+03  0.50400000000E-02 0. -1.
         -1   -1    0    0    0  501 -0.00000000000E+00 -0.00000000000E+00 -0.63069987467E+01  0.63070007604E+01  0.50400000000E-02 0.  1.
         23    2    1    2    0    0  0.00000000000E+00  0.44408920985E-15  0.32526532364E+03  0.33787932319E+03  0.91459861544E+02 0.  0.
    9000005    2    3    3    0    0  0.42915746639E+02  0.22065327001E+01  0.21372244460E+03  0.21834504374E+03  0.12273740567E+02 0.  0.
         22    1    3    3    0    0 -0.42915746639E+02 -0.22065327001E+01  0.11154287905E+03  0.11953427944E+03  0.00000000000E+00 0.  1.
         22    1    4    4    0    0  0.90715395360E+00 -0.18570036515E+01  0.18349673836E+02  0.18465695783E+02  0.00000000000E+00 0. -1.
         22    1    4    4    0    0  0.42008592685E+02  0.40635363516E+01  0.19537277076E+03  0.19987934796E+03  0.00000000000E+00 0. -1.
<mgrwt>
<rscale>  0 0.91459862E+02</rscale>
<asrwt>0</asrwt>
<pdfrwt beam="1">  1        1 0.51011134E-01 0.91459862E+02</pdfrwt>
<pdfrwt beam="2">  1       -1 0.97030752E-03 0.91459862E+02</pdfrwt>
<totfact> 0.12947397E+05</totfact>
</mgrwt>
</event>
<event>
 7    1  0.2911475E-009  0.9138711E+02  0.7818608E-02  0.1299527E+00
         -1   -1    0    0    0  501 -0.00000000000E+00  0.00000000000E+00  0.23580137461E+02  0.23580138000E+02  0.50400000000E-02 0.  1.
          1   -1    0    0  501    0  0.00000000000E+00 -0.00000000000E+00 -0.88544903704E+02  0.88544903847E+02  0.50400000000E-02 0. -1.
         23    2    1    2    0    0  0.00000000000E+00 -0.71054273576E-14 -0.64964766243E+02  0.11212504185E+03  0.91387111543E+02 0.  0.
    9000005    2    3    3    0    0  0.69911322777E+01  0.44603838267E+02 -0.41063820527E+02  0.61040469569E+02  0.11503261858E+01 0.  0.
         22    1    3    3    0    0 -0.69911322777E+01 -0.44603838267E+02 -0.23900945716E+02  0.51084572277E+02  0.00000000000E+00 0.  1.
         22    1    4    4    0    0  0.15919936009E+01  0.84373826643E+01 -0.73212499997E+01  0.11283819008E+02  0.00000000000E+00 0. -1.
         22    1    4    4    0    0  0.53991386768E+01  0.36166455602E+02 -0.33742570527E+02  0.49756650561E+02  0.00000000000E+00 0. -1.
<mgrwt>
<rscale>  0 0.91387112E+02</rscale>
<asrwt>0</asrwt>
<pdfrwt beam="2">  1        1 0.13622293E-01 0.91387112E+02</pdfrwt>
<pdfrwt beam="1">  1       -1 0.36277136E-02 0.91387112E+02</pdfrwt>
<totfact> 0.10174589E+05</totfact>
</mgrwt>
</event>
<event>
 7    1  0.2911475E-009  0.9126675E+02  0.7818608E-02  0.1299813E+00
          1   -1    0    0  501    0  0.00000000000E+00  0.00000000000E+00  0.10363136915E+02  0.10363138141E+02  0.50400000000E-02 0. -1.
         -1   -1    0    0    0  501 -0.00000000000E+00 -0.00000000000E+00 -0.20094346399E+03  0.20094346405E+03  0.50400000000E-02 0.  1.
         23    2    1    2    0    0  0.00000000000E+00  0.71054273576E-14 -0.19058032708E+03  0.21130660219E+03  0.91266746753E+02 0.  0.
    9000005    2    3    3    0    0  0.58251838104E+01 -0.42576226325E+02 -0.13079565924E+03  0.13768001513E+03  0.12705416147E+01 0.  0.
         22    1    3    3    0    0 -0.58251838104E+01  0.42576226325E+02 -0.59784667840E+02  0.73626587068E+02  0.00000000000E+00 0. -1.
         22    1    4    4    0    0  0.54785604106E+01 -0.36977023768E+02 -0.11405034885E+03  0.12001998577E+03  0.00000000000E+00 0. -1.
         22    1    4    4    0    0  0.34662339976E+00 -0.55992025574E+01 -0.16745310388E+02  0.17660029361E+02  0.00000000000E+00 0. -1.
<mgrwt>
<rscale>  0 0.91266747E+02</rscale>
<asrwt>0</asrwt>
<pdfrwt beam="1">  1        1 0.15943290E-02 0.91266747E+02</pdfrwt>
<pdfrwt beam="2">  1       -1 0.30914376E-01 0.91266747E+02</pdfrwt>
<totfact> 0.69153048E+04</totfact>
</mgrwt>
</event>
<event>
 7    1  0.2911475E-009  0.9120028E+02  0.7818608E-02  0.1299971E+00
          1   -1    0    0  501    0  0.00000000000E+00  0.00000000000E+00  0.12842972316E+03  0.12842972326E+03  0.50400000000E-02 0. -1.
         -1   -1    0    0    0  501 -0.00000000000E+00 -0.00000000000E+00 -0.16190743356E+02  0.16190744141E+02  0.50400000000E-02 0.  1.
         23    2    1    2    0    0 -0.35527136788E-14  0.00000000000E+00  0.11223897981E+03  0.14462046740E+03  0.91200279626E+02 0.  0.
    9000005    2    3    3    0    0  0.28949383032E+02 -0.28855384709E+02  0.85970261513E+02  0.96032963193E+02  0.12678491643E+02 0.  0.
         22    1    3    3    0    0 -0.28949383032E+02  0.28855384709E+02  0.26268718295E+02  0.48587504211E+02  0.00000000000E+00 0. -1.
         22    1    4    4    0    0  0.17686266181E+01 -0.79708560128E+01  0.12096661545E+02  0.14594238802E+02  0.00000000000E+00 0.  1.
         22    1    4    4    0    0  0.27180756414E+02 -0.20884528696E+02  0.73873599968E+02  0.81438724390E+02  0.00000000000E+00 0.  1.
<mgrwt>
<rscale>  0 0.91200280E+02</rscale>
<asrwt>0</asrwt>
<pdfrwt beam="1">  1        1 0.19758419E-01 0.91200280E+02</pdfrwt>
<pdfrwt beam="2">  1       -1 0.24908837E-02 0.91200280E+02</pdfrwt>
<totfact> 0.10895565E+05</totfact>
</mgrwt>
</event>
<event>
 7    1  0.2911475E-009  0.1007833E+03  0.7818608E-02  0.1278657E+00
         -1   -1    0    0    0  501 -0.00000000000E+00  0.00000000000E+00  0.91174322559E+01  0.91174336490E+01  0.50400000000E-02 0.  1.
          1   -1    0    0  501    0  0.00000000000E+00 -0.00000000000E+00 -0.27851257354E+03  0.27851257359E+03  0.50400000000E-02 0. -1.
         23    2    1    2    0    0  0.71054273576E-14  0.00000000000E+00 -0.26939514129E+03  0.28763000724E+03  0.10078332657E+03 0.  0.
    9000005    2    3    3    0    0 -0.46328350167E+02 -0.44502778218E+01 -0.18783196712E+03  0.19372222065E+03  0.90183090989E+01 0.  0.
         22    1    3    3    0    0  0.46328350167E+02  0.44502778218E+01 -0.81563174171E+02  0.93907786592E+02  0.00000000000E+00 0.  1.
         22    1    4    4    0    0 -0.39616385705E+02 -0.48489654879E+01 -0.17102057819E+03  0.17561608311E+03  0.00000000000E+00 0.  1.
         22    1    4    4    0    0 -0.67119644618E+01  0.39868766611E+00 -0.16811388928E+02  0.18106137536E+02  0.00000000000E+00 0.  1.
<mgrwt>
<rscale>  0 0.10078333E+03</rscale>
<asrwt>0</asrwt>
<pdfrwt beam="2">  1        1 0.42848082E-01 0.10078333E+03</pdfrwt>
<pdfrwt beam="1">  1       -1 0.14026822E-02 0.10078333E+03</pdfrwt>
<totfact> 0.96541815E+04</totfact>
</mgrwt>
</event>
<event>
 7    1  0.2911475E-009  0.9058599E+02  0.7818608E-02  0.1301439E+00
          1   -1    0    0  501    0  0.00000000000E+00  0.00000000000E+00  0.41566678618E+03  0.41566678621E+03  0.50400000000E-02 0. -1.
         -1   -1    0    0    0  501 -0.00000000000E+00 -0.00000000000E+00 -0.49353353645E+01  0.49353379380E+01  0.50400000000E-02 0.  1.
         23    2    1    2    0    0  0.00000000000E+00  0.00000000000E+00  0.41073145081E+03  0.42060212414E+03  0.90585993118E+02 0.  0.
    9000005    2    3    3    0    0 -0.19849002718E+02 -0.39435673439E+02  0.24204996202E+03  0.24623871081E+03  0.98062908023E+01 0.  0.
         22    1    3    3    0    0  0.19849002718E+02  0.39435673439E+02  0.16868148879E+03  0.17436341333E+03  0.00000000000E+00 0.  1.
         22    1    4    4    0    0 -0.68377383034E+01 -0.17367391471E+02  0.78106200863E+02  0.80305414294E+02  0.00000000000E+00 0.  1.
         22    1    4    4    0    0 -0.13011264415E+02 -0.22068281968E+02  0.16394376116E+03  0.16593329652E+03  0.00000000000E+00 0.  1.
<mgrwt>
<rscale>  0 0.90585993E+02</rscale>
<asrwt>0</asrwt>
<pdfrwt beam="1">  1        1 0.63948742E-01 0.90585993E+02</pdfrwt>
<pdfrwt beam="2">  1       -1 0.75928250E-03 0.90585993E+02</pdfrwt>
<totfact> 0.13808825E+05</totfact>
</mgrwt>
</event>
<event>
 7    1  0.2911475E-009  0.9151056E+02  0.7818608E-02  0.1299234E+00
         -1   -1    0    0    0  501 -0.00000000000E+00  0.00000000000E+00  0.17998925117E+03  0.17998925124E+03  0.50400000000E-02 0.  1.
          1   -1    0    0  501    0  0.00000000000E+00 -0.00000000000E+00 -0.11631503964E+02  0.11631505056E+02  0.50400000000E-02 0. -1.
         23    2    1    2    0    0  0.00000000000E+00  0.00000000000E+00  0.16835774721E+03  0.19162075630E+03  0.91510563320E+02 0.  0.
    9000005    2    3    3    0    0 -0.17234560577E+02 -0.30140883393E+02  0.14519606612E+03  0.14988388530E+03  0.13333361360E+02 0.  0.
         22    1    3    3    0    0  0.17234560577E+02  0.30140883393E+02  0.23161681086E+02  0.41736870998E+02  0.00000000000E+00 0. -1.
         22    1    4    4    0    0 -0.17550133982E+02 -0.21516436423E+02  0.95927113538E+02  0.99864785340E+02  0.00000000000E+00 0. -1.
         22    1    4    4    0    0  0.31557340464E+00 -0.86244469696E+01  0.49268952581E+02  0.50019099958E+02  0.00000000000E+00 0. -1.
<mgrwt>
<rscale>  0 0.91510563E+02</rscale>
<asrwt>0</asrwt>
<pdfrwt beam="2">  1        1 0.17894622E-02 0.91510563E+02</pdfrwt>
<pdfrwt beam="1">  1       -1 0.27690654E-01 0.91510563E+02</pdfrwt>
<totfact> 0.70793588E+04</totfact>
</mgrwt>
</event>
<event>
 7    1  0.2911475E-009  0.1056968E+03  0.7818608E-02  0.1268753E+00
         -1   -1    0    0    0  501 -0.00000000000E+00  0.00000000000E+00  0.68815605306E+01  0.68815623762E+01  0.50400000000E-02 0.  1.
          1   -1    0    0  501    0  0.00000000000E+00 -0.00000000000E+00 -0.40586072251E+03  0.40586072254E+03  0.50400000000E-02 0. -1.
         23    2    1    2    0    0  0.00000000000E+00  0.00000000000E+00 -0.39897916198E+03  0.41274228491E+03  0.10569684037E+03 0.  0.
    9000005    2    3    3    0    0 -0.34909034228E+02  0.27250787367E+02 -0.31123964835E+03  0.31445969065E+03  0.73165743134E+01 0.  0.
         22    1    3    3    0    0  0.34909034228E+02 -0.27250787367E+02 -0.87739513629E+02  0.98282594261E+02  0.00000000000E+00 0.  1.
         22    1    4    4    0    0 -0.15556701431E+02  0.15855125312E+02 -0.17015990892E+03  0.17160358551E+03  0.00000000000E+00 0.  1.
         22    1    4    4    0    0 -0.19352332797E+02  0.11395662054E+02 -0.14107973943E+03  0.14285610514E+03  0.00000000000E+00 0.  1.
<mgrwt>
<rscale>  0 0.10569684E+03</rscale>
<asrwt>0</asrwt>
<pdfrwt beam="2">  1        1 0.62440093E-01 0.10569684E+03</pdfrwt>
<pdfrwt beam="1">  1       -1 0.10587021E-02 0.10569684E+03</pdfrwt>
<totfact> 0.91059294E+04</totfact>
</mgrwt>
</event>
<event>
 7    1  0.2911475E-009  0.9158536E+02  0.7818608E-02  0.1299057E+00
         -1   -1    0    0    0  501 -0.00000000000E+00  0.00000000000E+00  0.13844455346E+01  0.13844547085E+01  0.50400000000E-02 0. -1.
          1   -1    0    0  501    0  0.00000000000E+00 -0.00000000000E+00 -0.15146587679E+04  0.15146587679E+04  0.50400000000E-02 0.  1.
         23    2    1    2    0    0  0.00000000000E+00  0.00000000000E+00 -0.15132743223E+04  0.15160432226E+04  0.91585359705E+02 0.  0.
    9000005    2    3    3    0    0 -0.15215569085E+02  0.19461692683E+02 -0.13907720492E+04  0.13910749149E+04  0.15239906747E+02 0.  0.
         22    1    3    3    0    0  0.15215569085E+02 -0.19461692683E+02 -0.12250227309E+03  0.12496830773E+03  0.00000000000E+00 0. -1.
         22    1    4    4    0    0 -0.16827145826E+02  0.16782947725E+02 -0.96944234288E+03  0.96973361102E+03  0.00000000000E+00 0.  1.
         22    1    4    4    0    0  0.16115767402E+01  0.26787449583E+01 -0.42132970636E+03  0.42134130384E+03  0.00000000000E+00 0.  1.
<mgrwt>
<rscale>  0 0.91585360E+02</rscale>
<asrwt>0</asrwt>
<pdfrwt beam="2">  1        1 0.23302310E+00 0.91585360E+02</pdfrwt>
<pdfrwt beam="1">  1       -1 0.21299354E-03 0.91585360E+02</pdfrwt>
<totfact> 0.10833472E+05</totfact>
</mgrwt>
</event>
<event>
 7    1  0.2911475E-009  0.9178580E+02  0.7818608E-02  0.1298584E+00
         -1   -1    0    0    0  501 -0.00000000000E+00  0.00000000000E+00  0.12788830793E+04  0.12788830793E+04  0.50400000000E-02 0.  1.
          1   -1    0    0  501    0  0.00000000000E+00 -0.00000000000E+00 -0.16468695136E+01  0.16468772256E+01  0.50400000000E-02 0. -1.
         23    2    1    2    0    0  0.00000000000E+00  0.00000000000E+00  0.12772362098E+04  0.12805299565E+04  0.91785804978E+02 0.  0.
    9000005    2    3    3    0    0 -0.14372597988E+02 -0.22274832801E+02  0.11604484323E+04  0.11607713463E+04  0.68421249128E+01 0.  0.
         22    1    3    3    0    0  0.14372597988E+02  0.22274832801E+02  0.11678777748E+03  0.11975861021E+03  0.00000000000E+00 0. -1.
         22    1    4    4    0    0 -0.10744824344E+02 -0.20808085269E+02  0.96920547422E+03  0.96948835935E+03  0.00000000000E+00 0. -1.
         22    1    4    4    0    0 -0.36277736447E+01 -0.14667475319E+01  0.19124295809E+03  0.19128298699E+03  0.00000000000E+00 0. -1.
<mgrwt>
<rscale>  0 0.91785805E+02</rscale>
<asrwt>0</asrwt>
<pdfrwt beam="2">  1        1 0.25336540E-03 0.91785805E+02</pdfrwt>
<pdfrwt beam="1">  1       -1 0.19675104E+00 0.91785805E+02</pdfrwt>
<totfact> 0.17913305E+04</totfact>
</mgrwt>
</event>
<event>
 7    1  0.2911475E-009  0.9151816E+02  0.7818608E-02  0.1299216E+00
         -1   -1    0    0    0  501 -0.00000000000E+00  0.00000000000E+00  0.18691444096E+02  0.18691444776E+02  0.50400000000E-02 0.  1.
          1   -1    0    0  501    0  0.00000000000E+00 -0.00000000000E+00 -0.11202416277E+03  0.11202416288E+03  0.50400000000E-02 0. -1.
         23    2    1    2    0    0  0.00000000000E+00  0.00000000000E+00 -0.93332718669E+02  0.13071560765E+03  0.91518160549E+02 0.  0.
    9000005    2    3    3    0    0  0.16985768742E+02  0.95258558611E+01  0.10125891389E+02  0.25440053679E+02  0.12860963617E+02 0.  0.
         22    1    3    3    0    0 -0.16985768742E+02 -0.95258558611E+01 -0.10345861006E+03  0.10527555397E+03  0.00000000000E+00 0. -1.
         22    1    4    4    0    0 -0.45462178970E+00  0.28627711624E+01  0.54822078670E+01  0.62013500785E+01  0.00000000000E+00 0. -1.
         22    1    4    4    0    0  0.17440390532E+02  0.66630846987E+01  0.46436835218E+01  0.19238703601E+02  0.00000000000E+00 0. -1.
<mgrwt>
<rscale>  0 0.91518161E+02</rscale>
<asrwt>0</asrwt>
<pdfrwt beam="2">  1        1 0.17234486E-01 0.91518161E+02</pdfrwt>
<pdfrwt beam="1">  1       -1 0.28756069E-02 0.91518161E+02</pdfrwt>
<totfact> 0.10539332E+05</totfact>
</mgrwt>
</event>
<event>
 7    1  0.2911475E-009  0.8746780E+02  0.7818608E-02  0.1309102E+00
          1   -1    0    0  501    0  0.00000000000E+00  0.00000000000E+00  0.27945405469E+03  0.27945405473E+03  0.50400000000E-02 0. -1.
         -1   -1    0    0    0  501 -0.00000000000E+00 -0.00000000000E+00 -0.68442507875E+01  0.68442526432E+01  0.50400000000E-02 0.  1.
         23    2    1    2    0    0  0.71054273576E-14  0.88817841970E-15  0.27260980390E+03  0.28629830737E+03  0.87467797640E+02 0.  0.
    9000005    2    3    3    0    0 -0.42021920907E+02 -0.71839357738E+01  0.16378132681E+03  0.16941764946E+03  0.77824267278E+01 0.  0.
         22    1    3    3    0    0  0.42021920907E+02  0.71839357738E+01  0.10882847709E+03  0.11688065792E+03  0.00000000000E+00 0. -1.
         22    1    4    4    0    0 -0.11461506884E+02 -0.41081598436E+01  0.58171753767E+02  0.59432281242E+02  0.00000000000E+00 0.  1.
         22    1    4    4    0    0 -0.30560414024E+02 -0.30757759302E+01  0.10560957305E+03  0.10998536822E+03  0.00000000000E+00 0.  1.
<mgrwt>
<rscale>  0 0.87467798E+02</rscale>
<asrwt>0</asrwt>
<pdfrwt beam="1">  1        1 0.42992938E-01 0.87467798E+02</pdfrwt>
<pdfrwt beam="2">  1       -1 0.10529617E-02 0.87467798E+02</pdfrwt>
<totfact> 0.14114697E+05</totfact>
</mgrwt>
</event>
<event>
 7    1  0.2911475E-009  0.9393909E+02  0.7818608E-02  0.1293584E+00
          1   -1    0    0  501    0  0.00000000000E+00  0.00000000000E+00  0.38758517781E+03  0.38758517784E+03  0.50400000000E-02 0. -1.
         -1   -1    0    0    0  501 -0.00000000000E+00 -0.00000000000E+00 -0.56920071753E+01  0.56920094066E+01  0.50400000000E-02 0.  1.
         23    2    1    2    0    0  0.00000000000E+00 -0.35527136788E-14  0.38189317063E+03  0.39327718725E+03  0.93939087888E+02 0.  0.
    9000005    2    3    3    0    0 -0.83250270847E+01 -0.20526719022E+02  0.36352078216E+03  0.36449877645E+03  0.14877725036E+02 0.  0.
         22    1    3    3    0    0  0.83250270847E+01  0.20526719022E+02  0.18372388473E+02  0.28778410797E+02  0.00000000000E+00 0.  1.
         22    1    4    4    0    0 -0.27505198314E+01  0.17677006190E+01  0.27632094057E+02  0.27824858432E+02  0.00000000000E+00 0.  1.
         22    1    4    4    0    0 -0.55745072533E+01 -0.22294419641E+02  0.33588868810E+03  0.33667391802E+03  0.00000000000E+00 0.  1.
<mgrwt>
<rscale>  0 0.93939088E+02</rscale>
<asrwt>0</asrwt>
<pdfrwt beam="1">  1        1 0.59628509E-01 0.93939088E+02</pdfrwt>
<pdfrwt beam="2">  1       -1 0.87569330E-03 0.93939088E+02</pdfrwt>
<totfact> 0.12394085E+05</totfact>
</mgrwt>
</event>
<event>
 7    1  0.2911475E-009  0.9123333E+02  0.7818608E-02  0.1299892E+00
         -1   -1    0    0    0  501 -0.00000000000E+00  0.00000000000E+00  0.19963465526E+02  0.19963466162E+02  0.50400000000E-02 0.  1.
          1   -1    0    0  501    0  0.00000000000E+00 -0.00000000000E+00 -0.10423441606E+03  0.10423441618E+03  0.50400000000E-02 0. -1.
         23    2    1    2    0    0  0.44408920985E-15  0.00000000000E+00 -0.84270950532E+02  0.12419788234E+03  0.91233332038E+02 0.  0.
    9000005    2    3    3    0    0  0.18738997554E+01 -0.17050413755E+02 -0.99364273873E+02  0.10134976384E+03  0.10212129999E+02 0.  0.
         22    1    3    3    0    0 -0.18738997554E+01  0.17050413755E+02  0.15093323341E+02  0.22848118500E+02  0.00000000000E+00 0.  1.
         22    1    4    4    0    0 -0.32032455936E+01 -0.28338967871E+01 -0.33830103366E+02  0.34099378984E+02  0.00000000000E+00 0.  1.
         22    1    4    4    0    0  0.50771453490E+01 -0.14216516968E+02 -0.65534170507E+02  0.67250384859E+02  0.00000000000E+00 0.  1.
<mgrwt>
<rscale>  0 0.91233332E+02</rscale>
<asrwt>0</asrwt>
<pdfrwt beam="2">  1        1 0.16036064E-01 0.91233332E+02</pdfrwt>
<pdfrwt beam="1">  1       -1 0.30713025E-02 0.91233332E+02</pdfrwt>
<totfact> 0.10500069E+05</totfact>
</mgrwt>
</event>
<event>
 7    1  0.2911475E-009  0.9019917E+02  0.7818608E-02  0.1302370E+00
          1   -1    0    0  501    0  0.00000000000E+00  0.00000000000E+00  0.10106640436E+03  0.10106640449E+03  0.50400000000E-02 0. -1.
         -1   -1    0    0    0  501 -0.00000000000E+00 -0.00000000000E+00 -0.20125111203E+02  0.20125111834E+02  0.50400000000E-02 0.  1.
         23    2    1    2    0    0  0.71054273576E-14  0.44408920985E-15  0.80941293157E+02  0.12119151632E+03  0.90199172336E+02 0.  0.
    9000005    2    3    3    0    0 -0.39368891512E+02 -0.37221651017E+01  0.15738012908E+02  0.44933848594E+02  0.14408385309E+02 0.  0.
         22    1    3    3    0    0  0.39368891512E+02  0.37221651017E+01  0.65203280249E+02  0.76257667727E+02  0.00000000000E+00 0. -1.
         22    1    4    4    0    0 -0.28286784619E+02  0.63714226588E+00  0.16919150883E+02  0.32966737797E+02  0.00000000000E+00 0. -1.
         22    1    4    4    0    0 -0.11082106893E+02 -0.43593073676E+01 -0.11811379749E+01  0.11967110797E+02  0.00000000000E+00 0. -1.
<mgrwt>
<rscale>  0 0.90199172E+02</rscale>
<asrwt>0</asrwt>
<pdfrwt beam="1">  1        1 0.15548678E-01 0.90199172E+02</pdfrwt>
<pdfrwt beam="2">  1       -1 0.30961710E-02 0.90199172E+02</pdfrwt>
<totfact> 0.10775180E+05</totfact>
</mgrwt>
</event>
<event>
 7    1  0.2911475E-009  0.9152526E+02  0.7818608E-02  0.1299200E+00
          1   -1    0    0  501    0  0.00000000000E+00  0.00000000000E+00  0.29649618003E+02  0.29649618431E+02  0.50400000000E-02 0. -1.
         -1   -1    0    0    0  501 -0.00000000000E+00 -0.00000000000E+00 -0.70632214301E+02  0.70632214481E+02  0.50400000000E-02 0.  1.
         23    2    1    2    0    0  0.71054273576E-14  0.00000000000E+00 -0.40982596299E+02  0.10028183291E+03  0.91525257786E+02 0.  0.
    9000005    2    3    3    0    0  0.37488651738E+02  0.18607521935E+02 -0.14244555406E+01  0.42692898368E+02  0.83075637709E+01 0.  0.
         22    1    3    3    0    0 -0.37488651738E+02 -0.18607521935E+02 -0.39558140758E+02  0.57588934544E+02  0.00000000000E+00 0. -1.
         22    1    4    4    0    0  0.55421582400E+01 -0.28055763549E+00  0.81473318165E-01  0.55498530112E+01  0.00000000000E+00 0.  1.
         22    1    4    4    0    0  0.31946493498E+02  0.18888079570E+02 -0.15059288587E+01  0.37143045357E+02  0.00000000000E+00 0.  1.
<mgrwt>
<rscale>  0 0.91525258E+02</rscale>
<asrwt>0</asrwt>
<pdfrwt beam="1">  1        1 0.45614798E-02 0.91525258E+02</pdfrwt>
<pdfrwt beam="2">  1       -1 0.10866494E-01 0.91525258E+02</pdfrwt>
<totfact> 0.85576019E+04</totfact>
</mgrwt>
</event>
<event>
 7    1  0.2911475E-009  0.9069364E+02  0.7818608E-02  0.1301181E+00
          1   -1    0    0  501    0  0.00000000000E+00  0.00000000000E+00  0.33361608193E+02  0.33361608574E+02  0.50400000000E-02 0. -1.
         -1   -1    0    0    0  501 -0.00000000000E+00 -0.00000000000E+00 -0.61637733183E+02  0.61637733389E+02  0.50400000000E-02 0.  1.
         23    2    1    2    0    0  0.00000000000E+00 -0.88817841970E-15 -0.28276124989E+02  0.94999341963E+02  0.90693636651E+02 0.  0.
    9000005    2    3    3    0    0  0.31753728564E+02 -0.70089002551E+01  0.18952492310E+02  0.37658551486E+02  0.12432114871E+01 0.  0.
         22    1    3    3    0    0 -0.31753728564E+02  0.70089002551E+01 -0.47228617300E+02  0.57340790477E+02  0.00000000000E+00 0.  1.
         22    1    4    4    0    0  0.13345932234E+02 -0.32430074703E+01  0.73788854929E+01  0.15590989570E+02  0.00000000000E+00 0.  1.
         22    1    4    4    0    0  0.18407796329E+02 -0.37658927848E+01  0.11573606817E+02  0.22067561916E+02  0.00000000000E+00 0.  1.
<mgrwt>
<rscale>  0 0.90693637E+02</rscale>
<asrwt>0</asrwt>
<pdfrwt beam="1">  1        1 0.51325551E-02 0.90693637E+02</pdfrwt>
<pdfrwt beam="2">  1       -1 0.94827282E-02 0.90693637E+02</pdfrwt>
<totfact> 0.89506742E+04</totfact>
</mgrwt>
</event>
<event>
 7    1  0.2911475E-009  0.8962154E+02  0.7818608E-02  0.1303771E+00
         -1   -1    0    0    0  501 -0.00000000000E+00  0.00000000000E+00  0.11736043059E+02  0.11736044142E+02  0.50400000000E-02 0.  1.
          1   -1    0    0  501    0  0.00000000000E+00 -0.00000000000E+00 -0.17109729536E+03  0.17109729544E+03  0.50400000000E-02 0. -1.
         23    2    1    2    0    0  0.00000000000E+00 -0.71054273576E-14 -0.15936125230E+03  0.18283333958E+03  0.89621544986E+02 0.  0.
    9000005    2    3    3    0    0  0.16424697732E+02  0.41245418387E+02 -0.78133057270E+02  0.90264581879E+02  0.84832110694E+01 0.  0.
         22    1    3    3    0    0 -0.16424697732E+02 -0.41245418387E+02 -0.81228195032E+02  0.92568757698E+02  0.00000000000E+00 0. -1.
         22    1    4    4    0    0  0.74168535759E+01  0.18523919042E+02 -0.26827502804E+02  0.33434416405E+02  0.00000000000E+00 0.  1.
         22    1    4    4    0    0  0.90078441556E+01  0.22721499346E+02 -0.51305554466E+02  0.56830165475E+02  0.00000000000E+00 0.  1.
<mgrwt>
<rscale>  0 0.89621545E+02</rscale>
<asrwt>0</asrwt>
<pdfrwt beam="2">  1        1 0.26322659E-01 0.89621545E+02</pdfrwt>
<pdfrwt beam="1">  1       -1 0.18055453E-02 0.89621545E+02</pdfrwt>
<totfact> 0.12034877E+05</totfact>
</mgrwt>
</event>
<event>
 7    1  0.2911475E-009  0.7887516E+02  0.7818608E-02  0.1332274E+00
          1   -1    0    0  501    0  0.00000000000E+00  0.00000000000E+00  0.67997221369E+01  0.67997240047E+01  0.50400000000E-02 0. -1.
         -1   -1    0    0    0  501 -0.00000000000E+00 -0.00000000000E+00 -0.22873323137E+03  0.22873323143E+03  0.50400000000E-02 0.  1.
         23    2    1    2    0    0  0.17763568394E-14  0.00000000000E+00 -0.22193350924E+03  0.23553295543E+03  0.78875158151E+02 0.  0.
    9000005    2    3    3    0    0  0.11593681310E+02 -0.28038243665E+02 -0.44933552685E+02  0.55951382956E+02  0.13819426317E+02 0.  0.
         22    1    3    3    0    0 -0.11593681310E+02  0.28038243665E+02 -0.17699995655E+03  0.17958157248E+03  0.00000000000E+00 0.  1.
         22    1    4    4    0    0  0.25181149777E+01 -0.16922071145E+01  0.52378717976E-01  0.30343387236E+01  0.00000000000E+00 0. -1.
         22    1    4    4    0    0  0.90755663325E+01 -0.26346036550E+02 -0.44985931403E+02  0.52917044233E+02  0.00000000000E+00 0. -1.
<mgrwt>
<rscale>  0 0.78875158E+02</rscale>
<asrwt>0</asrwt>
<pdfrwt beam="1">  1        1 0.10461114E-02 0.78875158E+02</pdfrwt>
<pdfrwt beam="2">  1       -1 0.35189722E-01 0.78875158E+02</pdfrwt>
<totfact> 0.97132534E+04</totfact>
</mgrwt>
</event>
<event>
 7    1  0.2911475E-009  0.9335895E+02  0.7818608E-02  0.1294916E+00
         -1   -1    0    0    0  501 -0.00000000000E+00  0.00000000000E+00  0.78821104150E+02  0.78821104312E+02  0.50400000000E-02 0.  1.
          1   -1    0    0  501    0  0.00000000000E+00 -0.00000000000E+00 -0.27644541307E+02  0.27644541767E+02  0.50400000000E-02 0. -1.
         23    2    1    2    0    0  0.00000000000E+00  0.00000000000E+00  0.51176562843E+02  0.10646564608E+03  0.93358948208E+02 0.  0.
    9000005    2    3    3    0    0 -0.42162111136E+02  0.18140564797E+02  0.18164436040E+02  0.49927833752E+02  0.74912041698E+01 0.  0.
         22    1    3    3    0    0  0.42162111136E+02 -0.18140564797E+02  0.33012126803E+02  0.56537812326E+02  0.00000000000E+00 0.  1.
         22    1    4    4    0    0 -0.28990185405E+02  0.86042247091E+01  0.12147060512E+02  0.32588565660E+02  0.00000000000E+00 0. -1.
         22    1    4    4    0    0 -0.13171925731E+02  0.95363400882E+01  0.60173755279E+01  0.17339268092E+02  0.00000000000E+00 0. -1.
<mgrwt>
<rscale>  0 0.93358948E+02</rscale>
<asrwt>0</asrwt>
<pdfrwt beam="2">  1        1 0.42530064E-02 0.93358948E+02</pdfrwt>
<pdfrwt beam="1">  1       -1 0.12126324E-01 0.93358948E+02</pdfrwt>
<totfact> 0.79873682E+04</totfact>
</mgrwt>
</event>
<event>
 7    1  0.2911475E-009  0.9574636E+02  0.7818608E-02  0.1289504E+00
          1   -1    0    0  501    0  0.00000000000E+00  0.00000000000E+00  0.11676369385E+04  0.11676369385E+04  0.50400000000E-02 0. -1.
         -1   -1    0    0    0  501 -0.00000000000E+00 -0.00000000000E+00 -0.19627998297E+01  0.19628063004E+01  0.50400000000E-02 0.  1.
         23    2    1    2    0    0  0.00000000000E+00  0.00000000000E+00  0.11656741387E+04  0.11695997448E+04  0.95746360232E+02 0.  0.
    9000005    2    3    3    0    0  0.13292943974E+02  0.29409555508E+02  0.10096547266E+04  0.10102771750E+04  0.14686014679E+02 0.  0.
         22    1    3    3    0    0 -0.13292943974E+02 -0.29409555508E+02  0.15601941209E+03  0.15932256985E+03  0.00000000000E+00 0.  1.
         22    1    4    4    0    0  0.14487425779E+02  0.24737308681E+02  0.70262630889E+03  0.70321088579E+03  0.00000000000E+00 0.  1.
         22    1    4    4    0    0 -0.11944818046E+01  0.46722468264E+01  0.30702841768E+03  0.30706628916E+03  0.00000000000E+00 0.  1.
<mgrwt>
<rscale>  0 0.95746360E+02</rscale>
<asrwt>0</asrwt>
<pdfrwt beam="1">  1        1 0.17963720E+00 0.95746360E+02</pdfrwt>
<pdfrwt beam="2">  1       -1 0.30196845E-03 0.95746360E+02</pdfrwt>
<totfact> 0.11322220E+05</totfact>
</mgrwt>
</event>
<event>
 7    1  0.2911475E-009  0.9212732E+02  0.7818608E-02  0.1297780E+00
          1   -1    0    0  501    0  0.00000000000E+00  0.00000000000E+00  0.47528891112E+02  0.47528891379E+02  0.50400000000E-02 0. -1.
         -1   -1    0    0    0  501 -0.00000000000E+00 -0.00000000000E+00 -0.44643599624E+02  0.44643599908E+02  0.50400000000E-02 0.  1.
         23    2    1    2    0    0  0.00000000000E+00  0.00000000000E+00  0.28852914885E+01  0.92172491288E+02  0.92127320829E+02 0.  0.
    9000005    2    3    3    0    0  0.20794095308E+02 -0.20834892610E+02 -0.33967730032E+02  0.45006482924E+02  0.22999286832E+01 0.  0.
         22    1    3    3    0    0 -0.20794095308E+02  0.20834892610E+02  0.36853021521E+02  0.47166008363E+02  0.00000000000E+00 0. -1.
         22    1    4    4    0    0  0.15881777453E+02 -0.17093725313E+02 -0.27490442421E+02  0.36057602869E+02  0.00000000000E+00 0.  1.
         22    1    4    4    0    0  0.49123178551E+01 -0.37411672964E+01 -0.64772876109E+01  0.89488800552E+01  0.00000000000E+00 0.  1.
<mgrwt>
<rscale>  0 0.92127321E+02</rscale>
<asrwt>0</asrwt>
<pdfrwt beam="1">  1        1 0.73121372E-02 0.92127321E+02</pdfrwt>
<pdfrwt beam="2">  1       -1 0.68682461E-02 0.92127321E+02</pdfrwt>
<totfact> 0.90383785E+04</totfact>
</mgrwt>
</event>
<event>
 7    1  0.2911475E-009  0.9086921E+02  0.7818608E-02  0.1300760E+00
         -1   -1    0    0    0  501 -0.00000000000E+00  0.00000000000E+00  0.37881378990E+02  0.37881379325E+02  0.50400000000E-02 0.  1.
          1   -1    0    0  501    0  0.00000000000E+00 -0.00000000000E+00 -0.54493882097E+02  0.54493882330E+02  0.50400000000E-02 0. -1.
         23    2    1    2    0    0  0.00000000000E+00  0.00000000000E+00 -0.16612503107E+02  0.92375261655E+02  0.90869212093E+02 0.  0.
    9000005    2    3    3    0    0  0.35456661394E+02  0.18628208864E+02 -0.28107300655E+02  0.50706143913E+02  0.13300664562E+02 0.  0.
         22    1    3    3    0    0 -0.35456661394E+02 -0.18628208864E+02  0.11494797548E+02  0.41669117741E+02  0.00000000000E+00 0.  1.
         22    1    4    4    0    0  0.20217043377E+02  0.16887693341E+02 -0.13835278537E+02  0.29754629245E+02  0.00000000000E+00 0. -1.
         22    1    4    4    0    0  0.15239618016E+02  0.17405155229E+01 -0.14272022118E+02  0.20951514668E+02  0.00000000000E+00 0. -1.
<mgrwt>
<rscale>  0 0.90869212E+02</rscale>
<asrwt>0</asrwt>
<pdfrwt beam="2">  1        1 0.83836742E-02 0.90869212E+02</pdfrwt>
<pdfrwt beam="1">  1       -1 0.58279045E-02 0.90869212E+02</pdfrwt>
<totfact> 0.95880935E+04</totfact>
</mgrwt>
</event>
<event>
 7    1  0.2911475E-009  0.8611460E+02  0.7818608E-02  0.1312543E+00
          1   -1    0    0  501    0  0.00000000000E+00  0.00000000000E+00  0.56341286978E+01  0.56341309521E+01  0.50400000000E-02 0. -1.
         -1   -1    0    0    0  501 -0.00000000000E+00 -0.00000000000E+00 -0.32905369727E+03  0.32905369731E+03  0.50400000000E-02 0.  1.
         23    2    1    2    0    0  0.00000000000E+00  0.00000000000E+00 -0.32341956857E+03  0.33468782826E+03  0.86114604164E+02 0.  0.
    9000005    2    3    3    0    0 -0.57026596779E+01  0.40920406711E+02 -0.18828378170E+03  0.19337724513E+03  0.15394040009E+02 0.  0.
         22    1    3    3    0    0  0.57026596779E+01 -0.40920406711E+02 -0.13513578687E+03  0.14131058313E+03  0.00000000000E+00 0. -1.
         22    1    4    4    0    0  0.25357003373E+01  0.31095789068E+02 -0.13826719836E+03  0.14174341613E+03  0.00000000000E+00 0. -1.
         22    1    4    4    0    0 -0.82383600151E+01  0.98246176423E+01 -0.50016583341E+02  0.51633828995E+02  0.00000000000E+00 0. -1.
<mgrwt>
<rscale>  0 0.86114604E+02</rscale>
<asrwt>0</asrwt>
<pdfrwt beam="1">  1        1 0.86678947E-03 0.86114604E+02</pdfrwt>
<pdfrwt beam="2">  1       -1 0.50623631E-01 0.86114604E+02</pdfrwt>
<totfact> 0.67717594E+04</totfact>
</mgrwt>
</event>
<event>
 7    1  0.2911475E-009  0.9238710E+02  0.7818608E-02  0.1297172E+00
          1   -1    0    0  501    0  0.00000000000E+00  0.00000000000E+00  0.11744357459E+03  0.11744357470E+03  0.50400000000E-02 0. -1.
         -1   -1    0    0    0  501 -0.00000000000E+00 -0.00000000000E+00 -0.18169099244E+02  0.18169099943E+02  0.50400000000E-02 0.  1.
         23    2    1    2    0    0  0.00000000000E+00  0.00000000000E+00  0.99274475347E+02  0.13561267464E+03  0.92387099035E+02 0.  0.
    9000005    2    3    3    0    0  0.35700283329E+02  0.13758891407E+02  0.11784239599E+02  0.40122577387E+02  0.26712526625E+01 0.  0.
         22    1    3    3    0    0 -0.35700283329E+02 -0.13758891407E+02  0.87490235748E+02  0.95490097255E+02  0.00000000000E+00 0. -1.
         22    1    4    4    0    0  0.35368687434E+02  0.13885925971E+02  0.11646693170E+02  0.39741772138E+02  0.00000000000E+00 0.  1.
         22    1    4    4    0    0  0.33159589441E+00 -0.12703456405E+00  0.13754642885E+00  0.38080524910E+00  0.00000000000E+00 0.  1.
<mgrwt>
<rscale>  0 0.92387099E+02</rscale>
<asrwt>0</asrwt>
<pdfrwt beam="1">  1        1 0.18068242E-01 0.92387099E+02</pdfrwt>
<pdfrwt beam="2">  1       -1 0.27952461E-02 0.92387099E+02</pdfrwt>
<totfact> 0.10355820E+05</totfact>
</mgrwt>
</event>
<event>
 7    1  0.2911475E-009  0.8749960E+02  0.7818608E-02  0.1309022E+00
         -1   -1    0    0    0  501 -0.00000000000E+00  0.00000000000E+00  0.19124656936E+02  0.19124657600E+02  0.50400000000E-02 0.  1.
          1   -1    0    0  501    0  0.00000000000E+00 -0.00000000000E+00 -0.10008257124E+03  0.10008257137E+03  0.50400000000E-02 0. -1.
         23    2    1    2    0    0  0.35527136788E-14  0.00000000000E+00 -0.80957914306E+02  0.11920722897E+03  0.87499597426E+02 0.  0.
    9000005    2    3    3    0    0  0.25642681122E+02 -0.14376922714E+02  0.15394736957E+01  0.31628338653E+02  0.11564550352E+02 0.  0.
         22    1    3    3    0    0 -0.25642681122E+02  0.14376922714E+02 -0.82497388002E+02  0.87578890316E+02  0.00000000000E+00 0. -1.
         22    1    4    4    0    0  0.43636707577E+01 -0.78902825077E+01 -0.16150546952E+01  0.91600536135E+01  0.00000000000E+00 0. -1.
         22    1    4    4    0    0  0.21279010364E+02 -0.64866402068E+01  0.31545283909E+01  0.22468285039E+02  0.00000000000E+00 0. -1.
<mgrwt>
<rscale>  0 0.87499597E+02</rscale>
<asrwt>0</asrwt>
<pdfrwt beam="2">  1        1 0.15397318E-01 0.87499597E+02</pdfrwt>
<pdfrwt beam="1">  1       -1 0.29422550E-02 0.87499597E+02</pdfrwt>
<totfact> 0.11682715E+05</totfact>
</mgrwt>
</event>
<event>
 7    1  0.2911475E-009  0.9832406E+02  0.7818608E-02  0.1283860E+00
         -1   -1    0    0    0  501 -0.00000000000E+00  0.00000000000E+00  0.46472822687E+02  0.46472822960E+02  0.50400000000E-02 0.  1.
          1   -1    0    0  501    0  0.00000000000E+00 -0.00000000000E+00 -0.52006850006E+02  0.52006850250E+02  0.50400000000E-02 0. -1.
         23    2    1    2    0    0 -0.17763568394E-14  0.71054273576E-14 -0.55340273184E+01  0.98479673210E+02  0.98324058995E+02 0.  0.
    9000005    2    3    3    0    0 -0.99408266276E+01  0.43747589629E+02 -0.22373430029E+02  0.50560604813E+02  0.65675532295E+01 0.  0.
         22    1    3    3    0    0  0.99408266276E+01 -0.43747589629E+02  0.16839402711E+02  0.47919068397E+02  0.00000000000E+00 0.  1.
         22    1    4    4    0    0 -0.96057642291E+01  0.29697725265E+02 -0.16754397162E+02  0.35425067631E+02  0.00000000000E+00 0.  1.
         22    1    4    4    0    0 -0.33506239850E+00  0.14049864364E+02 -0.56190328668E+01  0.15135537183E+02  0.00000000000E+00 0.  1.
<mgrwt>
<rscale>  0 0.98324059E+02</rscale>
<asrwt>0</asrwt>
<pdfrwt beam="2">  1        1 0.80010539E-02 0.98324059E+02</pdfrwt>
<pdfrwt beam="1">  1       -1 0.71496651E-02 0.98324059E+02</pdfrwt>
<totfact> 0.76299781E+04</totfact>
</mgrwt>
</event>
<event>
 7    1  0.2911475E-009  0.9002020E+02  0.7818608E-02  0.1302803E+00
          1   -1    0    0  501    0  0.00000000000E+00  0.00000000000E+00  0.36240316754E+02  0.36240317104E+02  0.50400000000E-02 0. -1.
         -1   -1    0    0    0  501 -0.00000000000E+00 -0.00000000000E+00 -0.55902081042E+02  0.55902081269E+02  0.50400000000E-02 0.  1.
         23    2    1    2    0    0 -0.17763568394E-14  0.00000000000E+00 -0.19661764288E+02  0.92142398374E+02  0.90020201084E+02 0.  0.
    9000005    2    3    3    0    0 -0.14175458388E+02  0.36441310249E+02  0.12743968191E+02  0.41358107391E+02  0.43785395476E+01 0.  0.
         22    1    3    3    0    0  0.14175458388E+02 -0.36441310249E+02 -0.32405732479E+02  0.50784290983E+02  0.00000000000E+00 0.  1.
         22    1    4    4    0    0 -0.31691610826E+01  0.98490858715E+01  0.53297827766E+01  0.11638498998E+02  0.00000000000E+00 0.  1.
         22    1    4    4    0    0 -0.11006297306E+02  0.26592224377E+02  0.74141854139E+01  0.29719608393E+02  0.00000000000E+00 0.  1.
<mgrwt>
<rscale>  0 0.90020201E+02</rscale>
<asrwt>0</asrwt>
<pdfrwt beam="1">  1        1 0.55754334E-02 0.90020201E+02</pdfrwt>
<pdfrwt beam="2">  1       -1 0.86003202E-02 0.90020201E+02</pdfrwt>
<totfact> 0.92594640E+04</totfact>
</mgrwt>
</event>
<event>
 7    1  0.2911475E-009  0.9205036E+02  0.7818608E-02  0.1297961E+00
          1   -1    0    0  501    0  0.00000000000E+00  0.00000000000E+00  0.68345736367E+01  0.68345754950E+01  0.50400000000E-02 0. -1.
         -1   -1    0    0    0  501 -0.00000000000E+00 -0.00000000000E+00 -0.30994132417E+03  0.30994132421E+03  0.50400000000E-02 0.  1.
         23    2    1    2    0    0  0.00000000000E+00  0.00000000000E+00 -0.30310675053E+03  0.31677589971E+03  0.92050358042E+02 0.  0.
    9000005    2    3    3    0    0 -0.38303521306E+02  0.12465944064E+02 -0.79195744416E+02  0.89270519185E+02  0.86429252024E+01 0.  0.
         22    1    3    3    0    0  0.38303521306E+02 -0.12465944064E+02 -0.22391100612E+03  0.22750538052E+03  0.00000000000E+00 0. -1.
         22    1    4    4    0    0 -0.16522589163E+02  0.38330756671E+01 -0.42185501829E+02  0.45467625694E+02  0.00000000000E+00 0. -1.
         22    1    4    4    0    0 -0.21780932143E+02  0.86328683964E+01 -0.37010242587E+02  0.43802893490E+02  0.00000000000E+00 0. -1.
<mgrwt>
<rscale>  0 0.92050358E+02</rscale>
<asrwt>0</asrwt>
<pdfrwt beam="1">  1        1 0.10514733E-02 0.92050358E+02</pdfrwt>
<pdfrwt beam="2">  1       -1 0.47683270E-01 0.92050358E+02</pdfrwt>
<totfact> 0.58328697E+04</totfact>
</mgrwt>
</event>
<event>
 7    1  0.2911475E-009  0.9082005E+02  0.7818608E-02  0.1300878E+00
          1   -1    0    0  501    0  0.00000000000E+00  0.00000000000E+00  0.33793414818E+03  0.33793414822E+03  0.50400000000E-02 0. -1.
         -1   -1    0    0    0  501 -0.00000000000E+00 -0.00000000000E+00 -0.61019878679E+01  0.61019899494E+01  0.50400000000E-02 0.  1.
         23    2    1    2    0    0  0.44408920985E-15  0.00000000000E+00  0.33183216031E+03  0.34403613817E+03  0.90820051462E+02 0.  0.
    9000005    2    3    3    0    0 -0.29749215892E+01 -0.44010331840E+02  0.18374248053E+03  0.18951651894E+03  0.14472468136E+02 0.  0.
         22    1    3    3    0    0  0.29749215892E+01  0.44010331840E+02  0.14808967978E+03  0.15451961923E+03  0.00000000000E+00 0. -1.
         22    1    4    4    0    0  0.39127743600E+01 -0.24451054960E+02  0.11843486902E+03  0.12099579370E+03  0.00000000000E+00 0.  1.
         22    1    4    4    0    0 -0.68876959492E+01 -0.19559276879E+02  0.65307611507E+02  0.68520725247E+02  0.00000000000E+00 0.  1.
<mgrwt>
<rscale>  0 0.90820051E+02</rscale>
<asrwt>0</asrwt>
<pdfrwt beam="1">  1        1 0.51989881E-01 0.90820051E+02</pdfrwt>
<pdfrwt beam="2">  1       -1 0.93876731E-03 0.90820051E+02</pdfrwt>
<totfact> 0.13237451E+05</totfact>
</mgrwt>
</event>
<event>
 7    1  0.2911475E-009  0.8970478E+02  0.7818608E-02  0.1303568E+00
         -1   -1    0    0    0  501 -0.00000000000E+00  0.00000000000E+00  0.57847436195E+01  0.57847458150E+01  0.50400000000E-02 0.  1.
          1   -1    0    0  501    0  0.00000000000E+00 -0.00000000000E+00 -0.34776585071E+03  0.34776585075E+03  0.50400000000E-02 0. -1.
         23    2    1    2    0    0  0.71054273576E-14  0.00000000000E+00 -0.34198110709E+03  0.35355059656E+03  0.89704775359E+02 0.  0.
    9000005    2    3    3    0    0 -0.40357455556E+02  0.74840758124E+01 -0.12035028662E+03  0.12815104867E+03  0.15929977233E+02 0.  0.
         22    1    3    3    0    0  0.40357455556E+02 -0.74840758124E+01 -0.22163082047E+03  0.22539954790E+03  0.00000000000E+00 0. -1.
         22    1    4    4    0    0 -0.43677180442E+01  0.65452448146E+01 -0.17694649420E+02  0.19365376544E+02  0.00000000000E+00 0.  1.
         22    1    4    4    0    0 -0.35989737512E+02  0.93883099781E+00 -0.10265563720E+03  0.10878567212E+03  0.00000000000E+00 0.  1.
<mgrwt>
<rscale>  0 0.89704775E+02</rscale>
<asrwt>0</asrwt>
<pdfrwt beam="2">  1        1 0.53502422E-01 0.89704775E+02</pdfrwt>
<pdfrwt beam="1">  1       -1 0.88996100E-03 0.89704775E+02</pdfrwt>
<totfact> 0.13749909E+05</totfact>
</mgrwt>
</event>
<event>
 7    1  0.2911475E-009  0.9009891E+02  0.7818608E-02  0.1302612E+00
         -1   -1    0    0    0  501 -0.00000000000E+00  0.00000000000E+00  0.19857658539E+03  0.19857658546E+03  0.50400000000E-02 0.  1.
          1   -1    0    0  501    0  0.00000000000E+00 -0.00000000000E+00 -0.10220001774E+02  0.10220003017E+02  0.50400000000E-02 0. -1.
         23    2    1    2    0    0  0.00000000000E+00  0.00000000000E+00  0.18835658362E+03  0.20879658847E+03  0.90098905464E+02 0.  0.
    9000005    2    3    3    0    0  0.11801130576E+02  0.39711825361E+02  0.12970032658E+03  0.13698536201E+03  0.15050545971E+02 0.  0.
         22    1    3    3    0    0 -0.11801130576E+02 -0.39711825361E+02  0.58656257042E+02  0.71811226466E+02  0.00000000000E+00 0.  1.
         22    1    4    4    0    0 -0.53993743946E+00  0.16373462511E+02  0.66590614418E+02  0.68576174693E+02  0.00000000000E+00 0. -1.
         22    1    4    4    0    0  0.12341068016E+02  0.23338362850E+02  0.63109712158E+02  0.68409187314E+02  0.00000000000E+00 0. -1.
<mgrwt>
<rscale>  0 0.90098905E+02</rscale>
<asrwt>0</asrwt>
<pdfrwt beam="2">  1        1 0.15723082E-02 0.90098905E+02</pdfrwt>
<pdfrwt beam="1">  1       -1 0.30550241E-01 0.90098905E+02</pdfrwt>
<totfact> 0.71753205E+04</totfact>
</mgrwt>
</event>
<event>
 7    1  0.2911475E-009  0.8932506E+02  0.7818608E-02  0.1304494E+00
         -1   -1    0    0    0  501 -0.00000000000E+00  0.00000000000E+00  0.49930438384E+02  0.49930438638E+02  0.50400000000E-02 0.  1.
          1   -1    0    0  501    0  0.00000000000E+00 -0.00000000000E+00 -0.39950413056E+02  0.39950413374E+02  0.50400000000E-02 0. -1.
         23    2    1    2    0    0  0.00000000000E+00 -0.17763568394E-14  0.99800253278E+01  0.89880852012E+02  0.89325061729E+02 0.  0.
    9000005    2    3    3    0    0 -0.25874383437E+01 -0.97401527953E+01 -0.37462459058E+02  0.41379772248E+02  0.14397371252E+02 0.  0.
         22    1    3    3    0    0  0.25874383437E+01  0.97401527953E+01  0.47442484386E+02  0.48501079765E+02  0.00000000000E+00 0.  1.
         22    1    4    4    0    0 -0.18211417509E+01  0.58584874166E+00 -0.25445079098E+02  0.25516892960E+02  0.00000000000E+00 0.  1.
         22    1    4    4    0    0 -0.76629659276E+00 -0.10326001537E+02 -0.12017379960E+02  0.15862879288E+02  0.00000000000E+00 0.  1.
<mgrwt>
<rscale>  0 0.89325062E+02</rscale>
<asrwt>0</asrwt>
<pdfrwt beam="2">  1        1 0.61462175E-02 0.89325062E+02</pdfrwt>
<pdfrwt beam="1">  1       -1 0.76816059E-02 0.89325062E+02</pdfrwt>
<totfact> 0.96041783E+04</totfact>
</mgrwt>
</event>
<event>
 7    1  0.2911475E-009  0.9334175E+02  0.7818608E-02  0.1294955E+00
         -1   -1    0    0    0  501 -0.00000000000E+00  0.00000000000E+00  0.11152754699E+03  0.11152754711E+03  0.50400000000E-02 0.  1.
          1   -1    0    0  501    0  0.00000000000E+00 -0.00000000000E+00 -0.19530338483E+02  0.19530339133E+02  0.50400000000E-02 0. -1.
         23    2    1    2    0    0  0.00000000000E+00  0.17763568394E-14  0.91997208510E+02  0.13105788624E+03  0.93341754708E+02 0.  0.
    9000005    2    3    3    0    0  0.40544625406E+02  0.12546733562E+02  0.70482159017E+02  0.83474438203E+02  0.14105315351E+02 0.  0.
         22    1    3    3    0    0 -0.40544625406E+02 -0.12546733562E+02  0.21515049493E+02  0.47583448036E+02  0.00000000000E+00 0. -1.
         22    1    4    4    0    0  0.36019251616E+02  0.77697747067E+01  0.65743735164E+02  0.75365738896E+02  0.00000000000E+00 0. -1.
         22    1    4    4    0    0  0.45253737900E+01  0.47769588549E+01  0.47384238534E+01  0.81086993072E+01  0.00000000000E+00 0. -1.
<mgrwt>
<rscale>  0 0.93341755E+02</rscale>
<asrwt>0</asrwt>
<pdfrwt beam="2">  1        1 0.30046675E-02 0.93341755E+02</pdfrwt>
<pdfrwt beam="1">  1       -1 0.17158084E-01 0.93341755E+02</pdfrwt>
<totfact> 0.75001393E+04</totfact>
</mgrwt>
</event>
<event>
 7    1  0.2911475E-009  0.9461385E+02  0.7818608E-02  0.1292048E+00
         -1   -1    0    0    0  501 -0.00000000000E+00  0.00000000000E+00  0.23487601866E+03  0.23487601871E+03  0.50400000000E-02 0.  1.
          1   -1    0    0  501    0  0.00000000000E+00 -0.00000000000E+00 -0.95281968068E+01  0.95281981398E+01  0.50400000000E-02 0. -1.
         23    2    1    2    0    0  0.00000000000E+00  0.00000000000E+00  0.22534782185E+03  0.24440421685E+03  0.94613848891E+02 0.  0.
    9000005    2    3    3    0    0  0.47362002081E+01  0.41905205885E+02  0.16525622940E+03  0.17099115701E+03  0.12242407679E+02 0.  0.
         22    1    3    3    0    0 -0.47362002081E+01 -0.41905205885E+02  0.60091592449E+02  0.73413059844E+02  0.00000000000E+00 0. -1.
         22    1    4    4    0    0  0.53746037774E+01  0.12166963185E+02  0.67970385247E+02  0.69259617596E+02  0.00000000000E+00 0. -1.
         22    1    4    4    0    0 -0.63840356931E+00  0.29738242700E+02  0.97285844156E+02  0.10173153941E+03  0.00000000000E+00 0. -1.
<mgrwt>
<rscale>  0 0.94613849E+02</rscale>
<asrwt>0</asrwt>
<pdfrwt beam="2">  1        1 0.14658767E-02 0.94613849E+02</pdfrwt>
<pdfrwt beam="1">  1       -1 0.36134768E-01 0.94613849E+02</pdfrwt>
<totfact> 0.60018495E+04</totfact>
</mgrwt>
</event>
<event>
 7    1  0.2911475E-009  0.9013919E+02  0.7818608E-02  0.1302515E+00
          1   -1    0    0  501    0  0.00000000000E+00  0.00000000000E+00  0.13535153463E+03  0.13535153472E+03  0.50400000000E-02 0. -1.
         -1   -1    0    0    0  501 -0.00000000000E+00 -0.00000000000E+00 -0.15007354520E+02  0.15007355366E+02  0.50400000000E-02 0.  1.
         23    2    1    2    0    0  0.00000000000E+00 -0.17763568394E-14  0.12034418011E+03  0.15035889009E+03  0.90139193154E+02 0.  0.
    9000005    2    3    3    0    0  0.38519889262E+02  0.14570201154E+02  0.90408666141E+02  0.99445162794E+02  0.44205044205E+01 0.  0.
         22    1    3    3    0    0 -0.38519889262E+02 -0.14570201154E+02  0.29935513966E+02  0.50913727293E+02  0.00000000000E+00 0.  1.
         22    1    4    4    0    0  0.33761021645E+02  0.11229521733E+02  0.76444280791E+02  0.84318662267E+02  0.00000000000E+00 0.  1.
         22    1    4    4    0    0  0.47588676172E+01  0.33406794212E+01  0.13964385351E+02  0.15126500528E+02  0.00000000000E+00 0.  1.
<mgrwt>
<rscale>  0 0.90139193E+02</rscale>
<asrwt>0</asrwt>
<pdfrwt beam="1">  1        1 0.20823314E-01 0.90139193E+02</pdfrwt>
<pdfrwt beam="2">  1       -1 0.23088238E-02 0.90139193E+02</pdfrwt>
<totfact> 0.11351283E+05</totfact>
</mgrwt>
</event>
<event>
 7    1  0.2911475E-009  0.9213922E+02  0.7818608E-02  0.1297752E+00
          1   -1    0    0  501    0  0.00000000000E+00  0.00000000000E+00  0.84754401399E+02  0.84754401549E+02  0.50400000000E-02 0. -1.
         -1   -1    0    0    0  501 -0.00000000000E+00 -0.00000000000E+00 -0.25041871876E+02  0.25041872383E+02  0.50400000000E-02 0.  1.
         23    2    1    2    0    0  0.00000000000E+00  0.00000000000E+00  0.59712529523E+02  0.10979627393E+03  0.92139218509E+02 0.  0.
    9000005    2    3    3    0    0 -0.28701576047E+02  0.67927727211E+01 -0.10456254110E+02  0.33680701114E+02  0.12455285974E+02 0.  0.
         22    1    3    3    0    0  0.28701576047E+02 -0.67927727211E+01  0.70168783633E+02  0.76115572818E+02  0.00000000000E+00 0. -1.
         22    1    4    4    0    0 -0.24541077028E+02  0.16846860800E+01 -0.11241970016E+02  0.27045970471E+02  0.00000000000E+00 0. -1.
         22    1    4    4    0    0 -0.41604990189E+01  0.51080866411E+01  0.78571590562E+00  0.66347306429E+01  0.00000000000E+00 0. -1.
<mgrwt>
<rscale>  0 0.92139219E+02</rscale>
<asrwt>0</asrwt>
<pdfrwt beam="1">  1        1 0.13039139E-01 0.92139219E+02</pdfrwt>
<pdfrwt beam="2">  1       -1 0.38525957E-02 0.92139219E+02</pdfrwt>
<totfact> 0.98784399E+04</totfact>
</mgrwt>
</event>
<event>
 7    1  0.2911475E-009  0.9104514E+02  0.7818608E-02  0.1300340E+00
          1   -1    0    0  501    0  0.00000000000E+00  0.00000000000E+00  0.51000485290E+02  0.51000485539E+02  0.50400000000E-02 0. -1.
         -1   -1    0    0    0  501 -0.00000000000E+00 -0.00000000000E+00 -0.40633033128E+02  0.40633033441E+02  0.50400000000E-02 0.  1.
         23    2    1    2    0    0  0.00000000000E+00  0.00000000000E+00  0.10367452161E+02  0.91633518980E+02  0.91045141201E+02 0.  0.
    9000005    2    3    3    0    0 -0.92757667914E+01 -0.43860027307E+02  0.12387684443E+02  0.46757877665E+02  0.48065115081E+01 0.  0.
         22    1    3    3    0    0  0.92757667914E+01  0.43860027307E+02 -0.20202322812E+01  0.44875641315E+02  0.00000000000E+00 0.  1.
         22    1    4    4    0    0 -0.52268540454E+01 -0.13946466566E+02  0.37062019421E+01  0.15347959660E+02  0.00000000000E+00 0.  1.
         22    1    4    4    0    0 -0.40489127461E+01 -0.29913560741E+02  0.86814825004E+01  0.31409918005E+02  0.00000000000E+00 0.  1.
<mgrwt>
<rscale>  0 0.91045141E+02</rscale>
<asrwt>0</asrwt>
<pdfrwt beam="1">  1        1 0.78462286E-02 0.91045141E+02</pdfrwt>
<pdfrwt beam="2">  1       -1 0.62512359E-02 0.91045141E+02</pdfrwt>
<totfact> 0.94423905E+04</totfact>
</mgrwt>
</event>
<event>
 7    1  0.2911475E-009  0.8375564E+02  0.7818608E-02  0.1318719E+00
         -1   -1    0    0    0  501 -0.00000000000E+00  0.00000000000E+00  0.14565999232E+02  0.14566000104E+02  0.50400000000E-02 0.  1.
          1   -1    0    0  501    0  0.00000000000E+00 -0.00000000000E+00 -0.12040036456E+03  0.12040036467E+03  0.50400000000E-02 0. -1.
         23    2    1    2    0    0  0.35527136788E-14 -0.35527136788E-14 -0.10583436533E+03  0.13496636477E+03  0.83755637032E+02 0.  0.
    9000005    2    3    3    0    0  0.28702737470E+02 -0.29378406664E+02 -0.65762372161E+02  0.77584289582E+02  0.27738928145E+01 0.  0.
         22    1    3    3    0    0 -0.28702737470E+02  0.29378406664E+02 -0.40071993169E+02  0.57382075189E+02  0.00000000000E+00 0. -1.
         22    1    4    4    0    0  0.80057374384E+00 -0.96110381915E+00 -0.30295408451E+01  0.32776144683E+01  0.00000000000E+00 0.  1.
         22    1    4    4    0    0  0.27902163726E+02 -0.28417302845E+02 -0.62732831316E+02  0.74306675114E+02  0.00000000000E+00 0.  1.
<mgrwt>
<rscale>  0 0.83755637E+02</rscale>
<asrwt>0</asrwt>
<pdfrwt beam="2">  1        1 0.18523132E-01 0.83755637E+02</pdfrwt>
<pdfrwt beam="1">  1       -1 0.22409231E-02 0.83755637E+02</pdfrwt>
<totfact> 0.13552777E+05</totfact>
</mgrwt>
</event>
<event>
 7    1  0.2911475E-009  0.8809688E+02  0.7818608E-02  0.1307527E+00
          1   -1    0    0  501    0  0.00000000000E+00  0.00000000000E+00  0.49523773146E+03  0.49523773148E+03  0.50400000000E-02 0. -1.
         -1   -1    0    0    0  501 -0.00000000000E+00 -0.00000000000E+00 -0.39178444350E+01  0.39178476767E+01  0.50400000000E-02 0.  1.
         23    2    1    2    0    0  0.00000000000E+00  0.00000000000E+00  0.49131988702E+03  0.49915557916E+03  0.88096883161E+02 0.  0.
    9000005    2    3    3    0    0  0.35934992819E+02  0.23488451896E+02  0.25029586102E+03  0.25433807123E+03  0.14028732976E+02 0.  0.
         22    1    3    3    0    0 -0.35934992819E+02 -0.23488451896E+02  0.24102402600E+03  0.24481750793E+03  0.00000000000E+00 0.  1.
         22    1    4    4    0    0  0.13011640351E+01  0.63315632992E+01  0.40263933816E+02  0.40779481213E+02  0.00000000000E+00 0. -1.
         22    1    4    4    0    0  0.34633828784E+02  0.17156888597E+02  0.21003192721E+03  0.21355859001E+03  0.00000000000E+00 0. -1.
<mgrwt>
<rscale>  0 0.88096883E+02</rscale>
<asrwt>0</asrwt>
<pdfrwt beam="1">  1        1 0.76190392E-01 0.88096883E+02</pdfrwt>
<pdfrwt beam="2">  1       -1 0.60274578E-03 0.88096883E+02</pdfrwt>
<totfact> 0.15234105E+05</totfact>
</mgrwt>
</event>
<event>
 7    1  0.2911475E-009  0.8993069E+02  0.7818608E-02  0.1303020E+00
         -1   -1    0    0    0  501 -0.00000000000E+00  0.00000000000E+00  0.18109045575E+02  0.18109046276E+02  0.50400000000E-02 0.  1.
          1   -1    0    0  501    0  0.00000000000E+00 -0.00000000000E+00 -0.11165040255E+03  0.11165040267E+03  0.50400000000E-02 0. -1.
         23    2    1    2    0    0  0.00000000000E+00  0.00000000000E+00 -0.93541356979E+02  0.12975944894E+03  0.89930690672E+02 0.  0.
    9000005    2    3    3    0    0  0.19268876134E+02  0.37064187506E+02 -0.29360899647E+02  0.53181549480E+02  0.14871825513E+02 0.  0.
         22    1    3    3    0    0 -0.19268876134E+02 -0.37064187506E+02 -0.64180457332E+02  0.76577899464E+02  0.00000000000E+00 0. -1.
         22    1    4    4    0    0  0.10797395009E+02  0.31902178252E+02 -0.18325323803E+02  0.38342537848E+02  0.00000000000E+00 0. -1.
         22    1    4    4    0    0  0.84714811249E+01  0.51620092540E+01 -0.11035575844E+02  0.14839011632E+02  0.00000000000E+00 0. -1.
<mgrwt>
<rscale>  0 0.89930691E+02</rscale>
<asrwt>0</asrwt>
<pdfrwt beam="2">  1        1 0.17176985E-01 0.89930691E+02</pdfrwt>
<pdfrwt beam="1">  1       -1 0.27860071E-02 0.89930691E+02</pdfrwt>
<totfact> 0.11045713E+05</totfact>
</mgrwt>
</event>
<event>
 7    1  0.2911475E-009  0.8892540E+02  0.7818608E-02  0.1305475E+00
         -1   -1    0    0    0  501 -0.00000000000E+00  0.00000000000E+00  0.20979145171E+02  0.20979145776E+02  0.50400000000E-02 0.  1.
          1   -1    0    0  501    0  0.00000000000E+00 -0.00000000000E+00 -0.94233185878E+02  0.94233186013E+02  0.50400000000E-02 0. -1.
         23    2    1    2    0    0  0.00000000000E+00  0.00000000000E+00 -0.73254040708E+02  0.11521233179E+03  0.88925400850E+02 0.  0.
    9000005    2    3    3    0    0 -0.64199548541E+01 -0.41195538824E+02 -0.17278299436E+02  0.45415685378E+02  0.50750968125E+01 0.  0.
         22    1    3    3    0    0  0.64199548541E+01  0.41195538824E+02 -0.55975741271E+02  0.69796646411E+02  0.00000000000E+00 0. -1.
         22    1    4    4    0    0  0.68207636754E+00 -0.26049793624E+01 -0.49263708276E+00  0.27374873415E+01  0.00000000000E+00 0. -1.
         22    1    4    4    0    0 -0.71020312216E+01 -0.38590559461E+02 -0.16785662354E+02  0.42678198037E+02  0.00000000000E+00 0. -1.
<mgrwt>
<rscale>  0 0.88925401E+02</rscale>
<asrwt>0</asrwt>
<pdfrwt beam="2">  1        1 0.14497413E-01 0.88925401E+02</pdfrwt>
<pdfrwt beam="1">  1       -1 0.32275609E-02 0.88925401E+02</pdfrwt>
<totfact> 0.11072294E+05</totfact>
</mgrwt>
</event>
<event>
 7    1  0.2911475E-009  0.8985617E+02  0.7818608E-02  0.1303200E+00
          1   -1    0    0  501    0  0.00000000000E+00  0.00000000000E+00  0.17150217412E+03  0.17150217419E+03  0.50400000000E-02 0.  1.
         -1   -1    0    0    0  501 -0.00000000000E+00 -0.00000000000E+00 -0.11769720076E+02  0.11769721155E+02  0.50400000000E-02 0. -1.
         23    2    1    2    0    0 -0.71054273576E-14  0.44408920985E-15  0.15973245404E+03  0.18327189535E+03  0.89856167012E+02 0.  0.
    9000005    2    3    3    0    0 -0.28740181983E+02  0.39966046951E+01  0.14898770566E+03  0.15232968264E+03  0.12846200464E+02 0.  0.
         22    1    3    3    0    0  0.28740181983E+02 -0.39966046951E+01  0.10744748386E+02  0.30942212710E+02  0.00000000000E+00 0. -1.
         22    1    4    4    0    0 -0.53080852844E+01  0.62395881461E+01  0.37714128991E+02  0.38593571423E+02  0.00000000000E+00 0. -1.
         22    1    4    4    0    0 -0.23432096699E+02 -0.22429834509E+01  0.11127357666E+03  0.11373611121E+03  0.00000000000E+00 0. -1.
<mgrwt>
<rscale>  0 0.89856167E+02</rscale>
<asrwt>0</asrwt>
<pdfrwt beam="1">  1        1 0.26384950E-01 0.89856167E+02</pdfrwt>
<pdfrwt beam="2">  1       -1 0.18107263E-02 0.89856167E+02</pdfrwt>
<totfact> 0.11956059E+05</totfact>
</mgrwt>
</event>
<event>
 7    1  0.2911475E-009  0.9846001E+02  0.7818608E-02  0.1283568E+00
          1   -1    0    0  501    0  0.00000000000E+00  0.00000000000E+00  0.88266425669E+02  0.88266425813E+02  0.50400000000E-02 0. -1.
         -1   -1    0    0    0  501 -0.00000000000E+00 -0.00000000000E+00 -0.27457702257E+02  0.27457702720E+02  0.50400000000E-02 0.  1.
         23    2    1    2    0    0  0.00000000000E+00  0.44408920985E-15  0.60808723412E+02  0.11572412853E+03  0.98460007524E+02 0.  0.
    9000005    2    3    3    0    0 -0.39991860620E+02  0.31403513737E+01  0.62352013650E+02  0.75579484216E+02  0.14672222246E+02 0.  0.
         22    1    3    3    0    0  0.39991860620E+02 -0.31403513737E+01 -0.15432902372E+01  0.40144644317E+02  0.00000000000E+00 0. -1.
         22    1    4    4    0    0 -0.60040538926E+01 -0.39736087084E+01  0.59266404470E+01  0.93254113207E+01  0.00000000000E+00 0.  1.
         22    1    4    4    0    0 -0.33987806727E+02  0.71139600821E+01  0.56425373203E+02  0.66254072895E+02  0.00000000000E+00 0.  1.
<mgrwt>
<rscale>  0 0.98460008E+02</rscale>
<asrwt>0</asrwt>
<pdfrwt beam="1">  1        1 0.13579450E-01 0.98460008E+02</pdfrwt>
<pdfrwt beam="2">  1       -1 0.42242620E-02 0.98460008E+02</pdfrwt>
<totfact> 0.82827167E+04</totfact>
</mgrwt>
</event>
<event>
 7    1  0.2911475E-009  0.8928024E+02  0.7818608E-02  0.1304604E+00
         -1   -1    0    0    0  501 -0.00000000000E+00  0.00000000000E+00  0.54116549270E+01  0.54116572739E+01  0.50400000000E-02 0.  1.
          1   -1    0    0  501    0  0.00000000000E+00 -0.00000000000E+00 -0.36823110578E+03  0.36823110581E+03  0.50400000000E-02 0. -1.
         23    2    1    2    0    0  0.00000000000E+00 -0.17763568394E-14 -0.36281945085E+03  0.37364276309E+03  0.89280235724E+02 0.  0.
    9000005    2    3    3    0    0 -0.38295645970E+02 -0.15908694842E+02 -0.11774228368E+03  0.12508198392E+03  0.79129174753E+01 0.  0.
         22    1    3    3    0    0  0.38295645970E+02  0.15908694842E+02 -0.24507716717E+03  0.24856077917E+03  0.00000000000E+00 0. -1.
         22    1    4    4    0    0 -0.23727846434E+02 -0.59188158356E+01 -0.64119329508E+02  0.68624569170E+02  0.00000000000E+00 0. -1.
         22    1    4    4    0    0 -0.14567799536E+02 -0.99898790069E+01 -0.53622954172E+02  0.56457414748E+02  0.00000000000E+00 0. -1.
<mgrwt>
<rscale>  0 0.89280236E+02</rscale>
<asrwt>0</asrwt>
<pdfrwt beam="2">  1        1 0.56650920E-01 0.89280236E+02</pdfrwt>
<pdfrwt beam="1">  1       -1 0.83256277E-03 0.89280236E+02</pdfrwt>
<totfact> 0.14064564E+05</totfact>
</mgrwt>
</event>
<event>
 7    1  0.2911475E-009  0.9495296E+02  0.7818608E-02  0.1291282E+00
         -1   -1    0    0    0  501 -0.00000000000E+00  0.00000000000E+00  0.11645018303E+04  0.11645018303E+04  0.50400000000E-02 0.  1.
          1   -1    0    0  501    0  0.00000000000E+00 -0.00000000000E+00 -0.19356021542E+01  0.19356087159E+01  0.50400000000E-02 0. -1.
         23    2    1    2    0    0 -0.17763568394E-14  0.17763568394E-14  0.11625662281E+04  0.11664374390E+04  0.94952958554E+02 0.  0.
    9000005    2    3    3    0    0 -0.98362844976E+01  0.15156069681E+02  0.11202180648E+04  0.11203958722E+04  0.84816684750E+01 0.  0.
         22    1    3    3    0    0  0.98362844976E+01 -0.15156069681E+02  0.42348163316E+02  0.46041566841E+02  0.00000000000E+00 0. -1.
         22    1    4    4    0    0  0.96782263704E+00  0.49153462844E+01  0.32276729798E+03  0.32280617397E+03  0.00000000000E+00 0. -1.
         22    1    4    4    0    0 -0.10804107135E+02  0.10240723397E+02  0.79745076684E+03  0.79758969821E+03  0.00000000000E+00 0. -1.
<mgrwt>
<rscale>  0 0.94952959E+02</rscale>
<asrwt>0</asrwt>
<pdfrwt beam="2">  1        1 0.29778557E-03 0.94952959E+02</pdfrwt>
<pdfrwt beam="1">  1       -1 0.17915406E+00 0.94952959E+02</pdfrwt>
<totfact> 0.18859728E+04</totfact>
</mgrwt>
</event>
<event>
 7    1  0.2911475E-009  0.9306099E+02  0.7818608E-02  0.1295604E+00
         -1   -1    0    0    0  501 -0.00000000000E+00  0.00000000000E+00  0.10595547841E+03  0.10595547853E+03  0.50400000000E-02 0.  1.
          1   -1    0    0  501    0  0.00000000000E+00 -0.00000000000E+00 -0.20433928863E+02  0.20433929484E+02  0.50400000000E-02 0. -1.
         23    2    1    2    0    0  0.00000000000E+00 -0.35527136788E-14  0.85521549549E+02  0.12638940802E+03  0.93060985495E+02 0.  0.
    9000005    2    3    3    0    0  0.60998922941E+01 -0.30336614280E+02 -0.24721317653E+01  0.33113436816E+02  0.11526899425E+02 0.  0.
         22    1    3    3    0    0 -0.60998922941E+01  0.30336614280E+02  0.87993681314E+02  0.93275971199E+02  0.00000000000E+00 0.  1.
         22    1    4    4    0    0  0.10760271786E+01 -0.16424471299E+02  0.40457336836E+01  0.16949603328E+02  0.00000000000E+00 0.  1.
         22    1    4    4    0    0  0.50238651156E+01 -0.13912142981E+02 -0.65178654489E+01  0.16163833488E+02  0.00000000000E+00 0.  1.
<mgrwt>
<rscale>  0 0.93060985E+02</rscale>
<asrwt>0</asrwt>
<pdfrwt beam="2">  1        1 0.31436814E-02 0.93060985E+02</pdfrwt>
<pdfrwt beam="1">  1       -1 0.16300843E-01 0.93060985E+02</pdfrwt>
<totfact> 0.76347145E+04</totfact>
</mgrwt>
</event>
<event>
 7    1  0.2935512E-009  0.9176727E+02  0.7818608E-02  0.1298628E+00
         -1   -1    0    0    0  501 -0.00000000000E+00  0.00000000000E+00  0.13320310314E+02  0.13320311267E+02  0.50400000000E-02 0.  1.
          1   -1    0    0  501    0  0.00000000000E+00 -0.00000000000E+00 -0.15805246525E+03  0.15805246533E+03  0.50400000000E-02 0. -1.
         23    2    1    2    0    0  0.35527136788E-14  0.71054273576E-14 -0.14473215494E+03  0.17137277660E+03  0.91767270234E+02 0.  0.
    9000005    2    3    3    0    0  0.30181675559E+02  0.32477883157E+02 -0.59960797358E+02  0.75707059125E+02  0.13058144874E+02 0.  0.
         22    1    3    3    0    0 -0.30181675559E+02 -0.32477883157E+02 -0.84771357580E+02  0.95665717474E+02  0.00000000000E+00 0. -1.
         22    1    4    4    0    0  0.29805729404E+02  0.33636769765E+02 -0.57685771212E+02  0.73126342626E+02  0.00000000000E+00 0.  1.
         22    1    4    4    0    0  0.37594615522E+00 -0.11588866077E+01 -0.22750261462E+01  0.25807164988E+01  0.00000000000E+00 0.  1.
<mgrwt>
<rscale>  0 0.91767270E+02</rscale>
<asrwt>0</asrwt>
<pdfrwt beam="2">  1        1 0.24315763E-01 0.91767270E+02</pdfrwt>
<pdfrwt beam="1">  1       -1 0.20492787E-02 0.91767270E+02</pdfrwt>
<totfact> 0.11126722E+05</totfact>
</mgrwt>
</event>
<event>
 7    1  0.2911475E-009  0.9657048E+02  0.7818608E-02  0.1287678E+00
          1   -1    0    0  501    0  0.00000000000E+00  0.00000000000E+00  0.69365319971E+02  0.69365320154E+02  0.50400000000E-02 0. -1.
         -1   -1    0    0    0  501 -0.00000000000E+00 -0.00000000000E+00 -0.33611381232E+02  0.33611381610E+02  0.50400000000E-02 0.  1.
         23    2    1    2    0    0  0.00000000000E+00  0.71054273576E-14  0.35753938739E+02  0.10297670176E+03  0.96570476704E+02 0.  0.
    9000005    2    3    3    0    0  0.91533669158E+01  0.43084820848E+02  0.38825804631E+02  0.58823306952E+02  0.35570243399E+01 0.  0.
         22    1    3    3    0    0 -0.91533669158E+01 -0.43084820848E+02 -0.30718658923E+01  0.44153394812E+02  0.00000000000E+00 0.  1.
         22    1    4    4    0    0  0.58213743967E+01  0.26829906336E+02  0.26458327988E+02  0.38128406651E+02  0.00000000000E+00 0. -1.
         22    1    4    4    0    0  0.33319925192E+01  0.16254914512E+02  0.12367476643E+02  0.20694900301E+02  0.00000000000E+00 0. -1.
<mgrwt>
<rscale>  0 0.96570477E+02</rscale>
<asrwt>0</asrwt>
<pdfrwt beam="1">  1        1 0.10671588E-01 0.96570477E+02</pdfrwt>
<pdfrwt beam="2">  1       -1 0.51709819E-02 0.96570477E+02</pdfrwt>
<totfact> 0.84015688E+04</totfact>
</mgrwt>
</event>
<event>
 7    1  0.2911475E-009  0.8921332E+02  0.7818608E-02  0.1304768E+00
         -1   -1    0    0    0  501 -0.00000000000E+00  0.00000000000E+00  0.43040207902E+01  0.43040237412E+01  0.50400000000E-02 0.  1.
          1   -1    0    0  501    0  0.00000000000E+00 -0.00000000000E+00 -0.46230103740E+03  0.46230103743E+03  0.50400000000E-02 0. -1.
         23    2    1    2    0    0  0.00000000000E+00  0.00000000000E+00 -0.45799701661E+03  0.46660506117E+03  0.89213316745E+02 0.  0.
    9000005    2    3    3    0    0  0.34488731242E+02 -0.80213564672E+01 -0.36875680249E+03  0.37059656905E+03  0.10316146002E+02 0.  0.
         22    1    3    3    0    0 -0.34488731242E+02  0.80213564672E+01 -0.89240214117E+02  0.96008492113E+02  0.00000000000E+00 0.  1.
         22    1    4    4    0    0  0.14385405363E+02  0.33900138427E-01 -0.18737610818E+03  0.18792750452E+03  0.00000000000E+00 0.  1.
         22    1    4    4    0    0  0.20103325880E+02 -0.80552566056E+01 -0.18138069431E+03  0.18266906454E+03  0.00000000000E+00 0.  1.
<mgrwt>
<rscale>  0 0.89213317E+02</rscale>
<asrwt>0</asrwt>
<pdfrwt beam="2">  1        1 0.71123197E-01 0.89213317E+02</pdfrwt>
<pdfrwt beam="1">  1       -1 0.66215764E-03 0.89213317E+02</pdfrwt>
<totfact> 0.14605854E+05</totfact>
</mgrwt>
</event>
<event>
 7    1  0.2911475E-009  0.9091861E+02  0.7818608E-02  0.1300642E+00
          1   -1    0    0  501    0  0.00000000000E+00  0.00000000000E+00  0.62977338023E+02  0.62977338224E+02  0.50400000000E-02 0. -1.
         -1   -1    0    0    0  501 -0.00000000000E+00 -0.00000000000E+00 -0.32814156989E+02  0.32814157376E+02  0.50400000000E-02 0.  1.
         23    2    1    2    0    0  0.00000000000E+00  0.00000000000E+00  0.30163181033E+02  0.95791495601E+02  0.90918607223E+02 0.  0.
    9000005    2    3    3    0    0 -0.10799817416E+02  0.11800696183E+02  0.59719766807E+02  0.62183695179E+02  0.66685014867E+01 0.  0.
         22    1    3    3    0    0  0.10799817416E+02 -0.11800696183E+02 -0.29556585773E+02  0.33607800422E+02  0.00000000000E+00 0.  1.
         22    1    4    4    0    0 -0.26800357010E+01  0.63626903927E+01  0.16758502500E+02  0.18124950385E+02  0.00000000000E+00 0.  1.
         22    1    4    4    0    0 -0.81197817147E+01  0.54380057899E+01  0.42961264306E+02  0.44058744794E+02  0.00000000000E+00 0.  1.
<mgrwt>
<rscale>  0 0.90918607E+02</rscale>
<asrwt>0</asrwt>
<pdfrwt beam="1">  1        1 0.96888211E-02 0.90918607E+02</pdfrwt>
<pdfrwt beam="2">  1       -1 0.50483320E-02 0.90918607E+02</pdfrwt>
<totfact> 0.97847281E+04</totfact>
</mgrwt>
</event>
<event>
 6    1  0.2911475E-009  0.1449072E+03  0.7818608E-02  0.1206874E+00
         -1   -1    0    0    0  501 -0.00000000000E+00  0.00000000000E+00  0.96085374503E+02  0.96085374636E+02  0.50400000000E-02 0.  1.
          1   -1    0    0  501    0  0.00000000000E+00 -0.00000000000E+00 -0.54633987141E+02  0.54633987374E+02  0.50400000000E-02 0. -1.
    9000005    2    1    2    0    0  0.35772403389E+02  0.48857296529E+02 -0.20433008396E+02  0.64137731702E+02  0.54259125963E+01 0.  0.
         22    1    1    2    0    0 -0.35772403389E+02 -0.48857296529E+02  0.61884395758E+02  0.86581630307E+02  0.00000000000E+00 0.  1.
         22    1    3    3    0    0  0.89091506758E+01  0.14164842425E+02 -0.79066194414E+01  0.18507575683E+02  0.00000000000E+00 0. -1.
         22    1    3    3    0    0  0.26863252713E+02  0.34692454104E+02 -0.12526388954E+02  0.45630156019E+02  0.00000000000E+00 0. -1.
<mgrwt>
<rscale>  0 0.14490724E+03</rscale>
<asrwt>0</asrwt>
<pdfrwt beam="2">  1        1 0.84052288E-02 0.14490724E+03</pdfrwt>
<pdfrwt beam="1">  1       -1 0.14782365E-01 0.14490724E+03</pdfrwt>
<totfact> 0.24795953E+04</totfact>
</mgrwt>
</event>
<event>
 7    1  0.2911475E-009  0.9005998E+02  0.7818608E-02  0.1302707E+00
          1   -1    0    0  501    0  0.00000000000E+00  0.00000000000E+00  0.38511394652E+03  0.38511394655E+03  0.50400000000E-02 0. -1.
         -1   -1    0    0    0  501 -0.00000000000E+00 -0.00000000000E+00 -0.52651934088E+01  0.52651958210E+01  0.50400000000E-02 0.  1.
         23    2    1    2    0    0  0.00000000000E+00 -0.35527136788E-14  0.37984875311E+03  0.39037914238E+03  0.90059977574E+02 0.  0.
    9000005    2    3    3    0    0 -0.29910604359E+02 -0.29142456013E+02  0.12962532697E+03  0.13669490955E+03  0.11783289362E+02 0.  0.
         22    1    3    3    0    0  0.29910604359E+02  0.29142456013E+02  0.25022342614E+03  0.25368423283E+03  0.00000000000E+00 0. -1.
         22    1    4    4    0    0 -0.27100836593E+02 -0.24383999994E+02  0.97396190345E+02  0.10399544554E+03  0.00000000000E+00 0. -1.
         22    1    4    4    0    0 -0.28097677660E+01 -0.47584560195E+01  0.32229136623E+02  0.32699464003E+02  0.00000000000E+00 0. -1.
<mgrwt>
<rscale>  0 0.90059978E+02</rscale>
<asrwt>0</asrwt>
<pdfrwt beam="1">  1        1 0.59248280E-01 0.90059978E+02</pdfrwt>
<pdfrwt beam="2">  1       -1 0.81003022E-03 0.90059978E+02</pdfrwt>
<totfact> 0.13849899E+05</totfact>
</mgrwt>
</event>
<event>
 7    1  0.3438474E-009  0.9026718E+02  0.7818608E-02  0.1302206E+00
         -1   -1    0    0    0  501 -0.00000000000E+00  0.00000000000E+00  0.43956197667E+01  0.43956226561E+01  0.50400000000E-02 0.  1.
          1   -1    0    0  501    0  0.00000000000E+00 -0.00000000000E+00 -0.46342500781E+03  0.46342500784E+03  0.50400000000E-02 0. -1.
         23    2    1    2    0    0  0.00000000000E+00  0.00000000000E+00 -0.45902938804E+03  0.46782063049E+03  0.90267176914E+02 0.  0.
    9000005    2    3    3    0    0  0.26485626465E+02 -0.30991566660E+02 -0.31981913039E+03  0.32276387799E+03  0.15174951503E+02 0.  0.
         22    1    3    3    0    0 -0.26485626465E+02  0.30991566660E+02 -0.13921025765E+03  0.14505675251E+03  0.00000000000E+00 0.  1.
         22    1    4    4    0    0 -0.20023991658E+01 -0.16341235635E+01 -0.20505434374E+02  0.20667675271E+02  0.00000000000E+00 0.  1.
         22    1    4    4    0    0  0.28488025631E+02 -0.29357443097E+02 -0.29931369602E+03  0.30209620271E+03  0.00000000000E+00 0.  1.
<mgrwt>
<rscale>  0 0.90267177E+02</rscale>
<asrwt>0</asrwt>
<pdfrwt beam="2">  1        1 0.71296117E-01 0.90267177E+02</pdfrwt>
<pdfrwt beam="1">  1       -1 0.67624979E-03 0.90267177E+02</pdfrwt>
<totfact> 0.14163587E+05</totfact>
</mgrwt>
</event>
<event>
 7    1  0.2911475E-009  0.9329169E+02  0.7818608E-02  0.1295071E+00
         -1   -1    0    0    0  501 -0.00000000000E+00  0.00000000000E+00  0.28047054265E+02  0.28047054718E+02  0.50400000000E-02 0.  1.
          1   -1    0    0  501    0  0.00000000000E+00 -0.00000000000E+00 -0.77578011548E+02  0.77578011712E+02  0.50400000000E-02 0. -1.
         23    2    1    2    0    0  0.00000000000E+00  0.17763568394E-14 -0.49530957283E+02  0.10562506643E+03  0.93291687352E+02 0.  0.
    9000005    2    3    3    0    0 -0.36120315982E+02 -0.14307396744E+02 -0.53132334437E+02  0.66607778651E+02  0.10206487442E+02 0.  0.
         22    1    3    3    0    0  0.36120315982E+02  0.14307396744E+02  0.36013771538E+01  0.39017287779E+02  0.00000000000E+00 0.  1.
         22    1    4    4    0    0 -0.25848989528E+02 -0.12652521512E+02 -0.31900163010E+02  0.42963670238E+02  0.00000000000E+00 0. -1.
         22    1    4    4    0    0 -0.10271326454E+02 -0.16548752316E+01 -0.21232171427E+02  0.23644108413E+02  0.00000000000E+00 0. -1.
<mgrwt>
<rscale>  0 0.93291687E+02</rscale>
<asrwt>0</asrwt>
<pdfrwt beam="2">  1        1 0.11935079E-01 0.93291687E+02</pdfrwt>
<pdfrwt beam="1">  1       -1 0.43149315E-02 0.93291687E+02</pdfrwt>
<totfact> 0.94120950E+04</totfact>
</mgrwt>
</event>
<event>
 7    1  0.3428668E-009  0.9568795E+02  0.7818608E-02  0.1289634E+00
         -1   -1    0    0    0  501 -0.00000000000E+00  0.00000000000E+00  0.36236396959E+01  0.36236432009E+01  0.50400000000E-02 0.  1.
          1   -1    0    0  501    0  0.00000000000E+00 -0.00000000000E+00 -0.63169767555E+03  0.63169767557E+03  0.50400000000E-02 0. -1.
         23    2    1    2    0    0  0.00000000000E+00  0.71054273576E-14 -0.62807403585E+03  0.63532131877E+03  0.95687948933E+02 0.  0.
    9000005    2    3    3    0    0  0.53174977007E+00  0.43702390602E+02 -0.42875937749E+03  0.43127104374E+03  0.15809101158E+02 0.  0.
         22    1    3    3    0    0 -0.53174977007E+00 -0.43702390602E+02 -0.19931465836E+03  0.20405027503E+03  0.00000000000E+00 0.  1.
         22    1    4    4    0    0 -0.61888094041E+01  0.80713702832E+01 -0.86164413673E+02  0.86762633453E+02  0.00000000000E+00 0. -1.
         22    1    4    4    0    0  0.67205591741E+01  0.35631020318E+02 -0.34259496382E+03  0.34450841029E+03  0.00000000000E+00 0. -1.
<mgrwt>
<rscale>  0 0.95687949E+02</rscale>
<asrwt>0</asrwt>
<pdfrwt beam="2">  1        1 0.97184170E-01 0.95687949E+02</pdfrwt>
<pdfrwt beam="1">  1       -1 0.55748380E-03 0.95687949E+02</pdfrwt>
<totfact> 0.12488094E+05</totfact>
</mgrwt>
</event>
<event>
 7    1  0.2911475E-009  0.9439533E+02  0.7818608E-02  0.1292544E+00
         -1   -1    0    0    0  501 -0.00000000000E+00  0.00000000000E+00  0.37342324640E+01  0.37342358652E+01  0.50400000000E-02 0.  1.
          1   -1    0    0  501    0  0.00000000000E+00 -0.00000000000E+00 -0.59653992934E+03  0.59653992936E+03  0.50400000000E-02 0. -1.
         23    2    1    2    0    0  0.00000000000E+00  0.00000000000E+00 -0.59280569688E+03  0.60027416523E+03  0.94395334576E+02 0.  0.
    9000005    2    3    3    0    0 -0.24145937931E+02 -0.17891224438E+02 -0.52780214386E+03  0.52866003160E+03  0.17898931224E+01 0.  0.
         22    1    3    3    0    0  0.24145937931E+02  0.17891224438E+02 -0.65003553018E+02  0.71614133629E+02  0.00000000000E+00 0.  1.
         22    1    4    4    0    0 -0.87571655981E+01 -0.60501789054E+01 -0.20080902842E+03  0.20109092100E+03  0.00000000000E+00 0. -1.
         22    1    4    4    0    0 -0.15388772333E+02 -0.11841045533E+02 -0.32699311544E+03  0.32756911060E+03  0.00000000000E+00 0. -1.
<mgrwt>
<rscale>  0 0.94395335E+02</rscale>
<asrwt>0</asrwt>
<pdfrwt beam="2">  1        1 0.91775298E-01 0.94395335E+02</pdfrwt>
<pdfrwt beam="1">  1       -1 0.57449804E-03 0.94395335E+02</pdfrwt>
<totfact> 0.12909726E+05</totfact>
</mgrwt>
</event>
<event>
 7    1  0.2911475E-009  0.9155302E+02  0.7818608E-02  0.1299134E+00
         -1   -1    0    0    0  501 -0.00000000000E+00  0.00000000000E+00  0.92615788893E+02  0.92615789030E+02  0.50400000000E-02 0.  1.
          1   -1    0    0  501    0  0.00000000000E+00 -0.00000000000E+00 -0.22625612277E+02  0.22625612838E+02  0.50400000000E-02 0. -1.
         23    2    1    2    0    0  0.00000000000E+00  0.35527136788E-14  0.69990176616E+02  0.11524140187E+03  0.91553022243E+02 0.  0.
    9000005    2    3    3    0    0  0.63942281231E+01  0.28166990148E+02 -0.79213240801E+01  0.32148276834E+02  0.11683271843E+02 0.  0.
         22    1    3    3    0    0 -0.63942281231E+01 -0.28166990148E+02  0.77911500696E+02  0.83093125035E+02  0.00000000000E+00 0.  1.
         22    1    4    4    0    0  0.62380494697E+01  0.13507849239E+02  0.11261081664E+01  0.14921238951E+02  0.00000000000E+00 0. -1.
         22    1    4    4    0    0  0.15617865340E+00  0.14659140909E+02 -0.90474322465E+01  0.17227037883E+02  0.00000000000E+00 0. -1.
<mgrwt>
<rscale>  0 0.91553022E+02</rscale>
<asrwt>0</asrwt>
<pdfrwt beam="2">  1        1 0.34808635E-02 0.91553022E+02</pdfrwt>
<pdfrwt beam="1">  1       -1 0.14248583E-01 0.91553022E+02</pdfrwt>
<totfact> 0.81649467E+04</totfact>
</mgrwt>
</event>
<event>
 7    1  0.2911475E-009  0.9065534E+02  0.7818608E-02  0.1301272E+00
          1   -1    0    0  501    0  0.00000000000E+00  0.00000000000E+00  0.43297805885E+03  0.43297805888E+03  0.50400000000E-02 0. -1.
         -1   -1    0    0    0  501 -0.00000000000E+00 -0.00000000000E+00 -0.47452678331E+01  0.47452705096E+01  0.50400000000E-02 0.  1.
         23    2    1    2    0    0  0.00000000000E+00  0.00000000000E+00  0.42823279102E+03  0.43772332939E+03  0.90655335139E+02 0.  0.
    9000005    2    3    3    0    0 -0.13815859511E+02 -0.33824970834E+02  0.33970571699E+03  0.34195251201E+03  0.14019261288E+02 0.  0.
         22    1    3    3    0    0  0.13815859511E+02  0.33824970834E+02  0.88527074026E+02  0.95770817379E+02  0.00000000000E+00 0.  1.
         22    1    4    4    0    0 -0.13734838950E+02 -0.16565538178E+02  0.21105773109E+03  0.21215190008E+03  0.00000000000E+00 0. -1.
         22    1    4    4    0    0 -0.81020561547E-01 -0.17259432657E+02  0.12864798590E+03  0.12980061193E+03  0.00000000000E+00 0. -1.
<mgrwt>
<rscale>  0 0.90655335E+02</rscale>
<asrwt>0</asrwt>
<pdfrwt beam="1">  1        1 0.66611988E-01 0.90655335E+02</pdfrwt>
<pdfrwt beam="2">  1       -1 0.73004164E-03 0.90655335E+02</pdfrwt>
<totfact> 0.13867657E+05</totfact>
</mgrwt>
</event>
<event>
 7    1  0.2911475E-009  0.8988859E+02  0.7818608E-02  0.1303122E+00
          1   -1    0    0  501    0  0.00000000000E+00  0.00000000000E+00  0.59481129940E+02  0.59481130154E+02  0.50400000000E-02 0. -1.
         -1   -1    0    0    0  501 -0.00000000000E+00 -0.00000000000E+00 -0.33960176442E+02  0.33960176816E+02  0.50400000000E-02 0.  1.
         23    2    1    2    0    0  0.00000000000E+00  0.00000000000E+00  0.25520953498E+02  0.93441306970E+02  0.89888590937E+02 0.  0.
    9000005    2    3    3    0    0 -0.27841457607E+02  0.35034719978E+02  0.13374963033E+02  0.47072098976E+02  0.58578579887E+01 0.  0.
         22    1    3    3    0    0  0.27841457607E+02 -0.35034719978E+02  0.12145990465E+02  0.46369207994E+02  0.00000000000E+00 0.  1.
         22    1    4    4    0    0 -0.17759502608E+02  0.19699731470E+02  0.54272903089E+01  0.27072769215E+02  0.00000000000E+00 0.  1.
         22    1    4    4    0    0 -0.10081954999E+02  0.15334988508E+02  0.79476727244E+01  0.19999329761E+02  0.00000000000E+00 0.  1.
<mgrwt>
<rscale>  0 0.89888591E+02</rscale>
<asrwt>0</asrwt>
<pdfrwt beam="1">  1        1 0.91509430E-02 0.89888591E+02</pdfrwt>
<pdfrwt beam="2">  1       -1 0.52246426E-02 0.89888591E+02</pdfrwt>
<totfact> 0.10011359E+05</totfact>
</mgrwt>
</event>
<event>
 7    1  0.2911475E-009  0.9034994E+02  0.7818608E-02  0.1302006E+00
          1   -1    0    0  501    0  0.00000000000E+00  0.00000000000E+00  0.87115857589E+02  0.87115857735E+02  0.50400000000E-02 0. -1.
         -1   -1    0    0    0  501 -0.00000000000E+00 -0.00000000000E+00 -0.23426019990E+02  0.23426020532E+02  0.50400000000E-02 0.  1.
         23    2    1    2    0    0  0.00000000000E+00 -0.11102230246E-15  0.63689837599E+02  0.11054187827E+03  0.90349938779E+02 0.  0.
    9000005    2    3    3    0    0 -0.42441561625E+02  0.98844870456E+00  0.17586677866E+02  0.47869998437E+02  0.13415749251E+02 0.  0.
         22    1    3    3    0    0  0.42441561625E+02 -0.98844870456E+00  0.46103159733E+02  0.62671879830E+02  0.00000000000E+00 0.  1.
         22    1    4    4    0    0 -0.20074444048E+02  0.31282256087E+01  0.14996393646E+02  0.25251948869E+02  0.00000000000E+00 0.  1.
         22    1    4    4    0    0 -0.22367117577E+02 -0.21397769042E+01  0.25902842195E+01  0.22618049567E+02  0.00000000000E+00 0.  1.
<mgrwt>
<rscale>  0 0.90349939E+02</rscale>
<asrwt>0</asrwt>
<pdfrwt beam="1">  1        1 0.13402439E-01 0.90349939E+02</pdfrwt>
<pdfrwt beam="2">  1       -1 0.36040032E-02 0.90349939E+02</pdfrwt>
<totfact> 0.10469707E+05</totfact>
</mgrwt>
</event>
<event>
 7    1  0.2911475E-009  0.9008675E+02  0.7818608E-02  0.1302642E+00
         -1   -1    0    0    0  501 -0.00000000000E+00  0.00000000000E+00  0.28274484552E+02  0.28274485001E+02  0.50400000000E-02 0.  1.
          1   -1    0    0  501    0  0.00000000000E+00 -0.00000000000E+00 -0.71757472997E+02  0.71757473174E+02  0.50400000000E-02 0. -1.
         23    2    1    2    0    0  0.00000000000E+00  0.00000000000E+00 -0.43482988446E+02  0.10003195818E+03  0.90086749149E+02 0.  0.
    9000005    2    3    3    0    0  0.30075029483E+02  0.17563162252E+02  0.97064816693E+01  0.36454510933E+02  0.46629941341E+01 0.  0.
         22    1    3    3    0    0 -0.30075029483E+02 -0.17563162252E+02 -0.53189470115E+02  0.63577447242E+02  0.00000000000E+00 0. -1.
         22    1    4    4    0    0  0.11964385937E+02  0.66181038983E+01  0.14879354219E+01  0.13753537068E+02  0.00000000000E+00 0. -1.
         22    1    4    4    0    0  0.18110643546E+02  0.10945058354E+02  0.82185462474E+01  0.22700973866E+02  0.00000000000E+00 0. -1.
<mgrwt>
<rscale>  0 0.90086749E+02</rscale>
<asrwt>0</asrwt>
<pdfrwt beam="2">  1        1 0.11039611E-01 0.90086749E+02</pdfrwt>
<pdfrwt beam="1">  1       -1 0.43499208E-02 0.90086749E+02</pdfrwt>
<totfact> 0.10237826E+05</totfact>
</mgrwt>
</event>
<event>
 7    1  0.2911475E-009  0.9085535E+02  0.7818608E-02  0.1300793E+00
         -1   -1    0    0    0  501 -0.00000000000E+00  0.00000000000E+00  0.35134471243E+02  0.35134471604E+02  0.50400000000E-02 0.  1.
          1   -1    0    0  501    0  0.00000000000E+00 -0.00000000000E+00 -0.58736435041E+02  0.58736435257E+02  0.50400000000E-02 0. -1.
         23    2    1    2    0    0  0.00000000000E+00  0.00000000000E+00 -0.23601963798E+02  0.93870906861E+02  0.90855349099E+02 0.  0.
    9000005    2    3    3    0    0  0.43719649927E+02 -0.59098546939E+01 -0.13755484150E+02  0.48668170952E+02  0.15265757349E+02 0.  0.
         22    1    3    3    0    0 -0.43719649927E+02  0.59098546939E+01 -0.98464796479E+01  0.45202735909E+02  0.00000000000E+00 0.  1.
         22    1    4    4    0    0  0.38441393254E+02 -0.25943754807E+01 -0.16429601383E+02  0.41885597776E+02  0.00000000000E+00 0. -1.
         22    1    4    4    0    0  0.52782566727E+01 -0.33154792132E+01  0.26741172331E+01  0.67825731764E+01  0.00000000000E+00 0. -1.
<mgrwt>
<rscale>  0 0.90855349E+02</rscale>
<asrwt>0</asrwt>
<pdfrwt beam="2">  1        1 0.90363747E-02 0.90855349E+02</pdfrwt>
<pdfrwt beam="1">  1       -1 0.54053033E-02 0.90855349E+02</pdfrwt>
<totfact> 0.97007884E+04</totfact>
</mgrwt>
</event>
<event>
 7    1  0.2911475E-009  0.9092435E+02  0.7818608E-02  0.1300629E+00
         -1   -1    0    0    0  501 -0.00000000000E+00  0.00000000000E+00  0.18841985308E+02  0.18841985982E+02  0.50400000000E-02 0.  1.
          1   -1    0    0  501    0  0.00000000000E+00 -0.00000000000E+00 -0.10969169604E+03  0.10969169616E+03  0.50400000000E-02 0. -1.
         23    2    1    2    0    0  0.00000000000E+00  0.00000000000E+00 -0.90849710735E+02  0.12853368214E+03  0.90924350445E+02 0.  0.
    9000005    2    3    3    0    0 -0.11425312008E+02  0.12831980348E+02 -0.10440584083E+03  0.10664838714E+03  0.13345463857E+02 0.  0.
         22    1    3    3    0    0  0.11425312008E+02 -0.12831980348E+02  0.13556130096E+02  0.21885295002E+02  0.00000000000E+00 0.  1.
         22    1    4    4    0    0 -0.53626954983E+01  0.82456100985E+01 -0.88215334391E+02  0.88762006571E+02  0.00000000000E+00 0.  1.
         22    1    4    4    0    0 -0.60626165098E+01  0.45863702495E+01 -0.16190506440E+02  0.17886380567E+02  0.00000000000E+00 0.  1.
<mgrwt>
<rscale>  0 0.90924350E+02</rscale>
<asrwt>0</asrwt>
<pdfrwt beam="2">  1        1 0.16875645E-01 0.90924350E+02</pdfrwt>
<pdfrwt beam="1">  1       -1 0.28987671E-02 0.90924350E+02</pdfrwt>
<totfact> 0.10689195E+05</totfact>
</mgrwt>
</event>
<event>
 7    1  0.2911475E-009  0.8568858E+02  0.7818608E-02  0.1313642E+00
          1   -1    0    0  501    0  0.00000000000E+00  0.00000000000E+00  0.38861157434E+02  0.38861157761E+02  0.50400000000E-02 0. -1.
         -1   -1    0    0    0  501 -0.00000000000E+00 -0.00000000000E+00 -0.47235682223E+02  0.47235682491E+02  0.50400000000E-02 0.  1.
         23    2    1    2    0    0 -0.22204460493E-15  0.00000000000E+00 -0.83745247887E+01  0.86096840252E+02  0.85688582880E+02 0.  0.
    9000005    2    3    3    0    0  0.18132835637E+01  0.40631545743E+02 -0.15459923940E+02  0.44812298498E+02  0.10720183844E+02 0.  0.
         22    1    3    3    0    0 -0.18132835637E+01 -0.40631545743E+02  0.70853991514E+01  0.41284541755E+02  0.00000000000E+00 0. -1.
         22    1    4    4    0    0 -0.10478523511E+01  0.38361366211E+02 -0.13605484470E+02  0.40716110077E+02  0.00000000000E+00 0. -1.
         22    1    4    4    0    0  0.28611359148E+01  0.22701795321E+01 -0.18544394698E+01  0.40961884208E+01  0.00000000000E+00 0. -1.
<mgrwt>
<rscale>  0 0.85688583E+02</rscale>
<asrwt>0</asrwt>
<pdfrwt beam="1">  1        1 0.59786397E-02 0.85688583E+02</pdfrwt>
<pdfrwt beam="2">  1       -1 0.72670280E-02 0.85688583E+02</pdfrwt>
<totfact> 0.10748032E+05</totfact>
</mgrwt>
</event>
<event>
 7    1  0.2911475E-009  0.9078862E+02  0.7818608E-02  0.1300953E+00
          1   -1    0    0  501    0  0.00000000000E+00  0.00000000000E+00  0.27067269532E+02  0.27067270002E+02  0.50400000000E-02 0. -1.
         -1   -1    0    0    0  501 -0.00000000000E+00 -0.00000000000E+00 -0.76130441643E+02  0.76130441810E+02  0.50400000000E-02 0.  1.
         23    2    1    2    0    0  0.00000000000E+00  0.00000000000E+00 -0.49063172110E+02  0.10319771181E+03  0.90788616387E+02 0.  0.
    9000005    2    3    3    0    0  0.21736117780E+02  0.16350137073E+02 -0.65359082849E+02  0.71490575308E+02  0.99652821595E+01 0.  0.
         22    1    3    3    0    0 -0.21736117780E+02 -0.16350137073E+02  0.16295910738E+02  0.31707136503E+02  0.00000000000E+00 0. -1.
         22    1    4    4    0    0  0.13517957795E+02  0.10747293777E+02 -0.28599684092E+02  0.33409301649E+02  0.00000000000E+00 0. -1.
         22    1    4    4    0    0  0.82181599844E+01  0.56028432966E+01 -0.36759398756E+02  0.38081273659E+02  0.00000000000E+00 0. -1.
<mgrwt>
<rscale>  0 0.90788616E+02</rscale>
<asrwt>0</asrwt>
<pdfrwt beam="1">  1        1 0.41641954E-02 0.90788616E+02</pdfrwt>
<pdfrwt beam="2">  1       -1 0.11712376E-01 0.90788616E+02</pdfrwt>
<totfact> 0.86292711E+04</totfact>
</mgrwt>
</event>
<event>
 7    1  0.2911475E-009  0.9106786E+02  0.7818608E-02  0.1300286E+00
         -1   -1    0    0    0  501 -0.00000000000E+00  0.00000000000E+00  0.56517526420E+01  0.56517548892E+01  0.50400000000E-02 0.  1.
          1   -1    0    0  501    0  0.00000000000E+00 -0.00000000000E+00 -0.36684873134E+03  0.36684873137E+03  0.50400000000E-02 0. -1.
         23    2    1    2    0    0  0.00000000000E+00  0.00000000000E+00 -0.36119697869E+03  0.37250048626E+03  0.91067858469E+02 0.  0.
    9000005    2    3    3    0    0 -0.12956174167E+02 -0.38888529552E+02 -0.25930362734E+03  0.26267136795E+03  0.88145451478E+01 0.  0.
         22    1    3    3    0    0  0.12956174167E+02  0.38888529552E+02 -0.10189335135E+03  0.10982911831E+03  0.00000000000E+00 0.  1.
         22    1    4    4    0    0 -0.11896358501E+02 -0.35032620882E+02 -0.24640507180E+03  0.24916714727E+03  0.00000000000E+00 0.  1.
         22    1    4    4    0    0 -0.10598156664E+01 -0.38559086704E+01 -0.12898555548E+02  0.13504220679E+02  0.00000000000E+00 0.  1.
<mgrwt>
<rscale>  0 0.91067858E+02</rscale>
<asrwt>0</asrwt>
<pdfrwt beam="2">  1        1 0.56438248E-01 0.91067858E+02</pdfrwt>
<pdfrwt beam="1">  1       -1 0.86950087E-03 0.91067858E+02</pdfrwt>
<totfact> 0.13335183E+05</totfact>
</mgrwt>
</event>
<event>
 7    1  0.2911475E-009  0.9130912E+02  0.7818608E-02  0.1299712E+00
          1   -1    0    0  501    0  0.00000000000E+00  0.00000000000E+00  0.12760996878E+03  0.12760996888E+03  0.50400000000E-02 0. -1.
         -1   -1    0    0    0  501 -0.00000000000E+00 -0.00000000000E+00 -0.16333665627E+02  0.16333666405E+02  0.50400000000E-02 0.  1.
         23    2    1    2    0    0  0.00000000000E+00  0.00000000000E+00  0.11127630315E+03  0.14394363529E+03  0.91309115074E+02 0.  0.
    9000005    2    3    3    0    0 -0.11894309138E+02  0.11092134552E+02  0.12244825242E+03  0.12421237863E+03  0.13062558875E+02 0.  0.
         22    1    3    3    0    0  0.11894309138E+02 -0.11092134552E+02 -0.11171949269E+02  0.19731256657E+02  0.00000000000E+00 0.  1.
         22    1    4    4    0    0 -0.13656683944E+02  0.52050138962E+01  0.91509046297E+02  0.92668779749E+02  0.00000000000E+00 0. -1.
         22    1    4    4    0    0  0.17623748056E+01  0.58871206559E+01  0.30939206126E+02  0.31543598879E+02  0.00000000000E+00 0. -1.
<mgrwt>
<rscale>  0 0.91309115E+02</rscale>
<asrwt>0</asrwt>
<pdfrwt beam="1">  1        1 0.19632303E-01 0.91309115E+02</pdfrwt>
<pdfrwt beam="2">  1       -1 0.25128717E-02 0.91309115E+02</pdfrwt>
<totfact> 0.10848081E+05</totfact>
</mgrwt>
</event>
<event>
 7    1  0.2911475E-009  0.1048848E+03  0.7818608E-02  0.1270347E+00
          1   -1    0    0  501    0  0.00000000000E+00  0.00000000000E+00  0.34344099679E+03  0.34344099683E+03  0.50400000000E-02 0. -1.
         -1   -1    0    0    0  501 -0.00000000000E+00 -0.00000000000E+00 -0.80077878050E+01  0.80077893910E+01  0.50400000000E-02 0.  1.
         23    2    1    2    0    0 -0.35527136788E-14  0.00000000000E+00  0.33543320898E+03  0.35144878622E+03  0.10488475411E+03 0.  0.
    9000005    2    3    3    0    0 -0.28909938924E+02  0.36134688987E+02  0.96139283247E+02  0.10772130888E+03  0.14819523800E+02 0.  0.
         22    1    3    3    0    0  0.28909938924E+02 -0.36134688987E+02  0.23929392574E+03  0.24372747734E+03  0.00000000000E+00 0. -1.
         22    1    4    4    0    0 -0.15898040272E+02  0.22846101381E+02  0.41209574481E+02  0.49728473350E+02  0.00000000000E+00 0.  1.
         22    1    4    4    0    0 -0.13011898652E+02  0.13288587606E+02  0.54929708767E+02  0.57992835526E+02  0.00000000000E+00 0.  1.
<mgrwt>
<rscale>  0 0.10488475E+03</rscale>
<asrwt>0</asrwt>
<pdfrwt beam="1">  1        1 0.52837056E-01 0.10488475E+03</pdfrwt>
<pdfrwt beam="2">  1       -1 0.12319679E-02 0.10488475E+03</pdfrwt>
<totfact> 0.90270597E+04</totfact>
</mgrwt>
</event>
<event>
 7    1  0.2911475E-009  0.9213511E+02  0.7818608E-02  0.1297762E+00
          1   -1    0    0  501    0  0.00000000000E+00  0.00000000000E+00  0.25884111618E+02  0.25884112109E+02  0.50400000000E-02 0. -1.
         -1   -1    0    0    0  501 -0.00000000000E+00 -0.00000000000E+00 -0.81989269929E+02  0.81989270084E+02  0.50400000000E-02 0.  1.
         23    2    1    2    0    0  0.00000000000E+00  0.00000000000E+00 -0.56105158310E+02  0.10787338219E+03  0.92135106212E+02 0.  0.
    9000005    2    3    3    0    0 -0.38457510643E+01  0.11641911707E+02 -0.79422164539E+02  0.81529375495E+02  0.13741722564E+02 0.  0.
         22    1    3    3    0    0  0.38457510643E+01 -0.11641911707E+02  0.23317006229E+02  0.26344006698E+02  0.00000000000E+00 0. -1.
         22    1    4    4    0    0 -0.50790792120E+01  0.79844757870E+01 -0.75261449568E+02  0.75854035426E+02  0.00000000000E+00 0.  1.
         22    1    4    4    0    0  0.12333281477E+01  0.36574359202E+01 -0.41607149709E+01  0.56753400691E+01  0.00000000000E+00 0.  1.
<mgrwt>
<rscale>  0 0.92135106E+02</rscale>
<asrwt>0</asrwt>
<pdfrwt beam="1">  1        1 0.39821711E-02 0.92135106E+02</pdfrwt>
<pdfrwt beam="2">  1       -1 0.12613734E-01 0.92135106E+02</pdfrwt>
<totfact> 0.82067907E+04</totfact>
</mgrwt>
</event>
<event>
 7    1  0.2911475E-009  0.1076393E+03  0.7818608E-02  0.1265005E+00
          1   -1    0    0  501    0  0.00000000000E+00  0.00000000000E+00  0.88877566568E+03  0.88877566570E+03  0.50400000000E-02 0. -1.
         -1   -1    0    0    0  501 -0.00000000000E+00 -0.00000000000E+00 -0.32590390692E+01  0.32590429663E+01  0.50400000000E-02 0.  1.
         23    2    1    2    0    0  0.00000000000E+00  0.00000000000E+00  0.88551662661E+03  0.89203470866E+03  0.10763933041E+03 0.  0.
    9000005    2    3    3    0    0 -0.20697723949E+02  0.42152384202E+02  0.65692605099E+03  0.65867046433E+03  0.94723195288E+01 0.  0.
         22    1    3    3    0    0  0.20697723949E+02 -0.42152384202E+02  0.22859057562E+03  0.23336424433E+03  0.00000000000E+00 0.  1.
         22    1    4    4    0    0 -0.26100664185E+01  0.11062051409E+02  0.11829164034E+03  0.11883641530E+03  0.00000000000E+00 0.  1.
         22    1    4    4    0    0 -0.18087657530E+02  0.31090332793E+02  0.53863441066E+03  0.53983404903E+03  0.00000000000E+00 0.  1.
<mgrwt>
<rscale>  0 0.10763933E+03</rscale>
<asrwt>0</asrwt>
<pdfrwt beam="1">  1        1 0.13673470E+00 0.10763933E+03</pdfrwt>
<pdfrwt beam="2">  1       -1 0.50139098E-03 0.10763933E+03</pdfrwt>
<totfact> 0.89622727E+04</totfact>
</mgrwt>
</event>
<event>
 7    1  0.2911475E-009  0.9613143E+02  0.7818608E-02  0.1288648E+00
          1   -1    0    0  501    0  0.00000000000E+00  0.00000000000E+00  0.50613929045E+02  0.50613929296E+02  0.50400000000E-02 0. -1.
         -1   -1    0    0    0  501 -0.00000000000E+00 -0.00000000000E+00 -0.45645797450E+02  0.45645797729E+02  0.50400000000E-02 0.  1.
         23    2    1    2    0    0  0.00000000000E+00  0.00000000000E+00  0.49681315949E+01  0.96259727025E+02  0.96131434585E+02 0.  0.
    9000005    2    3    3    0    0  0.22773286508E+01  0.18063070984E+02  0.46679341246E+02  0.50748346363E+02  0.80605831213E+01 0.  0.
         22    1    3    3    0    0 -0.22773286508E+01 -0.18063070984E+02 -0.41711209651E+02  0.45511380662E+02  0.00000000000E+00 0.  1.
         22    1    4    4    0    0  0.49523396760E+01  0.82196341433E+01  0.25345099525E+02  0.27100961673E+02  0.00000000000E+00 0. -1.
         22    1    4    4    0    0 -0.26750110252E+01  0.98434368412E+01  0.21334241722E+02  0.23647384690E+02  0.00000000000E+00 0. -1.
<mgrwt>
<rscale>  0 0.96131435E+02</rscale>
<asrwt>0</asrwt>
<pdfrwt beam="1">  1        1 0.77867584E-02 0.96131435E+02</pdfrwt>
<pdfrwt beam="2">  1       -1 0.70224304E-02 0.96131435E+02</pdfrwt>
<totfact> 0.80966012E+04</totfact>
</mgrwt>
</event>
<event>
 7    1  0.2911475E-009  0.9133952E+02  0.7818608E-02  0.1299640E+00
          1   -1    0    0  501    0  0.00000000000E+00  0.00000000000E+00  0.79379918209E+01  0.79379934209E+01  0.50400000000E-02 0. -1.
         -1   -1    0    0    0  501 -0.00000000000E+00 -0.00000000000E+00 -0.26275244420E+03  0.26275244425E+03  0.50400000000E-02 0.  1.
         23    2    1    2    0    0 -0.44408920985E-15  0.00000000000E+00 -0.25481445238E+03  0.27069043767E+03  0.91339519948E+02 0.  0.
    9000005    2    3    3    0    0  0.28668392481E+01  0.25421532539E+02 -0.23882821391E+03  0.24052368604E+03  0.12579932412E+02 0.  0.
         22    1    3    3    0    0 -0.28668392481E+01 -0.25421532539E+02 -0.15986238470E+02  0.30166751637E+02  0.00000000000E+00 0. -1.
         22    1    4    4    0    0 -0.15436119880E+01  0.66919552235E+01 -0.28442867732E+02  0.29260241412E+02  0.00000000000E+00 0. -1.
         22    1    4    4    0    0  0.44104512361E+01  0.18729577316E+02 -0.21038534618E+03  0.21126344462E+03  0.00000000000E+00 0. -1.
<mgrwt>
<rscale>  0 0.91339520E+02</rscale>
<asrwt>0</asrwt>
<pdfrwt beam="1">  1        1 0.12212298E-02 0.91339520E+02</pdfrwt>
<pdfrwt beam="2">  1       -1 0.40423447E-01 0.91339520E+02</pdfrwt>
<totfact> 0.63363214E+04</totfact>
</mgrwt>
</event>
<event>
 7    1  0.2911475E-009  0.9103731E+02  0.7818608E-02  0.1300359E+00
          1   -1    0    0  501    0  0.00000000000E+00  0.00000000000E+00  0.20648572457E+02  0.20648573072E+02  0.50400000000E-02 0. -1.
         -1   -1    0    0    0  501 -0.00000000000E+00 -0.00000000000E+00 -0.10034340179E+03  0.10034340191E+03  0.50400000000E-02 0.  1.
         23    2    1    2    0    0  0.00000000000E+00 -0.71054273576E-14 -0.79694829331E+02  0.12099197499E+03  0.91037312070E+02 0.  0.
    9000005    2    3    3    0    0 -0.14680714512E+02 -0.41639861879E+02 -0.53159742786E+02  0.69479721163E+02  0.72160878583E+01 0.  0.
         22    1    3    3    0    0  0.14680714512E+02  0.41639861879E+02 -0.26535086545E+02  0.51512253822E+02  0.00000000000E+00 0.  1.
         22    1    4    4    0    0 -0.53632939636E+01 -0.20370250069E+02 -0.20389165175E+02  0.29316037702E+02  0.00000000000E+00 0.  1.
         22    1    4    4    0    0 -0.93174205482E+01 -0.21269611810E+02 -0.32770577611E+02  0.40163683462E+02  0.00000000000E+00 0.  1.
<mgrwt>
<rscale>  0 0.91037312E+02</rscale>
<asrwt>0</asrwt>
<pdfrwt beam="1">  1        1 0.31767036E-02 0.91037312E+02</pdfrwt>
<pdfrwt beam="2">  1       -1 0.15437446E-01 0.91037312E+02</pdfrwt>
<totfact> 0.81640382E+04</totfact>
</mgrwt>
</event>
<event>
 7    1  0.2911475E-009  0.9771233E+02  0.7818608E-02  0.1285181E+00
         -1   -1    0    0    0  501 -0.00000000000E+00  0.00000000000E+00  0.62053895525E+01  0.62053915992E+01  0.50400000000E-02 0.  1.
          1   -1    0    0  501    0  0.00000000000E+00 -0.00000000000E+00 -0.38465344501E+03  0.38465344504E+03  0.50400000000E-02 0. -1.
         23    2    1    2    0    0  0.35527136788E-14 -0.35527136788E-14 -0.37844805546E+03  0.39085883664E+03  0.97712330346E+02 0.  0.
    9000005    2    3    3    0    0  0.30444829374E+02 -0.29220137204E+02 -0.28264978287E+03  0.28617830796E+03  0.15047263483E+02 0.  0.
         22    1    3    3    0    0 -0.30444829374E+02  0.29220137204E+02 -0.95798272587E+02  0.10468052868E+03  0.00000000000E+00 0.  1.
         22    1    4    4    0    0  0.86708261669E+01 -0.18309544401E+02 -0.11543914971E+03  0.11720332730E+03  0.00000000000E+00 0.  1.
         22    1    4    4    0    0  0.21774003207E+02 -0.10910592803E+02 -0.16721063316E+03  0.16897498067E+03  0.00000000000E+00 0.  1.
<mgrwt>
<rscale>  0 0.97712330E+02</rscale>
<asrwt>0</asrwt>
<pdfrwt beam="2">  1        1 0.59177435E-01 0.97712330E+02</pdfrwt>
<pdfrwt beam="1">  1       -1 0.95467577E-03 0.97712330E+02</pdfrwt>
<totfact> 0.11142469E+05</totfact>
</mgrwt>
</event>
<event>
 6    1  0.2911475E-009  0.1405247E+03  0.7818608E-02  0.1212625E+00
          1   -1    0    0  501    0  0.00000000000E+00  0.00000000000E+00  0.91216634175E+03  0.91216634176E+03  0.50400000000E-02 0. -1.
         -1   -1    0    0    0  501 -0.00000000000E+00 -0.00000000000E+00 -0.54121677382E+01  0.54121700849E+01  0.50400000000E-02 0.  1.
    9000005    2    1    2    0    0  0.32809624498E+02 -0.59520958959E+02  0.55439226883E+03  0.55872181589E+03  0.14144390818E+02 0.  0.
         22    1    1    2    0    0 -0.32809624498E+02  0.59520958959E+02  0.35236190517E+03  0.35885669596E+03  0.00000000000E+00 0.  1.
         22    1    3    3    0    0  0.19097573593E+02 -0.21347894220E+02  0.20804278857E+03  0.21000536132E+03  0.00000000000E+00 0. -1.
         22    1    3    3    0    0  0.13712050905E+02 -0.38173064739E+02  0.34634948026E+03  0.34871645457E+03  0.00000000000E+00 0. -1.
<mgrwt>
<rscale>  0 0.14052471E+03</rscale>
<asrwt>0</asrwt>
<pdfrwt beam="1">  1        1 0.14033328E+00 0.14052471E+03</pdfrwt>
<pdfrwt beam="2">  1       -1 0.83264140E-03 0.14052471E+03</pdfrwt>
<totfact> 0.43229520E+04</totfact>
</mgrwt>
</event>
<event>
 7    1  0.2911475E-009  0.9062413E+02  0.7818608E-02  0.1301347E+00
          1   -1    0    0  501    0  0.00000000000E+00  0.00000000000E+00  0.44920792084E+02  0.44920792367E+02  0.50400000000E-02 0. -1.
         -1   -1    0    0    0  501 -0.00000000000E+00 -0.00000000000E+00 -0.45706750404E+02  0.45706750682E+02  0.50400000000E-02 0.  1.
         23    2    1    2    0    0  0.00000000000E+00  0.00000000000E+00 -0.78595831974E+00  0.90627543049E+02  0.90624134913E+02 0.  0.
    9000005    2    3    3    0    0  0.15191630945E+02 -0.42006363684E+02 -0.63604175719E+01  0.45612047531E+02  0.66845888085E+01 0.  0.
         22    1    3    3    0    0 -0.15191630945E+02  0.42006363684E+02  0.55744592522E+01  0.45015495518E+02  0.00000000000E+00 0. -1.
         22    1    4    4    0    0  0.22939467316E+00 -0.47927157042E+01  0.81336265774E+00  0.48666522940E+01  0.00000000000E+00 0.  1.
         22    1    4    4    0    0  0.14962236272E+02 -0.37213647980E+02 -0.71737802297E+01  0.40745395237E+02  0.00000000000E+00 0.  1.
<mgrwt>
<rscale>  0 0.90624135E+02</rscale>
<asrwt>0</asrwt>
<pdfrwt beam="1">  1        1 0.69108911E-02 0.90624135E+02</pdfrwt>
<pdfrwt beam="2">  1       -1 0.70318078E-02 0.90624135E+02</pdfrwt>
<totfact> 0.93855072E+04</totfact>
</mgrwt>
</event>
<event>
 7    1  0.2911475E-009  0.9228466E+02  0.7818608E-02  0.1297412E+00
          1   -1    0    0  501    0  0.00000000000E+00  0.00000000000E+00  0.44952791306E+02  0.44952791588E+02  0.50400000000E-02 0. -1.
         -1   -1    0    0    0  501 -0.00000000000E+00 -0.00000000000E+00 -0.47363347077E+02  0.47363347345E+02  0.50400000000E-02 0.  1.
         23    2    1    2    0    0 -0.88817841970E-15  0.00000000000E+00 -0.24105557708E+01  0.92316138933E+02  0.92284661393E+02 0.  0.
    9000005    2    3    3    0    0  0.49284316652E+01  0.40383243022E+02 -0.21490060500E+02  0.47381483529E+02  0.11317531773E+02 0.  0.
         22    1    3    3    0    0 -0.49284316652E+01 -0.40383243022E+02  0.19079504729E+02  0.44934655405E+02  0.00000000000E+00 0. -1.
         22    1    4    4    0    0  0.61110176848E+01  0.98428095724E+01 -0.72178039780E+01  0.13649986509E+02  0.00000000000E+00 0. -1.
         22    1    4    4    0    0 -0.11825860196E+01  0.30540433450E+02 -0.14272256522E+02  0.33731497020E+02  0.00000000000E+00 0. -1.
<mgrwt>
<rscale>  0 0.92284661E+02</rscale>
<asrwt>0</asrwt>
<pdfrwt beam="1">  1        1 0.69158141E-02 0.92284661E+02</pdfrwt>
<pdfrwt beam="2">  1       -1 0.72866688E-02 0.92284661E+02</pdfrwt>
<totfact> 0.89193538E+04</totfact>
</mgrwt>
</event>
<event>
 7    1  0.2911475E-009  0.1132878E+03  0.7818608E-02  0.1254600E+00
         -1   -1    0    0    0  501 -0.00000000000E+00  0.00000000000E+00  0.95496531095E+01  0.95496544395E+01  0.50400000000E-02 0.  1.
          1   -1    0    0  501    0  0.00000000000E+00 -0.00000000000E+00 -0.33598394432E+03  0.33598394436E+03  0.50400000000E-02 0. -1.
         23    2    1    2    0    0 -0.17763568394E-14  0.17763568394E-14 -0.32643429121E+03  0.34553359880E+03  0.11328778142E+03 0.  0.
    9000005    2    3    3    0    0 -0.14016571731E+02 -0.14929845099E+02 -0.32428994332E+03  0.32494324218E+03  0.21860336600E+01 0.  0.
         22    1    3    3    0    0  0.14016571731E+02  0.14929845099E+02 -0.21443478930E+01  0.20590356618E+02  0.00000000000E+00 0.  1.
         22    1    4    4    0    0 -0.44926254456E+01 -0.62692713986E+01 -0.12619861279E+03  0.12643408290E+03  0.00000000000E+00 0.  1.
         22    1    4    4    0    0 -0.95239462854E+01 -0.86605737009E+01 -0.19809133052E+03  0.19850915928E+03  0.00000000000E+00 0.  1.
<mgrwt>
<rscale>  0 0.11328778E+03</rscale>
<asrwt>0</asrwt>
<pdfrwt beam="2">  1        1 0.51689829E-01 0.11328778E+03</pdfrwt>
<pdfrwt beam="1">  1       -1 0.14691778E-02 0.11328778E+03</pdfrwt>
<totfact> 0.72953819E+04</totfact>
</mgrwt>
</event>
<event>
 7    1  0.2911475E-009  0.9229370E+02  0.7818608E-02  0.1297390E+00
          1   -1    0    0  501    0  0.00000000000E+00  0.00000000000E+00  0.16337537959E+02  0.16337538736E+02  0.50400000000E-02 0. -1.
         -1   -1    0    0    0  501 -0.00000000000E+00 -0.00000000000E+00 -0.13034593665E+03  0.13034593675E+03  0.50400000000E-02 0.  1.
         23    2    1    2    0    0 -0.35527136788E-14 -0.17763568394E-14 -0.11400839869E+03  0.14668347548E+03  0.92293699718E+02 0.  0.
    9000005    2    3    3    0    0 -0.29064441816E+02 -0.10726141519E+02 -0.11092086564E+03  0.11554949485E+03  0.94050749019E+01 0.  0.
         22    1    3    3    0    0  0.29064441816E+02  0.10726141519E+02 -0.30875330466E+01  0.31133980637E+02  0.00000000000E+00 0. -1.
         22    1    4    4    0    0 -0.19286429881E+02 -0.51098485928E+01 -0.84488975010E+02  0.86812809126E+02  0.00000000000E+00 0. -1.
         22    1    4    4    0    0 -0.97780119354E+01 -0.56162929258E+01 -0.26431890634E+02  0.28736685720E+02  0.00000000000E+00 0. -1.
<mgrwt>
<rscale>  0 0.92293700E+02</rscale>
<asrwt>0</asrwt>
<pdfrwt beam="1">  1        1 0.25134675E-02 0.92293700E+02</pdfrwt>
<pdfrwt beam="2">  1       -1 0.20053220E-01 0.92293700E+02</pdfrwt>
<totfact> 0.74782769E+04</totfact>
</mgrwt>
</event>
<event>
 7    1  0.2911475E-009  0.9152165E+02  0.7818608E-02  0.1299208E+00
         -1   -1    0    0    0  501 -0.00000000000E+00  0.00000000000E+00  0.51360680345E+02  0.51360680593E+02  0.50400000000E-02 0.  1.
          1   -1    0    0  501    0  0.00000000000E+00 -0.00000000000E+00 -0.40771525578E+02  0.40771525890E+02  0.50400000000E-02 0. -1.
         23    2    1    2    0    0  0.00000000000E+00  0.00000000000E+00  0.10589154767E+02  0.92132206482E+02  0.91521654665E+02 0.  0.
    9000005    2    3    3    0    0 -0.20974337337E+02  0.22375351084E+02  0.39109111189E+02  0.50251816355E+02  0.74258539001E+01 0.  0.
         22    1    3    3    0    0  0.20974337337E+02 -0.22375351084E+02 -0.28519956422E+02  0.41880390127E+02  0.00000000000E+00 0. -1.
         22    1    4    4    0    0 -0.78530146451E+01  0.11009864749E+02  0.22348728637E+02  0.26121880340E+02  0.00000000000E+00 0.  1.
         22    1    4    4    0    0 -0.13121322692E+02  0.11365486335E+02  0.16760382553E+02  0.24129936016E+02  0.00000000000E+00 0.  1.
<mgrwt>
<rscale>  0 0.91521655E+02</rscale>
<asrwt>0</asrwt>
<pdfrwt beam="2">  1        1 0.62725424E-02 0.91521655E+02</pdfrwt>
<pdfrwt beam="1">  1       -1 0.79016432E-02 0.91521655E+02</pdfrwt>
<totfact> 0.89962311E+04</totfact>
</mgrwt>
</event>
<event>
 7    1  0.2911475E-009  0.8580361E+02  0.7818608E-02  0.1313344E+00
          1   -1    0    0  501    0  0.00000000000E+00  0.00000000000E+00  0.10689670438E+02  0.10689671626E+02  0.50400000000E-02 0. -1.
         -1   -1    0    0    0  501 -0.00000000000E+00 -0.00000000000E+00 -0.17218160597E+03  0.17218160604E+03  0.50400000000E-02 0.  1.
         23    2    1    2    0    0  0.35527136788E-14  0.00000000000E+00 -0.16149193553E+03  0.18287127767E+03  0.85803606884E+02 0.  0.
    9000005    2    3    3    0    0 -0.18622169113E+02  0.16623089315E+02 -0.15492465907E+03  0.15705962524E+03  0.65546633542E+01 0.  0.
         22    1    3    3    0    0  0.18622169113E+02 -0.16623089315E+02 -0.65672764581E+01  0.25811652425E+02  0.00000000000E+00 0. -1.
         22    1    4    4    0    0 -0.86787486345E+01  0.63354986146E+01 -0.48399543112E+02  0.49577968837E+02  0.00000000000E+00 0. -1.
         22    1    4    4    0    0 -0.99434204787E+01  0.10287590700E+02 -0.10652511596E+03  0.10748165640E+03  0.00000000000E+00 0. -1.
<mgrwt>
<rscale>  0 0.85803607E+02</rscale>
<asrwt>0</asrwt>
<pdfrwt beam="1">  1        1 0.16445649E-02 0.85803607E+02</pdfrwt>
<pdfrwt beam="2">  1       -1 0.26489476E-01 0.85803607E+02</pdfrwt>
<totfact> 0.84642298E+04</totfact>
</mgrwt>
</event>
<event>
 7    1  0.2911475E-009  0.8972285E+02  0.7818608E-02  0.1303524E+00
          1   -1    0    0  501    0  0.00000000000E+00  0.00000000000E+00  0.31679149486E+01  0.31679189578E+01  0.50400000000E-02 0. -1.
         -1   -1    0    0    0  501 -0.00000000000E+00 -0.00000000000E+00 -0.63529051644E+03  0.63529051646E+03  0.50400000000E-02 0.  1.
         23    2    1    2    0    0  0.00000000000E+00  0.00000000000E+00 -0.63212260149E+03  0.63845843542E+03  0.89722853499E+02 0.  0.
    9000005    2    3    3    0    0 -0.10800956610E+02 -0.68863723081E+01 -0.62199292411E+03  0.62212769290E+03  0.18936327593E+01 0.  0.
         22    1    3    3    0    0  0.10800956610E+02  0.68863723081E+01 -0.10129677381E+02  0.16330742515E+02  0.00000000000E+00 0. -1.
         22    1    4    4    0    0 -0.41396066938E+01 -0.21899859982E+01 -0.18859800149E+03  0.18865613838E+03  0.00000000000E+00 0.  1.
         22    1    4    4    0    0 -0.66613499167E+01 -0.46963863099E+01 -0.43339492262E+03  0.43347155453E+03  0.00000000000E+00 0.  1.
<mgrwt>
<rscale>  0 0.89722853E+02</rscale>
<asrwt>0</asrwt>
<pdfrwt beam="1">  1        1 0.48737235E-03 0.89722853E+02</pdfrwt>
<pdfrwt beam="2">  1       -1 0.97736902E-01 0.89722853E+02</pdfrwt>
<totfact> 0.41583333E+04</totfact>
</mgrwt>
</event>
<event>
 7    1  0.2911475E-009  0.8707030E+02  0.7818608E-02  0.1310106E+00
          1   -1    0    0  501    0  0.00000000000E+00  0.00000000000E+00  0.74268693615E+01  0.74268710716E+01  0.50400000000E-02 0. -1.
         -1   -1    0    0    0  501 -0.00000000000E+00 -0.00000000000E+00 -0.25519620943E+03  0.25519620948E+03  0.50400000000E-02 0.  1.
         23    2    1    2    0    0  0.00000000000E+00  0.00000000000E+00 -0.24776934007E+03  0.26262308055E+03  0.87070296659E+02 0.  0.
    9000005    2    3    3    0    0 -0.17431278726E+02  0.37912701027E+02 -0.11131328223E+03  0.11992942934E+03  0.15849253679E+02 0.  0.
         22    1    3    3    0    0  0.17431278726E+02 -0.37912701027E+02 -0.13645605784E+03  0.14269365121E+03  0.00000000000E+00 0.  1.
         22    1    4    4    0    0 -0.12727570402E+02  0.35894935401E+02 -0.85277578450E+02  0.93395411140E+02  0.00000000000E+00 0. -1.
         22    1    4    4    0    0 -0.47037083239E+01  0.20177656251E+01 -0.26035703782E+02  0.26534018195E+02  0.00000000000E+00 0. -1.
<mgrwt>
<rscale>  0 0.87070297E+02</rscale>
<asrwt>0</asrwt>
<pdfrwt beam="1">  1        1 0.11425956E-02 0.87070297E+02</pdfrwt>
<pdfrwt beam="2">  1       -1 0.39260949E-01 0.87070297E+02</pdfrwt>
<totfact> 0.72518602E+04</totfact>
</mgrwt>
</event>
<event>
 7    1  0.2911475E-009  0.9293370E+02  0.7818608E-02  0.1295899E+00
          1   -1    0    0  501    0  0.00000000000E+00  0.00000000000E+00  0.55144485287E+02  0.55144485517E+02  0.50400000000E-02 0. -1.
         -1   -1    0    0    0  501 -0.00000000000E+00 -0.00000000000E+00 -0.39154740276E+02  0.39154740601E+02  0.50400000000E-02 0.  1.
         23    2    1    2    0    0  0.44408920985E-15  0.00000000000E+00  0.15989745010E+02  0.94299226118E+02  0.92933697338E+02 0.  0.
    9000005    2    3    3    0    0  0.22489372721E+01 -0.32007306772E+02  0.41343582232E+02  0.53404942073E+02  0.10642868057E+02 0.  0.
         22    1    3    3    0    0 -0.22489372721E+01  0.32007306772E+02 -0.25353837222E+02  0.40894284044E+02  0.00000000000E+00 0.  1.
         22    1    4    4    0    0  0.59887504310E+01 -0.24715547095E+02  0.33520409702E+02  0.42075423545E+02  0.00000000000E+00 0. -1.
         22    1    4    4    0    0 -0.37398131589E+01 -0.72917596767E+01  0.78231725300E+01  0.11329518528E+02  0.00000000000E+00 0. -1.
<mgrwt>
<rscale>  0 0.92933697E+02</rscale>
<asrwt>0</asrwt>
<pdfrwt beam="1">  1        1 0.84837670E-02 0.92933697E+02</pdfrwt>
<pdfrwt beam="2">  1       -1 0.60238062E-02 0.92933697E+02</pdfrwt>
<totfact> 0.90218585E+04</totfact>
</mgrwt>
</event>
<event>
 7    1  0.2911475E-009  0.9642598E+02  0.7818608E-02  0.1287996E+00
          1   -1    0    0  501    0  0.00000000000E+00  0.00000000000E+00  0.77289389711E+02  0.77289389875E+02  0.50400000000E-02 0. -1.
         -1   -1    0    0    0  501 -0.00000000000E+00 -0.00000000000E+00 -0.30075182253E+02  0.30075182676E+02  0.50400000000E-02 0.  1.
         23    2    1    2    0    0 -0.17763568394E-14  0.00000000000E+00  0.47214207457E+02  0.10736457255E+03  0.96425982251E+02 0.  0.
    9000005    2    3    3    0    0 -0.14712402443E+02  0.15220050768E+02 -0.22480376455E+02  0.34526122830E+02  0.15446070734E+02 0.  0.
         22    1    3    3    0    0  0.14712402443E+02 -0.15220050768E+02  0.69694583912E+02  0.72838449720E+02  0.00000000000E+00 0. -1.
         22    1    4    4    0    0 -0.52518466290E+01  0.45492171035E+01 -0.18437674957E+02  0.19703429323E+02  0.00000000000E+00 0.  1.
         22    1    4    4    0    0 -0.94605558141E+01  0.10670833664E+02 -0.40427014977E+01  0.14822693507E+02  0.00000000000E+00 0.  1.
<mgrwt>
<rscale>  0 0.96425982E+02</rscale>
<asrwt>0</asrwt>
<pdfrwt beam="1">  1        1 0.11890675E-01 0.96425982E+02</pdfrwt>
<pdfrwt beam="2">  1       -1 0.46269513E-02 0.96425982E+02</pdfrwt>
<totfact> 0.85849542E+04</totfact>
</mgrwt>
</event>
<event>
 7    1  0.2911475E-009  0.1000734E+03  0.7818608E-02  0.1280142E+00
          1   -1    0    0  501    0  0.00000000000E+00  0.00000000000E+00  0.96056004482E+02  0.96056004614E+02  0.50400000000E-02 0. -1.
         -1   -1    0    0    0  501 -0.00000000000E+00 -0.00000000000E+00 -0.26064678485E+02  0.26064678972E+02  0.50400000000E-02 0.  1.
         23    2    1    2    0    0  0.00000000000E+00 -0.35527136788E-14  0.69991325997E+02  0.12212068359E+03  0.10007335132E+03 0.  0.
    9000005    2    3    3    0    0  0.15896352299E+01 -0.23561793845E+02 -0.16478507363E+02  0.32484099813E+02  0.15032979291E+02 0.  0.
         22    1    3    3    0    0 -0.15896352299E+01  0.23561793845E+02  0.86469833360E+02  0.89636583774E+02  0.00000000000E+00 0. -1.
         22    1    4    4    0    0 -0.10458290979E+01 -0.19061657401E+02 -0.18784076423E+02  0.26782122179E+02  0.00000000000E+00 0.  1.
         22    1    4    4    0    0  0.26354643278E+01 -0.45001364444E+01  0.23055690600E+01  0.57019776334E+01  0.00000000000E+00 0.  1.
<mgrwt>
<rscale>  0 0.10007335E+03</rscale>
<asrwt>0</asrwt>
<pdfrwt beam="1">  1        1 0.14777847E-01 0.10007335E+03</pdfrwt>
<pdfrwt beam="2">  1       -1 0.40099506E-02 0.10007335E+03</pdfrwt>
<totfact> 0.80336955E+04</totfact>
</mgrwt>
</event>
<event>
 7    1  0.2911475E-009  0.8803245E+02  0.7818608E-02  0.1307688E+00
         -1   -1    0    0    0  501 -0.00000000000E+00  0.00000000000E+00  0.11919826320E+03  0.11919826331E+03  0.50400000000E-02 0.  1.
          1   -1    0    0  501    0  0.00000000000E+00 -0.00000000000E+00 -0.16253828291E+02  0.16253829072E+02  0.50400000000E-02 0. -1.
         23    2    1    2    0    0  0.00000000000E+00  0.44408920985E-15  0.10294443491E+03  0.13545209238E+03  0.88032452261E+02 0.  0.
    9000005    2    3    3    0    0 -0.23571761506E+02 -0.34432008784E+01  0.10765440689E+03  0.11116902402E+03  0.14198486014E+02 0.  0.
         22    1    3    3    0    0  0.23571761506E+02  0.34432008784E+01 -0.47099719852E+01  0.24283068358E+02  0.00000000000E+00 0. -1.
         22    1    4    4    0    0 -0.23199185796E+02 -0.69401986384E+01  0.93786892355E+02  0.96862530198E+02  0.00000000000E+00 0. -1.
         22    1    4    4    0    0 -0.37257571010E+00  0.34969977600E+01  0.13867514540E+02  0.14306493823E+02  0.00000000000E+00 0. -1.
<mgrwt>
<rscale>  0 0.88032452E+02</rscale>
<asrwt>0</asrwt>
<pdfrwt beam="2">  1        1 0.25005890E-02 0.88032452E+02</pdfrwt>
<pdfrwt beam="1">  1       -1 0.18338195E-01 0.88032452E+02</pdfrwt>
<totfact> 0.86093286E+04</totfact>
</mgrwt>
</event>
<event>
 7    1  0.2911475E-009  0.1037492E+03  0.7818608E-02  0.1272604E+00
          1   -1    0    0  501    0  0.00000000000E+00  0.00000000000E+00  0.33087436350E+02  0.33087436734E+02  0.50400000000E-02 0. -1.
         -1   -1    0    0    0  501 -0.00000000000E+00 -0.00000000000E+00 -0.81329229598E+02  0.81329229754E+02  0.50400000000E-02 0.  1.
         23    2    1    2    0    0  0.00000000000E+00  0.00000000000E+00 -0.48241793248E+02  0.11441666649E+03  0.10374923110E+03 0.  0.
    9000005    2    3    3    0    0 -0.43990304639E+02 -0.11985109330E+02 -0.50327591523E+02  0.68775234627E+02  0.10880104854E+02 0.  0.
         22    1    3    3    0    0  0.43990304639E+02  0.11985109330E+02  0.20857982753E+01  0.45641431861E+02  0.00000000000E+00 0. -1.
         22    1    4    4    0    0 -0.37397848439E+02 -0.68891063640E+01 -0.36999060206E+02  0.53056472843E+02  0.00000000000E+00 0. -1.
         22    1    4    4    0    0 -0.65924562002E+01 -0.50960029657E+01 -0.13328531317E+02  0.15718761785E+02  0.00000000000E+00 0. -1.
<mgrwt>
<rscale>  0 0.10374923E+03</rscale>
<asrwt>0</asrwt>
<pdfrwt beam="1">  1        1 0.50903749E-02 0.10374923E+03</pdfrwt>
<pdfrwt beam="2">  1       -1 0.12512189E-01 0.10374923E+03</pdfrwt>
<totfact> 0.60604119E+04</totfact>
</mgrwt>
</event>
<event>
 7    1  0.2911475E-009  0.9202981E+02  0.7818608E-02  0.1298009E+00
         -1   -1    0    0    0  501 -0.00000000000E+00  0.00000000000E+00  0.76741150295E+02  0.76741150460E+02  0.50400000000E-02 0.  1.
          1   -1    0    0  501    0  0.00000000000E+00 -0.00000000000E+00 -0.27591082070E+02  0.27591082530E+02  0.50400000000E-02 0. -1.
         23    2    1    2    0    0  0.00000000000E+00  0.00000000000E+00  0.49150068225E+02  0.10433223299E+03  0.92029808401E+02 0.  0.
    9000005    2    3    3    0    0 -0.38388625445E+01 -0.45041253258E+02  0.25477310677E+02  0.53304291521E+02  0.12198474270E+02 0.  0.
         22    1    3    3    0    0  0.38388625445E+01  0.45041253258E+02  0.23672757548E+02  0.51027941470E+02  0.00000000000E+00 0. -1.
         22    1    4    4    0    0 -0.32963236278E+01 -0.95379010551E+01  0.11085971185E+02  0.14991199522E+02  0.00000000000E+00 0.  1.
         22    1    4    4    0    0 -0.54253891672E+00 -0.35503352203E+02  0.14391339491E+02  0.38313091999E+02  0.00000000000E+00 0.  1.
<mgrwt>
<rscale>  0 0.92029808E+02</rscale>
<asrwt>0</asrwt>
<pdfrwt beam="2">  1        1 0.42447820E-02 0.92029808E+02</pdfrwt>
<pdfrwt beam="1">  1       -1 0.11806331E-01 0.92029808E+02</pdfrwt>
<totfact> 0.83235911E+04</totfact>
</mgrwt>
</event>
<event>
 7    1  0.2911475E-009  0.8712697E+02  0.7818608E-02  0.1309962E+00
         -1   -1    0    0    0  501 -0.00000000000E+00  0.00000000000E+00  0.16247873281E+01  0.16247951450E+01  0.50400000000E-02 0.  1.
          1   -1    0    0  501    0  0.00000000000E+00 -0.00000000000E+00 -0.11680130732E+04  0.11680130732E+04  0.50400000000E-02 0. -1.
         23    2    1    2    0    0  0.44408920985E-15 -0.71054273576E-14 -0.11663882858E+04  0.11696378683E+04  0.87126974427E+02 0.  0.
    9000005    2    3    3    0    0 -0.37722587399E+01  0.29262506659E+02 -0.10127120146E+04  0.10131548962E+04  0.51667093096E+01 0.  0.
         22    1    3    3    0    0  0.37722587399E+01 -0.29262506659E+02 -0.15367627122E+03  0.15648297214E+03  0.00000000000E+00 0.  1.
         22    1    4    4    0    0 -0.30158113661E+01  0.28564790997E+02 -0.99370069681E+03  0.99411574640E+03  0.00000000000E+00 0.  1.
         22    1    4    4    0    0 -0.75644737383E+00  0.69771566166E+00 -0.19011317819E+02  0.19039149797E+02  0.00000000000E+00 0.  1.
<mgrwt>
<rscale>  0 0.87126974E+02</rscale>
<asrwt>0</asrwt>
<pdfrwt beam="2">  1        1 0.17969365E+00 0.87126974E+02</pdfrwt>
<pdfrwt beam="1">  1       -1 0.24996882E-03 0.87126974E+02</pdfrwt>
<totfact> 0.14528790E+05</totfact>
</mgrwt>
</event>
<event>
 7    1  0.2911475E-009  0.9427531E+02  0.7818608E-02  0.1292817E+00
         -1   -1    0    0    0  501 -0.00000000000E+00  0.00000000000E+00  0.57902921002E+02  0.57902921222E+02  0.50400000000E-02 0.  1.
          1   -1    0    0  501    0  0.00000000000E+00 -0.00000000000E+00 -0.38373856407E+02  0.38373856738E+02  0.50400000000E-02 0. -1.
         23    2    1    2    0    0  0.00000000000E+00  0.71054273576E-14  0.19529064595E+02  0.96276777960E+02  0.94275307532E+02 0.  0.
    9000005    2    3    3    0    0 -0.23162548211E+02  0.40222912477E+02  0.22135116836E+01  0.46736746668E+02  0.50037513298E+01 0.  0.
         22    1    3    3    0    0  0.23162548211E+02 -0.40222912477E+02  0.17315552912E+02  0.49540031292E+02  0.00000000000E+00 0. -1.
         22    1    4    4    0    0 -0.19017520370E+02  0.32081033397E+02  0.37116420709E+01  0.37478461437E+02  0.00000000000E+00 0.  1.
         22    1    4    4    0    0 -0.41450278418E+01  0.81418790798E+01 -0.14981303873E+01  0.92582852309E+01  0.00000000000E+00 0.  1.
<mgrwt>
<rscale>  0 0.94275308E+02</rscale>
<asrwt>0</asrwt>
<pdfrwt beam="2">  1        1 0.59036703E-02 0.94275308E+02</pdfrwt>
<pdfrwt beam="1">  1       -1 0.89081417E-02 0.94275308E+02</pdfrwt>
<totfact> 0.81930187E+04</totfact>
</mgrwt>
</event>
<event>
 7    1  0.2911475E-009  0.9385042E+02  0.7818608E-02  0.1293786E+00
         -1   -1    0    0    0  501 -0.00000000000E+00  0.00000000000E+00  0.59619211695E+01  0.59619232998E+01  0.50400000000E-02 0.  1.
          1   -1    0    0  501    0  0.00000000000E+00 -0.00000000000E+00 -0.36933983207E+03  0.36933983210E+03  0.50400000000E-02 0. -1.
         23    2    1    2    0    0  0.00000000000E+00  0.71054273576E-14 -0.36337791090E+03  0.37530175540E+03  0.93850420772E+02 0.  0.
    9000005    2    3    3    0    0 -0.12428164295E+02 -0.45122900331E+02 -0.18651706165E+03  0.19235286801E+03  0.45250571533E+01 0.  0.
         22    1    3    3    0    0  0.12428164295E+02  0.45122900331E+02 -0.17686084925E+03  0.18294888739E+03  0.00000000000E+00 0.  1.
         22    1    4    4    0    0 -0.11712681864E+01 -0.10540755409E+02 -0.38595158601E+02  0.40025812436E+02  0.00000000000E+00 0. -1.
         22    1    4    4    0    0 -0.11256896108E+02 -0.34582144922E+02 -0.14792190305E+03  0.15232705557E+03  0.00000000000E+00 0. -1.
<mgrwt>
<rscale>  0 0.93850421E+02</rscale>
<asrwt>0</asrwt>
<pdfrwt beam="2">  1        1 0.56821495E-01 0.93850421E+02</pdfrwt>
<pdfrwt beam="1">  1       -1 0.91721910E-03 0.93850421E+02</pdfrwt>
<totfact> 0.12322669E+05</totfact>
</mgrwt>
</event>
<event>
 7    1  0.2911475E-009  0.8628910E+02  0.7818608E-02  0.1312095E+00
         -1   -1    0    0    0  501 -0.00000000000E+00  0.00000000000E+00  0.35854513053E+02  0.35854513407E+02  0.50400000000E-02 0.  1.
          1   -1    0    0  501    0  0.00000000000E+00 -0.00000000000E+00 -0.51916817827E+02  0.51916818071E+02  0.50400000000E-02 0. -1.
         23    2    1    2    0    0  0.35527136788E-14  0.88817841970E-15 -0.16062304773E+02  0.87771331479E+02  0.86289101252E+02 0.  0.
    9000005    2    3    3    0    0  0.19197100712E+02  0.64234230887E+01  0.30578754004E+02  0.36926691606E+02  0.43279691058E+01 0.  0.
         22    1    3    3    0    0 -0.19197100712E+02 -0.64234230887E+01 -0.46641058777E+02  0.50844639873E+02  0.00000000000E+00 0. -1.
         22    1    4    4    0    0  0.24380366195E+01  0.11014824865E+01  0.71448764603E+01  0.76293214547E+01  0.00000000000E+00 0.  1.
         22    1    4    4    0    0  0.16759064093E+02  0.53219406022E+01  0.23433877544E+02  0.29297370151E+02  0.00000000000E+00 0.  1.
<mgrwt>
<rscale>  0 0.86289101E+02</rscale>
<asrwt>0</asrwt>
<pdfrwt beam="2">  1        1 0.79872027E-02 0.86289101E+02</pdfrwt>
<pdfrwt beam="1">  1       -1 0.55160790E-02 0.86289101E+02</pdfrwt>
<totfact> 0.10987914E+05</totfact>
</mgrwt>
</event>
<event>
 7    1  0.2911475E-009  0.9016997E+02  0.7818608E-02  0.1302441E+00
         -1   -1    0    0    0  501 -0.00000000000E+00  0.00000000000E+00  0.15316690287E+03  0.15316690295E+03  0.50400000000E-02 0.  1.
          1   -1    0    0  501    0  0.00000000000E+00 -0.00000000000E+00 -0.13270856399E+02  0.13270857356E+02  0.50400000000E-02 0. -1.
         23    2    1    2    0    0  0.00000000000E+00  0.71054273576E-14  0.13989604647E+03  0.16643776031E+03  0.90169974153E+02 0.  0.
    9000005    2    3    3    0    0  0.81662231401E+01  0.41055449393E+02  0.41015728746E+02  0.59061997874E+02  0.73343345328E+01 0.  0.
         22    1    3    3    0    0 -0.81662231401E+01 -0.41055449393E+02  0.98880317726E+02  0.10737576244E+03  0.00000000000E+00 0.  1.
         22    1    4    4    0    0  0.19709257835E+01  0.37468625639E+01  0.70795100657E+01  0.82488175085E+01  0.00000000000E+00 0.  1.
         22    1    4    4    0    0  0.61952973566E+01  0.37308586829E+02  0.33936218680E+02  0.50813180365E+02  0.00000000000E+00 0.  1.
<mgrwt>
<rscale>  0 0.90169974E+02</rscale>
<asrwt>0</asrwt>
<pdfrwt beam="2">  1        1 0.20416704E-02 0.90169974E+02</pdfrwt>
<pdfrwt beam="1">  1       -1 0.23564138E-01 0.90169974E+02</pdfrwt>
<totfact> 0.76595859E+04</totfact>
</mgrwt>
</event>
<event>
 7    1  0.2911475E-009  0.8841324E+02  0.7818608E-02  0.1306740E+00
         -1   -1    0    0    0  501 -0.00000000000E+00  0.00000000000E+00  0.16884202600E+02  0.16884203353E+02  0.50400000000E-02 0.  1.
          1   -1    0    0  501    0  0.00000000000E+00 -0.00000000000E+00 -0.11574281879E+03  0.11574281890E+03  0.50400000000E-02 0. -1.
         23    2    1    2    0    0 -0.44408920985E-15  0.00000000000E+00 -0.98858616186E+02  0.13262702225E+03  0.88413240164E+02 0.  0.
    9000005    2    3    3    0    0 -0.20080745490E+01 -0.40775986516E+02 -0.27487009940E+02  0.50404035087E+02  0.10877389291E+02 0.  0.
         22    1    3    3    0    0  0.20080745490E+01  0.40775986516E+02 -0.71371606246E+02  0.82222987162E+02  0.00000000000E+00 0. -1.
         22    1    4    4    0    0 -0.41594786949E+01 -0.89338522311E+01 -0.34176754972E+01  0.10430507394E+02  0.00000000000E+00 0.  1.
         22    1    4    4    0    0  0.21514041460E+01 -0.31842134285E+02 -0.24069334443E+02  0.39973527692E+02  0.00000000000E+00 0.  1.
<mgrwt>
<rscale>  0 0.88413240E+02</rscale>
<asrwt>0</asrwt>
<pdfrwt beam="2">  1        1 0.17806587E-01 0.88413240E+02</pdfrwt>
<pdfrwt beam="1">  1       -1 0.25975698E-02 0.88413240E+02</pdfrwt>
<totfact> 0.11637203E+05</totfact>
</mgrwt>
</event>
<event>
 7    1  0.2911475E-009  0.9780616E+02  0.7818608E-02  0.1284978E+00
         -1   -1    0    0    0  501 -0.00000000000E+00  0.00000000000E+00  0.64708178539E+03  0.64708178541E+03  0.50400000000E-02 0.  1.
          1   -1    0    0  501    0  0.00000000000E+00 -0.00000000000E+00 -0.36958388925E+01  0.36958423290E+01  0.50400000000E-02 0. -1.
         23    2    1    2    0    0  0.00000000000E+00  0.00000000000E+00  0.64338594650E+03  0.65077762774E+03  0.97806158368E+02 0.  0.
    9000005    2    3    3    0    0 -0.16041664031E+02 -0.37280205189E+02  0.49864048420E+03  0.50044999376E+03  0.12677345187E+02 0.  0.
         22    1    3    3    0    0  0.16041664031E+02  0.37280205189E+02  0.14474546230E+03  0.15032763398E+03  0.00000000000E+00 0. -1.
         22    1    4    4    0    0  0.21724773205E+01 -0.44791040680E+01  0.63780927734E+02  0.63974907375E+02  0.00000000000E+00 0.  1.
         22    1    4    4    0    0 -0.18214141351E+02 -0.32801101121E+02  0.43485955647E+03  0.43647508638E+03  0.00000000000E+00 0.  1.
<mgrwt>
<rscale>  0 0.97806158E+02</rscale>
<asrwt>0</asrwt>
<pdfrwt beam="2">  1        1 0.56859130E-03 0.97806158E+02</pdfrwt>
<pdfrwt beam="1">  1       -1 0.99550969E-01 0.97806158E+02</pdfrwt>
<totfact> 0.32666213E+04</totfact>
</mgrwt>
</event>
<event>
 7    1  0.2911475E-009  0.8086906E+02  0.7818608E-02  0.1326603E+00
         -1   -1    0    0    0  501 -0.00000000000E+00  0.00000000000E+00  0.13629431090E+02  0.13629432022E+02  0.50400000000E-02 0.  1.
          1   -1    0    0  501    0  0.00000000000E+00 -0.00000000000E+00 -0.11995740840E+03  0.11995740850E+03  0.50400000000E-02 0. -1.
         23    2    1    2    0    0 -0.35527136788E-14 -0.17763568394E-14 -0.10632797731E+03  0.13358684053E+03  0.80869062091E+02 0.  0.
    9000005    2    3    3    0    0 -0.19811654976E+02 -0.15762600248E+02 -0.20221487119E+01  0.26252469896E+02  0.66439333805E+01 0.  0.
         22    1    3    3    0    0  0.19811654976E+02  0.15762600248E+02 -0.10430582860E+03  0.10733437063E+03  0.00000000000E+00 0. -1.
         22    1    4    4    0    0 -0.16904339195E+01  0.44166782488E+00 -0.77370791734E+00  0.19108273719E+01  0.00000000000E+00 0. -1.
         22    1    4    4    0    0 -0.18121221056E+02 -0.16204268073E+02 -0.12484407945E+01  0.24341642524E+02  0.00000000000E+00 0. -1.
<mgrwt>
<rscale>  0 0.80869062E+02</rscale>
<asrwt>0</asrwt>
<pdfrwt beam="2">  1        1 0.18454985E-01 0.80869062E+02</pdfrwt>
<pdfrwt beam="1">  1       -1 0.20968357E-02 0.80869062E+02</pdfrwt>
<totfact> 0.14877982E+05</totfact>
</mgrwt>
</event>
<event>
 7    1  0.2911475E-009  0.8359442E+02  0.7818608E-02  0.1319150E+00
          1   -1    0    0  501    0  0.00000000000E+00  0.00000000000E+00  0.23848188020E+03  0.23848188025E+03  0.50400000000E-02 0. -1.
         -1   -1    0    0    0  501 -0.00000000000E+00 -0.00000000000E+00 -0.73255308624E+01  0.73255325961E+01  0.50400000000E-02 0.  1.
         23    2    1    2    0    0 -0.88817841970E-15  0.00000000000E+00  0.23115634934E+03  0.24580741285E+03  0.83594415918E+02 0.  0.
    9000005    2    3    3    0    0 -0.36551085300E+01 -0.40921887892E+02  0.11708446335E+03  0.12456238863E+03  0.10911295728E+02 0.  0.
         22    1    3    3    0    0  0.36551085300E+01  0.40921887892E+02  0.11407188598E+03  0.12124502422E+03  0.00000000000E+00 0. -1.
         22    1    4    4    0    0 -0.49577685851E+01 -0.33217866194E+02  0.10435241288E+03  0.10962404927E+03  0.00000000000E+00 0. -1.
         22    1    4    4    0    0  0.13026600551E+01 -0.77040216977E+01  0.12732050471E+02  0.14938339357E+02  0.00000000000E+00 0. -1.
<mgrwt>
<rscale>  0 0.83594416E+02</rscale>
<asrwt>0</asrwt>
<pdfrwt beam="1">  1        1 0.36689516E-01 0.83594416E+02</pdfrwt>
<pdfrwt beam="2">  1       -1 0.11270050E-02 0.83594416E+02</pdfrwt>
<totfact> 0.15437081E+05</totfact>
</mgrwt>
</event>
<event>
 7    1  0.2911475E-009  0.9052276E+02  0.7818608E-02  0.1301591E+00
          1   -1    0    0  501    0  0.00000000000E+00  0.00000000000E+00  0.10525204488E+02  0.10525205695E+02  0.50400000000E-02 0. -1.
         -1   -1    0    0    0  501 -0.00000000000E+00 -0.00000000000E+00 -0.19463682139E+03  0.19463682146E+03  0.50400000000E-02 0.  1.
         23    2    1    2    0    0  0.00000000000E+00  0.00000000000E+00 -0.18411161691E+03  0.20516202715E+03  0.90522759053E+02 0.  0.
    9000005    2    3    3    0    0  0.39240800392E+02 -0.16202489679E+02 -0.62689663265E+02  0.76532124282E+02  0.11171887914E+02 0.  0.
         22    1    3    3    0    0 -0.39240800392E+02  0.16202489679E+02 -0.12142195364E+03  0.12862990287E+03  0.00000000000E+00 0.  1.
         22    1    4    4    0    0 -0.39431452170E+00  0.26118737606E-01  0.20076698810E+00  0.44325332936E+00  0.00000000000E+00 0.  1.
         22    1    4    4    0    0  0.39635114914E+02 -0.16228608417E+02 -0.62890430253E+02  0.76088870953E+02  0.00000000000E+00 0.  1.
<mgrwt>
<rscale>  0 0.90522759E+02</rscale>
<asrwt>0</asrwt>
<pdfrwt beam="1">  1        1 0.16192625E-02 0.90522759E+02</pdfrwt>
<pdfrwt beam="2">  1       -1 0.29944124E-01 0.90522759E+02</pdfrwt>
<totfact> 0.71284565E+04</totfact>
</mgrwt>
</event>
<event>
 7    1  0.2911475E-009  0.9114985E+02  0.7818608E-02  0.1300091E+00
         -1   -1    0    0    0  501 -0.00000000000E+00  0.00000000000E+00  0.64728301048E+02  0.64728301244E+02  0.50400000000E-02 0.  1.
          1   -1    0    0  501    0  0.00000000000E+00 -0.00000000000E+00 -0.32089115397E+02  0.32089115792E+02  0.50400000000E-02 0. -1.
         23    2    1    2    0    0  0.35527136788E-14  0.00000000000E+00  0.32639185651E+02  0.96817417036E+02  0.91149853547E+02 0.  0.
    9000005    2    3    3    0    0 -0.24308327543E+02 -0.50197338675E+01  0.56901940675E+02  0.62107565447E+02  0.18510313813E+01 0.  0.
         22    1    3    3    0    0  0.24308327543E+02  0.50197338675E+01 -0.24262755023E+02  0.34709851589E+02  0.00000000000E+00 0. -1.
         22    1    4    4    0    0 -0.10048612264E+02 -0.22302506755E+01  0.21377136225E+02  0.23726158132E+02  0.00000000000E+00 0.  1.
         22    1    4    4    0    0 -0.14259715279E+02 -0.27894831919E+01  0.35524804450E+02  0.38381407315E+02  0.00000000000E+00 0.  1.
<mgrwt>
<rscale>  0 0.91149854E+02</rscale>
<asrwt>0</asrwt>
<pdfrwt beam="2">  1        1 0.49367871E-02 0.91149854E+02</pdfrwt>
<pdfrwt beam="1">  1       -1 0.99582000E-02 0.91149854E+02</pdfrwt>
<totfact> 0.87696511E+04</totfact>
</mgrwt>
</event>
<event>
 7    1  0.2911475E-009  0.8989983E+02  0.7818608E-02  0.1303094E+00
         -1   -1    0    0    0  501 -0.00000000000E+00  0.00000000000E+00  0.34093212910E+01  0.34093250164E+01  0.50400000000E-02 0.  1.
          1   -1    0    0  501    0  0.00000000000E+00 -0.00000000000E+00 -0.59263816772E+03  0.59263816774E+03  0.50400000000E-02 0. -1.
         23    2    1    2    0    0  0.00000000000E+00  0.00000000000E+00 -0.58922884642E+03  0.59604749275E+03  0.89899834031E+02 0.  0.
    9000005    2    3    3    0    0  0.14612527416E+02 -0.16803904352E+02 -0.55253917680E+03  0.55312862725E+03  0.12483558210E+02 0.  0.
         22    1    3    3    0    0 -0.14612527416E+02  0.16803904352E+02 -0.36689669626E+02  0.42918865505E+02  0.00000000000E+00 0.  1.
         22    1    4    4    0    0  0.12597575689E+01 -0.10170941628E+02 -0.27275210889E+03  0.27294458768E+03  0.00000000000E+00 0. -1.
         22    1    4    4    0    0  0.13352769847E+02 -0.66329627245E+01 -0.27978706791E+03  0.28018403957E+03  0.00000000000E+00 0. -1.
<mgrwt>
<rscale>  0 0.89899834E+02</rscale>
<asrwt>0</asrwt>
<pdfrwt beam="2">  1        1 0.91175021E-01 0.89899834E+02</pdfrwt>
<pdfrwt beam="1">  1       -1 0.52451173E-03 0.89899834E+02</pdfrwt>
<totfact> 0.14685570E+05</totfact>
</mgrwt>
</event>
<event>
 7    1  0.2911475E-009  0.9126481E+02  0.7818608E-02  0.1299817E+00
         -1   -1    0    0    0  501 -0.00000000000E+00  0.00000000000E+00  0.14663734964E+02  0.14663735830E+02  0.50400000000E-02 0.  1.
          1   -1    0    0  501    0  0.00000000000E+00 -0.00000000000E+00 -0.14200448521E+03  0.14200448530E+03  0.50400000000E-02 0. -1.
         23    2    1    2    0    0  0.00000000000E+00  0.00000000000E+00 -0.12734075025E+03  0.15666822113E+03  0.91264806135E+02 0.  0.
    9000005    2    3    3    0    0  0.18189386966E+02  0.26111754586E+02 -0.11929675254E+03  0.12384470175E+03  0.96497387693E+01 0.  0.
         22    1    3    3    0    0 -0.18189386966E+02 -0.26111754586E+02 -0.80439977102E+01  0.32823519387E+02  0.00000000000E+00 0.  1.
         22    1    4    4    0    0  0.18994229477E+02  0.25335431391E+02 -0.10956490197E+03  0.11404881666E+03  0.00000000000E+00 0.  1.
         22    1    4    4    0    0 -0.80484251055E+00  0.77632319560E+00 -0.97318505691E+01  0.97958850887E+01  0.00000000000E+00 0.  1.
<mgrwt>
<rscale>  0 0.91264806E+02</rscale>
<asrwt>0</asrwt>
<pdfrwt beam="2">  1        1 0.21846843E-01 0.91264806E+02</pdfrwt>
<pdfrwt beam="1">  1       -1 0.22559594E-02 0.91264806E+02</pdfrwt>
<totfact> 0.11072677E+05</totfact>
</mgrwt>
</event>
<event>
 7    1  0.2911475E-009  0.8659726E+02  0.7818608E-02  0.1311308E+00
         -1   -1    0    0    0  501 -0.00000000000E+00  0.00000000000E+00  0.36349571539E+01  0.36349606480E+01  0.50400000000E-02 0.  1.
          1   -1    0    0  501    0  0.00000000000E+00 -0.00000000000E+00 -0.51576131441E+03  0.51576131444E+03  0.50400000000E-02 0. -1.
         23    2    1    2    0    0  0.00000000000E+00 -0.17763568394E-14 -0.51212635726E+03  0.51939627508E+03  0.86597256153E+02 0.  0.
    9000005    2    3    3    0    0  0.29029645324E+02 -0.13417232369E+02 -0.43022163486E+03  0.43146945333E+03  0.72451105243E+01 0.  0.
         22    1    3    3    0    0 -0.29029645324E+02  0.13417232369E+02 -0.81904722399E+02  0.87926821752E+02  0.00000000000E+00 0.  1.
         22    1    4    4    0    0  0.27067705297E+02 -0.10060896087E+02 -0.37334720220E+03  0.37446230209E+03  0.00000000000E+00 0. -1.
         22    1    4    4    0    0  0.19619400265E+01 -0.33563362822E+01 -0.56874432660E+02  0.57007151238E+02  0.00000000000E+00 0. -1.
<mgrwt>
<rscale>  0 0.86597256E+02</rscale>
<asrwt>0</asrwt>
<pdfrwt beam="2">  1        1 0.79347837E-01 0.86597256E+02</pdfrwt>
<pdfrwt beam="1">  1       -1 0.55922486E-03 0.86597256E+02</pdfrwt>
<totfact> 0.16014082E+05</totfact>
</mgrwt>
</event>
<event>
 7    1  0.2911475E-009  0.9053217E+02  0.7818608E-02  0.1301568E+00
          1   -1    0    0  501    0  0.00000000000E+00  0.00000000000E+00  0.18436814075E+03  0.18436814082E+03  0.50400000000E-02 0. -1.
         -1   -1    0    0    0  501 -0.00000000000E+00 -0.00000000000E+00 -0.11113733287E+02  0.11113734429E+02  0.50400000000E-02 0.  1.
         23    2    1    2    0    0 -0.35527136788E-14 -0.17763568394E-14  0.17325440746E+03  0.19548187525E+03  0.90532170222E+02 0.  0.
    9000005    2    3    3    0    0  0.28332185529E+02  0.14256752003E+02  0.15571813732E+03  0.15923979356E+03  0.10159027898E+02 0.  0.
         22    1    3    3    0    0 -0.28332185529E+02 -0.14256752003E+02  0.17536270140E+02  0.36242081686E+02  0.00000000000E+00 0.  1.
         22    1    4    4    0    0  0.15454550450E+00  0.11625233274E+01  0.18964563037E+02  0.19000789351E+02  0.00000000000E+00 0. -1.
         22    1    4    4    0    0  0.28177640024E+02  0.13094228675E+02  0.13675357429E+03  0.14023900421E+03  0.00000000000E+00 0. -1.
<mgrwt>
<rscale>  0 0.90532170E+02</rscale>
<asrwt>0</asrwt>
<pdfrwt beam="1">  1        1 0.28364330E-01 0.90532170E+02</pdfrwt>
<pdfrwt beam="2">  1       -1 0.17098052E-02 0.90532170E+02</pdfrwt>
<totfact> 0.11880135E+05</totfact>
</mgrwt>
</event>
<event>
 7    1  0.2911475E-009  0.9241230E+02  0.7818608E-02  0.1297113E+00
          1   -1    0    0  501    0  0.00000000000E+00  0.00000000000E+00  0.36069499239E+02  0.36069499591E+02  0.50400000000E-02 0. -1.
         -1   -1    0    0    0  501 -0.00000000000E+00 -0.00000000000E+00 -0.59191511263E+02  0.59191511477E+02  0.50400000000E-02 0.  1.
         23    2    1    2    0    0  0.00000000000E+00  0.11102230246E-15 -0.23122012024E+02  0.95261011069E+02  0.92412297828E+02 0.  0.
    9000005    2    3    3    0    0 -0.10918606005E+02 -0.91095394727E+00 -0.57459761787E+02  0.59217608718E+02  0.92225356350E+01 0.  0.
         22    1    3    3    0    0  0.10918606005E+02  0.91095394727E+00  0.34337749763E+02  0.36043402350E+02  0.00000000000E+00 0. -1.
         22    1    4    4    0    0 -0.11276452281E+02 -0.15641357099E+01 -0.36268739176E+02  0.38013502048E+02  0.00000000000E+00 0. -1.
         22    1    4    4    0    0  0.35784627672E+00  0.65318176263E+00 -0.21191022611E+02  0.21204106670E+02  0.00000000000E+00 0. -1.
<mgrwt>
<rscale>  0 0.92412298E+02</rscale>
<asrwt>0</asrwt>
<pdfrwt beam="1">  1        1 0.55491538E-02 0.92412298E+02</pdfrwt>
<pdfrwt beam="2">  1       -1 0.91063864E-02 0.92412298E+02</pdfrwt>
<totfact> 0.85884865E+04</totfact>
</mgrwt>
</event>
<event>
 7    1  0.2911475E-009  0.9877974E+02  0.7818608E-02  0.1282883E+00
         -1   -1    0    0    0  501 -0.00000000000E+00  0.00000000000E+00  0.42274867393E+01  0.42274897436E+01  0.50400000000E-02 0.  1.
          1   -1    0    0  501    0  0.00000000000E+00 -0.00000000000E+00 -0.57702329243E+03  0.57702329245E+03  0.50400000000E-02 0. -1.
         23    2    1    2    0    0  0.00000000000E+00  0.00000000000E+00 -0.57279580569E+03  0.58125078220E+03  0.98779738743E+02 0.  0.
    9000005    2    3    3    0    0 -0.27264261957E+01 -0.49063574299E+02 -0.28213276742E+03  0.28646328324E+03  0.69026422984E+01 0.  0.
         22    1    3    3    0    0  0.27264261957E+01  0.49063574299E+02 -0.29066303828E+03  0.29478749896E+03  0.00000000000E+00 0.  1.
         22    1    4    4    0    0 -0.12311445687E+01 -0.23394957756E+02 -0.11473500481E+03  0.11710235306E+03  0.00000000000E+00 0. -1.
         22    1    4    4    0    0 -0.14952816270E+01 -0.25668616543E+02 -0.16739776261E+03  0.16936093017E+03  0.00000000000E+00 0. -1.
<mgrwt>
<rscale>  0 0.98779739E+02</rscale>
<asrwt>0</asrwt>
<pdfrwt beam="2">  1        1 0.88772752E-01 0.98779739E+02</pdfrwt>
<pdfrwt beam="1">  1       -1 0.65038326E-03 0.98779739E+02</pdfrwt>
<totfact> 0.11413709E+05</totfact>
</mgrwt>
</event>
<event>
 7    1  0.2911475E-009  0.9069900E+02  0.7818608E-02  0.1301168E+00
          1   -1    0    0  501    0  0.00000000000E+00  0.00000000000E+00  0.10806718429E+02  0.10806719605E+02  0.50400000000E-02 0. -1.
         -1   -1    0    0    0  501 -0.00000000000E+00 -0.00000000000E+00 -0.19030539604E+03  0.19030539611E+03  0.50400000000E-02 0.  1.
         23    2    1    2    0    0  0.00000000000E+00  0.00000000000E+00 -0.17949867761E+03  0.20111211571E+03  0.90698995706E+02 0.  0.
    9000005    2    3    3    0    0  0.46723659301E+01 -0.40102494190E+02 -0.13363361820E+03  0.14000855838E+03  0.10696329447E+02 0.  0.
         22    1    3    3    0    0 -0.46723659301E+01  0.40102494190E+02 -0.45865059419E+02  0.61103557336E+02  0.00000000000E+00 0. -1.
         22    1    4    4    0    0  0.48364622037E+01 -0.39594931797E+02 -0.12185255241E+03  0.12821542231E+03  0.00000000000E+00 0. -1.
         22    1    4    4    0    0 -0.16409627353E+00 -0.50756239347E+00 -0.11781065787E+02  0.11793136065E+02  0.00000000000E+00 0. -1.
<mgrwt>
<rscale>  0 0.90698996E+02</rscale>
<asrwt>0</asrwt>
<pdfrwt beam="1">  1        1 0.16625723E-02 0.90698996E+02</pdfrwt>
<pdfrwt beam="2">  1       -1 0.29277751E-01 0.90698996E+02</pdfrwt>
<totfact> 0.71370038E+04</totfact>
</mgrwt>
</event>
<event>
 7    1  0.2911475E-009  0.9222062E+02  0.7818608E-02  0.1297562E+00
          1   -1    0    0  501    0  0.00000000000E+00  0.00000000000E+00  0.50680575524E+03  0.50680575526E+03  0.50400000000E-02 0. -1.
         -1   -1    0    0    0  501 -0.00000000000E+00 -0.00000000000E+00 -0.41952166449E+01  0.41952196723E+01  0.50400000000E-02 0.  1.
         23    2    1    2    0    0  0.00000000000E+00  0.00000000000E+00  0.50261053859E+03  0.51100097494E+03  0.92220620688E+02 0.  0.
    9000005    2    3    3    0    0 -0.14723909141E+02  0.41952058124E+02  0.30508701883E+03  0.30853539875E+03  0.11799768680E+02 0.  0.
         22    1    3    3    0    0  0.14723909141E+02 -0.41952058124E+02  0.19752351976E+03  0.20246557618E+03  0.00000000000E+00 0.  1.
         22    1    4    4    0    0 -0.73007366323E+01  0.64924122139E+01  0.63700132386E+02  0.64445007857E+02  0.00000000000E+00 0.  1.
         22    1    4    4    0    0 -0.74231725088E+01  0.35459645910E+02  0.24138688645E+03  0.24409039090E+03  0.00000000000E+00 0.  1.
<mgrwt>
<rscale>  0 0.92220621E+02</rscale>
<asrwt>0</asrwt>
<pdfrwt beam="1">  1        1 0.77970072E-01 0.92220621E+02</pdfrwt>
<pdfrwt beam="2">  1       -1 0.64541855E-03 0.92220621E+02</pdfrwt>
<totfact> 0.13533624E+05</totfact>
</mgrwt>
</event>
<event>
 7    1  0.2911475E-009  0.9031359E+02  0.7818608E-02  0.1302094E+00
          1   -1    0    0  501    0  0.00000000000E+00  0.00000000000E+00  0.16878755673E+02  0.16878756425E+02  0.50400000000E-02 0. -1.
         -1   -1    0    0    0  501 -0.00000000000E+00 -0.00000000000E+00 -0.12081081459E+03  0.12081081470E+03  0.50400000000E-02 0.  1.
         23    2    1    2    0    0 -0.35527136788E-14  0.00000000000E+00 -0.10393205892E+03  0.13768957112E+03  0.90313593244E+02 0.  0.
    9000005    2    3    3    0    0  0.25456871458E+02  0.26454101855E+02 -0.90237313202E+02  0.98505162620E+02  0.14581582891E+02 0.  0.
         22    1    3    3    0    0 -0.25456871458E+02 -0.26454101855E+02 -0.13694745718E+02  0.39184408502E+02  0.00000000000E+00 0. -1.
         22    1    4    4    0    0 -0.58528040856E+00 -0.12627464837E+01 -0.45217161557E+01  0.47310674093E+01  0.00000000000E+00 0.  1.
         22    1    4    4    0    0  0.26042151867E+02  0.27716848339E+02 -0.85715597046E+02  0.93774095211E+02  0.00000000000E+00 0.  1.
<mgrwt>
<rscale>  0 0.90313593E+02</rscale>
<asrwt>0</asrwt>
<pdfrwt beam="1">  1        1 0.25967318E-02 0.90313593E+02</pdfrwt>
<pdfrwt beam="2">  1       -1 0.18586279E-01 0.90313593E+02</pdfrwt>
<totfact> 0.80373484E+04</totfact>
</mgrwt>
</event>
<event>
 7    1  0.2911475E-009  0.9222228E+02  0.7818608E-02  0.1297558E+00
          1   -1    0    0  501    0  0.00000000000E+00  0.00000000000E+00  0.20362312822E+03  0.20362312828E+03  0.50400000000E-02 0. -1.
         -1   -1    0    0    0  501 -0.00000000000E+00 -0.00000000000E+00 -0.10442020707E+02  0.10442021923E+02  0.50400000000E-02 0.  1.
         23    2    1    2    0    0  0.00000000000E+00 -0.17763568394E-14  0.19318110751E+03  0.21406515020E+03  0.92222276226E+02 0.  0.
    9000005    2    3    3    0    0  0.42566141885E+02 -0.10980783471E+02  0.72740049266E+02  0.85852426373E+02  0.12127254689E+02 0.  0.
         22    1    3    3    0    0 -0.42566141885E+02  0.10980783471E+02  0.12044105825E+03  0.12821272383E+03  0.00000000000E+00 0.  1.
         22    1    4    4    0    0  0.39297800647E+02 -0.93728977087E+01  0.58097296548E+02  0.70763438394E+02  0.00000000000E+00 0. -1.
         22    1    4    4    0    0  0.32683412381E+01 -0.16078857623E+01  0.14642752718E+02  0.15088987979E+02  0.00000000000E+00 0. -1.
<mgrwt>
<rscale>  0 0.92222276E+02</rscale>
<asrwt>0</asrwt>
<pdfrwt beam="1">  1        1 0.31326633E-01 0.92222276E+02</pdfrwt>
<pdfrwt beam="2">  1       -1 0.16064649E-02 0.92222276E+02</pdfrwt>
<totfact> 0.11523764E+05</totfact>
</mgrwt>
</event>
<event>
 7    1  0.2911475E-009  0.9013142E+02  0.7818608E-02  0.1302534E+00
         -1   -1    0    0    0  501 -0.00000000000E+00  0.00000000000E+00  0.37812966581E+02  0.37812966917E+02  0.50400000000E-02 0.  1.
          1   -1    0    0  501    0  0.00000000000E+00 -0.00000000000E+00 -0.53709565535E+02  0.53709565771E+02  0.50400000000E-02 0. -1.
         23    2    1    2    0    0  0.00000000000E+00  0.00000000000E+00 -0.15896598953E+02  0.91522532688E+02  0.90131415896E+02 0.  0.
    9000005    2    3    3    0    0 -0.26738805272E+02  0.29704160148E+01  0.28561641248E+02  0.39557908178E+02  0.50272925119E+01 0.  0.
         22    1    3    3    0    0  0.26738805272E+02 -0.29704160148E+01 -0.44458240201E+02  0.51964624510E+02  0.00000000000E+00 0.  1.
         22    1    4    4    0    0 -0.48890098590E-01  0.51473761262E+00  0.92045606085E+00  0.10557387989E+01  0.00000000000E+00 0.  1.
         22    1    4    4    0    0 -0.26689915174E+02  0.24556784022E+01  0.27641185187E+02  0.38502169379E+02  0.00000000000E+00 0.  1.
<mgrwt>
<rscale>  0 0.90131416E+02</rscale>
<asrwt>0</asrwt>
<pdfrwt beam="2">  1        1 0.82630101E-02 0.90131416E+02</pdfrwt>
<pdfrwt beam="1">  1       -1 0.58173795E-02 0.90131416E+02</pdfrwt>
<totfact> 0.97866170E+04</totfact>
</mgrwt>
</event>
<event>
 7    1  0.2911475E-009  0.1049015E+03  0.7818608E-02  0.1270314E+00
         -1   -1    0    0    0  501 -0.00000000000E+00  0.00000000000E+00  0.31733857849E+02  0.31733858249E+02  0.50400000000E-02 0.  1.
          1   -1    0    0  501    0  0.00000000000E+00 -0.00000000000E+00 -0.86692247353E+02  0.86692247499E+02  0.50400000000E-02 0. -1.
         23    2    1    2    0    0  0.00000000000E+00  0.00000000000E+00 -0.54958389504E+02  0.11842610575E+03  0.10490146780E+03 0.  0.
    9000005    2    3    3    0    0  0.30791612787E+02 -0.37402930707E+02 -0.53948376578E+01  0.49117749000E+02  0.60287934109E+01 0.  0.
         22    1    3    3    0    0 -0.30791612787E+02  0.37402930707E+02 -0.49563551846E+02  0.69308356748E+02  0.00000000000E+00 0. -1.
         22    1    4    4    0    0  0.25274168846E+02 -0.26684597755E+02 -0.36004943762E+01  0.36929864987E+02  0.00000000000E+00 0. -1.
         22    1    4    4    0    0  0.55174439415E+01 -0.10718332951E+02 -0.17943432816E+01  0.12187884013E+02  0.00000000000E+00 0. -1.
<mgrwt>
<rscale>  0 0.10490147E+03</rscale>
<asrwt>0</asrwt>
<pdfrwt beam="2">  1        1 0.13337269E-01 0.10490147E+03</pdfrwt>
<pdfrwt beam="1">  1       -1 0.48821321E-02 0.10490147E+03</pdfrwt>
<totfact> 0.69238168E+04</totfact>
</mgrwt>
</event>
<event>
 7    1  0.2911475E-009  0.9167819E+02  0.7818608E-02  0.1298838E+00
          1   -1    0    0  501    0  0.00000000000E+00  0.00000000000E+00  0.77616852862E+02  0.77616853025E+02  0.50400000000E-02 0. -1.
         -1   -1    0    0    0  501 -0.00000000000E+00 -0.00000000000E+00 -0.27071733581E+02  0.27071734050E+02  0.50400000000E-02 0.  1.
         23    2    1    2    0    0  0.00000000000E+00  0.00000000000E+00  0.50545119280E+02  0.10468858708E+03  0.91678193595E+02 0.  0.
    9000005    2    3    3    0    0  0.16008204577E+02 -0.16682912098E+02  0.69672033596E+02  0.74681570878E+02  0.13731809553E+02 0.  0.
         22    1    3    3    0    0 -0.16008204577E+02  0.16682912098E+02 -0.19126914315E+02  0.30007016198E+02  0.00000000000E+00 0.  1.
         22    1    4    4    0    0 -0.18460545819E+01 -0.46343869901E+01  0.18508163110E+02  0.19168660934E+02  0.00000000000E+00 0. -1.
         22    1    4    4    0    0  0.17854259159E+02 -0.12048525108E+02  0.51163870486E+02  0.55512909944E+02  0.00000000000E+00 0. -1.
<mgrwt>
<rscale>  0 0.91678194E+02</rscale>
<asrwt>0</asrwt>
<pdfrwt beam="1">  1        1 0.11941054E-01 0.91678194E+02</pdfrwt>
<pdfrwt beam="2">  1       -1 0.41648822E-02 0.91678194E+02</pdfrwt>
<totfact> 0.98764493E+04</totfact>
</mgrwt>
</event>
<event>
 7    1  0.2911475E-009  0.9047045E+02  0.7818608E-02  0.1301716E+00
          1   -1    0    0  501    0  0.00000000000E+00  0.00000000000E+00  0.48483720499E+03  0.48483720502E+03  0.50400000000E-02 0. -1.
         -1   -1    0    0    0  501 -0.00000000000E+00 -0.00000000000E+00 -0.42204364946E+01  0.42204395039E+01  0.50400000000E-02 0.  1.
         23    2    1    2    0    0  0.71054273576E-14 -0.35527136788E-14  0.48061676850E+03  0.48905764452E+03  0.90470445476E+02 0.  0.
    9000005    2    3    3    0    0 -0.35615615294E+02  0.27379656937E+02  0.23087155565E+03  0.23530424256E+03  0.69493663059E+01 0.  0.
         22    1    3    3    0    0  0.35615615294E+02 -0.27379656937E+02  0.24974521285E+03  0.25375340196E+03  0.00000000000E+00 0. -1.
         22    1    4    4    0    0 -0.31570684580E+02  0.26663220829E+02  0.20758601238E+03  0.21165913164E+03  0.00000000000E+00 0. -1.
         22    1    4    4    0    0 -0.40449307145E+01  0.71643610797E+00  0.23285543271E+02  0.23645110924E+02  0.00000000000E+00 0. -1.
<mgrwt>
<rscale>  0 0.90470445E+02</rscale>
<asrwt>0</asrwt>
<pdfrwt beam="1">  1        1 0.74590358E-01 0.90470445E+02</pdfrwt>
<pdfrwt beam="2">  1       -1 0.64929800E-03 0.90470445E+02</pdfrwt>
<totfact> 0.14163098E+05</totfact>
</mgrwt>
</event>
<event>
 7    1  0.2911475E-009  0.8693601E+02  0.7818608E-02  0.1310446E+00
         -1   -1    0    0    0  501 -0.00000000000E+00  0.00000000000E+00  0.13549336362E+02  0.13549337299E+02  0.50400000000E-02 0.  1.
          1   -1    0    0  501    0  0.00000000000E+00 -0.00000000000E+00 -0.13945093067E+03  0.13945093076E+03  0.50400000000E-02 0. -1.
         23    2    1    2    0    0  0.00000000000E+00  0.00000000000E+00 -0.12590159431E+03  0.15300026806E+03  0.86936014270E+02 0.  0.
    9000005    2    3    3    0    0  0.23533289419E+02 -0.26799718379E+02 -0.10636050397E+03  0.11233216228E+03  0.58238528525E+01 0.  0.
         22    1    3    3    0    0 -0.23533289419E+02  0.26799718379E+02 -0.19541090338E+02  0.40668105779E+02  0.00000000000E+00 0.  1.
         22    1    4    4    0    0  0.13915065615E+02 -0.14845048559E+02 -0.51726562237E+02  0.55584546041E+02  0.00000000000E+00 0. -1.
         22    1    4    4    0    0  0.96182238041E+01 -0.11954669820E+02 -0.54633941732E+02  0.56747616239E+02  0.00000000000E+00 0. -1.
<mgrwt>
<rscale>  0 0.86936014E+02</rscale>
<asrwt>0</asrwt>
<pdfrwt beam="2">  1        1 0.21453988E-01 0.86936014E+02</pdfrwt>
<pdfrwt beam="1">  1       -1 0.20845135E-02 0.86936014E+02</pdfrwt>
<totfact> 0.12579223E+05</totfact>
</mgrwt>
</event>
<event>
 7    1  0.2911475E-009  0.9239392E+02  0.7818608E-02  0.1297156E+00
          1   -1    0    0  501    0  0.00000000000E+00  0.00000000000E+00  0.10058996155E+04  0.10058996155E+04  0.50400000000E-02 0. -1.
         -1   -1    0    0    0  501 -0.00000000000E+00 -0.00000000000E+00 -0.21216393829E+01  0.21216453692E+01  0.50400000000E-02 0.  1.
         23    2    1    2    0    0  0.00000000000E+00  0.35527136788E-14  0.10037779761E+04  0.10080212609E+04  0.92393923243E+02 0.  0.
    9000005    2    3    3    0    0  0.44519907543E+01 -0.30529884071E+02  0.87631247442E+03  0.87687497552E+03  0.58545551372E+01 0.  0.
         22    1    3    3    0    0 -0.44519907543E+01  0.30529884071E+02  0.12746550173E+03  0.13114628540E+03  0.00000000000E+00 0.  1.
         22    1    4    4    0    0  0.17858833379E+01 -0.25321494818E+02  0.74468454396E+03  0.74511706295E+03  0.00000000000E+00 0. -1.
         22    1    4    4    0    0  0.26661074164E+01 -0.52083892526E+01  0.13162793046E+03  0.13175791257E+03  0.00000000000E+00 0. -1.
<mgrwt>
<rscale>  0 0.92393923E+02</rscale>
<asrwt>0</asrwt>
<pdfrwt beam="1">  1        1 0.15475351E+00 0.92393923E+02</pdfrwt>
<pdfrwt beam="2">  1       -1 0.32640710E-03 0.92393923E+02</pdfrwt>
<totfact> 0.13112016E+05</totfact>
</mgrwt>
</event>
<event>
 7    1  0.2911475E-009  0.9217362E+02  0.7818608E-02  0.1297672E+00
         -1   -1    0    0    0  501 -0.00000000000E+00  0.00000000000E+00  0.72325743903E+01  0.72325761463E+01  0.50400000000E-02 0.  1.
          1   -1    0    0  501    0  0.00000000000E+00 -0.00000000000E+00 -0.29367051406E+03  0.29367051411E+03  0.50400000000E-02 0. -1.
         23    2    1    2    0    0  0.00000000000E+00  0.00000000000E+00 -0.28643793967E+03  0.30090309025E+03  0.92173621170E+02 0.  0.
    9000005    2    3    3    0    0 -0.16979310562E+02 -0.37374908687E+02 -0.80415013581E+02  0.90830181809E+02  0.99180003872E+01 0.  0.
         22    1    3    3    0    0  0.16979310562E+02  0.37374908687E+02 -0.20602292609E+03  0.21007290845E+03  0.00000000000E+00 0. -1.
         22    1    4    4    0    0 -0.71203908949E+01 -0.20182254774E+02 -0.31803765789E+02  0.38334095693E+02  0.00000000000E+00 0.  1.
         22    1    4    4    0    0 -0.98589196673E+01 -0.17192653914E+02 -0.48611247792E+02  0.52496086116E+02  0.00000000000E+00 0.  1.
<mgrwt>
<rscale>  0 0.92173621E+02</rscale>
<asrwt>0</asrwt>
<pdfrwt beam="2">  1        1 0.45180070E-01 0.92173621E+02</pdfrwt>
<pdfrwt beam="1">  1       -1 0.11127041E-02 0.92173621E+02</pdfrwt>
<totfact> 0.12395149E+05</totfact>
</mgrwt>
</event>
<event>
 7    1  0.2911475E-009  0.9065129E+02  0.7818608E-02  0.1301282E+00
          1   -1    0    0  501    0  0.00000000000E+00  0.00000000000E+00  0.72619099100E+02  0.72619099275E+02  0.50400000000E-02 0. -1.
         -1   -1    0    0    0  501 -0.00000000000E+00 -0.00000000000E+00 -0.28290270417E+02  0.28290270866E+02  0.50400000000E-02 0.  1.
         23    2    1    2    0    0 -0.88817841970E-15  0.00000000000E+00  0.44328828683E+02  0.10090937014E+03  0.90651287524E+02 0.  0.
    9000005    2    3    3    0    0  0.79392004239E+01 -0.19721125478E+02  0.66380584747E+02  0.70278770425E+02  0.89872046616E+01 0.  0.
         22    1    3    3    0    0 -0.79392004239E+01  0.19721125478E+02 -0.22051756063E+02  0.30630599716E+02  0.00000000000E+00 0.  1.
         22    1    4    4    0    0 -0.24859304287E+00 -0.14204889750E+01  0.69343859956E+00  0.16001389066E+01  0.00000000000E+00 0.  1.
         22    1    4    4    0    0  0.81877934668E+01 -0.18300636503E+02  0.65687146147E+02  0.68678631518E+02  0.00000000000E+00 0.  1.
<mgrwt>
<rscale>  0 0.90651288E+02</rscale>
<asrwt>0</asrwt>
<pdfrwt beam="1">  1        1 0.11172169E-01 0.90651288E+02</pdfrwt>
<pdfrwt beam="2">  1       -1 0.43523495E-02 0.90651288E+02</pdfrwt>
<totfact> 0.10082079E+05</totfact>
</mgrwt>
</event>
<event>
 7    1  0.2911475E-009  0.9152504E+02  0.7818608E-02  0.1299200E+00
          1   -1    0    0  501    0  0.00000000000E+00  0.00000000000E+00  0.15145135863E+03  0.15145135872E+03  0.50400000000E-02 0. -1.
         -1   -1    0    0    0  501 -0.00000000000E+00 -0.00000000000E+00 -0.13827595752E+02  0.13827596671E+02  0.50400000000E-02 0.  1.
         23    2    1    2    0    0 -0.11102230246E-15  0.00000000000E+00  0.13762376288E+03  0.16527895539E+03  0.91525040205E+02 0.  0.
    9000005    2    3    3    0    0 -0.86052027952E+00  0.24665038327E+02  0.25113189024E+01  0.27930940737E+02  0.12834567268E+02 0.  0.
         22    1    3    3    0    0  0.86052027952E+00 -0.24665038327E+02  0.13511244398E+03  0.13734801465E+03  0.00000000000E+00 0. -1.
         22    1    4    4    0    0 -0.52247052250E+01  0.16557317166E+02  0.55616897825E+01  0.18231146142E+02  0.00000000000E+00 0. -1.
         22    1    4    4    0    0  0.43641849455E+01  0.81077211616E+01 -0.30503708801E+01  0.96997945947E+01  0.00000000000E+00 0. -1.
<mgrwt>
<rscale>  0 0.91525040E+02</rscale>
<asrwt>0</asrwt>
<pdfrwt beam="1">  1        1 0.23300208E-01 0.91525040E+02</pdfrwt>
<pdfrwt beam="2">  1       -1 0.21273226E-02 0.91525040E+02</pdfrwt>
<totfact> 0.11118139E+05</totfact>
</mgrwt>
</event>
<event>
 7    1  0.2911475E-009  0.9289005E+02  0.7818608E-02  0.1296000E+00
         -1   -1    0    0    0  501 -0.00000000000E+00  0.00000000000E+00  0.39766269473E+02  0.39766269793E+02  0.50400000000E-02 0.  1.
          1   -1    0    0  501    0  0.00000000000E+00 -0.00000000000E+00 -0.54245482874E+02  0.54245483108E+02  0.50400000000E-02 0. -1.
         23    2    1    2    0    0 -0.17763568394E-14  0.00000000000E+00 -0.14479213401E+02  0.94011752901E+02  0.92890053627E+02 0.  0.
    9000005    2    3    3    0    0 -0.14920333819E+02 -0.41477877910E+02 -0.17247366424E+02  0.49845098190E+02  0.15621505940E+02 0.  0.
         22    1    3    3    0    0  0.14920333819E+02  0.41477877910E+02  0.27681530237E+01  0.44166654711E+02  0.00000000000E+00 0.  1.
         22    1    4    4    0    0 -0.57640114270E+01 -0.13665285219E+02  0.17608550571E+01  0.14935342593E+02  0.00000000000E+00 0. -1.
         22    1    4    4    0    0 -0.91563223919E+01 -0.27812592691E+02 -0.19008221481E+02  0.34909755597E+02  0.00000000000E+00 0. -1.
<mgrwt>
<rscale>  0 0.92890054E+02</rscale>
<asrwt>0</asrwt>
<pdfrwt beam="2">  1        1 0.83454590E-02 0.92890054E+02</pdfrwt>
<pdfrwt beam="1">  1       -1 0.61178876E-02 0.92890054E+02</pdfrwt>
<totfact> 0.90110974E+04</totfact>
</mgrwt>
</event>
<event>
 7    1  0.3784818E-009  0.9048275E+02  0.7818608E-02  0.1301687E+00
          1   -1    0    0  501    0  0.00000000000E+00  0.00000000000E+00  0.12769455891E+03  0.12769455901E+03  0.50400000000E-02 0. -1.
         -1   -1    0    0    0  501 -0.00000000000E+00 -0.00000000000E+00 -0.16028731619E+02  0.16028732411E+02  0.50400000000E-02 0.  1.
         23    2    1    2    0    0 -0.35527136788E-14  0.00000000000E+00  0.11166582730E+03  0.14372329143E+03  0.90482747044E+02 0.  0.
    9000005    2    3    3    0    0 -0.27592050901E+02 -0.69429102366E+00  0.24637525502E+01  0.31087167373E+02  0.14090372091E+02 0.  0.
         22    1    3    3    0    0  0.27592050901E+02  0.69429102366E+00  0.10920207475E+03  0.11263612405E+03  0.00000000000E+00 0. -1.
         22    1    4    4    0    0 -0.88802283993E+01 -0.60997383078E+01  0.41327667736E+01  0.11538848515E+02  0.00000000000E+00 0.  1.
         22    1    4    4    0    0 -0.18711822502E+02  0.54054472842E+01 -0.16690142234E+01  0.19548318858E+02  0.00000000000E+00 0.  1.
<mgrwt>
<rscale>  0 0.90482747E+02</rscale>
<asrwt>0</asrwt>
<pdfrwt beam="1">  1        1 0.19645318E-01 0.90482747E+02</pdfrwt>
<pdfrwt beam="2">  1       -1 0.24659587E-02 0.90482747E+02</pdfrwt>
<totfact> 0.11119581E+05</totfact>
</mgrwt>
</event>
<event>
 7    1  0.2911475E-009  0.8930889E+02  0.7818608E-02  0.1304534E+00
          1   -1    0    0  501    0  0.00000000000E+00  0.00000000000E+00  0.12145900161E+03  0.12145900171E+03  0.50400000000E-02 0. -1.
         -1   -1    0    0    0  501 -0.00000000000E+00 -0.00000000000E+00 -0.16417220537E+02  0.16417221310E+02  0.50400000000E-02 0.  1.
         23    2    1    2    0    0 -0.35527136788E-14  0.00000000000E+00  0.10504178107E+03  0.13787622302E+03  0.89308885920E+02 0.  0.
    9000005    2    3    3    0    0 -0.17711827583E+02  0.36972713467E+02  0.77330323923E+02  0.88392738558E+02  0.12353414682E+02 0.  0.
         22    1    3    3    0    0  0.17711827583E+02 -0.36972713467E+02  0.27711457146E+02  0.49483484462E+02  0.00000000000E+00 0.  1.
         22    1    4    4    0    0 -0.87908705860E+01  0.23670835850E+02  0.58209312130E+02  0.63450074028E+02  0.00000000000E+00 0. -1.
         22    1    4    4    0    0 -0.89209569967E+01  0.13301877617E+02  0.19121011794E+02  0.24942664530E+02  0.00000000000E+00 0. -1.
<mgrwt>
<rscale>  0 0.89308886E+02</rscale>
<asrwt>0</asrwt>
<pdfrwt beam="1">  1        1 0.18686000E-01 0.89308886E+02</pdfrwt>
<pdfrwt beam="2">  1       -1 0.25257263E-02 0.89308886E+02</pdfrwt>
<totfact> 0.11418525E+05</totfact>
</mgrwt>
</event>
<event>
 7    1  0.2911475E-009  0.9452401E+02  0.7818608E-02  0.1292252E+00
         -1   -1    0    0    0  501 -0.00000000000E+00  0.00000000000E+00  0.10430205238E+02  0.10430206456E+02  0.50400000000E-02 0.  1.
          1   -1    0    0  501    0  0.00000000000E+00 -0.00000000000E+00 -0.21415656450E+03  0.21415656456E+03  0.50400000000E-02 0. -1.
         23    2    1    2    0    0  0.00000000000E+00  0.00000000000E+00 -0.20372635927E+03  0.22458677102E+03  0.94524008893E+02 0.  0.
    9000005    2    3    3    0    0  0.35476717087E+02  0.29741812479E+02 -0.12319536145E+03  0.13169751182E+03  0.48953725911E+01 0.  0.
         22    1    3    3    0    0 -0.35476717087E+02 -0.29741812479E+02 -0.80530997819E+02  0.92889259199E+02  0.00000000000E+00 0. -1.
         22    1    4    4    0    0  0.20001328105E+02  0.15242737852E+02 -0.60734654150E+02  0.65735016528E+02  0.00000000000E+00 0. -1.
         22    1    4    4    0    0  0.15475388982E+02  0.14499074627E+02 -0.62460707297E+02  0.65962495293E+02  0.00000000000E+00 0. -1.
<mgrwt>
<rscale>  0 0.94524009E+02</rscale>
<asrwt>0</asrwt>
<pdfrwt beam="2">  1        1 0.32947161E-01 0.94524009E+02</pdfrwt>
<pdfrwt beam="1">  1       -1 0.16046472E-02 0.94524009E+02</pdfrwt>
<totfact> 0.10891779E+05</totfact>
</mgrwt>
</event>
<event>
 7    1  0.2911475E-009  0.9113191E+02  0.7818608E-02  0.1300134E+00
         -1   -1    0    0    0  501 -0.00000000000E+00  0.00000000000E+00  0.17609771160E+03  0.17609771167E+03  0.50400000000E-02 0.  1.
          1   -1    0    0  501    0  0.00000000000E+00 -0.00000000000E+00 -0.11790363129E+02  0.11790364207E+02  0.50400000000E-02 0. -1.
         23    2    1    2    0    0 -0.35527136788E-14  0.00000000000E+00  0.16430734847E+03  0.18788807587E+03  0.91131906025E+02 0.  0.
    9000005    2    3    3    0    0  0.22115200147E+02 -0.36284106326E+02  0.59435776908E+02  0.74734795010E+02  0.15718128356E+02 0.  0.
         22    1    3    3    0    0 -0.22115200147E+02  0.36284106326E+02  0.10487157156E+03  0.11315328086E+03  0.00000000000E+00 0.  1.
         22    1    4    4    0    0  0.20532023482E+02 -0.37822402277E+02  0.57315481785E+02  0.71674001943E+02  0.00000000000E+00 0. -1.
         22    1    4    4    0    0  0.15831766649E+01  0.15382959514E+01  0.21202951234E+01  0.30607930666E+01  0.00000000000E+00 0. -1.
<mgrwt>
<rscale>  0 0.91131906E+02</rscale>
<asrwt>0</asrwt>
<pdfrwt beam="2">  1        1 0.18139021E-02 0.91131906E+02</pdfrwt>
<pdfrwt beam="1">  1       -1 0.27091955E-01 0.91131906E+02</pdfrwt>
<totfact> 0.71975174E+04</totfact>
</mgrwt>
</event>
<event>
 7    1  0.2911475E-009  0.9580477E+02  0.7818608E-02  0.1289374E+00
          1   -1    0    0  501    0  0.00000000000E+00  0.00000000000E+00  0.20629075718E+03  0.20629075724E+03  0.50400000000E-02 0. -1.
         -1   -1    0    0    0  501 -0.00000000000E+00 -0.00000000000E+00 -0.11123321712E+02  0.11123322854E+02  0.50400000000E-02 0.  1.
         23    2    1    2    0    0  0.17763568394E-14  0.00000000000E+00  0.19516743547E+03  0.21741408010E+03  0.95804772100E+02 0.  0.
    9000005    2    3    3    0    0 -0.80705464962E+01 -0.44369344809E+02  0.13147580004E+03  0.13937308508E+03  0.10256625634E+02 0.  0.
         22    1    3    3    0    0  0.80705464962E+01  0.44369344809E+02  0.63691635433E+02  0.78040995020E+02  0.00000000000E+00 0. -1.
         22    1    4    4    0    0 -0.95030061315E+01 -0.38555581668E+02  0.12044364418E+03  0.12682078468E+03  0.00000000000E+00 0. -1.
         22    1    4    4    0    0  0.14324596354E+01 -0.58137631409E+01  0.11032155861E+02  0.12552300403E+02  0.00000000000E+00 0. -1.
<mgrwt>
<rscale>  0 0.95804772E+02</rscale>
<asrwt>0</asrwt>
<pdfrwt beam="1">  1        1 0.31737038E-01 0.95804772E+02</pdfrwt>
<pdfrwt beam="2">  1       -1 0.17112804E-02 0.95804772E+02</pdfrwt>
<totfact> 0.10426926E+05</totfact>
</mgrwt>
</event>
<event>
 6    1  0.2911475E-009  0.4515875E+02  0.7818608E-02  0.1473353E+00
         -1   -1    0    0    0  501 -0.00000000000E+00  0.00000000000E+00  0.20634498106E+02  0.20634498722E+02  0.50400000000E-02 0.  1.
          1   -1    0    0  501    0  0.00000000000E+00 -0.00000000000E+00 -0.24707558240E+02  0.24707558754E+02  0.50400000000E-02 0. -1.
    9000005    2    1    2    0    0  0.77147757325E+01  0.11220813043E+02 -0.16876601014E+02  0.26651014995E+02  0.15492983203E+02 0.  0.
         22    1    1    2    0    0 -0.77147757325E+01 -0.11220813043E+02  0.12803540880E+02  0.18691042481E+02  0.00000000000E+00 0.  1.
         22    1    3    3    0    0  0.35102084210E+01  0.37618496940E+01  0.23104344718E+01  0.56401403997E+01  0.00000000000E+00 0. -1.
         22    1    3    3    0    0  0.42045673115E+01  0.74589633486E+01 -0.19187035486E+02  0.21010874595E+02  0.00000000000E+00 0. -1.
<mgrwt>
<rscale>  0 0.45158746E+02</rscale>
<asrwt>0</asrwt>
<pdfrwt beam="2">  1        1 0.38011629E-02 0.45158746E+02</pdfrwt>
<pdfrwt beam="1">  1       -1 0.31745383E-02 0.45158746E+02</pdfrwt>
<totfact> 0.56826299E+05</totfact>
</mgrwt>
</event>
<event>
 7    1  0.2911475E-009  0.9079017E+02  0.7818608E-02  0.1300949E+00
          1   -1    0    0  501    0  0.00000000000E+00  0.00000000000E+00  0.99355022147E+02  0.99355022275E+02  0.50400000000E-02 0. -1.
         -1   -1    0    0    0  501 -0.00000000000E+00 -0.00000000000E+00 -0.20740913504E+02  0.20740914117E+02  0.50400000000E-02 0.  1.
         23    2    1    2    0    0  0.00000000000E+00  0.00000000000E+00  0.78614108642E+02  0.12009593639E+03  0.90790174909E+02 0.  0.
    9000005    2    3    3    0    0  0.36418143868E+02 -0.67579936899E+01  0.73707251899E+02  0.82732465934E+02  0.63206214617E+01 0.  0.
         22    1    3    3    0    0 -0.36418143868E+02  0.67579936899E+01  0.49068567438E+01  0.37363470457E+02  0.00000000000E+00 0.  1.
         22    1    4    4    0    0  0.30855007592E+01 -0.24067546363E+01  0.90205089618E+01  0.98327190921E+01  0.00000000000E+00 0. -1.
         22    1    4    4    0    0  0.33332643108E+02 -0.43512390536E+01  0.64686742937E+02  0.72899746842E+02  0.00000000000E+00 0. -1.
<mgrwt>
<rscale>  0 0.90790175E+02</rscale>
<asrwt>0</asrwt>
<pdfrwt beam="1">  1        1 0.15285388E-01 0.90790175E+02</pdfrwt>
<pdfrwt beam="2">  1       -1 0.31909098E-02 0.90790175E+02</pdfrwt>
<totfact> 0.10555493E+05</totfact>
</mgrwt>
</event>
<event>
 7    1  0.2911475E-009  0.9296700E+02  0.7818608E-02  0.1295822E+00
         -1   -1    0    0    0  501 -0.00000000000E+00  0.00000000000E+00  0.75617945763E+01  0.75617962559E+01  0.50400000000E-02 0.  1.
          1   -1    0    0  501    0  0.00000000000E+00 -0.00000000000E+00 -0.28574111000E+03  0.28574111004E+03  0.50400000000E-02 0. -1.
         23    2    1    2    0    0  0.00000000000E+00 -0.71054273576E-14 -0.27817931542E+03  0.29330290630E+03  0.92967001214E+02 0.  0.
    9000005    2    3    3    0    0  0.61017933165E+01  0.45123555841E+02 -0.15838349594E+03  0.16514516935E+03  0.10687750060E+02 0.  0.
         22    1    3    3    0    0 -0.61017933165E+01 -0.45123555841E+02 -0.11979581949E+03  0.12815773695E+03  0.00000000000E+00 0.  1.
         22    1    4    4    0    0  0.75823792017E+01  0.33682470058E+02 -0.10504370232E+03  0.11057206094E+03  0.00000000000E+00 0. -1.
         22    1    4    4    0    0 -0.14805858852E+01  0.11441085784E+02 -0.53339793623E+02  0.54573108416E+02  0.00000000000E+00 0. -1.
<mgrwt>
<rscale>  0 0.92967001E+02</rscale>
<asrwt>0</asrwt>
<pdfrwt beam="2">  1        1 0.43960163E-01 0.92967001E+02</pdfrwt>
<pdfrwt beam="1">  1       -1 0.11633534E-02 0.92967001E+02</pdfrwt>
<totfact> 0.12050743E+05</totfact>
</mgrwt>
</event>
<event>
 7    1  0.2911475E-009  0.8907642E+02  0.7818608E-02  0.1305104E+00
          1   -1    0    0  501    0  0.00000000000E+00  0.00000000000E+00  0.12425591984E+04  0.12425591984E+04  0.50400000000E-02 0. -1.
         -1   -1    0    0    0  501 -0.00000000000E+00 -0.00000000000E+00 -0.15964207207E+01  0.15964286765E+01  0.50400000000E-02 0.  1.
         23    2    1    2    0    0  0.00000000000E+00  0.00000000000E+00  0.12409627777E+04  0.12441556271E+04  0.89076421269E+02 0.  0.
    9000005    2    3    3    0    0 -0.11429749067E+02 -0.16086971481E+02  0.11759185683E+04  0.11761837286E+04  0.15305366500E+02 0.  0.
         22    1    3    3    0    0  0.11429749067E+02  0.16086971481E+02  0.65044209333E+02  0.67971898479E+02  0.00000000000E+00 0.  1.
         22    1    4    4    0    0 -0.78618502835E+01 -0.18564657150E+02  0.86554865799E+03  0.86578342242E+03  0.00000000000E+00 0. -1.
         22    1    4    4    0    0 -0.35678987832E+01  0.24776856696E+01  0.31036991035E+03  0.31040030618E+03  0.00000000000E+00 0. -1.
<mgrwt>
<rscale>  0 0.89076421E+02</rscale>
<asrwt>0</asrwt>
<pdfrwt beam="1">  1        1 0.19116286E+00 0.89076421E+02</pdfrwt>
<pdfrwt beam="2">  1       -1 0.24560392E-03 0.89076421E+02</pdfrwt>
<totfact> 0.13308144E+05</totfact>
</mgrwt>
</event>
<event>
 7    1  0.2911475E-009  0.9148736E+02  0.7818608E-02  0.1299289E+00
         -1   -1    0    0    0  501 -0.00000000000E+00  0.00000000000E+00  0.27226460139E+03  0.27226460144E+03  0.50400000000E-02 0.  1.
          1   -1    0    0  501    0  0.00000000000E+00 -0.00000000000E+00 -0.76854797162E+01  0.76854813687E+01  0.50400000000E-02 0. -1.
         23    2    1    2    0    0 -0.71054273576E-14 -0.88817841970E-15  0.26457912167E+03  0.27995008280E+03  0.91487361078E+02 0.  0.
    9000005    2    3    3    0    0 -0.39228295013E+02 -0.66545965668E+01  0.19789516189E+03  0.20229769535E+03  0.13368607226E+02 0.  0.
         22    1    3    3    0    0  0.39228295013E+02  0.66545965668E+01  0.66683959779E+02  0.77652387451E+02  0.00000000000E+00 0. -1.
         22    1    4    4    0    0 -0.20235172281E+02  0.28279968220E+01  0.10942995020E+03  0.11132103918E+03  0.00000000000E+00 0.  1.
         22    1    4    4    0    0 -0.18993122731E+02 -0.94825933887E+01  0.88465211689E+02  0.90976656169E+02  0.00000000000E+00 0.  1.
<mgrwt>
<rscale>  0 0.91487361E+02</rscale>
<asrwt>0</asrwt>
<pdfrwt beam="2">  1        1 0.11823816E-02 0.91487361E+02</pdfrwt>
<pdfrwt beam="1">  1       -1 0.41886863E-01 0.91487361E+02</pdfrwt>
<totfact> 0.62295961E+04</totfact>
</mgrwt>
</event>
<event>
 7    1  0.2911475E-009  0.9108109E+02  0.7818608E-02  0.1300255E+00
          1   -1    0    0  501    0  0.00000000000E+00  0.00000000000E+00  0.18767742915E+03  0.18767742922E+03  0.50400000000E-02 0. -1.
         -1   -1    0    0    0  501 -0.00000000000E+00 -0.00000000000E+00 -0.11050562474E+02  0.11050563624E+02  0.50400000000E-02 0.  1.
         23    2    1    2    0    0  0.00000000000E+00  0.00000000000E+00  0.17662686668E+03  0.19872799284E+03  0.91081090832E+02 0.  0.
    9000005    2    3    3    0    0 -0.20984030213E+02  0.16059795421E+02  0.16870139708E+03  0.17114068378E+03  0.11433534681E+02 0.  0.
         22    1    3    3    0    0  0.20984030213E+02 -0.16059795421E+02  0.79254695973E+01  0.27587309062E+02  0.00000000000E+00 0.  1.
         22    1    4    4    0    0 -0.13777303472E+02  0.33610405211E+01  0.85297935912E+02  0.86468772139E+02  0.00000000000E+00 0. -1.
         22    1    4    4    0    0 -0.72067267413E+01  0.12698754900E+02  0.83403461169E+02  0.84671911643E+02  0.00000000000E+00 0. -1.
<mgrwt>
<rscale>  0 0.91081091E+02</rscale>
<asrwt>0</asrwt>
<pdfrwt beam="1">  1        1 0.28873451E-01 0.91081091E+02</pdfrwt>
<pdfrwt beam="2">  1       -1 0.17000866E-02 0.91081091E+02</pdfrwt>
<totfact> 0.11729050E+05</totfact>
</mgrwt>
</event>
<event>
 7    1  0.2911475E-009  0.9175443E+02  0.7818608E-02  0.1298658E+00
         -1   -1    0    0    0  501 -0.00000000000E+00  0.00000000000E+00  0.17625923263E+02  0.17625923984E+02  0.50400000000E-02 0.  1.
          1   -1    0    0  501    0  0.00000000000E+00 -0.00000000000E+00 -0.11941042710E+03  0.11941042721E+03  0.50400000000E-02 0. -1.
         23    2    1    2    0    0 -0.35527136788E-14  0.00000000000E+00 -0.10178450384E+03  0.13703635119E+03  0.91754434914E+02 0.  0.
    9000005    2    3    3    0    0 -0.23890458855E+02  0.17150438385E+02  0.91737804084E+00  0.30206729351E+02  0.68347168553E+01 0.  0.
         22    1    3    3    0    0  0.23890458855E+02 -0.17150438385E+02 -0.10270188188E+03  0.10682962184E+03  0.00000000000E+00 0. -1.
         22    1    4    4    0    0 -0.55427350640E+01  0.99473578683E+00  0.12026170189E+01  0.57582722208E+01  0.00000000000E+00 0.  1.
         22    1    4    4    0    0 -0.18347723791E+02  0.16155702598E+02 -0.28523897801E+00  0.24448457130E+02  0.00000000000E+00 0.  1.
<mgrwt>
<rscale>  0 0.91754435E+02</rscale>
<asrwt>0</asrwt>
<pdfrwt beam="2">  1        1 0.18370834E-01 0.91754435E+02</pdfrwt>
<pdfrwt beam="1">  1       -1 0.27116806E-02 0.91754435E+02</pdfrwt>
<totfact> 0.10581612E+05</totfact>
</mgrwt>
</event>
<event>
 7    1  0.2911475E-009  0.9053303E+02  0.7818608E-02  0.1301566E+00
          1   -1    0    0  501    0  0.00000000000E+00  0.00000000000E+00  0.26200597491E+03  0.26200597495E+03  0.50400000000E-02 0. -1.
         -1   -1    0    0    0  501 -0.00000000000E+00 -0.00000000000E+00 -0.78206499270E+01  0.78206515510E+01  0.50400000000E-02 0.  1.
         23    2    1    2    0    0  0.35527136788E-14  0.00000000000E+00  0.25418532498E+03  0.26982662650E+03  0.90533026773E+02 0.  0.
    9000005    2    3    3    0    0 -0.29307118203E+02 -0.32712783782E+02  0.11948461677E+03  0.12814630256E+03  0.14692440781E+02 0.  0.
         22    1    3    3    0    0  0.29307118203E+02  0.32712783782E+02  0.13470070821E+03  0.14168032394E+03  0.00000000000E+00 0. -1.
         22    1    4    4    0    0 -0.25516026566E+02 -0.25029400439E+02  0.78189142035E+02  0.85971393093E+02  0.00000000000E+00 0.  1.
         22    1    4    4    0    0 -0.37910916369E+01 -0.76833833427E+01  0.41295474733E+02  0.42174909470E+02  0.00000000000E+00 0.  1.
<mgrwt>
<rscale>  0 0.90533027E+02</rscale>
<asrwt>0</asrwt>
<pdfrwt beam="1">  1        1 0.40308613E-01 0.90533027E+02</pdfrwt>
<pdfrwt beam="2">  1       -1 0.12031770E-02 0.90533027E+02</pdfrwt>
<totfact> 0.12718905E+05</totfact>
</mgrwt>
</event>
<event>
 7    1  0.2911475E-009  0.9362189E+02  0.7818608E-02  0.1294310E+00
          1   -1    0    0  501    0  0.00000000000E+00  0.00000000000E+00  0.83792875325E+03  0.83792875327E+03  0.50400000000E-02 0. -1.
         -1   -1    0    0    0  501 -0.00000000000E+00 -0.00000000000E+00 -0.26150940630E+01  0.26150989198E+01  0.50400000000E-02 0.  1.
         23    2    1    2    0    0  0.00000000000E+00  0.00000000000E+00  0.83531365919E+03  0.84054385219E+03  0.93621889650E+02 0.  0.
    9000005    2    3    3    0    0  0.24821309053E+01 -0.37006808699E+02  0.67260389852E+03  0.67366026677E+03  0.68180539517E+01 0.  0.
         22    1    3    3    0    0 -0.24821309053E+01  0.37006808699E+02  0.16270976067E+03  0.16688358542E+03  0.00000000000E+00 0.  1.
         22    1    4    4    0    0  0.54231627007E-01  0.17881003589E+00  0.72330609802E+00  0.74705141037E+00  0.00000000000E+00 0.  1.
         22    1    4    4    0    0  0.24278992783E+01 -0.37185618734E+02  0.67188059242E+03  0.67291321536E+03  0.00000000000E+00 0.  1.
<mgrwt>
<rscale>  0 0.93621890E+02</rscale>
<asrwt>0</asrwt>
<pdfrwt beam="1">  1        1 0.12891230E+00 0.93621890E+02</pdfrwt>
<pdfrwt beam="2">  1       -1 0.40232197E-03 0.93621890E+02</pdfrwt>
<totfact> 0.13111362E+05</totfact>
</mgrwt>
</event>
<event>
 7    1  0.2911475E-009  0.9344679E+02  0.7818608E-02  0.1294713E+00
         -1   -1    0    0    0  501 -0.00000000000E+00  0.00000000000E+00  0.10308340944E+02  0.10308342176E+02  0.50400000000E-02 0.  1.
          1   -1    0    0  501    0  0.00000000000E+00 -0.00000000000E+00 -0.21177757313E+03  0.21177757319E+03  0.50400000000E-02 0. -1.
         23    2    1    2    0    0  0.00000000000E+00  0.00000000000E+00 -0.20146923218E+03  0.22208591536E+03  0.93446788528E+02 0.  0.
    9000005    2    3    3    0    0 -0.27026168329E+02  0.37157134256E+02 -0.10513700192E+03  0.11535745155E+03  0.11936752256E+02 0.  0.
         22    1    3    3    0    0  0.27026168329E+02 -0.37157134256E+02 -0.96332230262E+02  0.10672846381E+03  0.00000000000E+00 0. -1.
         22    1    4    4    0    0 -0.42476398374E+01  0.15302049407E+02 -0.36917179306E+02  0.40187974422E+02  0.00000000000E+00 0.  1.
         22    1    4    4    0    0 -0.22778528492E+02  0.21855084849E+02 -0.68219822617E+02  0.75169477130E+02  0.00000000000E+00 0.  1.
<mgrwt>
<rscale>  0 0.93446789E+02</rscale>
<asrwt>0</asrwt>
<pdfrwt beam="2">  1        1 0.32581162E-01 0.93446789E+02</pdfrwt>
<pdfrwt beam="1">  1       -1 0.15858989E-02 0.93446789E+02</pdfrwt>
<totfact> 0.11208136E+05</totfact>
</mgrwt>
</event>
<event>
 7    1  0.2911475E-009  0.9088161E+02  0.7818608E-02  0.1300731E+00
         -1   -1    0    0    0  501 -0.00000000000E+00  0.00000000000E+00  0.28550629901E+02  0.28550630346E+02  0.50400000000E-02 0.  1.
          1   -1    0    0  501    0  0.00000000000E+00 -0.00000000000E+00 -0.72322987635E+02  0.72322987811E+02  0.50400000000E-02 0. -1.
         23    2    1    2    0    0  0.00000000000E+00  0.00000000000E+00 -0.43772357734E+02  0.10087361816E+03  0.90881612763E+02 0.  0.
    9000005    2    3    3    0    0 -0.13241126796E+02  0.37036975088E+02 -0.45991639491E+02  0.61478311660E+02  0.10829909466E+02 0.  0.
         22    1    3    3    0    0  0.13241126796E+02 -0.37036975088E+02  0.22192817571E+01  0.39395306497E+02  0.00000000000E+00 0.  1.
         22    1    4    4    0    0 -0.33367637387E+01  0.14381581184E+02 -0.25045384377E+02  0.29072928098E+02  0.00000000000E+00 0.  1.
         22    1    4    4    0    0 -0.99043630572E+01  0.22655393904E+02 -0.20946255114E+02  0.32405383562E+02  0.00000000000E+00 0.  1.
<mgrwt>
<rscale>  0 0.90881613E+02</rscale>
<asrwt>0</asrwt>
<pdfrwt beam="2">  1        1 0.11126613E-01 0.90881613E+02</pdfrwt>
<pdfrwt beam="1">  1       -1 0.43924047E-02 0.90881613E+02</pdfrwt>
<totfact> 0.10005641E+05</totfact>
</mgrwt>
</event>
<event>
 7    1  0.2911475E-009  0.9146335E+02  0.7818608E-02  0.1299346E+00
          1   -1    0    0  501    0  0.00000000000E+00  0.00000000000E+00  0.48536459911E+02  0.48536460173E+02  0.50400000000E-02 0. -1.
         -1   -1    0    0    0  501 -0.00000000000E+00 -0.00000000000E+00 -0.43088970798E+02  0.43088971093E+02  0.50400000000E-02 0.  1.
         23    2    1    2    0    0  0.00000000000E+00  0.00000000000E+00  0.54474891127E+01  0.91625431266E+02  0.91463350677E+02 0.  0.
    9000005    2    3    3    0    0  0.26791362880E+02 -0.36249618890E+02 -0.17575531266E+01  0.45977598587E+02  0.88903646818E+01 0.  0.
         22    1    3    3    0    0 -0.26791362880E+02  0.36249618890E+02  0.72050422393E+01  0.45647832679E+02  0.00000000000E+00 0.  1.
         22    1    4    4    0    0  0.24609069786E+02 -0.33525199831E+02  0.88861295537E+00  0.41597295253E+02  0.00000000000E+00 0.  1.
         22    1    4    4    0    0  0.21822930939E+01 -0.27244190596E+01 -0.26461660819E+01  0.43803033335E+01  0.00000000000E+00 0.  1.
<mgrwt>
<rscale>  0 0.91463351E+02</rscale>
<asrwt>0</asrwt>
<pdfrwt beam="1">  1        1 0.74671476E-02 0.91463351E+02</pdfrwt>
<pdfrwt beam="2">  1       -1 0.66290725E-02 0.91463351E+02</pdfrwt>
<totfact> 0.92529599E+04</totfact>
</mgrwt>
</event>
<event>
 7    1  0.2911475E-009  0.9176329E+02  0.7818608E-02  0.1298637E+00
          1   -1    0    0  501    0  0.00000000000E+00  0.00000000000E+00  0.29131295320E+02  0.29131295756E+02  0.50400000000E-02 0. -1.
         -1   -1    0    0    0  501 -0.00000000000E+00 -0.00000000000E+00 -0.72263358815E+02  0.72263358991E+02  0.50400000000E-02 0.  1.
         23    2    1    2    0    0 -0.44408920985E-15  0.71054273576E-14 -0.43132063494E+02  0.10139465475E+03  0.91763288465E+02 0.  0.
    9000005    2    3    3    0    0  0.28252924601E+01 -0.29437789599E+02 -0.60208442722E+02  0.67245445950E+02  0.47252187340E+01 0.  0.
         22    1    3    3    0    0 -0.28252924601E+01  0.29437789599E+02  0.17076379227E+02  0.34149208797E+02  0.00000000000E+00 0.  1.
         22    1    4    4    0    0  0.33201413167E+01 -0.24225830682E+02 -0.45859294074E+02  0.51971040625E+02  0.00000000000E+00 0. -1.
         22    1    4    4    0    0 -0.49484885656E+00 -0.52119589166E+01 -0.14349148647E+02  0.15274405325E+02  0.00000000000E+00 0. -1.
<mgrwt>
<rscale>  0 0.91763288E+02</rscale>
<asrwt>0</asrwt>
<pdfrwt beam="1">  1        1 0.44817378E-02 0.91763288E+02</pdfrwt>
<pdfrwt beam="2">  1       -1 0.11117440E-01 0.91763288E+02</pdfrwt>
<totfact> 0.84694141E+04</totfact>
</mgrwt>
</event>
<event>
 7    1  0.2911475E-009  0.9000388E+02  0.7818608E-02  0.1302842E+00
         -1   -1    0    0    0  501 -0.00000000000E+00  0.00000000000E+00  0.34592406097E+02  0.34592406464E+02  0.50400000000E-02 0.  1.
          1   -1    0    0  501    0  0.00000000000E+00 -0.00000000000E+00 -0.58543901893E+02  0.58543902110E+02  0.50400000000E-02 0. -1.
         23    2    1    2    0    0  0.00000000000E+00  0.00000000000E+00 -0.23951495796E+02  0.93136308575E+02  0.90003876717E+02 0.  0.
    9000005    2    3    3    0    0 -0.25208110856E+02 -0.22645613293E+02  0.16411501400E+02  0.40434845625E+02  0.14743361495E+02 0.  0.
         22    1    3    3    0    0  0.25208110856E+02  0.22645613293E+02 -0.40362997197E+02  0.52701462950E+02  0.00000000000E+00 0. -1.
         22    1    4    4    0    0 -0.10148136359E+02 -0.12800458009E+02  0.38502869542E+00  0.16339664742E+02  0.00000000000E+00 0. -1.
         22    1    4    4    0    0 -0.15059974497E+02 -0.98451552848E+01  0.16026472705E+02  0.24095180883E+02  0.00000000000E+00 0. -1.
<mgrwt>
<rscale>  0 0.90003877E+02</rscale>
<asrwt>0</asrwt>
<pdfrwt beam="2">  1        1 0.90067542E-02 0.90003877E+02</pdfrwt>
<pdfrwt beam="1">  1       -1 0.53219087E-02 0.90003877E+02</pdfrwt>
<totfact> 0.99522317E+04</totfact>
</mgrwt>
</event>
<event>
 7    1  0.2911475E-009  0.9223117E+02  0.7818608E-02  0.1297537E+00
          1   -1    0    0  501    0  0.00000000000E+00  0.00000000000E+00  0.17672760290E+03  0.17672760297E+03  0.50400000000E-02 0. -1.
         -1   -1    0    0    0  501 -0.00000000000E+00 -0.00000000000E+00 -0.12033474736E+02  0.12033475791E+02  0.50400000000E-02 0.  1.
         23    2    1    2    0    0  0.17763568394E-14 -0.35527136788E-14  0.16469412817E+03  0.18876107876E+03  0.92231171543E+02 0.  0.
    9000005    2    3    3    0    0  0.11757347682E+02 -0.26341916586E+02  0.96850857867E+01  0.31090742261E+02  0.63797785029E+01 0.  0.
         22    1    3    3    0    0 -0.11757347682E+02  0.26341916586E+02  0.15500904238E+03  0.15767033650E+03  0.00000000000E+00 0. -1.
         22    1    4    4    0    0  0.99045836942E+01 -0.20475611771E+02  0.48269992388E+01  0.23251911259E+02  0.00000000000E+00 0.  1.
         22    1    4    4    0    0  0.18527639874E+01 -0.58663048145E+01  0.48580865479E+01  0.78388310019E+01  0.00000000000E+00 0.  1.
<mgrwt>
<rscale>  0 0.92231172E+02</rscale>
<asrwt>0</asrwt>
<pdfrwt beam="1">  1        1 0.27188862E-01 0.92231172E+02</pdfrwt>
<pdfrwt beam="2">  1       -1 0.18513039E-02 0.92231172E+02</pdfrwt>
<totfact> 0.11209654E+05</totfact>
</mgrwt>
</event>
<event>
 7    1  0.2911475E-009  0.9004648E+02  0.7818608E-02  0.1302739E+00
          1   -1    0    0  501    0  0.00000000000E+00  0.00000000000E+00  0.62901872819E+03  0.62901872821E+03  0.50400000000E-02 0. -1.
         -1   -1    0    0    0  501 -0.00000000000E+00 -0.00000000000E+00 -0.32226238310E+01  0.32226277722E+01  0.50400000000E-02 0.  1.
         23    2    1    2    0    0 -0.71054273576E-14  0.11102230246E-15  0.62579610436E+03  0.63224135598E+03  0.90046476797E+02 0.  0.
    9000005    2    3    3    0    0 -0.43603117853E+02  0.49619215681E+00  0.38645245575E+03  0.38895785834E+03  0.64215979438E+01 0.  0.
         22    1    3    3    0    0  0.43603117853E+02 -0.49619215681E+00  0.23934364861E+03  0.24328349764E+03  0.00000000000E+00 0.  1.
         22    1    4    4    0    0 -0.56748361160E+01  0.11621259239E+01  0.36712531883E+02  0.37166709551E+02  0.00000000000E+00 0.  1.
         22    1    4    4    0    0 -0.37928281737E+02 -0.66593376713E+00  0.34973992386E+03  0.35179114879E+03  0.00000000000E+00 0.  1.
<mgrwt>
<rscale>  0 0.90046477E+02</rscale>
<asrwt>0</asrwt>
<pdfrwt beam="1">  1        1 0.96772195E-01 0.90046477E+02</pdfrwt>
<pdfrwt beam="2">  1       -1 0.49578817E-03 0.90046477E+02</pdfrwt>
<totfact> 0.14668420E+05</totfact>
</mgrwt>
</event>
<event>
 7    1  0.2911475E-009  0.9103838E+02  0.7818608E-02  0.1300356E+00
          1   -1    0    0  501    0  0.00000000000E+00  0.00000000000E+00  0.34997861428E+03  0.34997861432E+03  0.50400000000E-02 0. -1.
         -1   -1    0    0    0  501 -0.00000000000E+00 -0.00000000000E+00 -0.59203506938E+01  0.59203528391E+01  0.50400000000E-02 0.  1.
         23    2    1    2    0    0 -0.17763568394E-14  0.22204460493E-15  0.34405826359E+03  0.35589896716E+03  0.91038376965E+02 0.  0.
    9000005    2    3    3    0    0  0.14607559871E+02 -0.10563901359E+01  0.34050309306E+03  0.34082793524E+03  0.26131003921E+01 0.  0.
         22    1    3    3    0    0 -0.14607559871E+02  0.10563901359E+01  0.35551705298E+01  0.15071031915E+02  0.00000000000E+00 0.  1.
         22    1    4    4    0    0  0.11000722753E+02 -0.14383687436E+01  0.23354981478E+03  0.23381317497E+03  0.00000000000E+00 0. -1.
         22    1    4    4    0    0  0.36068371174E+01  0.38197860767E+00  0.10695327828E+03  0.10701476027E+03  0.00000000000E+00 0. -1.
<mgrwt>
<rscale>  0 0.91038377E+02</rscale>
<asrwt>0</asrwt>
<pdfrwt beam="1">  1        1 0.53842868E-01 0.91038377E+02</pdfrwt>
<pdfrwt beam="2">  1       -1 0.91082328E-03 0.91038377E+02</pdfrwt>
<totfact> 0.13236519E+05</totfact>
</mgrwt>
</event>
<event>
 7    1  0.2911475E-009  0.8965402E+02  0.7818608E-02  0.1303692E+00
         -1   -1    0    0    0  501 -0.00000000000E+00  0.00000000000E+00  0.39255098136E+03  0.39255098139E+03  0.50400000000E-02 0.  1.
          1   -1    0    0  501    0  0.00000000000E+00 -0.00000000000E+00 -0.51189787731E+01  0.51189812542E+01  0.50400000000E-02 0. -1.
         23    2    1    2    0    0  0.00000000000E+00  0.00000000000E+00  0.38743200258E+03  0.39766996264E+03  0.89654015877E+02 0.  0.
    9000005    2    3    3    0    0 -0.11691457017E+02  0.21855539715E+02  0.35914501778E+03  0.36006001326E+03  0.66116994064E+01 0.  0.
         22    1    3    3    0    0  0.11691457017E+02 -0.21855539715E+02  0.28286984807E+02  0.37609949387E+02  0.00000000000E+00 0. -1.
         22    1    4    4    0    0 -0.14621652662E+01  0.88064348419E+01  0.10804124413E+03  0.10840941682E+03  0.00000000000E+00 0. -1.
         22    1    4    4    0    0 -0.10229291751E+02  0.13049104873E+02  0.25110377365E+03  0.25165059644E+03  0.00000000000E+00 0. -1.
<mgrwt>
<rscale>  0 0.89654016E+02</rscale>
<asrwt>0</asrwt>
<pdfrwt beam="2">  1        1 0.78753502E-03 0.89654016E+02</pdfrwt>
<pdfrwt beam="1">  1       -1 0.60392487E-01 0.89654016E+02</pdfrwt>
<totfact> 0.56218174E+04</totfact>
</mgrwt>
</event>
<event>
 7    1  0.2911475E-009  0.8899612E+02  0.7818608E-02  0.1305301E+00
          1   -1    0    0  501    0  0.00000000000E+00  0.00000000000E+00  0.67262267683E+03  0.67262267685E+03  0.50400000000E-02 0. -1.
         -1   -1    0    0    0  501 -0.00000000000E+00 -0.00000000000E+00 -0.29438134460E+01  0.29438177604E+01  0.50400000000E-02 0.  1.
         23    2    1    2    0    0  0.17763568394E-14 -0.35527136788E-14  0.66967886339E+03  0.67556649461E+03  0.88996115508E+02 0.  0.
    9000005    2    3    3    0    0 -0.99087254219E+01  0.29863263070E+02  0.57332314945E+03  0.57420367633E+03  0.45200554783E+01 0.  0.
         22    1    3    3    0    0  0.99087254219E+01 -0.29863263070E+02  0.96355713940E+02  0.10136281828E+03  0.00000000000E+00 0.  1.
         22    1    4    4    0    0 -0.58759258234E+01  0.20070878933E+02  0.41511860365E+03  0.41564506707E+03  0.00000000000E+00 0. -1.
         22    1    4    4    0    0 -0.40327995985E+01  0.97923841371E+01  0.15820454580E+03  0.15855860927E+03  0.00000000000E+00 0. -1.
<mgrwt>
<rscale>  0 0.88996116E+02</rscale>
<asrwt>0</asrwt>
<pdfrwt beam="1">  1        1 0.10348047E+00 0.88996116E+02</pdfrwt>
<pdfrwt beam="2">  1       -1 0.45289445E-03 0.88996116E+02</pdfrwt>
<totfact> 0.15156025E+05</totfact>
</mgrwt>
</event>
<event>
 7    1  0.2911475E-009  0.9305799E+02  0.7818608E-02  0.1295611E+00
         -1   -1    0    0    0  501 -0.00000000000E+00  0.00000000000E+00  0.26421394867E+02  0.26421395347E+02  0.50400000000E-02 0.  1.
          1   -1    0    0  501    0  0.00000000000E+00 -0.00000000000E+00 -0.81939171265E+02  0.81939171420E+02  0.50400000000E-02 0. -1.
         23    2    1    2    0    0  0.00000000000E+00  0.00000000000E+00 -0.55517776398E+02  0.10836056677E+03  0.93057986943E+02 0.  0.
    9000005    2    3    3    0    0  0.28720866834E+02  0.35075062306E+02 -0.18194508400E+02  0.49639407706E+02  0.88251047614E+01 0.  0.
         22    1    3    3    0    0 -0.28720866834E+02 -0.35075062306E+02 -0.37323267999E+02  0.58721159062E+02  0.00000000000E+00 0. -1.
         22    1    4    4    0    0  0.13104416017E+02  0.15066026252E+02 -0.12716528451E+02  0.23673211908E+02  0.00000000000E+00 0. -1.
         22    1    4    4    0    0  0.15616450817E+02  0.20009036054E+02 -0.54779799482E+01  0.25966195798E+02  0.00000000000E+00 0. -1.
<mgrwt>
<rscale>  0 0.93057987E+02</rscale>
<asrwt>0</asrwt>
<pdfrwt beam="2">  1        1 0.12606026E-01 0.93057987E+02</pdfrwt>
<pdfrwt beam="1">  1       -1 0.40648301E-02 0.93057987E+02</pdfrwt>
<totfact> 0.95605832E+04</totfact>
</mgrwt>
</event>
<event>
 7    1  0.2911475E-009  0.9285429E+02  0.7818608E-02  0.1296083E+00
          1   -1    0    0  501    0  0.00000000000E+00  0.00000000000E+00  0.19983492691E+02  0.19983493327E+02  0.50400000000E-02 0. -1.
         -1   -1    0    0    0  501 -0.00000000000E+00 -0.00000000000E+00 -0.10786300464E+03  0.10786300476E+03  0.50400000000E-02 0.  1.
         23    2    1    2    0    0  0.00000000000E+00  0.00000000000E+00 -0.87879511951E+02  0.12784649809E+03  0.92854286128E+02 0.  0.
    9000005    2    3    3    0    0  0.67671035746E+01 -0.21584202770E+02 -0.99008969497E+02  0.10263665229E+03  0.14826828785E+02 0.  0.
         22    1    3    3    0    0 -0.67671035746E+01  0.21584202770E+02  0.11129457546E+02  0.25209845800E+02  0.00000000000E+00 0. -1.
         22    1    4    4    0    0  0.66157861433E+01 -0.21766325958E+02 -0.99512743816E+02  0.10208000663E+03  0.00000000000E+00 0.  1.
         22    1    4    4    0    0  0.15131743127E+00  0.18212318805E+00  0.50377431953E+00  0.55664565538E+00  0.00000000000E+00 0.  1.
<mgrwt>
<rscale>  0 0.92854286E+02</rscale>
<asrwt>0</asrwt>
<pdfrwt beam="1">  1        1 0.30743836E-02 0.92854286E+02</pdfrwt>
<pdfrwt beam="2">  1       -1 0.16594308E-01 0.92854286E+02</pdfrwt>
<totfact> 0.76522558E+04</totfact>
</mgrwt>
</event>
<event>
 7    1  0.2911475E-009  0.8901234E+02  0.7818608E-02  0.1305261E+00
          1   -1    0    0  501    0  0.00000000000E+00  0.00000000000E+00  0.12641608429E+03  0.12641608439E+03  0.50400000000E-02 0. -1.
         -1   -1    0    0    0  501 -0.00000000000E+00 -0.00000000000E+00 -0.15668883674E+02  0.15668884485E+02  0.50400000000E-02 0.  1.
         23    2    1    2    0    0  0.00000000000E+00  0.00000000000E+00  0.11074720062E+03  0.14208496888E+03  0.89012335865E+02 0.  0.
    9000005    2    3    3    0    0 -0.99360701306E+01  0.23950054047E+02 -0.20105568463E+01  0.26384310077E+02  0.44450985302E+01 0.  0.
         22    1    3    3    0    0  0.99360701306E+01 -0.23950054047E+02  0.11275775746E+03  0.11570065880E+03  0.00000000000E+00 0. -1.
         22    1    4    4    0    0 -0.35708546976E+01  0.39891313771E+01 -0.26399280604E+00  0.53603978039E+01  0.00000000000E+00 0. -1.
         22    1    4    4    0    0 -0.63652154330E+01  0.19960922670E+02 -0.17465640402E+01  0.21023912273E+02  0.00000000000E+00 0. -1.
<mgrwt>
<rscale>  0 0.89012336E+02</rscale>
<asrwt>0</asrwt>
<pdfrwt beam="1">  1        1 0.19448627E-01 0.89012336E+02</pdfrwt>
<pdfrwt beam="2">  1       -1 0.24105977E-02 0.89012336E+02</pdfrwt>
<totfact> 0.11602118E+05</totfact>
</mgrwt>
</event>
<event>
 7    1  0.2911475E-009  0.9059565E+02  0.7818608E-02  0.1301416E+00
         -1   -1    0    0    0  501 -0.00000000000E+00  0.00000000000E+00  0.52950689814E+01  0.52950713800E+01  0.50400000000E-02 0.  1.
          1   -1    0    0  501    0  0.00000000000E+00 -0.00000000000E+00 -0.38751008492E+03  0.38751008495E+03  0.50400000000E-02 0. -1.
         23    2    1    2    0    0  0.00000000000E+00  0.00000000000E+00 -0.38221501594E+03  0.39280515633E+03  0.90595653497E+02 0.  0.
    9000005    2    3    3    0    0 -0.14859410440E+02 -0.42420437797E+02 -0.18920282653E+03  0.19462846527E+03  0.78888721464E+01 0.  0.
         22    1    3    3    0    0  0.14859410440E+02  0.42420437797E+02 -0.19301218941E+03  0.19817669107E+03  0.00000000000E+00 0.  1.
         22    1    4    4    0    0 -0.93548898959E+01 -0.17166838459E+02 -0.91445956930E+02  0.93512444875E+02  0.00000000000E+00 0.  1.
         22    1    4    4    0    0 -0.55045205439E+01 -0.25253599338E+02 -0.97756869601E+02  0.10111602039E+03  0.00000000000E+00 0.  1.
<mgrwt>
<rscale>  0 0.90595653E+02</rscale>
<asrwt>0</asrwt>
<pdfrwt beam="2">  1        1 0.59616914E-01 0.90595653E+02</pdfrwt>
<pdfrwt beam="1">  1       -1 0.81462649E-03 0.90595653E+02</pdfrwt>
<totfact> 0.13648004E+05</totfact>
</mgrwt>
</event>
<event>
 7    1  0.2911475E-009  0.9137258E+02  0.7818608E-02  0.1299561E+00
         -1   -1    0    0    0  501 -0.00000000000E+00  0.00000000000E+00  0.55906130090E+01  0.55906152808E+01  0.50400000000E-02 0.  1.
          1   -1    0    0  501    0  0.00000000000E+00 -0.00000000000E+00 -0.37334663870E+03  0.37334663873E+03  0.50400000000E-02 0. -1.
         23    2    1    2    0    0  0.17763568394E-14  0.00000000000E+00 -0.36775602569E+03  0.37893725402E+03  0.91372578207E+02 0.  0.
    9000005    2    3    3    0    0  0.14513716217E+02 -0.41460613900E+02 -0.13932691447E+03  0.14632278904E+03  0.82909005901E+01 0.  0.
         22    1    3    3    0    0 -0.14513716217E+02  0.41460613900E+02 -0.22842911122E+03  0.23261446498E+03  0.00000000000E+00 0. -1.
         22    1    4    4    0    0  0.79929833078E+01 -0.29506479555E+02 -0.10603570169E+03  0.11035438437E+03  0.00000000000E+00 0. -1.
         22    1    4    4    0    0  0.65207329091E+01 -0.11954134345E+02 -0.33291212783E+02  0.35968404666E+02  0.00000000000E+00 0. -1.
<mgrwt>
<rscale>  0 0.91372578E+02</rscale>
<asrwt>0</asrwt>
<pdfrwt beam="2">  1        1 0.57437925E-01 0.91372578E+02</pdfrwt>
<pdfrwt beam="1">  1       -1 0.86009478E-03 0.91372578E+02</pdfrwt>
<totfact> 0.13257423E+05</totfact>
</mgrwt>
</event>
<event>
 7    1  0.2911475E-009  0.9078301E+02  0.7818608E-02  0.1300967E+00
          1   -1    0    0  501    0  0.00000000000E+00  0.00000000000E+00  0.47740327949E+02  0.47740328215E+02  0.50400000000E-02 0. -1.
         -1   -1    0    0    0  501 -0.00000000000E+00 -0.00000000000E+00 -0.43158247656E+02  0.43158247950E+02  0.50400000000E-02 0.  1.
         23    2    1    2    0    0  0.00000000000E+00  0.00000000000E+00  0.45820802933E+01  0.90898576165E+02  0.90783014320E+02 0.  0.
    9000005    2    3    3    0    0 -0.30740020299E+02 -0.89951815415E+01 -0.29225337700E+02  0.44328160123E+02  0.92197221888E+01 0.  0.
         22    1    3    3    0    0  0.30740020299E+02  0.89951815415E+01  0.33807417993E+02  0.46570416042E+02  0.00000000000E+00 0. -1.
         22    1    4    4    0    0 -0.13737864507E+02 -0.31186832976E+01 -0.18945505727E+02  0.23609051103E+02  0.00000000000E+00 0.  1.
         22    1    4    4    0    0 -0.17002155792E+02 -0.58764982439E+01 -0.10279831973E+02  0.20719109020E+02  0.00000000000E+00 0.  1.
<mgrwt>
<rscale>  0 0.90783014E+02</rscale>
<asrwt>0</asrwt>
<pdfrwt beam="1">  1        1 0.73446659E-02 0.90783014E+02</pdfrwt>
<pdfrwt beam="2">  1       -1 0.66397305E-02 0.90783014E+02</pdfrwt>
<totfact> 0.94250434E+04</totfact>
</mgrwt>
</event>
<event>
 7    1  0.2911475E-009  0.9167179E+02  0.7818608E-02  0.1298853E+00
         -1   -1    0    0    0  501 -0.00000000000E+00  0.00000000000E+00  0.12122657911E+03  0.12122657922E+03  0.50400000000E-02 0.  1.
          1   -1    0    0  501    0  0.00000000000E+00 -0.00000000000E+00 -0.17330597164E+02  0.17330597897E+02  0.50400000000E-02 0. -1.
         23    2    1    2    0    0  0.00000000000E+00  0.00000000000E+00  0.10389598195E+03  0.13855717711E+03  0.91671785543E+02 0.  0.
    9000005    2    3    3    0    0 -0.13117308031E+02 -0.37937597890E+02  0.84194962709E+02  0.93841908326E+02  0.10304703252E+02 0.  0.
         22    1    3    3    0    0  0.13117308031E+02  0.37937597890E+02  0.19701019240E+02  0.44715268787E+02  0.00000000000E+00 0. -1.
         22    1    4    4    0    0 -0.11145743357E+02 -0.31733554166E+02  0.77599099796E+02  0.84574619976E+02  0.00000000000E+00 0.  1.
         22    1    4    4    0    0 -0.19715646740E+01 -0.62040437240E+01  0.65958629126E+01  0.92672883496E+01  0.00000000000E+00 0.  1.
<mgrwt>
<rscale>  0 0.91671786E+02</rscale>
<asrwt>0</asrwt>
<pdfrwt beam="2">  1        1 0.26662458E-02 0.91671786E+02</pdfrwt>
<pdfrwt beam="1">  1       -1 0.18650243E-01 0.91671786E+02</pdfrwt>
<totfact> 0.77276538E+04</totfact>
</mgrwt>
</event>
<event>
 7    1  0.2911475E-009  0.8908513E+02  0.7818608E-02  0.1305082E+00
          1   -1    0    0  501    0  0.00000000000E+00  0.00000000000E+00  0.14072408539E+03  0.14072408548E+03  0.50400000000E-02 0. -1.
         -1   -1    0    0    0  501 -0.00000000000E+00 -0.00000000000E+00 -0.14098795143E+02  0.14098796044E+02  0.50400000000E-02 0.  1.
         23    2    1    2    0    0  0.00000000000E+00  0.35527136788E-14  0.12662529025E+03  0.15482288153E+03  0.89085130709E+02 0.  0.
    9000005    2    3    3    0    0 -0.27138752289E+02 -0.23331693730E+02  0.10877835453E+03  0.11483047071E+03  0.85103925703E+01 0.  0.
         22    1    3    3    0    0  0.27138752289E+02  0.23331693730E+02  0.17846935719E+02  0.39992410814E+02  0.00000000000E+00 0.  1.
         22    1    4    4    0    0 -0.21994672714E+02 -0.14204260114E+02  0.73208752649E+02  0.77749907380E+02  0.00000000000E+00 0.  1.
         22    1    4    4    0    0 -0.51440795755E+01 -0.91274336156E+01  0.35569601882E+02  0.37080563334E+02  0.00000000000E+00 0.  1.
<mgrwt>
<rscale>  0 0.89085131E+02</rscale>
<asrwt>0</asrwt>
<pdfrwt beam="1">  1        1 0.21649860E-01 0.89085131E+02</pdfrwt>
<pdfrwt beam="2">  1       -1 0.21690455E-02 0.89085131E+02</pdfrwt>
<totfact> 0.11798990E+05</totfact>
</mgrwt>
</event>
<event>
 7    1  0.2911475E-009  0.9046637E+02  0.7818608E-02  0.1301726E+00
          1   -1    0    0  501    0  0.00000000000E+00  0.00000000000E+00  0.89337006610E+01  0.89337020826E+01  0.50400000000E-02 0. -1.
         -1   -1    0    0    0  501 -0.00000000000E+00 -0.00000000000E+00 -0.22902499180E+03  0.22902499186E+03  0.50400000000E-02 0.  1.
         23    2    1    2    0    0  0.00000000000E+00  0.17763568394E-14 -0.22009129114E+03  0.23795869394E+03  0.90466367152E+02 0.  0.
    9000005    2    3    3    0    0  0.69718113128E+01  0.13837172613E+02 -0.22137242618E+03  0.22241151395E+03  0.14867984488E+02 0.  0.
         22    1    3    3    0    0 -0.69718113128E+01 -0.13837172613E+02  0.12811350381E+01  0.15547179998E+02  0.00000000000E+00 0. -1.
         22    1    4    4    0    0 -0.97813725566E+00  0.13477792889E+02 -0.14100122537E+03  0.14164728451E+03  0.00000000000E+00 0.  1.
         22    1    4    4    0    0  0.79499485684E+01  0.35937972346E+00 -0.80371200816E+02  0.80764229438E+02  0.00000000000E+00 0.  1.
<mgrwt>
<rscale>  0 0.90466367E+02</rscale>
<asrwt>0</asrwt>
<pdfrwt beam="1">  1        1 0.13744158E-02 0.90466367E+02</pdfrwt>
<pdfrwt beam="2">  1       -1 0.35234610E-01 0.90466367E+02</pdfrwt>
<totfact> 0.68024133E+04</totfact>
</mgrwt>
</event>
<event>
 7    1  0.3240472E-009  0.8834608E+02  0.7818608E-02  0.1306907E+00
          1   -1    0    0  501    0  0.00000000000E+00  0.00000000000E+00  0.20089126553E+03  0.20089126559E+03  0.50400000000E-02 0. -1.
         -1   -1    0    0    0  501 -0.00000000000E+00 -0.00000000000E+00 -0.97130031789E+01  0.97130044866E+01  0.50400000000E-02 0.  1.
         23    2    1    2    0    0 -0.44408920985E-15 -0.71054273576E-14  0.19117826235E+03  0.21060427008E+03  0.88346084126E+02 0.  0.
    9000005    2    3    3    0    0 -0.36966120217E+01  0.39799680826E+02  0.13661458775E+03  0.14296645433E+03  0.13348480864E+02 0.  0.
         22    1    3    3    0    0  0.36966120217E+01 -0.39799680826E+02  0.54563674598E+02  0.67637815754E+02  0.00000000000E+00 0.  1.
         22    1    4    4    0    0  0.38046791233E+01  0.99027331964E+01  0.24635444621E+02  0.26822468933E+02  0.00000000000E+00 0.  1.
         22    1    4    4    0    0 -0.75012911449E+01  0.29896947630E+02  0.11197914313E+03  0.11614398539E+03  0.00000000000E+00 0.  1.
<mgrwt>
<rscale>  0 0.88346084E+02</rscale>
<asrwt>0</asrwt>
<pdfrwt beam="1">  1        1 0.30906348E-01 0.88346084E+02</pdfrwt>
<pdfrwt beam="2">  1       -1 0.14943083E-02 0.88346084E+02</pdfrwt>
<totfact> 0.12894120E+05</totfact>
</mgrwt>
</event>
<event>
 7    1  0.2911475E-009  0.8192328E+02  0.7818608E-02  0.1323680E+00
         -1   -1    0    0    0  501 -0.00000000000E+00  0.00000000000E+00  0.48218027398E+02  0.48218027662E+02  0.50400000000E-02 0.  1.
          1   -1    0    0  501    0  0.00000000000E+00 -0.00000000000E+00 -0.34797273033E+02  0.34797273398E+02  0.50400000000E-02 0. -1.
         23    2    1    2    0    0  0.00000000000E+00  0.00000000000E+00  0.13420754365E+02  0.83015301060E+02  0.81923278513E+02 0.  0.
    9000005    2    3    3    0    0  0.64437226635E+01  0.29633748343E+02  0.33358360429E+02  0.46722206149E+02  0.12267996344E+02 0.  0.
         22    1    3    3    0    0 -0.64437226635E+01 -0.29633748343E+02 -0.19937606064E+02  0.36293094911E+02  0.00000000000E+00 0. -1.
         22    1    4    4    0    0  0.79549236063E+01  0.10971976924E+02  0.17842528697E+02  0.22405823294E+02  0.00000000000E+00 0.  1.
         22    1    4    4    0    0 -0.15112009428E+01  0.18661771420E+02  0.15515831732E+02  0.24316382855E+02  0.00000000000E+00 0.  1.
<mgrwt>
<rscale>  0 0.81923279E+02</rscale>
<asrwt>0</asrwt>
<pdfrwt beam="2">  1        1 0.53534267E-02 0.81923279E+02</pdfrwt>
<pdfrwt beam="1">  1       -1 0.74181581E-02 0.81923279E+02</pdfrwt>
<totfact> 0.11996715E+05</totfact>
</mgrwt>
</event>
<event>
 7    1  0.2911475E-009  0.9010879E+02  0.7818608E-02  0.1302588E+00
          1   -1    0    0  501    0  0.00000000000E+00  0.00000000000E+00  0.40683044473E+03  0.40683044477E+03  0.50400000000E-02 0. -1.
         -1   -1    0    0    0  501 -0.00000000000E+00 -0.00000000000E+00 -0.49895433169E+01  0.49895458624E+01  0.50400000000E-02 0.  1.
         23    2    1    2    0    0  0.35527136788E-14  0.44408920985E-15  0.40184090142E+03  0.41181999063E+03  0.90108793294E+02 0.  0.
    9000005    2    3    3    0    0  0.26022070631E+02  0.19058664169E+01  0.36864303344E+03  0.36959583966E+03  0.47558493111E+01 0.  0.
         22    1    3    3    0    0 -0.26022070631E+02 -0.19058664169E+01  0.33197867974E+02  0.42224150966E+02  0.00000000000E+00 0.  1.
         22    1    4    4    0    0  0.81978470465E+01  0.27241802545E+01  0.11092948100E+03  0.11126533876E+03  0.00000000000E+00 0. -1.
         22    1    4    4    0    0  0.17824223585E+02 -0.81831383754E+00  0.25771355244E+03  0.25833050090E+03  0.00000000000E+00 0. -1.
<mgrwt>
<rscale>  0 0.90108793E+02</rscale>
<asrwt>0</asrwt>
<pdfrwt beam="1">  1        1 0.62589287E-01 0.90108793E+02</pdfrwt>
<pdfrwt beam="2">  1       -1 0.76762240E-03 0.90108793E+02</pdfrwt>
<totfact> 0.13955719E+05</totfact>
</mgrwt>
</event>
<event>
 7    1  0.2911475E-009  0.8893214E+02  0.7818608E-02  0.1305458E+00
          1   -1    0    0  501    0  0.00000000000E+00  0.00000000000E+00  0.18512567009E+03  0.18512567016E+03  0.50400000000E-02 0. -1.
         -1   -1    0    0    0  501 -0.00000000000E+00 -0.00000000000E+00 -0.10680480505E+02  0.10680481694E+02  0.50400000000E-02 0.  1.
         23    2    1    2    0    0  0.00000000000E+00  0.00000000000E+00  0.17444518958E+03  0.19580615185E+03  0.88932136676E+02 0.  0.
    9000005    2    3    3    0    0  0.29480727502E+02 -0.30498174411E+02  0.11050261536E+03  0.11907346824E+03  0.12977322521E+02 0.  0.
         22    1    3    3    0    0 -0.29480727502E+02  0.30498174411E+02  0.63942574225E+02  0.76732683616E+02  0.00000000000E+00 0.  1.
         22    1    4    4    0    0  0.29677391378E+02 -0.29480922714E+02  0.98347032481E+02  0.10687380952E+03  0.00000000000E+00 0. -1.
         22    1    4    4    0    0 -0.19666387627E+00 -0.10172516967E+01  0.12155582879E+02  0.12199658718E+02  0.00000000000E+00 0. -1.
<mgrwt>
<rscale>  0 0.88932137E+02</rscale>
<asrwt>0</asrwt>
<pdfrwt beam="1">  1        1 0.28480872E-01 0.88932137E+02</pdfrwt>
<pdfrwt beam="2">  1       -1 0.16431510E-02 0.88932137E+02</pdfrwt>
<totfact> 0.12471205E+05</totfact>
</mgrwt>
</event>
<event>
 7    1  0.2911475E-009  0.9534614E+02  0.7818608E-02  0.1290398E+00
          1   -1    0    0  501    0  0.00000000000E+00  0.00000000000E+00  0.48614551789E+02  0.48614552051E+02  0.50400000000E-02 0. -1.
         -1   -1    0    0    0  501 -0.00000000000E+00 -0.00000000000E+00 -0.46749821381E+02  0.46749821653E+02  0.50400000000E-02 0.  1.
         23    2    1    2    0    0 -0.44408920985E-15  0.35527136788E-14  0.18647304086E+01  0.95364373703E+02  0.95346140731E+02 0.  0.
    9000005    2    3    3    0    0  0.33051545547E+01 -0.25992823630E+02  0.39630510875E+02  0.49399113983E+02  0.13533075897E+02 0.  0.
         22    1    3    3    0    0 -0.33051545547E+01  0.25992823630E+02 -0.37765780466E+02  0.45965259720E+02  0.00000000000E+00 0.  1.
         22    1    4    4    0    0  0.13783591711E+01 -0.11695095964E+02  0.69454547636E+01  0.13671667253E+02  0.00000000000E+00 0. -1.
         22    1    4    4    0    0  0.19267953837E+01 -0.14297727667E+02  0.32685056111E+02  0.35727446730E+02  0.00000000000E+00 0. -1.
<mgrwt>
<rscale>  0 0.95346141E+02</rscale>
<asrwt>0</asrwt>
<pdfrwt beam="1">  1        1 0.74791618E-02 0.95346141E+02</pdfrwt>
<pdfrwt beam="2">  1       -1 0.71922803E-02 0.95346141E+02</pdfrwt>
<totfact> 0.82340414E+04</totfact>
</mgrwt>
</event>
<event>
 7    1  0.2911475E-009  0.9216165E+02  0.7818608E-02  0.1297700E+00
         -1   -1    0    0    0  501 -0.00000000000E+00  0.00000000000E+00  0.11324422966E+02  0.11324424087E+02  0.50400000000E-02 0.  1.
          1   -1    0    0  501    0  0.00000000000E+00 -0.00000000000E+00 -0.18750997985E+03  0.18750997992E+03  0.50400000000E-02 0. -1.
         23    2    1    2    0    0 -0.35527136788E-14  0.17763568394E-14 -0.17618555689E+03  0.19883440401E+03  0.92161650167E+02 0.  0.
    9000005    2    3    3    0    0  0.30257128722E+02 -0.13858199708E+02 -0.15574554784E+03  0.15977883453E+03  0.12847441500E+02 0.  0.
         22    1    3    3    0    0 -0.30257128722E+02  0.13858199708E+02 -0.20440009047E+02  0.39055569481E+02  0.00000000000E+00 0.  1.
         22    1    4    4    0    0  0.14964983238E+02 -0.25979842795E+01 -0.47173116559E+02  0.49558078771E+02  0.00000000000E+00 0. -1.
         22    1    4    4    0    0  0.15292145484E+02 -0.11260215429E+02 -0.10857243128E+03  0.11022075576E+03  0.00000000000E+00 0. -1.
<mgrwt>
<rscale>  0 0.92161650E+02</rscale>
<asrwt>0</asrwt>
<pdfrwt beam="2">  1        1 0.28847687E-01 0.92161650E+02</pdfrwt>
<pdfrwt beam="1">  1       -1 0.17422191E-02 0.92161650E+02</pdfrwt>
<totfact> 0.11361011E+05</totfact>
</mgrwt>
</event>
<event>
 7    1  0.2911475E-009  0.9617596E+02  0.7818608E-02  0.1288549E+00
          1   -1    0    0  501    0  0.00000000000E+00  0.00000000000E+00  0.39737425112E+02  0.39737425432E+02  0.50400000000E-02 0.  1.
         -1   -1    0    0    0  501 -0.00000000000E+00 -0.00000000000E+00 -0.58193343410E+02  0.58193343628E+02  0.50400000000E-02 0. -1.
         23    2    1    2    0    0 -0.22204460493E-15  0.17763568394E-14 -0.18455918298E+02  0.97930769060E+02  0.96175956499E+02 0.  0.
    9000005    2    3    3    0    0  0.11992383541E+01 -0.13211658800E+02  0.37141888184E+02  0.40772198517E+02  0.10337611581E+02 0.  0.
         22    1    3    3    0    0 -0.11992383541E+01  0.13211658800E+02 -0.55597806482E+02  0.57158570543E+02  0.00000000000E+00 0. -1.
         22    1    4    4    0    0  0.31727456423E+01 -0.13939698691E+02  0.34812203332E+02  0.37633376348E+02  0.00000000000E+00 0. -1.
         22    1    4    4    0    0 -0.19735072882E+01  0.72803989175E+00  0.23296848515E+01  0.31388221689E+01  0.00000000000E+00 0. -1.
<mgrwt>
<rscale>  0 0.96175956E+02</rscale>
<asrwt>0</asrwt>
<pdfrwt beam="1">  1        1 0.61134501E-02 0.96175956E+02</pdfrwt>
<pdfrwt beam="2">  1       -1 0.89528221E-02 0.96175956E+02</pdfrwt>
<totfact> 0.77827427E+04</totfact>
</mgrwt>
</event>
<event>
 7    1  0.2911475E-009  0.9186664E+02  0.7818608E-02  0.1298393E+00
         -1   -1    0    0    0  501 -0.00000000000E+00  0.00000000000E+00  0.20135395824E+02  0.20135396454E+02  0.50400000000E-02 0.  1.
          1   -1    0    0  501    0  0.00000000000E+00 -0.00000000000E+00 -0.10478413206E+03  0.10478413218E+03  0.50400000000E-02 0. -1.
         23    2    1    2    0    0  0.00000000000E+00  0.00000000000E+00 -0.84648736232E+02  0.12491952863E+03  0.91866642955E+02 0.  0.
    9000005    2    3    3    0    0  0.12278153906E+02  0.37346462925E+02 -0.74505901137E+02  0.84319178139E+02  0.36170625467E+01 0.  0.
         22    1    3    3    0    0 -0.12278153906E+02 -0.37346462925E+02 -0.10142835095E+02  0.40600350492E+02  0.00000000000E+00 0.  1.
         22    1    4    4    0    0  0.11603188768E+02  0.35246087178E+02 -0.68242042370E+02  0.77678162940E+02  0.00000000000E+00 0.  1.
         22    1    4    4    0    0  0.67496513782E+00  0.21003757462E+01 -0.62638587676E+01  0.66410151989E+01  0.00000000000E+00 0.  1.
<mgrwt>
<rscale>  0 0.91866643E+02</rscale>
<asrwt>0</asrwt>
<pdfrwt beam="2">  1        1 0.16120635E-01 0.91866643E+02</pdfrwt>
<pdfrwt beam="1">  1       -1 0.30977533E-02 0.91866643E+02</pdfrwt>
<totfact> 0.10313004E+05</totfact>
</mgrwt>
</event>
<event>
 7    1  0.2911475E-009  0.1000615E+03  0.7818608E-02  0.1280167E+00
          1   -1    0    0  501    0  0.00000000000E+00  0.00000000000E+00  0.79196330962E+03  0.79196330964E+03  0.50400000000E-02 0. -1.
         -1   -1    0    0    0  501 -0.00000000000E+00 -0.00000000000E+00 -0.31605934086E+01  0.31605974270E+01  0.50400000000E-02 0.  1.
         23    2    1    2    0    0 -0.35527136788E-14  0.00000000000E+00  0.78880271621E+03  0.79512390706E+03  0.10006149350E+03 0.  0.
    9000005    2    3    3    0    0 -0.23917799059E+02  0.35865362128E+02  0.58737307731E+03  0.58913292488E+03  0.14563169904E+02 0.  0.
         22    1    3    3    0    0  0.23917799059E+02 -0.35865362128E+02  0.20142963890E+03  0.20599098218E+03  0.00000000000E+00 0. -1.
         22    1    4    4    0    0 -0.87872768745E+01  0.25750921639E+02  0.33319975240E+03  0.33430884104E+03  0.00000000000E+00 0. -1.
         22    1    4    4    0    0 -0.15130522185E+02  0.10114440490E+02  0.25417332491E+03  0.25482408384E+03  0.00000000000E+00 0. -1.
<mgrwt>
<rscale>  0 0.10006149E+03</rscale>
<asrwt>0</asrwt>
<pdfrwt beam="1">  1        1 0.12184043E+00 0.10006149E+03</pdfrwt>
<pdfrwt beam="2">  1       -1 0.48624576E-03 0.10006149E+03</pdfrwt>
<totfact> 0.11047338E+05</totfact>
</mgrwt>
</event>
<event>
 7    1  0.2911475E-009  0.8718159E+02  0.7818608E-02  0.1309824E+00
         -1   -1    0    0    0  501 -0.00000000000E+00  0.00000000000E+00  0.64511984400E+01  0.64512004088E+01  0.50400000000E-02 0.  1.
          1   -1    0    0  501    0  0.00000000000E+00 -0.00000000000E+00 -0.29454329178E+03  0.29454329183E+03  0.50400000000E-02 0. -1.
         23    2    1    2    0    0  0.00000000000E+00  0.00000000000E+00 -0.28809209334E+03  0.30099449223E+03  0.87181592719E+02 0.  0.
    9000005    2    3    3    0    0 -0.23914553653E+02 -0.23234919302E+02 -0.23854154605E+03  0.24126992368E+03  0.14047758958E+02 0.  0.
         22    1    3    3    0    0  0.23914553653E+02  0.23234919302E+02 -0.49550547294E+02  0.59724568550E+02  0.00000000000E+00 0.  1.
         22    1    4    4    0    0 -0.88347659378E+01 -0.16924267174E+02 -0.10387812198E+03  0.10561793473E+03  0.00000000000E+00 0. -1.
         22    1    4    4    0    0 -0.15079787715E+02 -0.63106521283E+01 -0.13466342406E+03  0.13565198896E+03  0.00000000000E+00 0. -1.
<mgrwt>
<rscale>  0 0.87181593E+02</rscale>
<asrwt>0</asrwt>
<pdfrwt beam="2">  1        1 0.45314342E-01 0.87181593E+02</pdfrwt>
<pdfrwt beam="1">  1       -1 0.99249245E-03 0.87181593E+02</pdfrwt>
<totfact> 0.14381907E+05</totfact>
</mgrwt>
</event>
<event>
 7    1  0.2911475E-009  0.8945709E+02  0.7818608E-02  0.1304172E+00
          1   -1    0    0  501    0  0.00000000000E+00  0.00000000000E+00  0.54297671952E+02  0.54297672186E+02  0.50400000000E-02 0. -1.
         -1   -1    0    0    0  501 -0.00000000000E+00 -0.00000000000E+00 -0.36845829299E+02  0.36845829644E+02  0.50400000000E-02 0.  1.
         23    2    1    2    0    0  0.00000000000E+00  0.00000000000E+00  0.17451842654E+02  0.91143501830E+02  0.89457090909E+02 0.  0.
    9000005    2    3    3    0    0 -0.19791298706E+02  0.39814065858E+01  0.48282177173E+02  0.54291681937E+02  0.14452369776E+02 0.  0.
         22    1    3    3    0    0  0.19791298706E+02 -0.39814065858E+01 -0.30830334519E+02  0.36851819893E+02  0.00000000000E+00 0.  1.
         22    1    4    4    0    0 -0.21654879886E+02  0.55126382067E+01  0.42251869743E+02  0.47796898431E+02  0.00000000000E+00 0.  1.
         22    1    4    4    0    0  0.18635811796E+01 -0.15312316208E+01  0.60303074293E+01  0.64947835054E+01  0.00000000000E+00 0.  1.
<mgrwt>
<rscale>  0 0.89457091E+02</rscale>
<asrwt>0</asrwt>
<pdfrwt beam="1">  1        1 0.83534880E-02 0.89457091E+02</pdfrwt>
<pdfrwt beam="2">  1       -1 0.56685892E-02 0.89457091E+02</pdfrwt>
<totfact> 0.10008971E+05</totfact>
</mgrwt>
</event>
<event>
 7    1  0.2911475E-009  0.9226593E+02  0.7818608E-02  0.1297455E+00
         -1   -1    0    0    0  501 -0.00000000000E+00  0.00000000000E+00  0.35505273368E+01  0.35505309140E+01  0.50400000000E-02 0.  1.
          1   -1    0    0  501    0  0.00000000000E+00 -0.00000000000E+00 -0.59941787487E+03  0.59941787490E+03  0.50400000000E-02 0. -1.
         23    2    1    2    0    0  0.00000000000E+00 -0.88817841970E-15 -0.59586734754E+03  0.60296840581E+03  0.92265933817E+02 0.  0.
    9000005    2    3    3    0    0 -0.41690687107E+02 -0.66483340581E+01 -0.41620697946E+03  0.41841445273E+03  0.77518236790E+01 0.  0.
         22    1    3    3    0    0  0.41690687107E+02  0.66483340581E+01 -0.17966036808E+03  0.18455395307E+03  0.00000000000E+00 0. -1.
         22    1    4    4    0    0 -0.37320568753E+02 -0.82595789331E+01 -0.37644331502E+03  0.37837893033E+03  0.00000000000E+00 0. -1.
         22    1    4    4    0    0 -0.43701183536E+01  0.16112448750E+01 -0.39763664436E+02  0.40035522400E+02  0.00000000000E+00 0. -1.
<mgrwt>
<rscale>  0 0.92265934E+02</rscale>
<asrwt>0</asrwt>
<pdfrwt beam="2">  1        1 0.92218055E-01 0.92265934E+02</pdfrwt>
<pdfrwt beam="1">  1       -1 0.54623573E-03 0.92265934E+02</pdfrwt>
<totfact> 0.13719504E+05</totfact>
</mgrwt>
</event>
<event>
 7    1  0.2911475E-009  0.9112116E+02  0.7818608E-02  0.1300159E+00
         -1   -1    0    0    0  501 -0.00000000000E+00  0.00000000000E+00  0.13465029404E+02  0.13465030348E+02  0.50400000000E-02 0.  1.
          1   -1    0    0  501    0  0.00000000000E+00 -0.00000000000E+00 -0.15415982550E+03  0.15415982558E+03  0.50400000000E-02 0. -1.
         23    2    1    2    0    0  0.00000000000E+00  0.00000000000E+00 -0.14069479610E+03  0.16762485593E+03  0.91121164815E+02 0.  0.
    9000005    2    3    3    0    0 -0.19520509219E+02  0.38400265364E+02 -0.95397093340E+02  0.10511475647E+03  0.96372168656E+01 0.  0.
         22    1    3    3    0    0  0.19520509219E+02 -0.38400265364E+02 -0.45297702757E+02  0.62510099466E+02  0.00000000000E+00 0.  1.
         22    1    4    4    0    0 -0.13973086150E+02  0.27625813778E+02 -0.57189573671E+02  0.65031377504E+02  0.00000000000E+00 0. -1.
         22    1    4    4    0    0 -0.55474230691E+01  0.10774451585E+02 -0.38207519669E+02  0.40083378961E+02  0.00000000000E+00 0. -1.
<mgrwt>
<rscale>  0 0.91121165E+02</rscale>
<asrwt>0</asrwt>
<pdfrwt beam="2">  1        1 0.23716895E-01 0.91121165E+02</pdfrwt>
<pdfrwt beam="1">  1       -1 0.20715432E-02 0.91121165E+02</pdfrwt>
<totfact> 0.11288560E+05</totfact>
</mgrwt>
</event>
<event>
 7    1  0.2911475E-009  0.9077672E+02  0.7818608E-02  0.1300982E+00
          1   -1    0    0  501    0  0.00000000000E+00  0.00000000000E+00  0.15769355888E+02  0.15769356694E+02  0.50400000000E-02 0. -1.
         -1   -1    0    0    0  501 -0.00000000000E+00 -0.00000000000E+00 -0.13063965059E+03  0.13063965069E+03  0.50400000000E-02 0.  1.
         23    2    1    2    0    0  0.00000000000E+00  0.00000000000E+00 -0.11487029470E+03  0.14640900738E+03  0.90776719690E+02 0.  0.
    9000005    2    3    3    0    0  0.25529408860E+02 -0.32898738094E+02 -0.33893449975E+02  0.55352282936E+02  0.13454798030E+02 0.  0.
         22    1    3    3    0    0 -0.25529408860E+02  0.32898738094E+02 -0.80976844729E+02  0.91056724448E+02  0.00000000000E+00 0. -1.
         22    1    4    4    0    0  0.74456197780E+01 -0.18041155380E+02 -0.20846340354E+02  0.28556793369E+02  0.00000000000E+00 0.  1.
         22    1    4    4    0    0  0.18083789082E+02 -0.14857582714E+02 -0.13047109621E+02  0.26795489567E+02  0.00000000000E+00 0.  1.
<mgrwt>
<rscale>  0 0.90776720E+02</rscale>
<asrwt>0</asrwt>
<pdfrwt beam="1">  1        1 0.24260549E-02 0.90776720E+02</pdfrwt>
<pdfrwt beam="2">  1       -1 0.20098407E-01 0.90776720E+02</pdfrwt>
<totfact> 0.78026657E+04</totfact>
</mgrwt>
</event>
<event>
 7    1  0.2911475E-009  0.8921182E+02  0.7818608E-02  0.1304772E+00
         -1   -1    0    0    0  501 -0.00000000000E+00  0.00000000000E+00  0.51270526405E+03  0.51270526407E+03  0.50400000000E-02 0.  1.
          1   -1    0    0  501    0  0.00000000000E+00 -0.00000000000E+00 -0.38807608640E+01  0.38807641367E+01  0.50400000000E-02 0. -1.
         23    2    1    2    0    0  0.00000000000E+00 -0.17763568394E-14  0.50882450319E+03  0.51658602821E+03  0.89211823773E+02 0.  0.
    9000005    2    3    3    0    0  0.13860093128E+02 -0.14404995093E+02  0.48500774848E+03  0.48549191511E+03  0.83831664958E+01 0.  0.
         22    1    3    3    0    0 -0.13860093128E+02  0.14404995093E+02  0.23816754701E+02  0.31094113103E+02  0.00000000000E+00 0. -1.
         22    1    4    4    0    0  0.10451865065E+02 -0.14037456617E+02  0.34644320681E+03  0.34688497693E+03  0.00000000000E+00 0.  1.
         22    1    4    4    0    0  0.34082280627E+01 -0.36753847609E+00  0.13856454167E+03  0.13860693818E+03  0.00000000000E+00 0.  1.
<mgrwt>
<rscale>  0 0.89211824E+02</rscale>
<asrwt>0</asrwt>
<pdfrwt beam="2">  1        1 0.59704081E-03 0.89211824E+02</pdfrwt>
<pdfrwt beam="1">  1       -1 0.78877677E-01 0.89211824E+02</pdfrwt>
<totfact> 0.49032316E+04</totfact>
</mgrwt>
</event>
<event>
 7    1  0.2911475E-009  0.8168465E+02  0.7818608E-02  0.1324337E+00
         -1   -1    0    0    0  501 -0.00000000000E+00  0.00000000000E+00  0.45942628876E+03  0.45942628879E+03  0.50400000000E-02 0.  1.
          1   -1    0    0  501    0  0.00000000000E+00 -0.00000000000E+00 -0.36308211304E+01  0.36308246284E+01  0.50400000000E-02 0. -1.
         23    2    1    2    0    0  0.00000000000E+00 -0.44408920985E-15  0.45579546763E+03  0.46305711342E+03  0.81684649559E+02 0.  0.
    9000005    2    3    3    0    0 -0.10292157473E+02 -0.33494732646E+01  0.45073388236E+03  0.45110859376E+03  0.14858774507E+02 0.  0.
         22    1    3    3    0    0  0.10292157473E+02  0.33494732646E+01  0.50615852741E+01  0.11948519661E+02  0.00000000000E+00 0. -1.
         22    1    4    4    0    0 -0.17176558919E+01 -0.75362981775E+01  0.28134492274E+03  0.28145108222E+03  0.00000000000E+00 0.  1.
         22    1    4    4    0    0 -0.85745015812E+01  0.41868249129E+01  0.16938895962E+03  0.16965751154E+03  0.00000000000E+00 0.  1.
<mgrwt>
<rscale>  0 0.81684650E+02</rscale>
<asrwt>0</asrwt>
<pdfrwt beam="2">  1        1 0.55858767E-03 0.81684650E+02</pdfrwt>
<pdfrwt beam="1">  1       -1 0.70681027E-01 0.81684650E+02</pdfrwt>
<totfact> 0.65906322E+04</totfact>
</mgrwt>
</event>
<event>
 7    1  0.2911475E-009  0.9136177E+02  0.7818608E-02  0.1299587E+00
          1   -1    0    0  501    0  0.00000000000E+00  0.00000000000E+00  0.23513953748E+03  0.23513953753E+03  0.50400000000E-02 0. -1.
         -1   -1    0    0    0  501 -0.00000000000E+00 -0.00000000000E+00 -0.88744880145E+01  0.88744894457E+01  0.50400000000E-02 0.  1.
         23    2    1    2    0    0  0.00000000000E+00  0.35527136788E-14  0.22626504946E+03  0.24401402698E+03  0.91361768553E+02 0.  0.
    9000005    2    3    3    0    0 -0.30408903958E+02  0.27224523119E+02  0.68563114774E+02  0.81115972036E+02  0.14595345590E+02 0.  0.
         22    1    3    3    0    0  0.30408903958E+02 -0.27224523119E+02  0.15770193469E+03  0.16289805494E+03  0.00000000000E+00 0. -1.
         22    1    4    4    0    0 -0.63263957451E+00  0.76338592924E+01  0.13556783510E+02  0.15571204824E+02  0.00000000000E+00 0. -1.
         22    1    4    4    0    0 -0.29776264383E+02  0.19590663826E+02  0.55006331264E+02  0.65544767212E+02  0.00000000000E+00 0. -1.
<mgrwt>
<rscale>  0 0.91361769E+02</rscale>
<asrwt>0</asrwt>
<pdfrwt beam="1">  1        1 0.36175318E-01 0.91361769E+02</pdfrwt>
<pdfrwt beam="2">  1       -1 0.13653058E-02 0.91361769E+02</pdfrwt>
<totfact> 0.12154012E+05</totfact>
</mgrwt>
</event>
<event>
 7    1  0.2911475E-009  0.9204836E+02  0.7818608E-02  0.1297966E+00
         -1   -1    0    0    0  501 -0.00000000000E+00  0.00000000000E+00  0.45955762644E+02  0.45955762921E+02  0.50400000000E-02 0.  1.
          1   -1    0    0  501    0  0.00000000000E+00 -0.00000000000E+00 -0.46092699499E+02  0.46092699775E+02  0.50400000000E-02 0. -1.
         23    2    1    2    0    0 -0.71054273576E-14 -0.17763568394E-14 -0.13693685452E+00  0.92048462695E+02  0.92048360838E+02 0.  0.
    9000005    2    3    3    0    0 -0.41061061804E+02  0.12853170216E+02 -0.15157182727E+02  0.46476293917E+02  0.88933079901E+01 0.  0.
         22    1    3    3    0    0  0.41061061804E+02 -0.12853170216E+02  0.15020245872E+02  0.45572168778E+02  0.00000000000E+00 0.  1.
         22    1    4    4    0    0 -0.40147238358E+02  0.11924160131E+02 -0.12817368891E+02  0.43798074020E+02  0.00000000000E+00 0. -1.
         22    1    4    4    0    0 -0.91382344576E+00  0.92901008585E+00 -0.23398138362E+01  0.26782198972E+01  0.00000000000E+00 0. -1.
<mgrwt>
<rscale>  0 0.92048361E+02</rscale>
<asrwt>0</asrwt>
<pdfrwt beam="2">  1        1 0.70911846E-02 0.92048361E+02</pdfrwt>
<pdfrwt beam="1">  1       -1 0.70701173E-02 0.92048361E+02</pdfrwt>
<totfact> 0.90181689E+04</totfact>
</mgrwt>
</event>
<event>
 7    1  0.2911475E-009  0.9163875E+02  0.7818608E-02  0.1298931E+00
         -1   -1    0    0    0  501 -0.00000000000E+00  0.00000000000E+00  0.43356215570E+02  0.43356215863E+02  0.50400000000E-02 0.  1.
          1   -1    0    0  501    0  0.00000000000E+00 -0.00000000000E+00 -0.48422474677E+02  0.48422474939E+02  0.50400000000E-02 0. -1.
         23    2    1    2    0    0  0.00000000000E+00  0.35527136788E-14 -0.50662591064E+01  0.91778690802E+02  0.91638753287E+02 0.  0.
    9000005    2    3    3    0    0  0.21966119189E+02  0.29918945226E+02 -0.29097731790E+02  0.47561439022E+02  0.61448198441E+01 0.  0.
         22    1    3    3    0    0 -0.21966119189E+02 -0.29918945226E+02  0.24031472683E+02  0.44217251780E+02  0.00000000000E+00 0.  1.
         22    1    4    4    0    0  0.28964040723E+01  0.31901821373E+01 -0.11920025742E+01  0.44707145688E+01  0.00000000000E+00 0.  1.
         22    1    4    4    0    0  0.19069715116E+02  0.26728763089E+02 -0.27905729215E+02  0.43090724453E+02  0.00000000000E+00 0.  1.
<mgrwt>
<rscale>  0 0.91638753E+02</rscale>
<asrwt>0</asrwt>
<pdfrwt beam="2">  1        1 0.74496115E-02 0.91638753E+02</pdfrwt>
<pdfrwt beam="1">  1       -1 0.66701871E-02 0.91638753E+02</pdfrwt>
<totfact> 0.92001314E+04</totfact>
</mgrwt>
</event>
<event>
 7    1  0.2911475E-009  0.9000199E+02  0.7818608E-02  0.1302847E+00
          1   -1    0    0  501    0  0.00000000000E+00  0.00000000000E+00  0.37734993669E+02  0.37734994006E+02  0.50400000000E-02 0. -1.
         -1   -1    0    0    0  501 -0.00000000000E+00 -0.00000000000E+00 -0.53666087059E+02  0.53666087295E+02  0.50400000000E-02 0.  1.
         23    2    1    2    0    0  0.71054273576E-14  0.00000000000E+00 -0.15931093389E+02  0.91401081301E+02  0.90001988458E+02 0.  0.
    9000005    2    3    3    0    0  0.44297340327E+02 -0.64954749231E+01 -0.86775197530E+01  0.46046259230E+02  0.63649890411E+01 0.  0.
         22    1    3    3    0    0 -0.44297340327E+02  0.64954749231E+01 -0.72535736364E+01  0.45354822071E+02  0.00000000000E+00 0. -1.
         22    1    4    4    0    0  0.34648560958E+02 -0.38797686202E+01 -0.42873444930E+01  0.35127719878E+02  0.00000000000E+00 0.  1.
         22    1    4    4    0    0  0.96487793691E+01 -0.26157063029E+01 -0.43901752600E+01  0.10918539352E+02  0.00000000000E+00 0.  1.
<mgrwt>
<rscale>  0 0.90001988E+02</rscale>
<asrwt>0</asrwt>
<pdfrwt beam="1">  1        1 0.58053837E-02 0.90001988E+02</pdfrwt>
<pdfrwt beam="2">  1       -1 0.82563211E-02 0.90001988E+02</pdfrwt>
<totfact> 0.93217728E+04</totfact>
</mgrwt>
</event>
<event>
 7    1  0.2911475E-009  0.1203631E+03  0.7818608E-02  0.1242499E+00
         -1   -1    0    0    0  501 -0.00000000000E+00  0.00000000000E+00  0.10290108350E+03  0.10290108362E+03  0.50400000000E-02 0. -1.
          1   -1    0    0  501    0  0.00000000000E+00 -0.00000000000E+00 -0.35197091795E+02  0.35197092156E+02  0.50400000000E-02 0.  1.
         23    2    1    2    0    0  0.00000000000E+00  0.71054273576E-14  0.67703991705E+02  0.13809817578E+03  0.12036309925E+03 0.  0.
    9000005    2    3    3    0    0  0.17144560110E+02  0.54091884975E+02  0.12334989095E+02  0.58816435059E+02  0.93462888664E+01 0.  0.
         22    1    3    3    0    0 -0.17144560110E+02 -0.54091884975E+02  0.55369002610E+02  0.79281740720E+02  0.00000000000E+00 0. -1.
         22    1    4    4    0    0  0.20364645885E+01  0.19088766734E+02  0.63813635484E+01  0.20229928427E+02  0.00000000000E+00 0. -1.
         22    1    4    4    0    0  0.15108095521E+02  0.35003118241E+02  0.59536255462E+01  0.38586506632E+02  0.00000000000E+00 0. -1.
<mgrwt>
<rscale>  0 0.12036310E+03</rscale>
<asrwt>0</asrwt>
<pdfrwt beam="2">  1        1 0.54149372E-02 0.12036310E+03</pdfrwt>
<pdfrwt beam="1">  1       -1 0.15830936E-01 0.12036310E+03</pdfrwt>
<totfact> 0.39462876E+04</totfact>
</mgrwt>
</event>
<event>
 7    1  0.2911475E-009  0.9137627E+02  0.7818608E-02  0.1299553E+00
         -1   -1    0    0    0  501 -0.00000000000E+00  0.00000000000E+00  0.36160051343E+01  0.36160086467E+01  0.50400000000E-02 0.  1.
          1   -1    0    0  501    0  0.00000000000E+00 -0.00000000000E+00 -0.57726819320E+03  0.57726819322E+03  0.50400000000E-02 0. -1.
         23    2    1    2    0    0 -0.35527136788E-14  0.00000000000E+00 -0.57365218807E+03  0.58088420187E+03  0.91376272129E+02 0.  0.
    9000005    2    3    3    0    0  0.21037574887E+02 -0.50936610313E+01 -0.54152813554E+03  0.54214817613E+03  0.14261779432E+02 0.  0.
         22    1    3    3    0    0 -0.21037574887E+02  0.50936610313E+01 -0.32124052522E+02  0.38736025741E+02  0.00000000000E+00 0.  1.
         22    1    4    4    0    0  0.17598446845E+02 -0.29004526206E+00 -0.27960920607E+03  0.28016262702E+03  0.00000000000E+00 0. -1.
         22    1    4    4    0    0  0.34391280416E+01 -0.48036157692E+01 -0.26191892947E+03  0.26198554911E+03  0.00000000000E+00 0. -1.
<mgrwt>
<rscale>  0 0.91376272E+02</rscale>
<asrwt>0</asrwt>
<pdfrwt beam="2">  1        1 0.88810418E-01 0.91376272E+02</pdfrwt>
<pdfrwt beam="1">  1       -1 0.55630921E-03 0.91376272E+02</pdfrwt>
<totfact> 0.14040683E+05</totfact>
</mgrwt>
</event>
<event>
 6    1  0.2911475E-009  0.1513193E+03  0.7818608E-02  0.1198861E+00
          1   -1    0    0  501    0  0.00000000000E+00  0.00000000000E+00  0.40337605077E+03  0.40337605080E+03  0.50400000000E-02 0. -1.
         -1   -1    0    0    0  501 -0.00000000000E+00 -0.00000000000E+00 -0.14191176473E+02  0.14191177368E+02  0.50400000000E-02 0.  1.
    9000005    2    1    2    0    0  0.52081051237E+02  0.11729473306E+02  0.34193994227E+03  0.34627837880E+03  0.11652255727E+02 0.  0.
         22    1    1    2    0    0 -0.52081051237E+02 -0.11729473306E+02  0.47244932026E+02  0.71288849368E+02  0.00000000000E+00 0.  1.
         22    1    3    3    0    0  0.89118492282E+01  0.57887187344E+01  0.86187166066E+02  0.86839840601E+02  0.00000000000E+00 0. -1.
         22    1    3    3    0    0  0.43169202009E+02  0.59407545716E+01  0.25575277621E+03  0.25943853820E+03  0.00000000000E+00 0. -1.
<mgrwt>
<rscale>  0 0.15131928E+03</rscale>
<asrwt>0</asrwt>
<pdfrwt beam="1">  1        1 0.62057845E-01 0.15131928E+03</pdfrwt>
<pdfrwt beam="2">  1       -1 0.21832583E-02 0.15131928E+03</pdfrwt>
<totfact> 0.33964997E+04</totfact>
</mgrwt>
</event>
<event>
 7    1  0.2911475E-009  0.6377059E+02  0.7818608E-02  0.1382657E+00
          1   -1    0    0  501    0  0.00000000000E+00  0.00000000000E+00  0.10600387898E+03  0.10600387910E+03  0.50400000000E-02 0. -1.
         -1   -1    0    0    0  501 -0.00000000000E+00 -0.00000000000E+00 -0.95908927928E+01  0.95908941171E+01  0.50400000000E-02 0.  1.
         23    2    1    2    0    0  0.00000000000E+00 -0.35527136788E-14  0.96412986190E+02  0.11559477322E+03  0.63770586399E+02 0.  0.
    9000005    2    3    3    0    0 -0.64136887385E+01  0.23254842690E+02  0.17870644275E+02  0.33431383652E+02  0.14709669416E+02 0.  0.
         22    1    3    3    0    0  0.64136887385E+01 -0.23254842690E+02  0.78542341915E+02  0.82163389568E+02  0.00000000000E+00 0. -1.
         22    1    4    4    0    0 -0.81870040054E+01  0.16227697234E+02  0.18770289312E+02  0.26128317071E+02  0.00000000000E+00 0. -1.
         22    1    4    4    0    0  0.17733152669E+01  0.70271454557E+01 -0.89964503721E+00  0.73030665809E+01  0.00000000000E+00 0. -1.
<mgrwt>
<rscale>  0 0.63770586E+02</rscale>
<asrwt>0</asrwt>
<pdfrwt beam="1">  1        1 0.16308289E-01 0.63770586E+02</pdfrwt>
<pdfrwt beam="2">  1       -1 0.14755221E-02 0.63770586E+02</pdfrwt>
<totfact> 0.27295068E+05</totfact>
</mgrwt>
</event>
<event>
 6    1  0.2911475E-009  0.2231268E+03  0.7818608E-02  0.1131573E+00
         -1   -1    0    0    0  501 -0.00000000000E+00  0.00000000000E+00  0.33073646542E+03  0.33073646545E+03  0.50400000000E-02 0.  1.
          1   -1    0    0  501    0  0.00000000000E+00 -0.00000000000E+00 -0.37632353241E+02  0.37632353579E+02  0.50400000000E-02 0. -1.
    9000005    2    1    2    0    0  0.70933567909E+02  0.16165657513E+02  0.85107881170E+01  0.74623589902E+02  0.14259983043E+02 0.  0.
         22    1    1    2    0    0 -0.70933567909E+02 -0.16165657513E+02  0.28459332406E+03  0.29374522913E+03  0.00000000000E+00 0.  1.
         22    1    3    3    0    0  0.59149855212E+02  0.78488933888E+01  0.78838009076E+01  0.60186915652E+02  0.00000000000E+00 0. -1.
         22    1    3    3    0    0  0.11783712697E+02  0.83167641245E+01  0.62698720942E+00  0.14436674250E+02  0.00000000000E+00 0. -1.
<mgrwt>
<rscale>  0 0.22312679E+03</rscale>
<asrwt>0</asrwt>
<pdfrwt beam="2">  1        1 0.57895927E-02 0.22312679E+03</pdfrwt>
<pdfrwt beam="1">  1       -1 0.50882535E-01 0.22312679E+03</pdfrwt>
<totfact> 0.53122951E+03</totfact>
</mgrwt>
</event>
<event>
 7    1  0.2911475E-009  0.7392530E+02  0.7818608E-02  0.1347232E+00
         -1   -1    0    0    0  501 -0.00000000000E+00  0.00000000000E+00  0.98661676955E+02  0.98661677084E+02  0.50400000000E-02 0.  1.
          1   -1    0    0  501    0  0.00000000000E+00 -0.00000000000E+00 -0.13847700698E+02  0.13847701615E+02  0.50400000000E-02 0. -1.
         23    2    1    2    0    0  0.00000000000E+00  0.00000000000E+00  0.84813976258E+02  0.11250937870E+03  0.73925298286E+02 0.  0.
    9000005    2    3    3    0    0  0.29921017809E+02 -0.16293480863E+02  0.22350001665E+02  0.41358180907E+02  0.70874345254E+01 0.  0.
         22    1    3    3    0    0 -0.29921017809E+02  0.16293480863E+02  0.62463974593E+02  0.71151197792E+02  0.00000000000E+00 0.  1.
         22    1    4    4    0    0  0.11862059289E+02 -0.99400936538E+01  0.12085634167E+02  0.19636101081E+02  0.00000000000E+00 0. -1.
         22    1    4    4    0    0  0.18058958520E+02 -0.63533872090E+01  0.10264367498E+02  0.21722079826E+02  0.00000000000E+00 0. -1.
<mgrwt>
<rscale>  0 0.73925298E+02</rscale>
<asrwt>0</asrwt>
<pdfrwt beam="2">  1        1 0.21304156E-02 0.73925298E+02</pdfrwt>
<pdfrwt beam="1">  1       -1 0.15178720E-01 0.73925298E+02</pdfrwt>
<totfact> 0.13962070E+05</totfact>
</mgrwt>
</event>
<event>
 7    1  0.2911475E-009  0.8814174E+02  0.7818608E-02  0.1307415E+00
          1   -1    0    0  501    0  0.00000000000E+00  0.00000000000E+00  0.12384287566E+04  0.12384287567E+04  0.50400000000E-02 0. -1.
         -1   -1    0    0    0  501 -0.00000000000E+00 -0.00000000000E+00 -0.15683070019E+01  0.15683151003E+01  0.50400000000E-02 0.  1.
         23    2    1    2    0    0  0.00000000000E+00  0.00000000000E+00  0.12368604496E+04  0.12399970718E+04  0.88141738530E+02 0.  0.
    9000005    2    3    3    0    0 -0.12478498209E+02 -0.27782211408E+02  0.10655149923E+04  0.10659659540E+04  0.58010452389E+01 0.  0.
         22    1    3    3    0    0  0.12478498209E+02  0.27782211408E+02  0.17134545737E+03  0.17403111777E+03  0.00000000000E+00 0.  1.
         22    1    4    4    0    0  0.44353915664E+00 -0.21426096552E+01  0.55955851534E+02  0.55998614483E+02  0.00000000000E+00 0.  1.
         22    1    4    4    0    0 -0.12922037365E+02 -0.25639601753E+02  0.10095591407E+04  0.10099673395E+04  0.00000000000E+00 0.  1.
<mgrwt>
<rscale>  0 0.88141739E+02</rscale>
<asrwt>0</asrwt>
<pdfrwt beam="1">  1        1 0.19052659E+00 0.88141739E+02</pdfrwt>
<pdfrwt beam="2">  1       -1 0.24127977E-03 0.88141739E+02</pdfrwt>
<totfact> 0.13707230E+05</totfact>
</mgrwt>
</event>
<event>
 7    1  0.2911475E-009  0.9594473E+02  0.7818608E-02  0.1289062E+00
          1   -1    0    0  501    0  0.00000000000E+00  0.00000000000E+00  0.59113517048E+03  0.59113517050E+03  0.50400000000E-02 0. -1.
         -1   -1    0    0    0  501 -0.00000000000E+00 -0.00000000000E+00 -0.38930973991E+01  0.38931006615E+01  0.50400000000E-02 0.  1.
         23    2    1    2    0    0 -0.11102230246E-15  0.00000000000E+00  0.58724207308E+03  0.59502827116E+03  0.95944729333E+02 0.  0.
    9000005    2    3    3    0    0 -0.55843655511E+00  0.34179657790E+02  0.50214715049E+03  0.50332381812E+03  0.38136961963E+01 0.  0.
         22    1    3    3    0    0  0.55843655511E+00 -0.34179657790E+02  0.85094922588E+02  0.91704453045E+02  0.00000000000E+00 0.  1.
         22    1    4    4    0    0  0.73397619381E+00  0.30260725448E+02  0.44145925190E+03  0.44249578677E+03  0.00000000000E+00 0.  1.
         22    1    4    4    0    0 -0.12924127489E+01  0.39189323425E+01  0.60687898595E+02  0.60828031344E+02  0.00000000000E+00 0.  1.
<mgrwt>
<rscale>  0 0.95944729E+02</rscale>
<asrwt>0</asrwt>
<pdfrwt beam="1">  1        1 0.90943891E-01 0.95944729E+02</pdfrwt>
<pdfrwt beam="2">  1       -1 0.59893819E-03 0.95944729E+02</pdfrwt>
<totfact> 0.12355664E+05</totfact>
</mgrwt>
</event>
<event>
 7    1  0.2911475E-009  0.9049546E+02  0.7818608E-02  0.1301656E+00
         -1   -1    0    0    0  501 -0.00000000000E+00  0.00000000000E+00  0.13767974986E+02  0.13767975908E+02  0.50400000000E-02 0.  1.
          1   -1    0    0  501    0  0.00000000000E+00 -0.00000000000E+00 -0.14870430185E+03  0.14870430193E+03  0.50400000000E-02 0. -1.
         23    2    1    2    0    0  0.00000000000E+00  0.00000000000E+00 -0.13493632686E+03  0.16247227784E+03  0.90495462647E+02 0.  0.
    9000005    2    3    3    0    0 -0.95072010613E+01  0.32277887355E+01 -0.14641219754E+03  0.14722429109E+03  0.11732638487E+02 0.  0.
         22    1    3    3    0    0  0.95072010613E+01 -0.32277887355E+01  0.11475870679E+02  0.15247986752E+02  0.00000000000E+00 0.  1.
         22    1    4    4    0    0 -0.19052451811E+01  0.67406731107E+01 -0.73357750883E+02  0.73691425877E+02  0.00000000000E+00 0.  1.
         22    1    4    4    0    0 -0.76019558802E+01 -0.35128843752E+01 -0.73054446655E+02  0.73532865209E+02  0.00000000000E+00 0.  1.
<mgrwt>
<rscale>  0 0.90495463E+02</rscale>
<asrwt>0</asrwt>
<pdfrwt beam="2">  1        1 0.22877584E-01 0.90495463E+02</pdfrwt>
<pdfrwt beam="1">  1       -1 0.21181502E-02 0.90495463E+02</pdfrwt>
<totfact> 0.11424107E+05</totfact>
</mgrwt>
</event>
<event>
 7    1  0.2911475E-009  0.9165798E+02  0.7818608E-02  0.1298886E+00
         -1   -1    0    0    0  501 -0.00000000000E+00  0.00000000000E+00  0.57438205848E+03  0.57438205850E+03  0.50400000000E-02 0.  1.
          1   -1    0    0  501    0  0.00000000000E+00 -0.00000000000E+00 -0.36566173423E+01  0.36566208157E+01  0.50400000000E-02 0. -1.
         23    2    1    2    0    0  0.00000000000E+00  0.00000000000E+00  0.57072544114E+03  0.57803867932E+03  0.91657981789E+02 0.  0.
    9000005    2    3    3    0    0 -0.68503177196E+01 -0.19759475775E+02  0.54157910789E+03  0.54216567446E+03  0.14082781075E+02 0.  0.
         22    1    3    3    0    0  0.68503177196E+01  0.19759475775E+02  0.29146333245E+02  0.35873004856E+02  0.00000000000E+00 0. -1.
         22    1    4    4    0    0  0.32808439287E+01 -0.20969235377E+01  0.15665928195E+03  0.15670766301E+03  0.00000000000E+00 0. -1.
         22    1    4    4    0    0 -0.10131161648E+02 -0.17662552238E+02  0.38491982595E+03  0.38545801146E+03  0.00000000000E+00 0. -1.
<mgrwt>
<rscale>  0 0.91657982E+02</rscale>
<asrwt>0</asrwt>
<pdfrwt beam="2">  1        1 0.56255690E-03 0.91657982E+02</pdfrwt>
<pdfrwt beam="1">  1       -1 0.88366452E-01 0.91657982E+02</pdfrwt>
<totfact> 0.42348120E+04</totfact>
</mgrwt>
</event>
<event>
 7    1  0.2911475E-009  0.9086799E+02  0.7818608E-02  0.1300763E+00
          1   -1    0    0  501    0  0.00000000000E+00  0.00000000000E+00  0.52156663694E+01  0.52156688046E+01  0.50400000000E-02 0. -1.
         -1   -1    0    0    0  501 -0.00000000000E+00 -0.00000000000E+00 -0.39577826971E+03  0.39577826974E+03  0.50400000000E-02 0.  1.
         23    2    1    2    0    0  0.00000000000E+00  0.00000000000E+00 -0.39056260334E+03  0.40099393854E+03  0.90867990090E+02 0.  0.
    9000005    2    3    3    0    0 -0.93695585127E+01  0.42282671047E+02 -0.25482977657E+03  0.25851933323E+03  0.42915880849E+01 0.  0.
         22    1    3    3    0    0  0.93695585127E+01 -0.42282671047E+02 -0.13573282677E+03  0.14247460532E+03  0.00000000000E+00 0. -1.
         22    1    4    4    0    0 -0.62697795543E+01  0.29731399495E+02 -0.18980938886E+03  0.19222609176E+03  0.00000000000E+00 0.  1.
         22    1    4    4    0    0 -0.30997789584E+01  0.12551271552E+02 -0.65020387706E+02  0.66293241470E+02  0.00000000000E+00 0.  1.
<mgrwt>
<rscale>  0 0.90867990E+02</rscale>
<asrwt>0</asrwt>
<pdfrwt beam="1">  1        1 0.80241071E-03 0.90867990E+02</pdfrwt>
<pdfrwt beam="2">  1       -1 0.60888941E-01 0.90867990E+02</pdfrwt>
<totfact> 0.54053190E+04</totfact>
</mgrwt>
</event>
<event>
 7    1  0.2911475E-009  0.9168009E+02  0.7818608E-02  0.1298833E+00
         -1   -1    0    0    0  501 -0.00000000000E+00  0.00000000000E+00  0.19909389027E+01  0.19909452820E+01  0.50400000000E-02 0.  1.
          1   -1    0    0  501    0  0.00000000000E+00 -0.00000000000E+00 -0.10554348187E+04  0.10554348187E+04  0.50400000000E-02 0. -1.
         23    2    1    2    0    0  0.00000000000E+00  0.00000000000E+00 -0.10534438798E+04  0.10574257640E+04  0.91680087676E+02 0.  0.
    9000005    2    3    3    0    0 -0.85725816350E+01 -0.16309469089E+02 -0.10106301216E+04  0.10108156167E+04  0.59565416083E+01 0.  0.
         22    1    3    3    0    0  0.85725816350E+01  0.16309469089E+02 -0.42813758221E+02  0.46610147295E+02  0.00000000000E+00 0.  1.
         22    1    4    4    0    0  0.47430856850E+00 -0.42266433326E+01 -0.20535206267E+03  0.20539610299E+03  0.00000000000E+00 0.  1.
         22    1    4    4    0    0 -0.90468902035E+01 -0.12082825756E+02 -0.80527805894E+03  0.80541951374E+03  0.00000000000E+00 0.  1.
<mgrwt>
<rscale>  0 0.91680088E+02</rscale>
<asrwt>0</asrwt>
<pdfrwt beam="2">  1        1 0.16237414E+00 0.91680088E+02</pdfrwt>
<pdfrwt beam="1">  1       -1 0.30629963E-03 0.91680088E+02</pdfrwt>
<totfact> 0.13194983E+05</totfact>
</mgrwt>
</event>
<event>
 7    1  0.2911475E-009  0.9194413E+02  0.7818608E-02  0.1298211E+00
         -1   -1    0    0    0  501 -0.00000000000E+00  0.00000000000E+00  0.28271715541E+02  0.28271715990E+02  0.50400000000E-02 0.  1.
          1   -1    0    0  501    0  0.00000000000E+00 -0.00000000000E+00 -0.74754241447E+02  0.74754241617E+02  0.50400000000E-02 0. -1.
         23    2    1    2    0    0  0.00000000000E+00  0.00000000000E+00 -0.46482525907E+02  0.10302595761E+03  0.91944128286E+02 0.  0.
    9000005    2    3    3    0    0 -0.37606641632E+02  0.22707365314E+02 -0.15379453856E+02  0.49199523346E+02  0.15943072545E+02 0.  0.
         22    1    3    3    0    0  0.37606641632E+02 -0.22707365314E+02 -0.31103072050E+02  0.53826434262E+02  0.00000000000E+00 0.  1.
         22    1    4    4    0    0 -0.20490000151E+02  0.13013175411E+02 -0.70459540955E-01  0.24273191076E+02  0.00000000000E+00 0.  1.
         22    1    4    4    0    0 -0.17116641481E+02  0.96941899035E+01 -0.15308994315E+02  0.24926332269E+02  0.00000000000E+00 0.  1.
<mgrwt>
<rscale>  0 0.91944128E+02</rscale>
<asrwt>0</asrwt>
<pdfrwt beam="2">  1        1 0.11500652E-01 0.91944128E+02</pdfrwt>
<pdfrwt beam="1">  1       -1 0.43494948E-02 0.91944128E+02</pdfrwt>
<totfact> 0.97402580E+04</totfact>
</mgrwt>
</event>
<event>
 7    1  0.2911475E-009  0.9118297E+02  0.7818608E-02  0.1300012E+00
          1   -1    0    0  501    0  0.00000000000E+00  0.00000000000E+00  0.23553716932E+02  0.23553717471E+02  0.50400000000E-02 0. -1.
         -1   -1    0    0    0  501 -0.00000000000E+00 -0.00000000000E+00 -0.88248638903E+02  0.88248639047E+02  0.50400000000E-02 0.  1.
         23    2    1    2    0    0  0.00000000000E+00 -0.17763568394E-14 -0.64694921971E+02  0.11180235652E+03  0.91182969869E+02 0.  0.
    9000005    2    3    3    0    0 -0.12077158975E+02 -0.15569486899E+02  0.15694389012E+02  0.29033352588E+02  0.14434508124E+02 0.  0.
         22    1    3    3    0    0  0.12077158975E+02  0.15569486899E+02 -0.80389310984E+02  0.82769003931E+02  0.00000000000E+00 0.  1.
         22    1    4    4    0    0 -0.12747865497E+02 -0.55019031812E+01  0.62993661980E+01  0.15246672681E+02  0.00000000000E+00 0. -1.
         22    1    4    4    0    0  0.67070652207E+00 -0.10067583718E+02  0.93950228144E+01  0.13786679907E+02  0.00000000000E+00 0. -1.
<mgrwt>
<rscale>  0 0.91182970E+02</rscale>
<asrwt>0</asrwt>
<pdfrwt beam="1">  1        1 0.36236489E-02 0.91182970E+02</pdfrwt>
<pdfrwt beam="2">  1       -1 0.13576714E-01 0.91182970E+02</pdfrwt>
<totfact> 0.83216124E+04</totfact>
</mgrwt>
</event>
<event>
 7    1  0.2911475E-009  0.9157158E+02  0.7818608E-02  0.1299090E+00
         -1   -1    0    0    0  501 -0.00000000000E+00  0.00000000000E+00  0.57085141767E+01  0.57085164016E+01  0.50400000000E-02 0.  1.
          1   -1    0    0  501    0  0.00000000000E+00 -0.00000000000E+00 -0.36723007960E+03  0.36723007963E+03  0.50400000000E-02 0. -1.
         23    2    1    2    0    0 -0.33306690739E-15  0.00000000000E+00 -0.36152156542E+03  0.37293859603E+03  0.91571579365E+02 0.  0.
    9000005    2    3    3    0    0 -0.79984920816E+00 -0.32112905411E+02 -0.31200638237E+03  0.31391629681E+03  0.12789851969E+02 0.  0.
         22    1    3    3    0    0  0.79984920816E+00  0.32112905411E+02 -0.49515183055E+02  0.59022299223E+02  0.00000000000E+00 0.  1.
         22    1    4    4    0    0  0.34343384473E+01 -0.29265766805E+02 -0.26376827060E+03  0.26540908116E+03  0.00000000000E+00 0. -1.
         22    1    4    4    0    0 -0.42341876554E+01 -0.28471386059E+01 -0.48238111768E+02  0.48507215652E+02  0.00000000000E+00 0. -1.
<mgrwt>
<rscale>  0 0.91571579E+02</rscale>
<asrwt>0</asrwt>
<pdfrwt beam="2">  1        1 0.56496917E-01 0.91571579E+02</pdfrwt>
<pdfrwt beam="1">  1       -1 0.87823342E-03 0.91571579E+02</pdfrwt>
<totfact> 0.13143346E+05</totfact>
</mgrwt>
</event>
<event>
 7    1  0.2911475E-009  0.8727088E+02  0.7818608E-02  0.1309599E+00
          1   -1    0    0  501    0  0.00000000000E+00  0.00000000000E+00  0.16385254389E+03  0.16385254396E+03  0.50400000000E-02 0. -1.
         -1   -1    0    0    0  501 -0.00000000000E+00 -0.00000000000E+00 -0.11620519339E+02  0.11620520432E+02  0.50400000000E-02 0.  1.
         23    2    1    2    0    0  0.00000000000E+00  0.00000000000E+00  0.15223202455E+03  0.17547306440E+03  0.87270883064E+02 0.  0.
    9000005    2    3    3    0    0 -0.26912586677E+02  0.19228457508E+02  0.24721470516E+02  0.43742421457E+02  0.14430087690E+02 0.  0.
         22    1    3    3    0    0  0.26912586677E+02 -0.19228457508E+02  0.12751055403E+03  0.13173064294E+03  0.00000000000E+00 0. -1.
         22    1    4    4    0    0 -0.12398148956E+02  0.72020697079E+01  0.24181290202E+01  0.14540675829E+02  0.00000000000E+00 0.  1.
         22    1    4    4    0    0 -0.14514437721E+02  0.12026387800E+02  0.22303341496E+02  0.29201745628E+02  0.00000000000E+00 0.  1.
<mgrwt>
<rscale>  0 0.87270883E+02</rscale>
<asrwt>0</asrwt>
<pdfrwt beam="1">  1        1 0.25208085E-01 0.87270883E+02</pdfrwt>
<pdfrwt beam="2">  1       -1 0.17877722E-02 0.87270883E+02</pdfrwt>
<totfact> 0.12819699E+05</totfact>
</mgrwt>
</event>
<event>
 7    1  0.2911475E-009  0.9421283E+02  0.7818608E-02  0.1292959E+00
         -1   -1    0    0    0  501 -0.00000000000E+00  0.00000000000E+00  0.21728941268E+02  0.21728941853E+02  0.50400000000E-02 0.  1.
          1   -1    0    0  501    0  0.00000000000E+00 -0.00000000000E+00 -0.10212251306E+03  0.10212251318E+03  0.50400000000E-02 0. -1.
         23    2    1    2    0    0  0.17763568394E-14 -0.71054273576E-14 -0.80393571787E+02  0.12385145503E+03  0.94212825714E+02 0.  0.
    9000005    2    3    3    0    0 -0.12405486212E+02  0.42371154086E+02 -0.60978254781E+02  0.75621118924E+02  0.71410982651E+01 0.  0.
         22    1    3    3    0    0  0.12405486212E+02 -0.42371154086E+02 -0.19415317006E+02  0.48230336109E+02  0.00000000000E+00 0.  1.
         22    1    4    4    0    0 -0.78020010281E+01  0.36096427527E+02 -0.51001593364E+02  0.62968133417E+02  0.00000000000E+00 0.  1.
         22    1    4    4    0    0 -0.46034851837E+01  0.62747265587E+01 -0.99766614163E+01  0.12652985507E+02  0.00000000000E+00 0.  1.
<mgrwt>
<rscale>  0 0.94212826E+02</rscale>
<asrwt>0</asrwt>
<pdfrwt beam="2">  1        1 0.15711156E-01 0.94212826E+02</pdfrwt>
<pdfrwt beam="1">  1       -1 0.33429142E-02 0.94212826E+02</pdfrwt>
<totfact> 0.95843863E+04</totfact>
</mgrwt>
</event>
<event>
 7    1  0.2911475E-009  0.9579071E+02  0.7818608E-02  0.1289405E+00
         -1   -1    0    0    0  501 -0.00000000000E+00  0.00000000000E+00  0.26969211886E+01  0.26969258980E+01  0.50400000000E-02 0.  1.
          1   -1    0    0  501    0  0.00000000000E+00 -0.00000000000E+00 -0.85058578812E+03  0.85058578813E+03  0.50400000000E-02 0. -1.
         23    2    1    2    0    0  0.00000000000E+00  0.00000000000E+00 -0.84788886693E+03  0.85328271403E+03  0.95790706236E+02 0.  0.
    9000005    2    3    3    0    0  0.34763664547E+02  0.89535613996E+01 -0.70487638885E+03  0.70583357866E+03  0.78510238200E+01 0.  0.
         22    1    3    3    0    0 -0.34763664547E+02 -0.89535613996E+01 -0.14301247808E+03  0.14744913537E+03  0.00000000000E+00 0.  1.
         22    1    4    4    0    0  0.84836632218E+01  0.11826439669E+01 -0.23751441397E+03  0.23766882007E+03  0.00000000000E+00 0. -1.
         22    1    4    4    0    0  0.26280001326E+02  0.77709174327E+01 -0.46736197487E+03  0.46816475859E+03  0.00000000000E+00 0. -1.
<mgrwt>
<rscale>  0 0.95790706E+02</rscale>
<asrwt>0</asrwt>
<pdfrwt beam="2">  1        1 0.13085914E+00 0.95790706E+02</pdfrwt>
<pdfrwt beam="1">  1       -1 0.41491199E-03 0.95790706E+02</pdfrwt>
<totfact> 0.12315502E+05</totfact>
</mgrwt>
</event>
<event>
 7    1  0.2911475E-009  0.9287693E+02  0.7818608E-02  0.1296031E+00
          1   -1    0    0  501    0  0.00000000000E+00  0.00000000000E+00  0.31197575059E+02  0.31197575466E+02  0.50400000000E-02 0. -1.
         -1   -1    0    0    0  501 -0.00000000000E+00 -0.00000000000E+00 -0.69124962182E+02  0.69124962365E+02  0.50400000000E-02 0.  1.
         23    2    1    2    0    0  0.00000000000E+00 -0.71054273576E-14 -0.37927387123E+02  0.10032253783E+03  0.92876934181E+02 0.  0.
    9000005    2    3    3    0    0  0.15996834671E+02  0.40610216256E+02 -0.60922221313E+01  0.46298782742E+02  0.14190621165E+02 0.  0.
         22    1    3    3    0    0 -0.15996834671E+02 -0.40610216256E+02 -0.31835164992E+02  0.54023755089E+02  0.00000000000E+00 0.  1.
         22    1    4    4    0    0 -0.28338615515E+00  0.61515878512E+00 -0.29236672319E+01  0.30010928220E+01  0.00000000000E+00 0. -1.
         22    1    4    4    0    0  0.16280220826E+02  0.39995057471E+02 -0.31685548994E+01  0.43297689920E+02  0.00000000000E+00 0. -1.
<mgrwt>
<rscale>  0 0.92876934E+02</rscale>
<asrwt>0</asrwt>
<pdfrwt beam="1">  1        1 0.47996270E-02 0.92876934E+02</pdfrwt>
<pdfrwt beam="2">  1       -1 0.10634610E-01 0.92876934E+02</pdfrwt>
<totfact> 0.82723035E+04</totfact>
</mgrwt>
</event>
<event>
 6    1  0.2911475E-009  0.1287672E+03  0.7818608E-02  0.1229297E+00
         -1   -1    0    0    0  501 -0.00000000000E+00  0.00000000000E+00  0.42925474040E+03  0.42925474043E+03  0.50400000000E-02 0.  1.
          1   -1    0    0  501    0  0.00000000000E+00 -0.00000000000E+00 -0.96568485692E+01  0.96568498844E+01  0.50400000000E-02 0. -1.
    9000005    2    1    2    0    0 -0.23529441525E+02  0.51786781878E+02  0.11172657882E+03  0.12582973078E+03  0.10713885244E+02 0.  0.
         22    1    1    2    0    0  0.23529441525E+02 -0.51786781878E+02  0.30787131302E+03  0.31308185954E+03  0.00000000000E+00 0.  1.
         22    1    3    3    0    0 -0.48739480780E+01  0.89136909884E+01  0.30002464643E+02  0.31675813195E+02  0.00000000000E+00 0. -1.
         22    1    3    3    0    0 -0.18655493447E+02  0.42873090889E+02  0.81724114176E+02  0.94153917582E+02  0.00000000000E+00 0. -1.
<mgrwt>
<rscale>  0 0.12876721E+03</rscale>
<asrwt>0</asrwt>
<pdfrwt beam="2">  1        1 0.14856694E-02 0.12876721E+03</pdfrwt>
<pdfrwt beam="1">  1       -1 0.66039177E-01 0.12876721E+03</pdfrwt>
<totfact> 0.20557204E+04</totfact>
</mgrwt>
</event>
<event>
 7    1  0.2911475E-009  0.9314240E+02  0.7818608E-02  0.1295416E+00
         -1   -1    0    0    0  501 -0.00000000000E+00  0.00000000000E+00  0.23249846595E+02  0.23249847141E+02  0.50400000000E-02 0.  1.
          1   -1    0    0  501    0  0.00000000000E+00 -0.00000000000E+00 -0.93285630080E+02  0.93285630216E+02  0.50400000000E-02 0. -1.
         23    2    1    2    0    0  0.00000000000E+00  0.00000000000E+00 -0.70035783485E+02  0.11653547736E+03  0.93142399124E+02 0.  0.
    9000005    2    3    3    0    0 -0.27210155912E+01 -0.12082159199E+02 -0.90986618890E+02  0.92197852146E+02  0.82762688790E+01 0.  0.
         22    1    3    3    0    0  0.27210155912E+01  0.12082159199E+02  0.20950835405E+02  0.24337625211E+02  0.00000000000E+00 0.  1.
         22    1    4    4    0    0 -0.17514546113E+01 -0.78696086507E+00 -0.36102829301E+01  0.40891372555E+01  0.00000000000E+00 0.  1.
         22    1    4    4    0    0 -0.96956097984E+00 -0.11295198334E+02 -0.87376335960E+02  0.88108714891E+02  0.00000000000E+00 0.  1.
<mgrwt>
<rscale>  0 0.93142399E+02</rscale>
<asrwt>0</asrwt>
<pdfrwt beam="2">  1        1 0.14351635E-01 0.93142399E+02</pdfrwt>
<pdfrwt beam="1">  1       -1 0.35768996E-02 0.93142399E+02</pdfrwt>
<totfact> 0.97404147E+04</totfact>
</mgrwt>
</event>
<event>
 7    1  0.2911475E-009  0.8952076E+02  0.7818608E-02  0.1304016E+00
         -1   -1    0    0    0  501 -0.00000000000E+00  0.00000000000E+00  0.12906920769E+02  0.12906921753E+02  0.50400000000E-02 0.  1.
          1   -1    0    0  501    0  0.00000000000E+00 -0.00000000000E+00 -0.15522615283E+03  0.15522615291E+03  0.50400000000E-02 0. -1.
         23    2    1    2    0    0 -0.35527136788E-14  0.35527136788E-14 -0.14231923206E+03  0.16813307466E+03  0.89520762854E+02 0.  0.
    9000005    2    3    3    0    0 -0.21671279049E+02  0.29008635936E+02 -0.11941631816E+03  0.12528813611E+03  0.11212257236E+02 0.  0.
         22    1    3    3    0    0  0.21671279049E+02 -0.29008635936E+02 -0.22902913893E+02  0.42844938549E+02  0.00000000000E+00 0.  1.
         22    1    4    4    0    0 -0.14821643945E+02  0.26912593995E+02 -0.95261043535E+02  0.10009313293E+03  0.00000000000E+00 0.  1.
         22    1    4    4    0    0 -0.68496351043E+01  0.20960419405E+01 -0.24155274628E+02  0.25195003180E+02  0.00000000000E+00 0.  1.
<mgrwt>
<rscale>  0 0.89520763E+02</rscale>
<asrwt>0</asrwt>
<pdfrwt beam="2">  1        1 0.23880945E-01 0.89520763E+02</pdfrwt>
<pdfrwt beam="1">  1       -1 0.19856803E-02 0.89520763E+02</pdfrwt>
<totfact> 0.11854907E+05</totfact>
</mgrwt>
</event>
<event>
 7    1  0.2911475E-009  0.9046948E+02  0.7818608E-02  0.1301719E+00
          1   -1    0    0  501    0  0.00000000000E+00  0.00000000000E+00  0.14785634727E+01  0.14785720626E+01  0.50400000000E-02 0. -1.
         -1   -1    0    0    0  501 -0.00000000000E+00 -0.00000000000E+00 -0.13838942940E+04  0.13838942941E+04  0.50400000000E-02 0.  1.
         23    2    1    2    0    0  0.00000000000E+00  0.00000000000E+00 -0.13824157306E+04  0.13853728661E+04  0.90469475730E+02 0.  0.
    9000005    2    3    3    0    0 -0.12478058366E+02 -0.15719439468E+02 -0.13117152818E+04  0.13118789469E+04  0.51563423125E+01 0.  0.
         22    1    3    3    0    0  0.12478058366E+02  0.15719439468E+02 -0.70700448727E+02  0.73493919258E+02  0.00000000000E+00 0. -1.
         22    1    4    4    0    0 -0.43333131653E+01 -0.33142902182E+01 -0.48295758599E+03  0.48298839737E+03  0.00000000000E+00 0. -1.
         22    1    4    4    0    0 -0.81447452004E+01 -0.12405149249E+02 -0.82875769585E+03  0.82889054949E+03  0.00000000000E+00 0. -1.
<mgrwt>
<rscale>  0 0.90469476E+02</rscale>
<asrwt>0</asrwt>
<pdfrwt beam="1">  1        1 0.22747307E-03 0.90469476E+02</pdfrwt>
<pdfrwt beam="2">  1       -1 0.21290578E+00 0.90469476E+02</pdfrwt>
<totfact> 0.16320961E+04</totfact>
</mgrwt>
</event>
<event>
 7    1  0.2911475E-009  0.9112595E+02  0.7818608E-02  0.1300148E+00
         -1   -1    0    0    0  501 -0.00000000000E+00  0.00000000000E+00  0.15652554294E+02  0.15652555105E+02  0.50400000000E-02 0.  1.
          1   -1    0    0  501    0  0.00000000000E+00 -0.00000000000E+00 -0.13262912683E+03  0.13262912692E+03  0.50400000000E-02 0. -1.
         23    2    1    2    0    0  0.00000000000E+00  0.00000000000E+00 -0.11697657253E+03  0.14828168203E+03  0.91125949670E+02 0.  0.
    9000005    2    3    3    0    0  0.31817155069E+02 -0.31218827199E+02 -0.72964916855E+02  0.85640063563E+02  0.48368240713E+01 0.  0.
         22    1    3    3    0    0 -0.31817155069E+02  0.31218827199E+02 -0.44011655679E+02  0.62641618466E+02  0.00000000000E+00 0.  1.
         22    1    4    4    0    0  0.17683990973E+02 -0.15155707265E+02 -0.41531135697E+02  0.47615693125E+02  0.00000000000E+00 0. -1.
         22    1    4    4    0    0  0.14133164096E+02 -0.16063119934E+02 -0.31433781157E+02  0.38024370438E+02  0.00000000000E+00 0. -1.
<mgrwt>
<rscale>  0 0.91125950E+02</rscale>
<asrwt>0</asrwt>
<pdfrwt beam="2">  1        1 0.20404480E-01 0.91125950E+02</pdfrwt>
<pdfrwt beam="1">  1       -1 0.24080854E-02 0.91125950E+02</pdfrwt>
<totfact> 0.10982382E+05</totfact>
</mgrwt>
</event>
<event>
 7    1  0.2911475E-009  0.9142721E+02  0.7818608E-02  0.1299432E+00
         -1   -1    0    0    0  501 -0.00000000000E+00  0.00000000000E+00  0.24302611335E+02  0.24302611857E+02  0.50400000000E-02 0.  1.
          1   -1    0    0  501    0  0.00000000000E+00 -0.00000000000E+00 -0.85988027688E+02  0.85988027836E+02  0.50400000000E-02 0. -1.
         23    2    1    2    0    0  0.88817841970E-15  0.35527136788E-14 -0.61685416353E+02  0.11029063969E+03  0.91427209370E+02 0.  0.
    9000005    2    3    3    0    0  0.77602571585E+01  0.22660619388E+02 -0.77073502063E+02  0.81821034075E+02  0.13439926885E+02 0.  0.
         22    1    3    3    0    0 -0.77602571585E+01 -0.22660619388E+02  0.15388085710E+02  0.28469605618E+02  0.00000000000E+00 0.  1.
         22    1    4    4    0    0  0.11939998496E+01 -0.78160616253E+00 -0.56855684389E+00  0.15361642878E+01  0.00000000000E+00 0. -1.
         22    1    4    4    0    0  0.65662573089E+01  0.23442225550E+02 -0.76504945219E+02  0.80284869788E+02  0.00000000000E+00 0. -1.
<mgrwt>
<rscale>  0 0.91427209E+02</rscale>
<asrwt>0</asrwt>
<pdfrwt beam="2">  1        1 0.13228927E-01 0.91427209E+02</pdfrwt>
<pdfrwt beam="1">  1       -1 0.37388634E-02 0.91427209E+02</pdfrwt>
<totfact> 0.10114460E+05</totfact>
</mgrwt>
</event>
<event>
 7    1  0.2911475E-009  0.9216920E+02  0.7818608E-02  0.1297682E+00
         -1   -1    0    0    0  501 -0.00000000000E+00  0.00000000000E+00  0.73464495816E+01  0.73464513104E+01  0.50400000000E-02 0.  1.
          1   -1    0    0  501    0  0.00000000000E+00 -0.00000000000E+00 -0.28909070404E+03  0.28909070408E+03  0.50400000000E-02 0. -1.
         23    2    1    2    0    0  0.00000000000E+00  0.00000000000E+00 -0.28174425445E+03  0.29643715539E+03  0.92169204064E+02 0.  0.
    9000005    2    3    3    0    0 -0.81188487151E+01 -0.14104399626E+02 -0.27943490333E+03  0.27999991426E+03  0.71580020244E+01 0.  0.
         22    1    3    3    0    0  0.81188487151E+01  0.14104399626E+02 -0.23093511199E+01  0.16437241127E+02  0.00000000000E+00 0.  1.
         22    1    4    4    0    0 -0.20815098108E+00  0.24998851392E+00 -0.41459687578E+02  0.41460963751E+02  0.00000000000E+00 0. -1.
         22    1    4    4    0    0 -0.79106977340E+01 -0.14354388139E+02 -0.23797521576E+03  0.23853895051E+03  0.00000000000E+00 0. -1.
<mgrwt>
<rscale>  0 0.92169204E+02</rscale>
<asrwt>0</asrwt>
<pdfrwt beam="2">  1        1 0.44475484E-01 0.92169204E+02</pdfrwt>
<pdfrwt beam="1">  1       -1 0.11302234E-02 0.92169204E+02</pdfrwt>
<totfact> 0.12359277E+05</totfact>
</mgrwt>
</event>
<event>
 7    1  0.2911475E-009  0.1093182E+03  0.7818608E-02  0.1261838E+00
         -1   -1    0    0    0  501 -0.00000000000E+00  0.00000000000E+00  0.42440703779E+01  0.42440733705E+01  0.50400000000E-02 0.  1.
          1   -1    0    0  501    0  0.00000000000E+00 -0.00000000000E+00 -0.70395051968E+03  0.70395051969E+03  0.50400000000E-02 0. -1.
         23    2    1    2    0    0 -0.71054273576E-14  0.00000000000E+00 -0.69970644930E+03  0.70819459307E+03  0.10931818905E+03 0.  0.
    9000005    2    3    3    0    0 -0.49709763829E+02 -0.19367794453E+02 -0.42661269366E+03  0.42993864712E+03  0.16364041227E+01 0.  0.
         22    1    3    3    0    0  0.49709763829E+02  0.19367794453E+02 -0.27309375564E+03  0.27825594594E+03  0.00000000000E+00 0.  1.
         22    1    4    4    0    0 -0.21558123202E+02 -0.92489247090E+01 -0.18896937237E+03  0.19041984922E+03  0.00000000000E+00 0.  1.
         22    1    4    4    0    0 -0.28151640626E+02 -0.10118869744E+02 -0.23764332129E+03  0.23951879790E+03  0.00000000000E+00 0.  1.
<mgrwt>
<rscale>  0 0.10931819E+03</rscale>
<asrwt>0</asrwt>
<pdfrwt beam="2">  1        1 0.10829999E+00 0.10931819E+03</pdfrwt>
<pdfrwt beam="1">  1       -1 0.65293469E-03 0.10931819E+03</pdfrwt>
<totfact> 0.87607997E+04</totfact>
</mgrwt>
</event>
<event>
 7    1  0.2911475E-009  0.8934710E+02  0.7818608E-02  0.1304441E+00
          1   -1    0    0  501    0  0.00000000000E+00  0.00000000000E+00  0.68203147310E+03  0.68203147312E+03  0.50400000000E-02 0. -1.
         -1   -1    0    0    0  501 -0.00000000000E+00 -0.00000000000E+00 -0.29261474973E+01  0.29261518378E+01  0.50400000000E-02 0.  1.
         23    2    1    2    0    0  0.00000000000E+00  0.00000000000E+00  0.67910532560E+03  0.68495762496E+03  0.89347102494E+02 0.  0.
    9000005    2    3    3    0    0  0.23206155773E+02  0.14200713145E+02  0.61041301134E+03  0.61107379751E+03  0.81826443263E+01 0.  0.
         22    1    3    3    0    0 -0.23206155773E+02 -0.14200713145E+02  0.68692314257E+02  0.73883827443E+02  0.00000000000E+00 0.  1.
         22    1    4    4    0    0  0.21637098662E+02  0.14457941761E+02  0.59699622245E+03  0.59756312280E+03  0.00000000000E+00 0. -1.
         22    1    4    4    0    0  0.15690571109E+01 -0.25722861628E+00  0.13416788898E+02  0.13510674709E+02  0.00000000000E+00 0. -1.
<mgrwt>
<rscale>  0 0.89347102E+02</rscale>
<asrwt>0</asrwt>
<pdfrwt beam="1">  1        1 0.10492793E+00 0.89347102E+02</pdfrwt>
<pdfrwt beam="2">  1       -1 0.45017683E-03 0.89347102E+02</pdfrwt>
<totfact> 0.15000826E+05</totfact>
</mgrwt>
</event>
<event>
 7    1  0.2911475E-009  0.9148493E+02  0.7818608E-02  0.1299295E+00
         -1   -1    0    0    0  501 -0.00000000000E+00  0.00000000000E+00  0.13052267705E+01  0.13052365012E+01  0.50400000000E-02 0.  1.
          1   -1    0    0  501    0  0.00000000000E+00 -0.00000000000E+00 -0.16030664482E+04  0.16030664482E+04  0.50400000000E-02 0. -1.
         23    2    1    2    0    0 -0.44408920985E-15  0.00000000000E+00 -0.16017612214E+04  0.16043716847E+04  0.91484928927E+02 0.  0.
    9000005    2    3    3    0    0  0.26220821719E+01  0.16106640494E+02 -0.15502643319E+04  0.15503510514E+04  0.16077613920E+01 0.  0.
         22    1    3    3    0    0 -0.26220821719E+01 -0.16106640494E+02 -0.51496889572E+02  0.54020633267E+02  0.00000000000E+00 0.  1.
         22    1    4    4    0    0  0.11701170423E+01  0.33581125822E+01 -0.31400059571E+03  0.31402073212E+03  0.00000000000E+00 0. -1.
         22    1    4    4    0    0  0.14519651296E+01  0.12748527912E+02 -0.12362637361E+04  0.12363303193E+04  0.00000000000E+00 0. -1.
<mgrwt>
<rscale>  0 0.91484929E+02</rscale>
<asrwt>0</asrwt>
<pdfrwt beam="2">  1        1 0.24662403E+00 0.91484929E+02</pdfrwt>
<pdfrwt beam="1">  1       -1 0.20080615E-03 0.91484929E+02</pdfrwt>
<totfact> 0.10328645E+05</totfact>
</mgrwt>
</event>
<event>
 7    1  0.2911475E-009  0.9310346E+02  0.7818608E-02  0.1295506E+00
          1   -1    0    0  501    0  0.00000000000E+00  0.00000000000E+00  0.21341486600E+02  0.21341487195E+02  0.50400000000E-02 0. -1.
         -1   -1    0    0    0  501 -0.00000000000E+00 -0.00000000000E+00 -0.10154230492E+03  0.10154230505E+03  0.50400000000E-02 0.  1.
         23    2    1    2    0    0  0.00000000000E+00  0.00000000000E+00 -0.80200818325E+02  0.12288379224E+03  0.93103464686E+02 0.  0.
    9000005    2    3    3    0    0  0.16217516153E+02  0.32750395073E+02 -0.27936994507E+01  0.37283218298E+02  0.68291582538E+01 0.  0.
         22    1    3    3    0    0 -0.16217516153E+02 -0.32750395073E+02 -0.77407118875E+02  0.85600573947E+02  0.00000000000E+00 0.  1.
         22    1    4    4    0    0  0.10999430435E+02  0.14520165058E+02 -0.14072237778E+01  0.18270274819E+02  0.00000000000E+00 0. -1.
         22    1    4    4    0    0  0.52180857180E+01  0.18230230014E+02 -0.13864756729E+01  0.19012943479E+02  0.00000000000E+00 0. -1.
<mgrwt>
<rscale>  0 0.93103465E+02</rscale>
<asrwt>0</asrwt>
<pdfrwt beam="1">  1        1 0.32833057E-02 0.93103465E+02</pdfrwt>
<pdfrwt beam="2">  1       -1 0.15621893E-01 0.93103465E+02</pdfrwt>
<totfact> 0.76877955E+04</totfact>
</mgrwt>
</event>
<event>
 7    1  0.2911475E-009  0.9023287E+02  0.7818608E-02  0.1302289E+00
          1   -1    0    0  501    0  0.00000000000E+00  0.00000000000E+00  0.31045106704E+03  0.31045106708E+03  0.50400000000E-02 0. -1.
         -1   -1    0    0    0  501 -0.00000000000E+00 -0.00000000000E+00 -0.65565646195E+01  0.65565665566E+01  0.50400000000E-02 0.  1.
         23    2    1    2    0    0  0.00000000000E+00  0.00000000000E+00  0.30389450242E+03  0.31700763363E+03  0.90232871965E+02 0.  0.
    9000005    2    3    3    0    0  0.18190942119E+02  0.34240980000E+02  0.73415575534E+02  0.83290088670E+02  0.66360419878E+01 0.  0.
         22    1    3    3    0    0 -0.18190942119E+02 -0.34240980000E+02  0.23047892688E+03  0.23371754496E+03  0.00000000000E+00 0. -1.
         22    1    4    4    0    0  0.44535918435E+01  0.79698514558E+01  0.23815847066E+02  0.25505834313E+02  0.00000000000E+00 0. -1.
         22    1    4    4    0    0  0.13737350275E+02  0.26271128544E+02  0.49599728468E+02  0.57784254358E+02  0.00000000000E+00 0. -1.
<mgrwt>
<rscale>  0 0.90232872E+02</rscale>
<asrwt>0</asrwt>
<pdfrwt beam="1">  1        1 0.47761700E-01 0.90232872E+02</pdfrwt>
<pdfrwt beam="2">  1       -1 0.10087025E-02 0.90232872E+02</pdfrwt>
<totfact> 0.13257738E+05</totfact>
</mgrwt>
</event>
<event>
 7    1  0.2911475E-009  0.9173973E+02  0.7818608E-02  0.1298693E+00
         -1   -1    0    0    0  501 -0.00000000000E+00  0.00000000000E+00  0.77515517984E+01  0.77515534368E+01  0.50400000000E-02 0.  1.
          1   -1    0    0  501    0  0.00000000000E+00 -0.00000000000E+00 -0.27143523690E+03  0.27143523695E+03  0.50400000000E-02 0. -1.
         23    2    1    2    0    0  0.00000000000E+00  0.00000000000E+00 -0.26368368510E+03  0.27918679039E+03  0.91739730412E+02 0.  0.
    9000005    2    3    3    0    0 -0.26226491944E+02 -0.24093873285E+02 -0.21834047686E+03  0.22152961266E+03  0.11595768200E+02 0.  0.
         22    1    3    3    0    0  0.26226491944E+02  0.24093873285E+02 -0.45343208247E+02  0.57657177729E+02  0.00000000000E+00 0.  1.
         22    1    4    4    0    0 -0.16133544419E+02 -0.18097376302E+02 -0.11523064554E+03  0.11775358999E+03  0.00000000000E+00 0. -1.
         22    1    4    4    0    0 -0.10092947525E+02 -0.59964969835E+01 -0.10310983132E+03  0.10377602266E+03  0.00000000000E+00 0. -1.
<mgrwt>
<rscale>  0 0.91739730E+02</rscale>
<asrwt>0</asrwt>
<pdfrwt beam="2">  1        1 0.41759260E-01 0.91739730E+02</pdfrwt>
<pdfrwt beam="1">  1       -1 0.11925468E-02 0.91739730E+02</pdfrwt>
<totfact> 0.12362315E+05</totfact>
</mgrwt>
</event>
<event>
 7    1  0.2911475E-009  0.9111353E+02  0.7818608E-02  0.1300177E+00
         -1   -1    0    0    0  501 -0.00000000000E+00  0.00000000000E+00  0.19392343708E+02  0.19392344363E+02  0.50400000000E-02 0.  1.
          1   -1    0    0  501    0  0.00000000000E+00 -0.00000000000E+00 -0.10702258764E+03  0.10702258776E+03  0.50400000000E-02 0. -1.
         23    2    1    2    0    0  0.00000000000E+00  0.00000000000E+00 -0.87630243929E+02  0.12641493212E+03  0.91113530342E+02 0.  0.
    9000005    2    3    3    0    0  0.65733790711E+01 -0.31358716504E+02 -0.88103630095E+02  0.94371172856E+02  0.10820823317E+02 0.  0.
         22    1    3    3    0    0 -0.65733790711E+01  0.31358716504E+02  0.47338616589E+00  0.32043759262E+02  0.00000000000E+00 0.  1.
         22    1    4    4    0    0  0.55143059719E+01 -0.23012693305E+02 -0.76234282899E+02  0.79822662901E+02  0.00000000000E+00 0. -1.
         22    1    4    4    0    0  0.10590730992E+01 -0.83460231992E+01 -0.11869347196E+02  0.14548509956E+02  0.00000000000E+00 0. -1.
<mgrwt>
<rscale>  0 0.91113530E+02</rscale>
<asrwt>0</asrwt>
<pdfrwt beam="2">  1        1 0.16465013E-01 0.91113530E+02</pdfrwt>
<pdfrwt beam="1">  1       -1 0.29834376E-02 0.91113530E+02</pdfrwt>
<totfact> 0.10584700E+05</totfact>
</mgrwt>
</event>
<event>
 7    1  0.2911475E-009  0.9498632E+02  0.7818608E-02  0.1291207E+00
         -1   -1    0    0    0  501 -0.00000000000E+00  0.00000000000E+00  0.23754380340E+02  0.23754380875E+02  0.50400000000E-02 0.  1.
          1   -1    0    0  501    0  0.00000000000E+00 -0.00000000000E+00 -0.94955132891E+02  0.94955133024E+02  0.50400000000E-02 0. -1.
         23    2    1    2    0    0  0.00000000000E+00  0.00000000000E+00 -0.71200752551E+02  0.11870951390E+03  0.94986322838E+02 0.  0.
    9000005    2    3    3    0    0  0.33473430935E+01 -0.45117019352E+02 -0.21894958377E+02  0.51793062408E+02  0.12505277699E+02 0.  0.
         22    1    3    3    0    0 -0.33473430935E+01  0.45117019352E+02 -0.49305794174E+02  0.66916451491E+02  0.00000000000E+00 0. -1.
         22    1    4    4    0    0  0.41955664209E+01 -0.24565789684E+02 -0.18285118741E+02  0.30909971980E+02  0.00000000000E+00 0.  1.
         22    1    4    4    0    0 -0.84822332740E+00 -0.20551229668E+02 -0.36098396358E+01  0.20883090429E+02  0.00000000000E+00 0.  1.
<mgrwt>
<rscale>  0 0.94986323E+02</rscale>
<asrwt>0</asrwt>
<pdfrwt beam="2">  1        1 0.14608482E-01 0.94986323E+02</pdfrwt>
<pdfrwt beam="1">  1       -1 0.36545201E-02 0.94986323E+02</pdfrwt>
<totfact> 0.92575524E+04</totfact>
</mgrwt>
</event>
<event>
 7    1  0.2911475E-009  0.9219582E+02  0.7818608E-02  0.1297620E+00
          1   -1    0    0  501    0  0.00000000000E+00  0.00000000000E+00  0.33615134345E+02  0.33615134722E+02  0.50400000000E-02 0. -1.
         -1   -1    0    0    0  501 -0.00000000000E+00 -0.00000000000E+00 -0.63216084324E+02  0.63216084525E+02  0.50400000000E-02 0.  1.
         23    2    1    2    0    0  0.35527136788E-14  0.00000000000E+00 -0.29600949979E+02  0.96831219247E+02  0.92195817591E+02 0.  0.
    9000005    2    3    3    0    0 -0.29934387652E+02  0.32374205082E+02 -0.64926405211E+01  0.47050191890E+02  0.15080101364E+02 0.  0.
         22    1    3    3    0    0  0.29934387652E+02 -0.32374205082E+02 -0.23108309458E+02  0.49781027358E+02  0.00000000000E+00 0.  1.
         22    1    4    4    0    0 -0.22722153092E+02  0.22827656741E+02 -0.11331869112E+02  0.34143951309E+02  0.00000000000E+00 0. -1.
         22    1    4    4    0    0 -0.72122345594E+01  0.95465483406E+01  0.48392285910E+01  0.12906240580E+02  0.00000000000E+00 0. -1.
<mgrwt>
<rscale>  0 0.92195818E+02</rscale>
<asrwt>0</asrwt>
<pdfrwt beam="1">  1        1 0.51715592E-02 0.92195818E+02</pdfrwt>
<pdfrwt beam="2">  1       -1 0.97255515E-02 0.92195818E+02</pdfrwt>
<totfact> 0.85507070E+04</totfact>
</mgrwt>
</event>
<event>
 7    1  0.2911475E-009  0.9082795E+02  0.7818608E-02  0.1300859E+00
         -1   -1    0    0    0  501 -0.00000000000E+00  0.00000000000E+00  0.22981216204E+01  0.22981271470E+01  0.50400000000E-02 0.  1.
          1   -1    0    0  501    0  0.00000000000E+00 -0.00000000000E+00 -0.89744007502E+03  0.89744007504E+03  0.50400000000E-02 0. -1.
         23    2    1    2    0    0  0.00000000000E+00 -0.17763568394E-14 -0.89514195340E+03  0.89973820219E+03  0.90827945745E+02 0.  0.
    9000005    2    3    3    0    0  0.19432024885E+02  0.15879820159E+02 -0.81985217900E+03  0.82037623139E+03  0.15158935715E+02 0.  0.
         22    1    3    3    0    0 -0.19432024885E+02 -0.15879820159E+02 -0.75289774399E+02  0.79361970795E+02  0.00000000000E+00 0.  1.
         22    1    4    4    0    0  0.90825878491E+00 -0.14249018805E+01 -0.19848833919E+03  0.19849553163E+03  0.00000000000E+00 0. -1.
         22    1    4    4    0    0  0.18523766100E+02  0.17304722040E+02 -0.62136383981E+03  0.62188069977E+03  0.00000000000E+00 0. -1.
<mgrwt>
<rscale>  0 0.90827946E+02</rscale>
<asrwt>0</asrwt>
<pdfrwt beam="2">  1        1 0.13806742E+00 0.90827946E+02</pdfrwt>
<pdfrwt beam="1">  1       -1 0.35355831E-03 0.90827946E+02</pdfrwt>
<totfact> 0.14066256E+05</totfact>
</mgrwt>
</event>
<event>
 7    1  0.2911475E-009  0.9139567E+02  0.7818608E-02  0.1299507E+00
          1   -1    0    0  501    0  0.00000000000E+00  0.00000000000E+00  0.31126814854E+02  0.31126815263E+02  0.50400000000E-02 0. -1.
         -1   -1    0    0    0  501 -0.00000000000E+00 -0.00000000000E+00 -0.67089808266E+02  0.67089808455E+02  0.50400000000E-02 0.  1.
         23    2    1    2    0    0 -0.35527136788E-14 -0.35527136788E-14 -0.35962993411E+02  0.98216623718E+02  0.91395668822E+02 0.  0.
    9000005    2    3    3    0    0 -0.27118131272E+02 -0.21012347308E+02 -0.49677927902E+02  0.61270565590E+02  0.10453415897E+02 0.  0.
         22    1    3    3    0    0  0.27118131272E+02  0.21012347308E+02  0.13714934491E+02  0.36946058128E+02  0.00000000000E+00 0. -1.
         22    1    4    4    0    0 -0.16397975212E+02 -0.15512851939E+02 -0.39516051089E+02  0.45508905282E+02  0.00000000000E+00 0. -1.
         22    1    4    4    0    0 -0.10720156061E+02 -0.54994953690E+01 -0.10161876813E+02  0.15761660308E+02  0.00000000000E+00 0. -1.
<mgrwt>
<rscale>  0 0.91395669E+02</rscale>
<asrwt>0</asrwt>
<pdfrwt beam="1">  1        1 0.47887408E-02 0.91395669E+02</pdfrwt>
<pdfrwt beam="2">  1       -1 0.10321509E-01 0.91395669E+02</pdfrwt>
<totfact> 0.86601506E+04</totfact>
</mgrwt>
</event>
<event>
 7    1  0.2911475E-009  0.9347014E+02  0.7818608E-02  0.1294659E+00
         -1   -1    0    0    0  501 -0.00000000000E+00  0.00000000000E+00  0.17747155188E+02  0.17747155904E+02  0.50400000000E-02 0.  1.
          1   -1    0    0  501    0  0.00000000000E+00 -0.00000000000E+00 -0.12307136831E+03  0.12307136841E+03  0.50400000000E-02 0. -1.
         23    2    1    2    0    0  0.00000000000E+00  0.00000000000E+00 -0.10532421312E+03  0.14081852432E+03  0.93470139195E+02 0.  0.
    9000005    2    3    3    0    0  0.13655469667E+02 -0.38528509399E+02 -0.84466077151E+02  0.94927569603E+02  0.14345988746E+02 0.  0.
         22    1    3    3    0    0 -0.13655469667E+02  0.38528509399E+02 -0.20858135969E+02  0.45890954713E+02  0.00000000000E+00 0.  1.
         22    1    4    4    0    0 -0.25514634868E+00 -0.91556160763E+01 -0.31319118414E+02  0.32630929862E+02  0.00000000000E+00 0.  1.
         22    1    4    4    0    0  0.13910616016E+02 -0.29372893323E+02 -0.53146958737E+02  0.62296639742E+02  0.00000000000E+00 0.  1.
<mgrwt>
<rscale>  0 0.93470139E+02</rscale>
<asrwt>0</asrwt>
<pdfrwt beam="2">  1        1 0.18934056E-01 0.93470139E+02</pdfrwt>
<pdfrwt beam="1">  1       -1 0.27303317E-02 0.93470139E+02</pdfrwt>
<totfact> 0.10115271E+05</totfact>
</mgrwt>
</event>
<event>
 7    1  0.2911475E-009  0.8978114E+02  0.7818608E-02  0.1303383E+00
         -1   -1    0    0    0  501 -0.00000000000E+00  0.00000000000E+00  0.11173611836E+02  0.11173612973E+02  0.50400000000E-02 0.  1.
          1   -1    0    0  501    0  0.00000000000E+00 -0.00000000000E+00 -0.18035021024E+03  0.18035021031E+03  0.50400000000E-02 0. -1.
         23    2    1    2    0    0 -0.71054273576E-14  0.00000000000E+00 -0.16917659841E+03  0.19152382329E+03  0.89781141882E+02 0.  0.
    9000005    2    3    3    0    0 -0.42145614304E+02 -0.10187293189E+02 -0.10471216654E+03  0.11383407671E+03  0.10654832276E+02 0.  0.
         22    1    3    3    0    0  0.42145614304E+02  0.10187293189E+02 -0.64464431868E+02  0.77689746579E+02  0.00000000000E+00 0. -1.
         22    1    4    4    0    0 -0.77369377512E+01  0.47934905265E+00 -0.11181438807E+02  0.13605680986E+02  0.00000000000E+00 0. -1.
         22    1    4    4    0    0 -0.34408676552E+02 -0.10666642242E+02 -0.93530727731E+02  0.10022839572E+03  0.00000000000E+00 0. -1.
<mgrwt>
<rscale>  0 0.89781142E+02</rscale>
<asrwt>0</asrwt>
<pdfrwt beam="2">  1        1 0.27746184E-01 0.89781142E+02</pdfrwt>
<pdfrwt beam="1">  1       -1 0.17190174E-02 0.89781142E+02</pdfrwt>
<totfact> 0.12097398E+05</totfact>
</mgrwt>
</event>
<event>
 7    1  0.2911475E-009  0.8893078E+02  0.7818608E-02  0.1305462E+00
         -1   -1    0    0    0  501 -0.00000000000E+00  0.00000000000E+00  0.89526738144E+01  0.89526752330E+01  0.50400000000E-02 0.  1.
          1   -1    0    0  501    0  0.00000000000E+00 -0.00000000000E+00 -0.22084694176E+03  0.22084694182E+03  0.50400000000E-02 0. -1.
         23    2    1    2    0    0  0.00000000000E+00  0.00000000000E+00 -0.21189426794E+03  0.22979961705E+03  0.88930777621E+02 0.  0.
    9000005    2    3    3    0    0  0.70261529330E+01 -0.43149385718E+02 -0.11013731719E+03  0.11904893606E+03  0.11453568276E+02 0.  0.
         22    1    3    3    0    0 -0.70261529330E+01  0.43149385718E+02 -0.10175695076E+03  0.11075068099E+03  0.00000000000E+00 0. -1.
         22    1    4    4    0    0  0.22164393874E+01 -0.21221685023E+02 -0.39023090409E+02  0.44475545009E+02  0.00000000000E+00 0. -1.
         22    1    4    4    0    0  0.48097135456E+01 -0.21927700695E+02 -0.71114226778E+02  0.74573391048E+02  0.00000000000E+00 0. -1.
<mgrwt>
<rscale>  0 0.88930778E+02</rscale>
<asrwt>0</asrwt>
<pdfrwt beam="2">  1        1 0.33976448E-01 0.88930778E+02</pdfrwt>
<pdfrwt beam="1">  1       -1 0.13773347E-02 0.88930778E+02</pdfrwt>
<totfact> 0.12903266E+05</totfact>
</mgrwt>
</event>
<event>
 7    1  0.2911475E-009  0.8598844E+02  0.7818608E-02  0.1312868E+00
         -1   -1    0    0    0  501 -0.00000000000E+00  0.00000000000E+00  0.98627062840E+01  0.98627075717E+01  0.50400000000E-02 0.  1.
          1   -1    0    0  501    0  0.00000000000E+00 -0.00000000000E+00 -0.18742350068E+03  0.18742350075E+03  0.50400000000E-02 0. -1.
         23    2    1    2    0    0  0.35527136788E-14  0.00000000000E+00 -0.17756079440E+03  0.19728620832E+03  0.85988442751E+02 0.  0.
    9000005    2    3    3    0    0  0.22356147235E+02 -0.35763084041E+02 -0.92814590602E+02  0.10262515742E+03  0.11771967054E+02 0.  0.
         22    1    3    3    0    0 -0.22356147235E+02  0.35763084041E+02 -0.84746203799E+02  0.94661050901E+02  0.00000000000E+00 0. -1.
         22    1    4    4    0    0  0.21805298107E+02 -0.34058563026E+02 -0.92285265825E+02  0.10075726787E+03  0.00000000000E+00 0.  1.
         22    1    4    4    0    0  0.55084912807E+00 -0.17045210146E+01 -0.52932477657E+00  0.18678895498E+01  0.00000000000E+00 0.  1.
<mgrwt>
<rscale>  0 0.85988443E+02</rscale>
<asrwt>0</asrwt>
<pdfrwt beam="2">  1        1 0.28834382E-01 0.85988443E+02</pdfrwt>
<pdfrwt beam="1">  1       -1 0.15173397E-02 0.85988443E+02</pdfrwt>
<totfact> 0.13676616E+05</totfact>
</mgrwt>
</event>
<event>
 7    1  0.2911475E-009  0.9296482E+02  0.7818608E-02  0.1295827E+00
         -1   -1    0    0    0  501 -0.00000000000E+00  0.00000000000E+00  0.34411526036E+02  0.34411526405E+02  0.50400000000E-02 0.  1.
          1   -1    0    0  501    0  0.00000000000E+00 -0.00000000000E+00 -0.62787524420E+02  0.62787524623E+02  0.50400000000E-02 0. -1.
         23    2    1    2    0    0  0.35527136788E-14 -0.17763568394E-14 -0.28375998384E+02  0.97199051027E+02  0.92964822575E+02 0.  0.
    9000005    2    3    3    0    0  0.29928491310E+02 -0.12723674136E+02 -0.47555312941E+02  0.59443884725E+02  0.14644492707E+02 0.  0.
         22    1    3    3    0    0 -0.29928491310E+02  0.12723674136E+02  0.19179314557E+02  0.37755166302E+02  0.00000000000E+00 0.  1.
         22    1    4    4    0    0  0.98834087614E+00 -0.37645865806E+01 -0.12599240830E+02  0.13186728150E+02  0.00000000000E+00 0.  1.
         22    1    4    4    0    0  0.28940150434E+02 -0.89590875553E+01 -0.34956072112E+02  0.46257156576E+02  0.00000000000E+00 0.  1.
<mgrwt>
<rscale>  0 0.92964823E+02</rscale>
<asrwt>0</asrwt>
<pdfrwt beam="2">  1        1 0.96596192E-02 0.92964823E+02</pdfrwt>
<pdfrwt beam="1">  1       -1 0.52940810E-02 0.92964823E+02</pdfrwt>
<totfact> 0.91945397E+04</totfact>
</mgrwt>
</event>
<event>
 7    1  0.2911475E-009  0.9222201E+02  0.7818608E-02  0.1297558E+00
         -1   -1    0    0    0  501 -0.00000000000E+00  0.00000000000E+00  0.21511852862E+01  0.21511911903E+01  0.50400000000E-02 0.  1.
          1   -1    0    0  501    0  0.00000000000E+00 -0.00000000000E+00 -0.98839559691E+03  0.98839559693E+03  0.50400000000E-02 0. -1.
         23    2    1    2    0    0  0.00000000000E+00 -0.71054273576E-14 -0.98624441163E+03  0.99054678812E+03  0.92222014628E+02 0.  0.
    9000005    2    3    3    0    0  0.28961021608E+01  0.34753621443E+02 -0.81628184456E+03  0.81704325555E+03  0.52373714925E+01 0.  0.
         22    1    3    3    0    0 -0.28961021608E+01 -0.34753621443E+02 -0.16996256707E+03  0.17350353257E+03  0.00000000000E+00 0.  1.
         22    1    4    4    0    0  0.27320432443E+01  0.34044982290E+02 -0.80994406953E+03  0.81066387649E+03  0.00000000000E+00 0.  1.
         22    1    4    4    0    0  0.16405891651E+00  0.70863915283E+00 -0.63377750274E+01  0.63793790509E+01  0.00000000000E+00 0.  1.
<mgrwt>
<rscale>  0 0.92222015E+02</rscale>
<asrwt>0</asrwt>
<pdfrwt beam="2">  1        1 0.15206050E+00 0.92222015E+02</pdfrwt>
<pdfrwt beam="1">  1       -1 0.33095283E-03 0.92222015E+02</pdfrwt>
<totfact> 0.13237776E+05</totfact>
</mgrwt>
</event>
<event>
 7    1  0.2911475E-009  0.9055149E+02  0.7818608E-02  0.1301522E+00
          1   -1    0    0  501    0  0.00000000000E+00  0.00000000000E+00  0.21167272456E+03  0.21167272462E+03  0.50400000000E-02 0. -1.
         -1   -1    0    0    0  501 -0.00000000000E+00 -0.00000000000E+00 -0.96842564932E+01  0.96842578047E+01  0.50400000000E-02 0.  1.
         23    2    1    2    0    0  0.00000000000E+00  0.00000000000E+00  0.20198846807E+03  0.22135698242E+03  0.90551490524E+02 0.  0.
    9000005    2    3    3    0    0 -0.21244951761E+02 -0.38473921991E+02  0.12334427974E+03  0.13126536791E+03  0.92301039325E+01 0.  0.
         22    1    3    3    0    0  0.21244951761E+02  0.38473921991E+02  0.78644188327E+02  0.90091614518E+02  0.00000000000E+00 0.  1.
         22    1    4    4    0    0 -0.22850503511E+01 -0.69370362661E+01  0.12553710379E+02  0.14523758865E+02  0.00000000000E+00 0. -1.
         22    1    4    4    0    0 -0.18959901410E+02 -0.31536885725E+02  0.11079056936E+03  0.11674160904E+03  0.00000000000E+00 0. -1.
<mgrwt>
<rscale>  0 0.90551491E+02</rscale>
<asrwt>0</asrwt>
<pdfrwt beam="1">  1        1 0.32565036E-01 0.90551491E+02</pdfrwt>
<pdfrwt beam="2">  1       -1 0.14898857E-02 0.90551491E+02</pdfrwt>
<totfact> 0.12194515E+05</totfact>
</mgrwt>
</event>
<event>
 7    1  0.2911475E-009  0.9034643E+02  0.7818608E-02  0.1302015E+00
          1   -1    0    0  501    0  0.00000000000E+00  0.00000000000E+00  0.54422189815E+01  0.54422213153E+01  0.50400000000E-02 0. -1.
         -1   -1    0    0    0  501 -0.00000000000E+00 -0.00000000000E+00 -0.37496086104E+03  0.37496086107E+03  0.50400000000E-02 0.  1.
         23    2    1    2    0    0  0.00000000000E+00  0.00000000000E+00 -0.36951864206E+03  0.38040308239E+03  0.90346434697E+02 0.  0.
    9000005    2    3    3    0    0  0.19666025595E+02  0.17873327597E+02 -0.33829836899E+03  0.33940413298E+03  0.65704353345E+01 0.  0.
         22    1    3    3    0    0 -0.19666025595E+02 -0.17873327597E+02 -0.31220273065E+02  0.40998949405E+02  0.00000000000E+00 0. -1.
         22    1    4    4    0    0  0.15505554975E+02  0.14598017957E+02 -0.29790011527E+03  0.29866034729E+03  0.00000000000E+00 0. -1.
         22    1    4    4    0    0  0.41604706203E+01  0.32753096397E+01 -0.40398253724E+02  0.40743785698E+02  0.00000000000E+00 0. -1.
<mgrwt>
<rscale>  0 0.90346435E+02</rscale>
<asrwt>0</asrwt>
<pdfrwt beam="1">  1        1 0.83726493E-03 0.90346435E+02</pdfrwt>
<pdfrwt beam="2">  1       -1 0.57686266E-01 0.90346435E+02</pdfrwt>
<totfact> 0.56341834E+04</totfact>
</mgrwt>
</event>
<event>
 7    1  0.2911475E-009  0.9121440E+02  0.7818608E-02  0.1299937E+00
          1   -1    0    0  501    0  0.00000000000E+00  0.00000000000E+00  0.82170430457E+03  0.82170430459E+03  0.50400000000E-02 0. -1.
         -1   -1    0    0    0  501 -0.00000000000E+00 -0.00000000000E+00 -0.25313419742E+01  0.25313469916E+01  0.50400000000E-02 0.  1.
         23    2    1    2    0    0  0.44408920985E-15  0.00000000000E+00  0.81917296260E+03  0.82423565158E+03  0.91214399536E+02 0.  0.
    9000005    2    3    3    0    0  0.29190184256E+01  0.13316711425E+02  0.80259131410E+03  0.80276924669E+03  0.99895195221E+01 0.  0.
         22    1    3    3    0    0 -0.29190184256E+01 -0.13316711425E+02  0.16581648503E+02  0.21466404888E+02  0.00000000000E+00 0.  1.
         22    1    4    4    0    0 -0.26019037808E+01  0.94096408494E+01  0.55365103693E+03  0.55373710544E+03  0.00000000000E+00 0.  1.
         22    1    4    4    0    0  0.55209222064E+01  0.39070705759E+01  0.24894027717E+03  0.24903214125E+03  0.00000000000E+00 0.  1.
<mgrwt>
<rscale>  0 0.91214400E+02</rscale>
<asrwt>0</asrwt>
<pdfrwt beam="1">  1        1 0.12641622E+00 0.91214400E+02</pdfrwt>
<pdfrwt beam="2">  1       -1 0.38943708E-03 0.91214400E+02</pdfrwt>
<totfact> 0.14078208E+05</totfact>
</mgrwt>
</event>
<event>
 7    1  0.2911475E-009  0.8928466E+02  0.7818608E-02  0.1304593E+00
         -1   -1    0    0    0  501 -0.00000000000E+00  0.00000000000E+00  0.45520512103E+01  0.45520540004E+01  0.50400000000E-02 0.  1.
          1   -1    0    0  501    0  0.00000000000E+00 -0.00000000000E+00 -0.43781075051E+03  0.43781075054E+03  0.50400000000E-02 0. -1.
         23    2    1    2    0    0  0.17763568394E-14  0.00000000000E+00 -0.43325869930E+03  0.44236280454E+03  0.89284658934E+02 0.  0.
    9000005    2    3    3    0    0 -0.15836386572E+02 -0.26645219797E+02 -0.37282605465E+03  0.37444474055E+03  0.15774594005E+02 0.  0.
         22    1    3    3    0    0  0.15836386572E+02  0.26645219797E+02 -0.60432644643E+02  0.67918063990E+02  0.00000000000E+00 0.  1.
         22    1    4    4    0    0 -0.15881590272E+02 -0.18463158672E+02 -0.20893803700E+03  0.21035260027E+03  0.00000000000E+00 0. -1.
         22    1    4    4    0    0  0.45203700276E-01 -0.81820611253E+01 -0.16388801765E+03  0.16409214027E+03  0.00000000000E+00 0. -1.
<mgrwt>
<rscale>  0 0.89284659E+02</rscale>
<asrwt>0</asrwt>
<pdfrwt beam="2">  1        1 0.67355467E-01 0.89284659E+02</pdfrwt>
<pdfrwt beam="1">  1       -1 0.70031613E-03 0.89284659E+02</pdfrwt>
<totfact> 0.14462555E+05</totfact>
</mgrwt>
</event>
<event>
 7    1  0.2911475E-009  0.9063813E+02  0.7818608E-02  0.1301314E+00
         -1   -1    0    0    0  501 -0.00000000000E+00  0.00000000000E+00  0.19096951054E+01  0.19097017561E+01  0.50400000000E-02 0.  1.
          1   -1    0    0  501    0  0.00000000000E+00 -0.00000000000E+00 -0.10754669729E+04  0.10754669729E+04  0.50400000000E-02 0. -1.
         23    2    1    2    0    0  0.00000000000E+00  0.00000000000E+00 -0.10735572778E+04  0.10773766747E+04  0.90638128912E+02 0.  0.
    9000005    2    3    3    0    0 -0.22374104311E+02  0.16982582184E+02 -0.95677933035E+03  0.95726798368E+03  0.12095327701E+02 0.  0.
         22    1    3    3    0    0  0.22374104311E+02 -0.16982582184E+02 -0.11677794743E+03  0.12010869097E+03  0.00000000000E+00 0.  1.
         22    1    4    4    0    0 -0.83370606311E+01  0.93654215168E+01 -0.25620053343E+03  0.25650717540E+03  0.00000000000E+00 0.  1.
         22    1    4    4    0    0 -0.14037043680E+02  0.76171606676E+01 -0.70057879692E+03  0.70076080828E+03  0.00000000000E+00 0.  1.
<mgrwt>
<rscale>  0 0.90638129E+02</rscale>
<asrwt>0</asrwt>
<pdfrwt beam="2">  1        1 0.16545597E+00 0.90638129E+02</pdfrwt>
<pdfrwt beam="1">  1       -1 0.29380062E-03 0.90638129E+02</pdfrwt>
<totfact> 0.13515581E+05</totfact>
</mgrwt>
</event>
<event>
 7    1  0.2911475E-009  0.9088151E+02  0.7818608E-02  0.1300731E+00
          1   -1    0    0  501    0  0.00000000000E+00  0.00000000000E+00  0.89360935938E+02  0.89360936080E+02  0.50400000000E-02 0. -1.
         -1   -1    0    0    0  501 -0.00000000000E+00 -0.00000000000E+00 -0.23106989728E+02  0.23106990278E+02  0.50400000000E-02 0.  1.
         23    2    1    2    0    0  0.00000000000E+00 -0.35527136788E-14  0.66253946210E+02  0.11246792636E+03  0.90881511161E+02 0.  0.
    9000005    2    3    3    0    0 -0.28138981350E+02  0.23088927941E+02 -0.24439766881E+00  0.36659413621E+02  0.43533908483E+01 0.  0.
         22    1    3    3    0    0  0.28138981350E+02 -0.23088927941E+02  0.66498343879E+02  0.75808512738E+02  0.00000000000E+00 0. -1.
         22    1    4    4    0    0 -0.27725779018E+02  0.22102218321E+02 -0.77382216479E+00  0.35465838178E+02  0.00000000000E+00 0.  1.
         22    1    4    4    0    0 -0.41320233195E+00  0.98670961997E+00  0.52942449598E+00  0.11935754430E+01  0.00000000000E+00 0.  1.
<mgrwt>
<rscale>  0 0.90881511E+02</rscale>
<asrwt>0</asrwt>
<pdfrwt beam="1">  1        1 0.13747837E-01 0.90881511E+02</pdfrwt>
<pdfrwt beam="2">  1       -1 0.35549215E-02 0.90881511E+02</pdfrwt>
<totfact> 0.10345568E+05</totfact>
</mgrwt>
</event>
<event>
 7    1  0.2911475E-009  0.9207938E+02  0.7818608E-02  0.1297893E+00
         -1   -1    0    0    0  501 -0.00000000000E+00  0.00000000000E+00  0.18317004153E+02  0.18317004846E+02  0.50400000000E-02 0.  1.
          1   -1    0    0  501    0  0.00000000000E+00 -0.00000000000E+00 -0.11572051039E+03  0.11572051050E+03  0.50400000000E-02 0. -1.
         23    2    1    2    0    0  0.00000000000E+00  0.00000000000E+00 -0.97403506238E+02  0.13403751535E+03  0.92079381475E+02 0.  0.
    9000005    2    3    3    0    0 -0.15843320232E+02 -0.41295773410E+02 -0.38819138442E+02  0.60631249622E+02  0.14590107057E+02 0.  0.
         22    1    3    3    0    0  0.15843320232E+02  0.41295773410E+02 -0.58584367796E+02  0.73406265724E+02  0.00000000000E+00 0. -1.
         22    1    4    4    0    0 -0.29326748295E+01 -0.10554257348E+02 -0.23234055305E+01  0.11197818675E+02  0.00000000000E+00 0. -1.
         22    1    4    4    0    0 -0.12910645402E+02 -0.30741516062E+02 -0.36495732911E+02  0.49433430947E+02  0.00000000000E+00 0. -1.
<mgrwt>
<rscale>  0 0.92079381E+02</rscale>
<asrwt>0</asrwt>
<pdfrwt beam="2">  1        1 0.17803155E-01 0.92079381E+02</pdfrwt>
<pdfrwt beam="1">  1       -1 0.28180008E-02 0.92079381E+02</pdfrwt>
<totfact> 0.10423505E+05</totfact>
</mgrwt>
</event>
<event>
 7    1  0.2911475E-009  0.8911684E+02  0.7818608E-02  0.1305005E+00
          1   -1    0    0  501    0  0.00000000000E+00  0.00000000000E+00  0.50431145795E+01  0.50431170980E+01  0.50400000000E-02 0. -1.
         -1   -1    0    0    0  501 -0.00000000000E+00 -0.00000000000E+00 -0.39369563389E+03  0.39369563393E+03  0.50400000000E-02 0.  1.
         23    2    1    2    0    0  0.00000000000E+00  0.00000000000E+00 -0.38865251931E+03  0.39873875102E+03  0.89116837909E+02 0.  0.
    9000005    2    3    3    0    0  0.24752746415E+02  0.36722144190E+02 -0.21379715448E+03  0.21836244177E+03  0.34232123381E+01 0.  0.
         22    1    3    3    0    0 -0.24752746415E+02 -0.36722144190E+02 -0.17485536483E+03  0.18037630925E+03  0.00000000000E+00 0.  1.
         22    1    4    4    0    0  0.77578316432E+01  0.14429770361E+02 -0.80091643179E+02  0.81750067471E+02  0.00000000000E+00 0. -1.
         22    1    4    4    0    0  0.16994914772E+02  0.22292373829E+02 -0.13370551131E+03  0.13661237430E+03  0.00000000000E+00 0. -1.
<mgrwt>
<rscale>  0 0.89116838E+02</rscale>
<asrwt>0</asrwt>
<pdfrwt beam="1">  1        1 0.77586429E-03 0.89116838E+02</pdfrwt>
<pdfrwt beam="2">  1       -1 0.60568535E-01 0.89116838E+02</pdfrwt>
<totfact> 0.57025918E+04</totfact>
</mgrwt>
</event>
<event>
 7    1  0.2911475E-009  0.8515007E+02  0.7818608E-02  0.1315041E+00
         -1   -1    0    0    0  501 -0.00000000000E+00  0.00000000000E+00  0.66075465639E+01  0.66075484861E+01  0.50400000000E-02 0.  1.
          1   -1    0    0  501    0  0.00000000000E+00 -0.00000000000E+00 -0.27432775312E+03  0.27432775316E+03  0.50400000000E-02 0. -1.
         23    2    1    2    0    0  0.00000000000E+00 -0.17763568394E-14 -0.26772020655E+03  0.28093530165E+03  0.85150071732E+02 0.  0.
    9000005    2    3    3    0    0  0.33088856736E+02  0.14106180426E+02 -0.68752760101E+02  0.78742568066E+02  0.13401240160E+02 0.  0.
         22    1    3    3    0    0 -0.33088856736E+02 -0.14106180426E+02 -0.19896744645E+03  0.20219273359E+03  0.00000000000E+00 0. -1.
         22    1    4    4    0    0  0.25833513590E+02  0.82970796619E+01 -0.38545468779E+02  0.47137725006E+02  0.00000000000E+00 0. -1.
         22    1    4    4    0    0  0.72553431454E+01  0.58091007642E+01 -0.30207291321E+02  0.31604843059E+02  0.00000000000E+00 0. -1.
<mgrwt>
<rscale>  0 0.85150072E+02</rscale>
<asrwt>0</asrwt>
<pdfrwt beam="2">  1        1 0.42204261E-01 0.85150072E+02</pdfrwt>
<pdfrwt beam="1">  1       -1 0.10165460E-02 0.85150072E+02</pdfrwt>
<totfact> 0.15102409E+05</totfact>
</mgrwt>
</event>
<event>
 7    1  0.2911475E-009  0.9553399E+02  0.7818608E-02  0.1289978E+00
         -1   -1    0    0    0  501 -0.00000000000E+00  0.00000000000E+00  0.42785122870E+03  0.42785122873E+03  0.50400000000E-02 0.  1.
          1   -1    0    0  501    0  0.00000000000E+00 -0.00000000000E+00 -0.53328945131E+01  0.53328968947E+01  0.50400000000E-02 0. -1.
         23    2    1    2    0    0  0.00000000000E+00 -0.35527136788E-14  0.42251833419E+03  0.43318412563E+03  0.95533993787E+02 0.  0.
    9000005    2    3    3    0    0  0.39210322988E+02 -0.18207789139E+02  0.30244656835E+03  0.30556672099E+03  0.53029478992E+01 0.  0.
         22    1    3    3    0    0 -0.39210322988E+02  0.18207789139E+02  0.12007176584E+03  0.12761740464E+03  0.00000000000E+00 0. -1.
         22    1    4    4    0    0  0.15802009007E+01 -0.15615189335E+00  0.18677049248E+02  0.18744428156E+02  0.00000000000E+00 0. -1.
         22    1    4    4    0    0  0.37630122088E+02 -0.18051637246E+02  0.28376951910E+03  0.28682229283E+03  0.00000000000E+00 0. -1.
<mgrwt>
<rscale>  0 0.95533994E+02</rscale>
<asrwt>0</asrwt>
<pdfrwt beam="2">  1        1 0.82044518E-03 0.95533994E+02</pdfrwt>
<pdfrwt beam="1">  1       -1 0.65823291E-01 0.95533994E+02</pdfrwt>
<totfact> 0.45517513E+04</totfact>
</mgrwt>
</event>
<event>
 7    1  0.2911475E-009  0.1065605E+03  0.7818608E-02  0.1267075E+00
         -1   -1    0    0    0  501 -0.00000000000E+00  0.00000000000E+00  0.44978089578E+03  0.44978089581E+03  0.50400000000E-02 0.  1.
          1   -1    0    0  501    0  0.00000000000E+00 -0.00000000000E+00 -0.63114887171E+01  0.63114907294E+01  0.50400000000E-02 0. -1.
         23    2    1    2    0    0  0.00000000000E+00  0.00000000000E+00  0.44346940707E+03  0.45609238654E+03  0.10656054644E+03 0.  0.
    9000005    2    3    3    0    0 -0.29577235172E+02 -0.31531249589E+02  0.35143192023E+03  0.35440693270E+03  0.15193644832E+02 0.  0.
         22    1    3    3    0    0  0.29577235172E+02  0.31531249589E+02  0.92037486831E+02  0.10168545384E+03  0.00000000000E+00 0. -1.
         22    1    4    4    0    0  0.15457641640E+00  0.14280625538E+01  0.10973995944E+02  0.11067603331E+02  0.00000000000E+00 0. -1.
         22    1    4    4    0    0 -0.29731811588E+02 -0.32959312143E+02  0.34045792429E+03  0.34333932937E+03  0.00000000000E+00 0. -1.
<mgrwt>
<rscale>  0 0.10656055E+03</rscale>
<asrwt>0</asrwt>
<pdfrwt beam="2">  1        1 0.97099852E-03 0.10656055E+03</pdfrwt>
<pdfrwt beam="1">  1       -1 0.69197054E-01 0.10656055E+03</pdfrwt>
<totfact> 0.33187276E+04</totfact>
</mgrwt>
</event>
<event>
 7    1  0.2911475E-009  0.9256742E+02  0.7818608E-02  0.1296751E+00
          1   -1    0    0  501    0  0.00000000000E+00  0.00000000000E+00  0.47443354920E+03  0.47443354923E+03  0.50400000000E-02 0. -1.
         -1   -1    0    0    0  501 -0.00000000000E+00 -0.00000000000E+00 -0.45152393559E+01  0.45152421687E+01  0.50400000000E-02 0.  1.
         23    2    1    2    0    0 -0.35527136788E-14  0.00000000000E+00  0.46991830985E+03  0.47894879140E+03  0.92567417878E+02 0.  0.
    9000005    2    3    3    0    0  0.24980665074E+02  0.10925682847E+02  0.42666704565E+03  0.42782075576E+03  0.15570068917E+02 0.  0.
         22    1    3    3    0    0 -0.24980665074E+02 -0.10925682847E+02  0.43251264201E+02  0.51128035638E+02  0.00000000000E+00 0.  1.
         22    1    4    4    0    0  0.26023893179E+02  0.89062137205E+01  0.33558232537E+03  0.33670767849E+03  0.00000000000E+00 0.  1.
         22    1    4    4    0    0 -0.10432281053E+01  0.20194691266E+01  0.91084720280E+02  0.91113077266E+02  0.00000000000E+00 0.  1.
<mgrwt>
<rscale>  0 0.92567418E+02</rscale>
<asrwt>0</asrwt>
<pdfrwt beam="1">  1        1 0.72989749E-01 0.92567418E+02</pdfrwt>
<pdfrwt beam="2">  1       -1 0.69465269E-03 0.92567418E+02</pdfrwt>
<totfact> 0.13290827E+05</totfact>
</mgrwt>
</event>
<event>
 7    1  0.2911475E-009  0.9359948E+02  0.7818608E-02  0.1294362E+00
         -1   -1    0    0    0  501 -0.00000000000E+00  0.00000000000E+00  0.10143547081E+02  0.10143548333E+02  0.50400000000E-02 0.  1.
          1   -1    0    0  501    0  0.00000000000E+00 -0.00000000000E+00 -0.21592206794E+03  0.21592206800E+03  0.50400000000E-02 0. -1.
         23    2    1    2    0    0  0.00000000000E+00 -0.35527136788E-14 -0.20577852086E+03  0.22606561633E+03  0.93599483122E+02 0.  0.
    9000005    2    3    3    0    0 -0.24641886382E+02 -0.27366721409E+02 -0.17259004859E+03  0.17649107955E+03  0.23698703502E+01 0.  0.
         22    1    3    3    0    0  0.24641886382E+02  0.27366721409E+02 -0.33188472273E+02  0.49574536780E+02  0.00000000000E+00 0.  1.
         22    1    4    4    0    0 -0.84804963970E+01 -0.83626527501E+01 -0.51761228136E+02  0.53113816643E+02  0.00000000000E+00 0.  1.
         22    1    4    4    0    0 -0.16161389985E+02 -0.19004068659E+02 -0.12082882045E+03  0.12337726291E+03  0.00000000000E+00 0.  1.
<mgrwt>
<rscale>  0 0.93599483E+02</rscale>
<asrwt>0</asrwt>
<pdfrwt beam="2">  1        1 0.33218776E-01 0.93599483E+02</pdfrwt>
<pdfrwt beam="1">  1       -1 0.15605460E-02 0.93599483E+02</pdfrwt>
<totfact> 0.11201562E+05</totfact>
</mgrwt>
</event>
<event>
 7    1  0.2911475E-009  0.9181302E+02  0.7818608E-02  0.1298520E+00
         -1   -1    0    0    0  501 -0.00000000000E+00  0.00000000000E+00  0.24842242051E+01  0.24842293177E+01  0.50400000000E-02 0.  1.
          1   -1    0    0  501    0  0.00000000000E+00 -0.00000000000E+00 -0.84831525992E+03  0.84831525993E+03  0.50400000000E-02 0. -1.
         23    2    1    2    0    0  0.00000000000E+00  0.00000000000E+00 -0.84583103571E+03  0.85079948925E+03  0.91813016147E+02 0.  0.
    9000005    2    3    3    0    0 -0.34297973346E+02  0.11797881270E+02 -0.67909653567E+03  0.68016556975E+03  0.11728450130E+02 0.  0.
         22    1    3    3    0    0  0.34297973346E+02 -0.11797881270E+02 -0.16673450005E+03  0.17063391950E+03  0.00000000000E+00 0.  1.
         22    1    4    4    0    0 -0.12929065998E+02  0.23888487584E+01 -0.15795815920E+03  0.15850440815E+03  0.00000000000E+00 0.  1.
         22    1    4    4    0    0 -0.21368907348E+02  0.94090325114E+01 -0.52113837647E+03  0.52166116160E+03  0.00000000000E+00 0.  1.
<mgrwt>
<rscale>  0 0.91813016E+02</rscale>
<asrwt>0</asrwt>
<pdfrwt beam="2">  1        1 0.13050981E+00 0.91813016E+02</pdfrwt>
<pdfrwt beam="1">  1       -1 0.38218941E-03 0.91813016E+02</pdfrwt>
<totfact> 0.13785611E+05</totfact>
</mgrwt>
</event>
<event>
 7    1  0.2911475E-009  0.9091886E+02  0.7818608E-02  0.1300642E+00
         -1   -1    0    0    0  501 -0.00000000000E+00  0.00000000000E+00  0.44921355165E+02  0.44921355447E+02  0.50400000000E-02 0.  1.
          1   -1    0    0  501    0  0.00000000000E+00 -0.00000000000E+00 -0.46003952615E+02  0.46003952891E+02  0.50400000000E-02 0. -1.
         23    2    1    2    0    0  0.00000000000E+00  0.00000000000E+00 -0.10825974501E+01  0.90925308338E+02  0.90918863164E+02 0.  0.
    9000005    2    3    3    0    0  0.24393841554E+02 -0.25544621445E+02 -0.27120274373E+02  0.47044243970E+02  0.15167874543E+02 0.  0.
         22    1    3    3    0    0 -0.24393841554E+02  0.25544621445E+02  0.26037676923E+02  0.43881064368E+02  0.00000000000E+00 0.  1.
         22    1    4    4    0    0  0.78767462425E+01 -0.13402175849E+01 -0.15193454416E+01  0.81331251751E+01  0.00000000000E+00 0. -1.
         22    1    4    4    0    0  0.16517095312E+02 -0.24204403860E+02 -0.25600928931E+02  0.38911118795E+02  0.00000000000E+00 0. -1.
<mgrwt>
<rscale>  0 0.90918863E+02</rscale>
<asrwt>0</asrwt>
<pdfrwt beam="2">  1        1 0.70775312E-02 0.90918863E+02</pdfrwt>
<pdfrwt beam="1">  1       -1 0.69109778E-02 0.90918863E+02</pdfrwt>
<totfact> 0.93337513E+04</totfact>
</mgrwt>
</event>
<event>
 7    1  0.2911475E-009  0.9291178E+02  0.7818608E-02  0.1295950E+00
          1   -1    0    0  501    0  0.00000000000E+00  0.00000000000E+00  0.24932979326E+02  0.24932979835E+02  0.50400000000E-02 0. -1.
         -1   -1    0    0    0  501 -0.00000000000E+00 -0.00000000000E+00 -0.86558039302E+02  0.86558039449E+02  0.50400000000E-02 0.  1.
         23    2    1    2    0    0  0.00000000000E+00  0.35527136788E-14 -0.61625059976E+02  0.11149101928E+03  0.92911782698E+02 0.  0.
    9000005    2    3    3    0    0 -0.11409911910E+02  0.28390338888E+02  0.82936531795E+01  0.35170485473E+02  0.15230920307E+02 0.  0.
         22    1    3    3    0    0  0.11409911910E+02 -0.28390338888E+02 -0.69918713156E+02  0.76320533812E+02  0.00000000000E+00 0.  1.
         22    1    4    4    0    0 -0.34996340519E+01  0.20455635779E+02 -0.75826887039E+00  0.20766690764E+02  0.00000000000E+00 0. -1.
         22    1    4    4    0    0 -0.79102778579E+01  0.79347031087E+01  0.90519220498E+01  0.14403794709E+02  0.00000000000E+00 0. -1.
<mgrwt>
<rscale>  0 0.92911783E+02</rscale>
<asrwt>0</asrwt>
<pdfrwt beam="1">  1        1 0.38358431E-02 0.92911783E+02</pdfrwt>
<pdfrwt beam="2">  1       -1 0.13316621E-01 0.92911783E+02</pdfrwt>
<totfact> 0.79565712E+04</totfact>
</mgrwt>
</event>
<event>
 7    1  0.2911475E-009  0.9213871E+02  0.7818608E-02  0.1297754E+00
          1   -1    0    0  501    0  0.00000000000E+00  0.00000000000E+00  0.86936905830E+03  0.86936905832E+03  0.50400000000E-02 0. -1.
         -1   -1    0    0    0  501 -0.00000000000E+00 -0.00000000000E+00 -0.24412913080E+01  0.24412965105E+01  0.50400000000E-02 0.  1.
         23    2    1    2    0    0 -0.35527136788E-14  0.00000000000E+00  0.86692776699E+03  0.87181035483E+03  0.92138708471E+02 0.  0.
    9000005    2    3    3    0    0 -0.31361716267E+02 -0.44164623087E+01  0.74814139754E+03  0.74887433913E+03  0.97037473787E+01 0.  0.
         22    1    3    3    0    0  0.31361716267E+02  0.44164623087E+01  0.11878636945E+03  0.12293601569E+03  0.00000000000E+00 0.  1.
         22    1    4    4    0    0 -0.82989439936E+00 -0.16677559464E+01  0.90128245308E+02  0.90147494347E+02  0.00000000000E+00 0.  1.
         22    1    4    4    0    0 -0.30531821868E+02 -0.27487063623E+01  0.65801315223E+03  0.65872684479E+03  0.00000000000E+00 0.  1.
<mgrwt>
<rscale>  0 0.92138708E+02</rscale>
<asrwt>0</asrwt>
<pdfrwt beam="1">  1        1 0.13374904E+00 0.92138708E+02</pdfrwt>
<pdfrwt beam="2">  1       -1 0.37558382E-03 0.92138708E+02</pdfrwt>
<totfact> 0.13611444E+05</totfact>
</mgrwt>
</event>
<event>
 7    1  0.2911475E-009  0.9095896E+02  0.7818608E-02  0.1300546E+00
         -1   -1    0    0    0  501 -0.00000000000E+00  0.00000000000E+00  0.24706533308E+03  0.24706533313E+03  0.50400000000E-02 0.  1.
          1   -1    0    0  501    0  0.00000000000E+00 -0.00000000000E+00 -0.83718049937E+01  0.83718065108E+01  0.50400000000E-02 0. -1.
         23    2    1    2    0    0  0.00000000000E+00  0.00000000000E+00  0.23869352809E+03  0.25543713964E+03  0.90958957549E+02 0.  0.
    9000005    2    3    3    0    0 -0.36727410407E+02 -0.10897815866E+02  0.18502129112E+03  0.18949493702E+03  0.14414850746E+02 0.  0.
         22    1    3    3    0    0  0.36727410407E+02  0.10897815866E+02  0.53672236964E+02  0.65942202622E+02  0.00000000000E+00 0. -1.
         22    1    4    4    0    0 -0.28476773546E+02 -0.10033196474E+02  0.11179822987E+03  0.11580343633E+03  0.00000000000E+00 0.  1.
         22    1    4    4    0    0 -0.82506368610E+01 -0.86461939118E+00  0.73223061253E+02  0.73691500695E+02  0.00000000000E+00 0.  1.
<mgrwt>
<rscale>  0 0.90958958E+02</rscale>
<asrwt>0</asrwt>
<pdfrwt beam="2">  1        1 0.12879700E-02 0.90958958E+02</pdfrwt>
<pdfrwt beam="1">  1       -1 0.38010054E-01 0.90958958E+02</pdfrwt>
<totfact> 0.65430966E+04</totfact>
</mgrwt>
</event>
<event>
 7    1  0.2911475E-009  0.9046227E+02  0.7818608E-02  0.1301736E+00
          1   -1    0    0  501    0  0.00000000000E+00  0.00000000000E+00  0.24873588202E+02  0.24873588713E+02  0.50400000000E-02 0.  1.
         -1   -1    0    0    0  501 -0.00000000000E+00 -0.00000000000E+00 -0.82250113164E+02  0.82250113318E+02  0.50400000000E-02 0. -1.
         23    2    1    2    0    0  0.35527136788E-14  0.17763568394E-14 -0.57376524962E+02  0.10712370203E+03  0.90462267936E+02 0.  0.
    9000005    2    3    3    0    0  0.31996567699E+02  0.14051634765E+02  0.19372819509E+01  0.38280717824E+02  0.15505854111E+02 0.  0.
         22    1    3    3    0    0 -0.31996567699E+02 -0.14051634765E+02 -0.59313806913E+02  0.68842984207E+02  0.00000000000E+00 0.  1.
         22    1    4    4    0    0  0.20741288162E+02  0.22219987468E+01 -0.33289954274E+01  0.21123932485E+02  0.00000000000E+00 0.  1.
         22    1    4    4    0    0  0.11255279536E+02  0.11829636018E+02  0.52662773783E+01  0.17156785339E+02  0.00000000000E+00 0.  1.
<mgrwt>
<rscale>  0 0.90462268E+02</rscale>
<asrwt>0</asrwt>
<pdfrwt beam="1">  1        1 0.38267060E-02 0.90462268E+02</pdfrwt>
<pdfrwt beam="2">  1       -1 0.12653863E-01 0.90462268E+02</pdfrwt>
<totfact> 0.85966744E+04</totfact>
</mgrwt>
</event>
<event>
 6    1  0.2911475E-009  0.1510995E+03  0.7818608E-02  0.1199128E+00
         -1   -1    0    0    0  501 -0.00000000000E+00  0.00000000000E+00  0.30113571800E+03  0.30113571804E+03  0.50400000000E-02 0.  1.
          1   -1    0    0  501    0  0.00000000000E+00 -0.00000000000E+00 -0.18954131261E+02  0.18954131931E+02  0.50400000000E-02 0. -1.
    9000005    2    1    2    0    0 -0.13199059216E+02 -0.50560322578E+02  0.25624139154E+03  0.26175071122E+03  0.11100572218E+02 0.  0.
         22    1    1    2    0    0  0.13199059216E+02  0.50560322578E+02  0.25940195202E+02  0.58339138753E+02  0.00000000000E+00 0. -1.
         22    1    3    3    0    0 -0.95132941134E+01 -0.18024075201E+02  0.11201377634E+03  0.11385278276E+03  0.00000000000E+00 0. -1.
         22    1    3    3    0    0 -0.36857651024E+01 -0.32536247377E+02  0.14422761520E+03  0.14789792846E+03  0.00000000000E+00 0. -1.
<mgrwt>
<rscale>  0 0.15109952E+03</rscale>
<asrwt>0</asrwt>
<pdfrwt beam="2">  1        1 0.29160202E-02 0.15109952E+03</pdfrwt>
<pdfrwt beam="1">  1       -1 0.46328573E-01 0.15109952E+03</pdfrwt>
<totfact> 0.15829304E+04</totfact>
</mgrwt>
</event>
<event>
 7    1  0.2911475E-009  0.8658954E+02  0.7818608E-02  0.1311327E+00
         -1   -1    0    0    0  501 -0.00000000000E+00  0.00000000000E+00  0.51801230630E+01  0.51801255148E+01  0.50400000000E-02 0.  1.
          1   -1    0    0  501    0  0.00000000000E+00 -0.00000000000E+00 -0.36185173531E+03  0.36185173534E+03  0.50400000000E-02 0. -1.
         23    2    1    2    0    0  0.00000000000E+00  0.00000000000E+00 -0.35667161225E+03  0.36703186086E+03  0.86589536916E+02 0.  0.
    9000005    2    3    3    0    0 -0.70319046424E+01 -0.40662049725E+02 -0.13492436515E+03  0.14147767321E+03  0.10416224626E+02 0.  0.
         22    1    3    3    0    0  0.70319046424E+01  0.40662049725E+02 -0.22174724709E+03  0.22555418765E+03  0.00000000000E+00 0. -1.
         22    1    4    4    0    0  0.27457009648E+01 -0.10197729521E+02 -0.34337352289E+02  0.35924731362E+02  0.00000000000E+00 0. -1.
         22    1    4    4    0    0 -0.97776056072E+01 -0.30464320203E+02 -0.10058701286E+03  0.10555294185E+03  0.00000000000E+00 0. -1.
<mgrwt>
<rscale>  0 0.86589537E+02</rscale>
<asrwt>0</asrwt>
<pdfrwt beam="2">  1        1 0.55669478E-01 0.86589537E+02</pdfrwt>
<pdfrwt beam="1">  1       -1 0.79694249E-03 0.86589537E+02</pdfrwt>
<totfact> 0.15205201E+05</totfact>
</mgrwt>
</event>
<event>
 7    1  0.2911475E-009  0.9154420E+02  0.7818608E-02  0.1299155E+00
          1   -1    0    0  501    0  0.00000000000E+00  0.00000000000E+00  0.97868661382E+02  0.97868661512E+02  0.50400000000E-02 0. -1.
         -1   -1    0    0    0  501 -0.00000000000E+00 -0.00000000000E+00 -0.21407109613E+02  0.21407110207E+02  0.50400000000E-02 0.  1.
         23    2    1    2    0    0  0.00000000000E+00  0.00000000000E+00  0.76461551769E+02  0.11927577172E+03  0.91544201456E+02 0.  0.
    9000005    2    3    3    0    0  0.52418326836E+01 -0.26255081685E+02 -0.82134468258E+01  0.30468894107E+02  0.12003610921E+02 0.  0.
         22    1    3    3    0    0 -0.52418326836E+01  0.26255081685E+02  0.84674998595E+02  0.88806877612E+02  0.00000000000E+00 0. -1.
         22    1    4    4    0    0  0.56826385377E+00 -0.57315892136E+01 -0.74358621549E+01  0.94056411109E+01  0.00000000000E+00 0.  1.
         22    1    4    4    0    0  0.46735688298E+01 -0.20523492472E+02 -0.77758467093E+00  0.21063252996E+02  0.00000000000E+00 0.  1.
<mgrwt>
<rscale>  0 0.91544201E+02</rscale>
<asrwt>0</asrwt>
<pdfrwt beam="1">  1        1 0.15056717E-01 0.91544201E+02</pdfrwt>
<pdfrwt beam="2">  1       -1 0.32934015E-02 0.91544201E+02</pdfrwt>
<totfact> 0.10294252E+05</totfact>
</mgrwt>
</event>
<event>
 7    1  0.2911475E-009  0.9222237E+02  0.7818608E-02  0.1297557E+00
          1   -1    0    0  501    0  0.00000000000E+00  0.00000000000E+00  0.29414389846E+03  0.29414389851E+03  0.50400000000E-02 0. -1.
         -1   -1    0    0    0  501 -0.00000000000E+00 -0.00000000000E+00 -0.72285739326E+01  0.72285756897E+01  0.50400000000E-02 0.  1.
         23    2    1    2    0    0 -0.44408920985E-15  0.00000000000E+00  0.28691532453E+03  0.30137247420E+03  0.92222365794E+02 0.  0.
    9000005    2    3    3    0    0 -0.34548151614E+01  0.33710128487E+02  0.24370604977E+03  0.24646027213E+03  0.14202765005E+02 0.  0.
         22    1    3    3    0    0  0.34548151614E+01 -0.33710128487E+02  0.43209274765E+02  0.54912202069E+02  0.00000000000E+00 0.  1.
         22    1    4    4    0    0  0.20103059646E+01  0.56711896946E+01  0.18603344504E+02  0.19552190398E+02  0.00000000000E+00 0.  1.
         22    1    4    4    0    0 -0.54651211260E+01  0.28038938793E+02  0.22510270526E+03  0.22690808173E+03  0.00000000000E+00 0.  1.
<mgrwt>
<rscale>  0 0.92222366E+02</rscale>
<asrwt>0</asrwt>
<pdfrwt beam="1">  1        1 0.45252906E-01 0.92222366E+02</pdfrwt>
<pdfrwt beam="2">  1       -1 0.11120885E-02 0.92222366E+02</pdfrwt>
<totfact> 0.12381495E+05</totfact>
</mgrwt>
</event>
<event>
 7    1  0.2911475E-009  0.9143616E+02  0.7818608E-02  0.1299411E+00
         -1   -1    0    0    0  501 -0.00000000000E+00  0.00000000000E+00  0.48291329523E+02  0.48291329786E+02  0.50400000000E-02 0.  1.
          1   -1    0    0  501    0  0.00000000000E+00 -0.00000000000E+00 -0.43281946914E+02  0.43281947208E+02  0.50400000000E-02 0. -1.
         23    2    1    2    0    0  0.00000000000E+00 -0.35527136788E-14  0.50093826092E+01  0.91573276994E+02  0.91436158850E+02 0.  0.
    9000005    2    3    3    0    0 -0.18867598250E+02 -0.22395010501E+02 -0.31884619507E+02  0.44470303084E+02  0.10171338956E+02 0.  0.
         22    1    3    3    0    0  0.18867598250E+02  0.22395010501E+02  0.36894002116E+02  0.47102973911E+02  0.00000000000E+00 0.  1.
         22    1    4    4    0    0 -0.72863623370E+01 -0.16359681050E+02 -0.19419259385E+02  0.26416621192E+02  0.00000000000E+00 0. -1.
         22    1    4    4    0    0 -0.11581235913E+02 -0.60353294514E+01 -0.12465360122E+02  0.18053681891E+02  0.00000000000E+00 0. -1.
<mgrwt>
<rscale>  0 0.91436159E+02</rscale>
<asrwt>0</asrwt>
<pdfrwt beam="2">  1        1 0.66587611E-02 0.91436159E+02</pdfrwt>
<pdfrwt beam="1">  1       -1 0.74294354E-02 0.91436159E+02</pdfrwt>
<totfact> 0.91020996E+04</totfact>
</mgrwt>
</event>
<event>
 7    1  0.2911475E-009  0.9155283E+02  0.7818608E-02  0.1299134E+00
         -1   -1    0    0    0  501 -0.00000000000E+00  0.00000000000E+00  0.14123064886E+02  0.14123065785E+02  0.50400000000E-02 0.  1.
          1   -1    0    0  501    0  0.00000000000E+00 -0.00000000000E+00 -0.14837289122E+03  0.14837289130E+03  0.50400000000E-02 0. -1.
         23    2    1    2    0    0  0.00000000000E+00  0.00000000000E+00 -0.13424982633E+03  0.16249595709E+03  0.91552827374E+02 0.  0.
    9000005    2    3    3    0    0 -0.29293229525E+02  0.32463086672E+02 -0.82717812386E+02  0.94912721345E+02  0.15944995922E+02 0.  0.
         22    1    3    3    0    0  0.29293229525E+02 -0.32463086672E+02 -0.51532013946E+02  0.67583235744E+02  0.00000000000E+00 0.  1.
         22    1    4    4    0    0 -0.13378872606E+02  0.12576066687E+02 -0.19639901946E+02  0.26886380084E+02  0.00000000000E+00 0. -1.
         22    1    4    4    0    0 -0.15914356919E+02  0.19887019985E+02 -0.63077910440E+02  0.68026341262E+02  0.00000000000E+00 0. -1.
<mgrwt>
<rscale>  0 0.91552827E+02</rscale>
<asrwt>0</asrwt>
<pdfrwt beam="2">  1        1 0.22826598E-01 0.91552827E+02</pdfrwt>
<pdfrwt beam="1">  1       -1 0.21727794E-02 0.91552827E+02</pdfrwt>
<totfact> 0.11067114E+05</totfact>
</mgrwt>
</event>
<event>
 7    1  0.2911475E-009  0.9137262E+02  0.7818608E-02  0.1299561E+00
          1   -1    0    0  501    0  0.00000000000E+00  0.00000000000E+00  0.58160088167E+03  0.58160088169E+03  0.50400000000E-02 0. -1.
         -1   -1    0    0    0  501 -0.00000000000E+00 -0.00000000000E+00 -0.35887804228E+01  0.35887839618E+01  0.50400000000E-02 0.  1.
         23    2    1    2    0    0  0.00000000000E+00  0.00000000000E+00  0.57801210125E+03  0.58518966565E+03  0.91372619529E+02 0.  0.
    9000005    2    3    3    0    0 -0.42737902177E+01 -0.92120858169E+01  0.57415722455E+03  0.57432744294E+03  0.96106920606E+01 0.  0.
         22    1    3    3    0    0  0.42737902177E+01  0.92120858169E+01  0.38548766951E+01  0.10862222713E+02  0.00000000000E+00 0.  1.
         22    1    4    4    0    0  0.22953762095E+01 -0.47710932644E+01  0.32750015764E+03  0.32754295190E+03  0.00000000000E+00 0. -1.
         22    1    4    4    0    0 -0.65691664272E+01 -0.44409925525E+01  0.24665706691E+03  0.24678449104E+03  0.00000000000E+00 0. -1.
<mgrwt>
<rscale>  0 0.91372620E+02</rscale>
<asrwt>0</asrwt>
<pdfrwt beam="1">  1        1 0.89477035E-01 0.91372620E+02</pdfrwt>
<pdfrwt beam="2">  1       -1 0.55212049E-03 0.91372620E+02</pdfrwt>
<totfact> 0.14049803E+05</totfact>
</mgrwt>
</event>
<event>
 7    1  0.2911475E-009  0.8191337E+02  0.7818608E-02  0.1323708E+00
          1   -1    0    0  501    0  0.00000000000E+00  0.00000000000E+00  0.51838791719E+01  0.51838816220E+01  0.50400000000E-02 0. -1.
         -1   -1    0    0    0  501 -0.00000000000E+00 -0.00000000000E+00 -0.32358964441E+03  0.32358964445E+03  0.50400000000E-02 0.  1.
         23    2    1    2    0    0  0.00000000000E+00 -0.44408920985E-15 -0.31840576524E+03  0.32877352607E+03  0.81913369534E+02 0.  0.
    9000005    2    3    3    0    0 -0.19668182260E+02  0.15322778161E+01 -0.30229120904E+03  0.30330071330E+03  0.14905111862E+02 0.  0.
         22    1    3    3    0    0  0.19668182260E+02 -0.15322778161E+01 -0.16114556196E+02  0.25472812764E+02  0.00000000000E+00 0. -1.
         22    1    4    4    0    0 -0.41305205668E+01  0.50358724451E+01 -0.15778261104E+03  0.15791698313E+03  0.00000000000E+00 0. -1.
         22    1    4    4    0    0 -0.15537661693E+02 -0.35035946290E+01 -0.14450859800E+03  0.14538373018E+03  0.00000000000E+00 0. -1.
<mgrwt>
<rscale>  0 0.81913370E+02</rscale>
<asrwt>0</asrwt>
<pdfrwt beam="1">  1        1 0.79752032E-03 0.81913370E+02</pdfrwt>
<pdfrwt beam="2">  1       -1 0.49783007E-01 0.81913370E+02</pdfrwt>
<totfact> 0.77669338E+04</totfact>
</mgrwt>
</event>
<event>
 7    1  0.2911475E-009  0.9032668E+02  0.7818608E-02  0.1302063E+00
         -1   -1    0    0    0  501 -0.00000000000E+00  0.00000000000E+00  0.12922320867E+03  0.12922320877E+03  0.50400000000E-02 0.  1.
          1   -1    0    0  501    0  0.00000000000E+00 -0.00000000000E+00 -0.15784527626E+02  0.15784528431E+02  0.50400000000E-02 0. -1.
         23    2    1    2    0    0  0.00000000000E+00  0.00000000000E+00  0.11343868104E+03  0.14500773720E+03  0.90326682052E+02 0.  0.
    9000005    2    3    3    0    0  0.21131415827E+02 -0.11020731636E+02 -0.46661278763E+01  0.24522305919E+02  0.34025692614E+01 0.  0.
         22    1    3    3    0    0 -0.21131415827E+02  0.11020731636E+02  0.11810480892E+03  0.12048543128E+03  0.00000000000E+00 0.  1.
         22    1    4    4    0    0  0.81788212795E+01 -0.51855344430E+01 -0.41283407167E+00  0.96929519215E+01  0.00000000000E+00 0.  1.
         22    1    4    4    0    0  0.12952594548E+02 -0.58351971925E+01 -0.42532938046E+01  0.14829353997E+02  0.00000000000E+00 0.  1.
<mgrwt>
<rscale>  0 0.90326682E+02</rscale>
<asrwt>0</asrwt>
<pdfrwt beam="2">  1        1 0.24283889E-02 0.90326682E+02</pdfrwt>
<pdfrwt beam="1">  1       -1 0.19880494E-01 0.90326682E+02</pdfrwt>
<totfact> 0.79220510E+04</totfact>
</mgrwt>
</event>
<event>
 7    1  0.2911475E-009  0.9195225E+02  0.7818608E-02  0.1298192E+00
          1   -1    0    0  501    0  0.00000000000E+00  0.00000000000E+00  0.68543340060E+02  0.68543340245E+02  0.50400000000E-02 0. -1.
         -1   -1    0    0    0  501 -0.00000000000E+00 -0.00000000000E+00 -0.30838937949E+02  0.30838938361E+02  0.50400000000E-02 0.  1.
         23    2    1    2    0    0  0.00000000000E+00  0.00000000000E+00  0.37704402111E+02  0.99382278606E+02  0.91952245011E+02 0.  0.
    9000005    2    3    3    0    0 -0.20996670479E+02 -0.39204815836E+02  0.26200669723E+02  0.53445217155E+02  0.13857791560E+02 0.  0.
         22    1    3    3    0    0  0.20996670479E+02  0.39204815836E+02  0.11503732388E+02  0.45937061451E+02  0.00000000000E+00 0.  1.
         22    1    4    4    0    0 -0.10221869976E+02 -0.25027770119E+02  0.85049390160E+01  0.28340957828E+02  0.00000000000E+00 0. -1.
         22    1    4    4    0    0 -0.10774800503E+02 -0.14177045717E+02  0.17695730707E+02  0.25104259327E+02  0.00000000000E+00 0. -1.
<mgrwt>
<rscale>  0 0.91952245E+02</rscale>
<asrwt>0</asrwt>
<pdfrwt beam="1">  1        1 0.10545129E-01 0.91952245E+02</pdfrwt>
<pdfrwt beam="2">  1       -1 0.47444521E-02 0.91952245E+02</pdfrwt>
<totfact> 0.96072187E+04</totfact>
</mgrwt>
</event>
<event>
 7    1  0.2911475E-009  0.9048838E+02  0.7818608E-02  0.1301673E+00
         -1   -1    0    0    0  501 -0.00000000000E+00  0.00000000000E+00  0.99343005148E+02  0.99343005276E+02  0.50400000000E-02 0.  1.
          1   -1    0    0  501    0  0.00000000000E+00 -0.00000000000E+00 -0.20605744077E+02  0.20605744694E+02  0.50400000000E-02 0. -1.
         23    2    1    2    0    0  0.00000000000E+00  0.88817841970E-15  0.78737261071E+02  0.11994874997E+03  0.90488376814E+02 0.  0.
    9000005    2    3    3    0    0 -0.41944393234E+02 -0.62308283636E+01  0.56726195514E+02  0.72171743441E+02  0.13883225417E+02 0.  0.
         22    1    3    3    0    0  0.41944393234E+02  0.62308283636E+01  0.22011065557E+02  0.47777006529E+02  0.00000000000E+00 0.  1.
         22    1    4    4    0    0 -0.38587018735E+02 -0.15145160073E+01  0.51518601448E+02  0.64384921129E+02  0.00000000000E+00 0. -1.
         22    1    4    4    0    0 -0.33573744991E+01 -0.47163123563E+01  0.52075940658E+01  0.77868223123E+01  0.00000000000E+00 0. -1.
<mgrwt>
<rscale>  0 0.90488377E+02</rscale>
<asrwt>0</asrwt>
<pdfrwt beam="2">  1        1 0.31701146E-02 0.90488377E+02</pdfrwt>
<pdfrwt beam="1">  1       -1 0.15283539E-01 0.90488377E+02</pdfrwt>
<totfact> 0.83074578E+04</totfact>
</mgrwt>
</event>
<event>
 7    1  0.2911475E-009  0.9158933E+02  0.7818608E-02  0.1299048E+00
          1   -1    0    0  501    0  0.00000000000E+00  0.00000000000E+00  0.17042779232E+03  0.17042779239E+03  0.50400000000E-02 0. -1.
         -1   -1    0    0    0  501 -0.00000000000E+00 -0.00000000000E+00 -0.12305217439E+02  0.12305218471E+02  0.50400000000E-02 0.  1.
         23    2    1    2    0    0  0.00000000000E+00  0.00000000000E+00  0.15812257488E+03  0.18273301087E+03  0.91589325651E+02 0.  0.
    9000005    2    3    3    0    0  0.11234558598E+01 -0.17755074359E+02  0.16286135441E+03  0.16432212143E+03  0.12705668517E+02 0.  0.
         22    1    3    3    0    0 -0.11234558598E+01  0.17755074359E+02 -0.47387795253E+01  0.18410889440E+02  0.00000000000E+00 0.  1.
         22    1    4    4    0    0  0.18271347482E+00 -0.11725360165E+02  0.14446046064E+03  0.14493564828E+03  0.00000000000E+00 0. -1.
         22    1    4    4    0    0  0.94074238497E+00 -0.60297141948E+01  0.18400893769E+02  0.19386473145E+02  0.00000000000E+00 0. -1.
<mgrwt>
<rscale>  0 0.91589326E+02</rscale>
<asrwt>0</asrwt>
<pdfrwt beam="1">  1        1 0.26219660E-01 0.91589326E+02</pdfrwt>
<pdfrwt beam="2">  1       -1 0.18931105E-02 0.91589326E+02</pdfrwt>
<totfact> 0.11344245E+05</totfact>
</mgrwt>
</event>
<event>
 7    1  0.2911475E-009  0.8621691E+02  0.7818608E-02  0.1312281E+00
          1   -1    0    0  501    0  0.00000000000E+00  0.00000000000E+00  0.10087939110E+04  0.10087939110E+04  0.50400000000E-02 0. -1.
         -1   -1    0    0    0  501 -0.00000000000E+00 -0.00000000000E+00 -0.18421360161E+01  0.18421429107E+01  0.50400000000E-02 0.  1.
         23    2    1    2    0    0  0.00000000000E+00 -0.71054273576E-14  0.10069517750E+04  0.10106360539E+04  0.86216914503E+02 0.  0.
    9000005    2    3    3    0    0  0.62936194020E+01  0.33395578423E+02  0.80496125497E+03  0.80580674821E+03  0.14388160224E+02 0.  0.
         22    1    3    3    0    0 -0.62936194020E+01 -0.33395578423E+02  0.20199051999E+03  0.20482930569E+03  0.00000000000E+00 0.  1.
         22    1    4    4    0    0  0.77378294503E+01  0.85246670131E+01  0.19798925621E+03  0.19832369885E+03  0.00000000000E+00 0. -1.
         22    1    4    4    0    0 -0.14442100483E+01  0.24870911410E+02  0.60697199877E+03  0.60748304936E+03  0.00000000000E+00 0. -1.
<mgrwt>
<rscale>  0 0.86216915E+02</rscale>
<asrwt>0</asrwt>
<pdfrwt beam="1">  1        1 0.15519927E+00 0.86216915E+02</pdfrwt>
<pdfrwt beam="2">  1       -1 0.28340570E-03 0.86216915E+02</pdfrwt>
<totfact> 0.15725701E+05</totfact>
</mgrwt>
</event>
<event>
 7    1  0.2911475E-009  0.9620382E+02  0.7818608E-02  0.1288488E+00
         -1   -1    0    0    0  501 -0.00000000000E+00  0.00000000000E+00  0.47063931037E+02  0.47063931307E+02  0.50400000000E-02 0.  1.
          1   -1    0    0  501    0  0.00000000000E+00 -0.00000000000E+00 -0.49162778791E+02  0.49162779049E+02  0.50400000000E-02 0. -1.
         23    2    1    2    0    0  0.00000000000E+00  0.00000000000E+00 -0.20988477531E+01  0.96226710356E+02  0.96203818137E+02 0.  0.
    9000005    2    3    3    0    0  0.18430899239E+02 -0.42640875972E+02  0.10111747316E+02  0.48195043902E+02  0.79102763864E+01 0.  0.
         22    1    3    3    0    0 -0.18430899239E+02  0.42640875972E+02 -0.12210595069E+02  0.48031666454E+02  0.00000000000E+00 0. -1.
         22    1    4    4    0    0  0.61163287178E+01 -0.24058602376E+02  0.57139074429E+01  0.25473016381E+02  0.00000000000E+00 0.  1.
         22    1    4    4    0    0  0.12314570522E+02 -0.18582273596E+02  0.43978398728E+01  0.22722027521E+02  0.00000000000E+00 0.  1.
<mgrwt>
<rscale>  0 0.96203818E+02</rscale>
<asrwt>0</asrwt>
<pdfrwt beam="2">  1        1 0.75635045E-02 0.96203818E+02</pdfrwt>
<pdfrwt beam="1">  1       -1 0.72406048E-02 0.96203818E+02</pdfrwt>
<totfact> 0.80426352E+04</totfact>
</mgrwt>
</event>
<event>
 7    1  0.2911475E-009  0.9226469E+02  0.7818608E-02  0.1297458E+00
          1   -1    0    0  501    0  0.00000000000E+00  0.00000000000E+00  0.87274672268E+01  0.87274686820E+01  0.50400000000E-02 0. -1.
         -1   -1    0    0    0  501 -0.00000000000E+00 -0.00000000000E+00 -0.24385001902E+03  0.24385001907E+03  0.50400000000E-02 0.  1.
         23    2    1    2    0    0  0.71054273576E-14  0.00000000000E+00 -0.23512255180E+03  0.25257748776E+03  0.92264689662E+02 0.  0.
    9000005    2    3    3    0    0  0.45051907141E+02 -0.95020371489E+01 -0.11136015283E+03  0.12052789690E+03  0.24345936781E+01 0.  0.
         22    1    3    3    0    0 -0.45051907141E+02  0.95020371489E+01 -0.12376239896E+03  0.13204959085E+03  0.00000000000E+00 0. -1.
         22    1    4    4    0    0  0.27054771103E+02 -0.46033344930E+01 -0.67635663469E+02  0.72991330312E+02  0.00000000000E+00 0. -1.
         22    1    4    4    0    0  0.17997136038E+02 -0.48987026559E+01 -0.43724489362E+02  0.47536566591E+02  0.00000000000E+00 0. -1.
<mgrwt>
<rscale>  0 0.92264690E+02</rscale>
<asrwt>0</asrwt>
<pdfrwt beam="1">  1        1 0.13426876E-02 0.92264690E+02</pdfrwt>
<pdfrwt beam="2">  1       -1 0.37515382E-01 0.92264690E+02</pdfrwt>
<totfact> 0.63315165E+04</totfact>
</mgrwt>
</event>
<event>
 7    1  0.2911475E-009  0.9009025E+02  0.7818608E-02  0.1302633E+00
          1   -1    0    0  501    0  0.00000000000E+00  0.00000000000E+00  0.15432811921E+02  0.15432812744E+02  0.50400000000E-02 0. -1.
         -1   -1    0    0    0  501 -0.00000000000E+00 -0.00000000000E+00 -0.13147721672E+03  0.13147721681E+03  0.50400000000E-02 0.  1.
         23    2    1    2    0    0 -0.35527136788E-14 -0.35527136788E-14 -0.11604440479E+03  0.14691002956E+03  0.90090248640E+02 0.  0.
    9000005    2    3    3    0    0 -0.27153167742E+02 -0.30545896441E+02 -0.34906039804E+02  0.56059709902E+02  0.15934652542E+02 0.  0.
         22    1    3    3    0    0  0.27153167742E+02  0.30545896441E+02 -0.81138364990E+02  0.90850319654E+02  0.00000000000E+00 0.  1.
         22    1    4    4    0    0 -0.48876228383E+01 -0.12656542881E+02 -0.19062538303E+02  0.23397805479E+02  0.00000000000E+00 0.  1.
         22    1    4    4    0    0 -0.22265544904E+02 -0.17889353561E+02 -0.15843501501E+02  0.32661904423E+02  0.00000000000E+00 0.  1.
<mgrwt>
<rscale>  0 0.90090249E+02</rscale>
<asrwt>0</asrwt>
<pdfrwt beam="1">  1        1 0.23742789E-02 0.90090249E+02</pdfrwt>
<pdfrwt beam="2">  1       -1 0.20227263E-01 0.90090249E+02</pdfrwt>
<totfact> 0.79464194E+04</totfact>
</mgrwt>
</event>
<event>
 7    1  0.2911475E-009  0.9225410E+02  0.7818608E-02  0.1297483E+00
          1   -1    0    0  501    0  0.00000000000E+00  0.00000000000E+00  0.19871786764E+02  0.19871787403E+02  0.50400000000E-02 0. -1.
         -1   -1    0    0    0  501 -0.00000000000E+00 -0.00000000000E+00 -0.10707162954E+03  0.10707162965E+03  0.50400000000E-02 0.  1.
         23    2    1    2    0    0  0.71054273576E-14  0.88817841970E-15 -0.87199842772E+02  0.12694341706E+03  0.92254097767E+02 0.  0.
    9000005    2    3    3    0    0 -0.44287392999E+02 -0.66237596680E+01 -0.41241845653E+02  0.62776565257E+02  0.15321877881E+02 0.  0.
         22    1    3    3    0    0  0.44287392999E+02  0.66237596680E+01 -0.45957997119E+02  0.64166851800E+02  0.00000000000E+00 0.  1.
         22    1    4    4    0    0 -0.33116699271E+02 -0.10711866367E+02 -0.34928102954E+02  0.49309555136E+02  0.00000000000E+00 0.  1.
         22    1    4    4    0    0 -0.11170693728E+02  0.40881066992E+01 -0.63137426991E+01  0.13467010122E+02  0.00000000000E+00 0.  1.
<mgrwt>
<rscale>  0 0.92254098E+02</rscale>
<asrwt>0</asrwt>
<pdfrwt beam="1">  1        1 0.30571981E-02 0.92254098E+02</pdfrwt>
<pdfrwt beam="2">  1       -1 0.16472558E-01 0.92254098E+02</pdfrwt>
<totfact> 0.77926188E+04</totfact>
</mgrwt>
</event>
<event>
 7    1  0.2911475E-009  0.9588176E+02  0.7818608E-02  0.1289202E+00
          1   -1    0    0  501    0  0.00000000000E+00  0.00000000000E+00  0.68741098104E+02  0.68741098289E+02  0.50400000000E-02 0. -1.
         -1   -1    0    0    0  501 -0.00000000000E+00 -0.00000000000E+00 -0.33434557252E+02  0.33434557632E+02  0.50400000000E-02 0.  1.
         23    2    1    2    0    0 -0.17763568394E-14  0.00000000000E+00  0.35306540852E+02  0.10217565592E+03  0.95881764877E+02 0.  0.
    9000005    2    3    3    0    0 -0.13850473709E+02 -0.10319000553E+02  0.65010455846E+02  0.67815214126E+02  0.86154804401E+01 0.  0.
         22    1    3    3    0    0  0.13850473709E+02  0.10319000553E+02 -0.29703914995E+02  0.34360441795E+02  0.00000000000E+00 0.  1.
         22    1    4    4    0    0 -0.13865046065E+02 -0.80671529599E+01  0.46946000773E+02  0.49610940808E+02  0.00000000000E+00 0. -1.
         22    1    4    4    0    0  0.14572356362E-01 -0.22518475928E+01  0.18064455074E+02  0.18204273318E+02  0.00000000000E+00 0. -1.
<mgrwt>
<rscale>  0 0.95881765E+02</rscale>
<asrwt>0</asrwt>
<pdfrwt beam="1">  1        1 0.10575554E-01 0.95881765E+02</pdfrwt>
<pdfrwt beam="2">  1       -1 0.51437781E-02 0.95881765E+02</pdfrwt>
<totfact> 0.85582188E+04</totfact>
</mgrwt>
</event>
<event>
 7    1  0.2911475E-009  0.9010388E+02  0.7818608E-02  0.1302600E+00
         -1   -1    0    0    0  501 -0.00000000000E+00  0.00000000000E+00  0.72831776025E+00  0.72833519859E+00  0.50400000000E-02 0.  1.
          1   -1    0    0  501    0  0.00000000000E+00 -0.00000000000E+00 -0.27867685575E+04  0.27867685575E+04  0.50400000000E-02 0. -1.
         23    2    1    2    0    0  0.00000000000E+00  0.00000000000E+00 -0.27860402397E+04  0.27874968927E+04  0.90103881051E+02 0.  0.
    9000005    2    3    3    0    0 -0.44637721019E+01 -0.10937562296E+02 -0.27375656910E+04  0.27376036326E+04  0.82571805656E+01 0.  0.
         22    1    3    3    0    0  0.44637721019E+01  0.10937562296E+02 -0.48474548706E+02  0.49893260092E+02  0.00000000000E+00 0.  1.
         22    1    4    4    0    0  0.10284771413E+01  0.89566419859E+00 -0.27748803228E+03  0.27749138372E+03  0.00000000000E+00 0. -1.
         22    1    4    4    0    0 -0.54922492432E+01 -0.11833226494E+02 -0.24600776587E+04  0.24601122489E+04  0.00000000000E+00 0. -1.
<mgrwt>
<rscale>  0 0.90103881E+02</rscale>
<asrwt>0</asrwt>
<pdfrwt beam="2">  1        1 0.42872509E+00 0.90103881E+02</pdfrwt>
<pdfrwt beam="1">  1       -1 0.11205246E-03 0.90103881E+02</pdfrwt>
<totfact> 0.40754160E+04</totfact>
</mgrwt>
</event>
<event>
 7    1  0.2911475E-009  0.8937365E+02  0.7818608E-02  0.1304376E+00
          1   -1    0    0  501    0  0.00000000000E+00  0.00000000000E+00  0.43440372971E+03  0.43440372974E+03  0.50400000000E-02 0. -1.
         -1   -1    0    0    0  501 -0.00000000000E+00 -0.00000000000E+00 -0.45969032065E+01  0.45969059694E+01  0.50400000000E-02 0.  1.
         23    2    1    2    0    0  0.00000000000E+00  0.22204460493E-15  0.42980682650E+03  0.43900063571E+03  0.89373654080E+02 0.  0.
    9000005    2    3    3    0    0  0.32189963162E+02 -0.15792751780E+01  0.36414724870E+03  0.36585784389E+03  0.14493286622E+02 0.  0.
         22    1    3    3    0    0 -0.32189963162E+02  0.15792751780E+01  0.65659577796E+02  0.73142791817E+02  0.00000000000E+00 0.  1.
         22    1    4    4    0    0  0.42457342575E+01 -0.56826592692E+01  0.73418834052E+02  0.73760721725E+02  0.00000000000E+00 0. -1.
         22    1    4    4    0    0  0.27944228905E+02  0.41033840913E+01  0.29072841465E+03  0.29209712216E+03  0.00000000000E+00 0. -1.
<mgrwt>
<rscale>  0 0.89373654E+02</rscale>
<asrwt>0</asrwt>
<pdfrwt beam="1">  1        1 0.66831315E-01 0.89373654E+02</pdfrwt>
<pdfrwt beam="2">  1       -1 0.70721640E-03 0.89373654E+02</pdfrwt>
<totfact> 0.14407743E+05</totfact>
</mgrwt>
</event>
<event>
 7    1  0.2911475E-009  0.9660537E+02  0.7818608E-02  0.1287601E+00
         -1   -1    0    0    0  501 -0.00000000000E+00  0.00000000000E+00  0.52246765220E+01  0.52246789529E+01  0.50400000000E-02 0.  1.
          1   -1    0    0  501    0  0.00000000000E+00 -0.00000000000E+00 -0.44656329974E+03  0.44656329977E+03  0.50400000000E-02 0. -1.
         23    2    1    2    0    0  0.00000000000E+00  0.00000000000E+00 -0.44133862322E+03  0.45178797873E+03  0.96605369278E+02 0.  0.
    9000005    2    3    3    0    0 -0.32056662816E+02 -0.72488935038E+01 -0.38529585207E+03  0.38681899931E+03  0.97912469509E+01 0.  0.
         22    1    3    3    0    0  0.32056662816E+02  0.72488935038E+01 -0.56042771154E+02  0.64968979417E+02  0.00000000000E+00 0.  1.
         22    1    4    4    0    0 -0.10400852526E+02 -0.68409711910E+01 -0.16050459248E+03  0.16098664798E+03  0.00000000000E+00 0.  1.
         22    1    4    4    0    0 -0.21655810290E+02 -0.40792231286E+00 -0.22479125959E+03  0.22583235133E+03  0.00000000000E+00 0.  1.
<mgrwt>
<rscale>  0 0.96605369E+02</rscale>
<asrwt>0</asrwt>
<pdfrwt beam="2">  1        1 0.68702016E-01 0.96605369E+02</pdfrwt>
<pdfrwt beam="1">  1       -1 0.80379693E-03 0.96605369E+02</pdfrwt>
<totfact> 0.11763487E+05</totfact>
</mgrwt>
</event>
<event>
 7    1  0.2911475E-009  0.9065464E+02  0.7818608E-02  0.1301274E+00
          1   -1    0    0  501    0  0.00000000000E+00  0.00000000000E+00  0.49223457423E+02  0.49223457681E+02  0.50400000000E-02 0. -1.
         -1   -1    0    0    0  501 -0.00000000000E+00 -0.00000000000E+00 -0.41739572171E+02  0.41739572475E+02  0.50400000000E-02 0.  1.
         23    2    1    2    0    0  0.00000000000E+00  0.35527136788E-14  0.74838852524E+01  0.90963030156E+02  0.90654643106E+02 0.  0.
    9000005    2    3    3    0    0 -0.20946679315E+02 -0.22533416209E+02  0.36332449877E+02  0.48787706787E+02  0.10661857206E+02 0.  0.
         22    1    3    3    0    0  0.20946679315E+02  0.22533416209E+02 -0.28848564625E+02  0.42175323369E+02  0.00000000000E+00 0.  1.
         22    1    4    4    0    0 -0.82135230211E+01 -0.16482987527E+02  0.21870920327E+02  0.28591746959E+02  0.00000000000E+00 0.  1.
         22    1    4    4    0    0 -0.12733156294E+02 -0.60504286827E+01  0.14461529550E+02  0.20195959828E+02  0.00000000000E+00 0.  1.
<mgrwt>
<rscale>  0 0.90654643E+02</rscale>
<asrwt>0</asrwt>
<pdfrwt beam="1">  1        1 0.75728396E-02 0.90654643E+02</pdfrwt>
<pdfrwt beam="2">  1       -1 0.64214727E-02 0.90654643E+02</pdfrwt>
<totfact> 0.95057507E+04</totfact>
</mgrwt>
</event>
<event>
 7    1  0.2911475E-009  0.8755828E+02  0.7818608E-02  0.1308875E+00
         -1   -1    0    0    0  501 -0.00000000000E+00  0.00000000000E+00  0.51769943151E+01  0.51769967684E+01  0.50400000000E-02 0.  1.
          1   -1    0    0  501    0  0.00000000000E+00 -0.00000000000E+00 -0.37021728455E+03  0.37021728459E+03  0.50400000000E-02 0. -1.
         23    2    1    2    0    0  0.00000000000E+00  0.00000000000E+00 -0.36504029024E+03  0.37539428136E+03  0.87558283318E+02 0.  0.
    9000005    2    3    3    0    0  0.29963226491E+02 -0.21069013199E+02 -0.28254036761E+03  0.28512836590E+03  0.11288376962E+02 0.  0.
         22    1    3    3    0    0 -0.29963226491E+02  0.21069013199E+02 -0.82499922632E+02  0.90265915457E+02  0.00000000000E+00 0.  1.
         22    1    4    4    0    0  0.17012877713E+02 -0.18450625174E+02 -0.18070688424E+03  0.18244133739E+03  0.00000000000E+00 0.  1.
         22    1    4    4    0    0  0.12950348778E+02 -0.26183880254E+01 -0.10183348337E+03  0.10268702851E+03  0.00000000000E+00 0.  1.
<mgrwt>
<rscale>  0 0.87558283E+02</rscale>
<asrwt>0</asrwt>
<pdfrwt beam="2">  1        1 0.56956485E-01 0.87558283E+02</pdfrwt>
<pdfrwt beam="1">  1       -1 0.79646115E-03 0.87558283E+02</pdfrwt>
<totfact> 0.14822659E+05</totfact>
</mgrwt>
</event>
<event>
 7    1  0.2911475E-009  0.8943134E+02  0.7818608E-02  0.1304235E+00
          1   -1    0    0  501    0  0.00000000000E+00  0.00000000000E+00  0.19988898584E+02  0.19988899220E+02  0.50400000000E-02 0. -1.
         -1   -1    0    0    0  501 -0.00000000000E+00 -0.00000000000E+00 -0.10003007208E+03  0.10003007221E+03  0.50400000000E-02 0.  1.
         23    2    1    2    0    0  0.00000000000E+00 -0.71054273576E-14 -0.80041173499E+02  0.12001897143E+03  0.89431337058E+02 0.  0.
    9000005    2    3    3    0    0 -0.22063419599E+01  0.32150945893E+02 -0.81582341117E+02  0.87755579415E+02  0.26099941986E+01 0.  0.
         22    1    3    3    0    0  0.22063419599E+01 -0.32150945893E+02  0.15411676179E+01  0.32263392015E+02  0.00000000000E+00 0. -1.
         22    1    4    4    0    0 -0.82821844413E+00  0.40801093827E+01 -0.12502113909E+02  0.13177104787E+02  0.00000000000E+00 0.  1.
         22    1    4    4    0    0 -0.13781235158E+01  0.28070836510E+02 -0.69080227208E+02  0.74578474629E+02  0.00000000000E+00 0.  1.
<mgrwt>
<rscale>  0 0.89431337E+02</rscale>
<asrwt>0</asrwt>
<pdfrwt beam="1">  1        1 0.30752153E-02 0.89431337E+02</pdfrwt>
<pdfrwt beam="2">  1       -1 0.15389242E-01 0.89431337E+02</pdfrwt>
<totfact> 0.85513765E+04</totfact>
</mgrwt>
</event>
<event>
 7    1  0.2911475E-009  0.9098611E+02  0.7818608E-02  0.1300481E+00
         -1   -1    0    0    0  501 -0.00000000000E+00  0.00000000000E+00  0.24531659629E+02  0.24531660146E+02  0.50400000000E-02 0.  1.
          1   -1    0    0  501    0  0.00000000000E+00 -0.00000000000E+00 -0.84365182159E+02  0.84365182310E+02  0.50400000000E-02 0. -1.
         23    2    1    2    0    0  0.00000000000E+00 -0.44408920985E-15 -0.59833522531E+02  0.10889684246E+03  0.90986108162E+02 0.  0.
    9000005    2    3    3    0    0  0.16084370742E+02  0.10905357775E+01 -0.80184257459E+02  0.82934395296E+02  0.13736903892E+02 0.  0.
         22    1    3    3    0    0 -0.16084370742E+02 -0.10905357775E+01  0.20350734928E+02  0.25962447160E+02  0.00000000000E+00 0.  1.
         22    1    4    4    0    0  0.57907938433E+01 -0.62622168033E+01 -0.32675633606E+02  0.33770485400E+02  0.00000000000E+00 0.  1.
         22    1    4    4    0    0  0.10293576898E+02  0.73527525807E+01 -0.47508623853E+02  0.49163909896E+02  0.00000000000E+00 0.  1.
<mgrwt>
<rscale>  0 0.90986108E+02</rscale>
<asrwt>0</asrwt>
<pdfrwt beam="2">  1        1 0.12979259E-01 0.90986108E+02</pdfrwt>
<pdfrwt beam="1">  1       -1 0.37741016E-02 0.90986108E+02</pdfrwt>
<totfact> 0.10218221E+05</totfact>
</mgrwt>
</event>
<event>
 7    1  0.2911475E-009  0.9158739E+02  0.7818608E-02  0.1299053E+00
         -1   -1    0    0    0  501 -0.00000000000E+00  0.00000000000E+00  0.49189162323E+01  0.49189188143E+01  0.50400000000E-02 0.  1.
          1   -1    0    0  501    0  0.00000000000E+00 -0.00000000000E+00 -0.42632601591E+03  0.42632601594E+03  0.50400000000E-02 0. -1.
         23    2    1    2    0    0  0.00000000000E+00  0.00000000000E+00 -0.42140709968E+03  0.43124493476E+03  0.91587390466E+02 0.  0.
    9000005    2    3    3    0    0  0.38553384021E+02  0.57142350923E+01 -0.32082220718E+03  0.32337308253E+03  0.11146568405E+02 0.  0.
         22    1    3    3    0    0 -0.38553384021E+02 -0.57142350923E+01 -0.10058489251E+03  0.10787185222E+03  0.00000000000E+00 0.  1.
         22    1    4    4    0    0  0.20069012510E+02  0.81511369784E+01 -0.18949492736E+03  0.19072895374E+03  0.00000000000E+00 0.  1.
         22    1    4    4    0    0  0.18484371511E+02 -0.24369018860E+01 -0.13132727981E+03  0.13264412880E+03  0.00000000000E+00 0.  1.
<mgrwt>
<rscale>  0 0.91587390E+02</rscale>
<asrwt>0</asrwt>
<pdfrwt beam="2">  1        1 0.65588589E-01 0.91587390E+02</pdfrwt>
<pdfrwt beam="1">  1       -1 0.75675688E-03 0.91587390E+02</pdfrwt>
<totfact> 0.13464634E+05</totfact>
</mgrwt>
</event>
<event>
 7    1  0.2911475E-009  0.9079042E+02  0.7818608E-02  0.1300949E+00
         -1   -1    0    0    0  501 -0.00000000000E+00  0.00000000000E+00  0.63428054926E+02  0.63428055126E+02  0.50400000000E-02 0.  1.
          1   -1    0    0  501    0  0.00000000000E+00 -0.00000000000E+00 -0.32489173757E+02  0.32489174148E+02  0.50400000000E-02 0. -1.
         23    2    1    2    0    0  0.00000000000E+00  0.00000000000E+00  0.30938881169E+02  0.95917229274E+02  0.90790420770E+02 0.  0.
    9000005    2    3    3    0    0  0.37500313414E+02 -0.23298539517E+02  0.21254032038E+02  0.50718869209E+02  0.13098639862E+02 0.  0.
         22    1    3    3    0    0 -0.37500313414E+02  0.23298539517E+02  0.96848491313E+01  0.45198360064E+02  0.00000000000E+00 0. -1.
         22    1    4    4    0    0  0.10966005579E+02 -0.14322117524E+02  0.84897624922E+01  0.19936208162E+02  0.00000000000E+00 0. -1.
         22    1    4    4    0    0  0.26534307836E+02 -0.89764219933E+01  0.12764269546E+02  0.30782661047E+02  0.00000000000E+00 0. -1.
<mgrwt>
<rscale>  0 0.90790421E+02</rscale>
<asrwt>0</asrwt>
<pdfrwt beam="2">  1        1 0.49983345E-02 0.90790421E+02</pdfrwt>
<pdfrwt beam="1">  1       -1 0.97581624E-02 0.90790421E+02</pdfrwt>
<totfact> 0.88865360E+04</totfact>
</mgrwt>
</event>
<event>
 7    1  0.2911475E-009  0.9097710E+02  0.7818608E-02  0.1300503E+00
         -1   -1    0    0    0  501 -0.00000000000E+00  0.00000000000E+00  0.16379964762E+02  0.16379965537E+02  0.50400000000E-02 0.  1.
          1   -1    0    0  501    0  0.00000000000E+00 -0.00000000000E+00 -0.12632554032E+03  0.12632554042E+03  0.50400000000E-02 0. -1.
         23    2    1    2    0    0 -0.35527136788E-14  0.00000000000E+00 -0.10994557556E+03  0.14270550596E+03  0.90977095173E+02 0.  0.
    9000005    2    3    3    0    0  0.26995206487E+02  0.19885886599E+02 -0.93108590508E+01  0.36632249076E+02  0.11447266790E+02 0.  0.
         22    1    3    3    0    0 -0.26995206487E+02 -0.19885886599E+02 -0.10063471651E+03  0.10607325688E+03  0.00000000000E+00 0. -1.
         22    1    4    4    0    0  0.42724979826E+01  0.94520699712E+01 -0.36449183732E+01  0.10994603026E+02  0.00000000000E+00 0. -1.
         22    1    4    4    0    0  0.22722708505E+02  0.10433816627E+02 -0.56659406776E+01  0.25637646050E+02  0.00000000000E+00 0. -1.
<mgrwt>
<rscale>  0 0.90977095E+02</rscale>
<asrwt>0</asrwt>
<pdfrwt beam="2">  1        1 0.19434698E-01 0.90977095E+02</pdfrwt>
<pdfrwt beam="1">  1       -1 0.25199947E-02 0.90977095E+02</pdfrwt>
<totfact> 0.10936123E+05</totfact>
</mgrwt>
</event>
<event>
 7    1  0.2911475E-009  0.9485733E+02  0.7818608E-02  0.1291498E+00
         -1   -1    0    0    0  501 -0.00000000000E+00  0.00000000000E+00  0.94969584342E+02  0.94969584476E+02  0.50400000000E-02 0.  1.
          1   -1    0    0  501    0  0.00000000000E+00 -0.00000000000E+00 -0.23686302283E+02  0.23686302820E+02  0.50400000000E-02 0. -1.
         23    2    1    2    0    0 -0.17763568394E-14  0.71054273576E-14  0.71283282059E+02  0.11865588730E+03  0.94857331234E+02 0.  0.
    9000005    2    3    3    0    0 -0.10465194880E+02  0.41244232150E+02  0.11620572862E+02  0.45373925953E+02  0.10637126174E+02 0.  0.
         22    1    3    3    0    0  0.10465194880E+02 -0.41244232150E+02  0.59662709197E+02  0.73281961343E+02  0.00000000000E+00 0.  1.
         22    1    4    4    0    0 -0.27266848409E+01  0.30199476426E+02  0.90612122145E+01  0.31647255069E+02  0.00000000000E+00 0. -1.
         22    1    4    4    0    0 -0.77385100388E+01  0.11044755724E+02  0.25593606472E+01  0.13726670883E+02  0.00000000000E+00 0. -1.
<mgrwt>
<rscale>  0 0.94857331E+02</rscale>
<asrwt>0</asrwt>
<pdfrwt beam="2">  1        1 0.36440466E-02 0.94857331E+02</pdfrwt>
<pdfrwt beam="1">  1       -1 0.14610705E-01 0.94857331E+02</pdfrwt>
<totfact> 0.74185713E+04</totfact>
</mgrwt>
</event>
<event>
 7    1  0.2911475E-009  0.8610257E+02  0.7818608E-02  0.1312574E+00
         -1   -1    0    0    0  501 -0.00000000000E+00  0.00000000000E+00  0.15748618854E+02  0.15748619661E+02  0.50400000000E-02 0.  1.
          1   -1    0    0  501    0  0.00000000000E+00 -0.00000000000E+00 -0.11768733453E+03  0.11768733464E+03  0.50400000000E-02 0. -1.
         23    2    1    2    0    0  0.00000000000E+00  0.00000000000E+00 -0.10193871568E+03  0.13343595430E+03  0.86102567592E+02 0.  0.
    9000005    2    3    3    0    0 -0.21291955748E+01 -0.30651163203E+02 -0.96720521930E+02  0.10227096071E+03  0.12667389730E+02 0.  0.
         22    1    3    3    0    0  0.21291955748E+01  0.30651163203E+02 -0.52181937474E+01  0.31164993590E+02  0.00000000000E+00 0.  1.
         22    1    4    4    0    0  0.41794472245E+01 -0.16531158581E+02 -0.61173328608E+02  0.63505299906E+02  0.00000000000E+00 0. -1.
         22    1    4    4    0    0 -0.63086427992E+01 -0.14120004622E+02 -0.35547193321E+02  0.38765660803E+02  0.00000000000E+00 0. -1.
<mgrwt>
<rscale>  0 0.86102568E+02</rscale>
<asrwt>0</asrwt>
<pdfrwt beam="2">  1        1 0.18105743E-01 0.86102568E+02</pdfrwt>
<pdfrwt beam="1">  1       -1 0.24228646E-02 0.86102568E+02</pdfrwt>
<totfact> 0.12534282E+05</totfact>
</mgrwt>
</event>
<event>
 7    1  0.2911475E-009  0.9601045E+02  0.7818608E-02  0.1288916E+00
         -1   -1    0    0    0  501 -0.00000000000E+00  0.00000000000E+00  0.31256187244E+01  0.31256227878E+01  0.50400000000E-02 0. -1.
          1   -1    0    0  501    0  0.00000000000E+00 -0.00000000000E+00 -0.73729406027E+03  0.73729406029E+03  0.50400000000E-02 0.  1.
         23    2    1    2    0    0  0.00000000000E+00  0.71054273576E-14 -0.73416844154E+03  0.74041968307E+03  0.96010450074E+02 0.  0.
    9000005    2    3    3    0    0  0.83184780089E+01 -0.44153978047E+02 -0.49024976569E+03  0.49239732262E+03  0.95665935493E+01 0.  0.
         22    1    3    3    0    0 -0.83184780089E+01  0.44153978047E+02 -0.24391867586E+03  0.24802236046E+03  0.00000000000E+00 0. -1.
         22    1    4    4    0    0  0.91819455480E+01 -0.42905757017E+02 -0.48308671165E+03  0.48507523446E+03  0.00000000000E+00 0. -1.
         22    1    4    4    0    0 -0.86346753910E+00 -0.12482210302E+01 -0.71630540314E+01  0.73220881576E+01  0.00000000000E+00 0. -1.
<mgrwt>
<rscale>  0 0.96010450E+02</rscale>
<asrwt>0</asrwt>
<pdfrwt beam="2">  1        1 0.11342972E+00 0.96010450E+02</pdfrwt>
<pdfrwt beam="1">  1       -1 0.48086532E-03 0.96010450E+02</pdfrwt>
<totfact> 0.12383213E+05</totfact>
</mgrwt>
</event>
<event>
 7    1  0.2911475E-009  0.9257795E+02  0.7818608E-02  0.1296726E+00
         -1   -1    0    0    0  501 -0.00000000000E+00  0.00000000000E+00  0.26843198306E+02  0.26843198779E+02  0.50400000000E-02 0.  1.
          1   -1    0    0  501    0  0.00000000000E+00 -0.00000000000E+00 -0.79821684710E+02  0.79821684869E+02  0.50400000000E-02 0. -1.
         23    2    1    2    0    0  0.35527136788E-14  0.00000000000E+00 -0.52978486405E+02  0.10666488365E+03  0.92577953001E+02 0.  0.
    9000005    2    3    3    0    0  0.28695673260E+02  0.34542915848E+02 -0.23427721604E+02  0.52907071198E+02  0.15285461853E+02 0.  0.
         22    1    3    3    0    0 -0.28695673260E+02 -0.34542915848E+02 -0.29550764801E+02  0.53757812450E+02  0.00000000000E+00 0. -1.
         22    1    4    4    0    0  0.23526334408E+02  0.19720791489E+02 -0.20565759362E+02  0.36950622265E+02  0.00000000000E+00 0. -1.
         22    1    4    4    0    0  0.51693388515E+01  0.14822124359E+02 -0.28619622421E+01  0.15956448933E+02  0.00000000000E+00 0. -1.
<mgrwt>
<rscale>  0 0.92577953E+02</rscale>
<asrwt>0</asrwt>
<pdfrwt beam="2">  1        1 0.12280259E-01 0.92577953E+02</pdfrwt>
<pdfrwt beam="1">  1       -1 0.41297229E-02 0.92577953E+02</pdfrwt>
<totfact> 0.96571846E+04</totfact>
</mgrwt>
</event>
<event>
 7    1  0.2911475E-009  0.9072218E+02  0.7818608E-02  0.1301112E+00
          1   -1    0    0  501    0  0.00000000000E+00  0.00000000000E+00  0.23784264420E+03  0.23784264425E+03  0.50400000000E-02 0. -1.
         -1   -1    0    0    0  501 -0.00000000000E+00 -0.00000000000E+00 -0.86512168692E+01  0.86512183373E+01  0.50400000000E-02 0.  1.
         23    2    1    2    0    0  0.00000000000E+00  0.00000000000E+00  0.22919142733E+03  0.24649386259E+03  0.90722179940E+02 0.  0.
    9000005    2    3    3    0    0 -0.29163984457E+02 -0.18238140338E+02  0.35192315732E+02  0.49468932560E+02  0.50505890402E+01 0.  0.
         22    1    3    3    0    0  0.29163984457E+02  0.18238140338E+02  0.19399911160E+03  0.19702493003E+03  0.00000000000E+00 0. -1.
         22    1    4    4    0    0 -0.22997824675E+02 -0.14142662102E+02  0.30363987873E+02  0.40631103734E+02  0.00000000000E+00 0. -1.
         22    1    4    4    0    0 -0.61661597827E+01 -0.40954782357E+01  0.48283278589E+01  0.88378288259E+01  0.00000000000E+00 0. -1.
<mgrwt>
<rscale>  0 0.90722180E+02</rscale>
<asrwt>0</asrwt>
<pdfrwt beam="1">  1        1 0.36591172E-01 0.90722180E+02</pdfrwt>
<pdfrwt beam="2">  1       -1 0.13309567E-02 0.90722180E+02</pdfrwt>
<totfact> 0.12412089E+05</totfact>
</mgrwt>
</event>
<event>
 7    1  0.2911475E-009  0.9234870E+02  0.7818608E-02  0.1297262E+00
         -1   -1    0    0    0  501 -0.00000000000E+00  0.00000000000E+00  0.51195159906E+01  0.51195184715E+01  0.50400000000E-02 0.  1.
          1   -1    0    0  501    0  0.00000000000E+00 -0.00000000000E+00 -0.41645930544E+03  0.41645930547E+03  0.50400000000E-02 0. -1.
         23    2    1    2    0    0  0.71054273576E-14 -0.17763568394E-14 -0.41133978944E+03  0.42157882394E+03  0.92348700110E+02 0.  0.
    9000005    2    3    3    0    0  0.42108948473E+02 -0.14654520990E+02 -0.15320911090E+03  0.15962584012E+03  0.44111951905E+01 0.  0.
         22    1    3    3    0    0 -0.42108948473E+02  0.14654520990E+02 -0.25813067854E+03  0.26195298382E+03  0.00000000000E+00 0. -1.
         22    1    4    4    0    0  0.32756277485E+02 -0.12550467463E+02 -0.11488817807E+03  0.12012402511E+03  0.00000000000E+00 0. -1.
         22    1    4    4    0    0  0.93526709888E+01 -0.21040535261E+01 -0.38320932834E+02  0.39501815010E+02  0.00000000000E+00 0. -1.
<mgrwt>
<rscale>  0 0.92348700E+02</rscale>
<asrwt>0</asrwt>
<pdfrwt beam="2">  1        1 0.64070636E-01 0.92348700E+02</pdfrwt>
<pdfrwt beam="1">  1       -1 0.78761837E-03 0.92348700E+02</pdfrwt>
<totfact> 0.13123792E+05</totfact>
</mgrwt>
</event>
<event>
 7    1  0.2911475E-009  0.8974071E+02  0.7818608E-02  0.1303481E+00
          1   -1    0    0  501    0  0.00000000000E+00  0.00000000000E+00  0.76742876254E+02  0.76742876420E+02  0.50400000000E-02 0. -1.
         -1   -1    0    0    0  501 -0.00000000000E+00 -0.00000000000E+00 -0.26234991291E+02  0.26234991776E+02  0.50400000000E-02 0.  1.
         23    2    1    2    0    0  0.00000000000E+00  0.00000000000E+00  0.50507884963E+02  0.10297786820E+03  0.89740709238E+02 0.  0.
    9000005    2    3    3    0    0 -0.25871538566E+02  0.33390211569E+00  0.66847603154E+02  0.72376652713E+02  0.10016477032E+02 0.  0.
         22    1    3    3    0    0  0.25871538566E+02 -0.33390211569E+00 -0.16339718192E+02  0.30601215482E+02  0.00000000000E+00 0.  1.
         22    1    4    4    0    0  0.31028241862E+00  0.14167567229E+01  0.50181114269E+01  0.52234966339E+01  0.00000000000E+00 0.  1.
         22    1    4    4    0    0 -0.26181820984E+02 -0.10828546072E+01  0.61829491727E+02  0.67153156079E+02  0.00000000000E+00 0.  1.
<mgrwt>
<rscale>  0 0.89740709E+02</rscale>
<asrwt>0</asrwt>
<pdfrwt beam="1">  1        1 0.11806596E-01 0.89740709E+02</pdfrwt>
<pdfrwt beam="2">  1       -1 0.40361526E-02 0.89740709E+02</pdfrwt>
<totfact> 0.10454374E+05</totfact>
</mgrwt>
</event>
<event>
 7    1  0.2911475E-009  0.9791218E+02  0.7818608E-02  0.1284749E+00
          1   -1    0    0  501    0  0.00000000000E+00  0.00000000000E+00  0.60544189346E+01  0.60544210324E+01  0.50400000000E-02 0. -1.
         -1   -1    0    0    0  501 -0.00000000000E+00 -0.00000000000E+00 -0.39585937084E+03  0.39585937087E+03  0.50400000000E-02 0.  1.
         23    2    1    2    0    0 -0.35527136788E-14  0.00000000000E+00 -0.38980495191E+03  0.40191379191E+03  0.97912183068E+02 0.  0.
    9000005    2    3    3    0    0 -0.19932867667E+02  0.42101089787E+02 -0.25474182523E+03  0.25904367900E+03  0.63568177930E+01 0.  0.
         22    1    3    3    0    0  0.19932867667E+02 -0.42101089787E+02 -0.13506312668E+03  0.14287011291E+03  0.00000000000E+00 0. -1.
         22    1    4    4    0    0 -0.17409629329E+02  0.32482063749E+02 -0.21008972366E+03  0.21329761284E+03  0.00000000000E+00 0.  1.
         22    1    4    4    0    0 -0.25232383377E+01  0.96190260381E+01 -0.44652101573E+02  0.45746066153E+02  0.00000000000E+00 0.  1.
<mgrwt>
<rscale>  0 0.97912183E+02</rscale>
<asrwt>0</asrwt>
<pdfrwt beam="1">  1        1 0.93144954E-03 0.97912183E+02</pdfrwt>
<pdfrwt beam="2">  1       -1 0.60901421E-01 0.97912183E+02</pdfrwt>
<totfact> 0.44420762E+04</totfact>
</mgrwt>
</event>
<event>
 7    1  0.2911475E-009  0.9301378E+02  0.7818608E-02  0.1295713E+00
          1   -1    0    0  501    0  0.00000000000E+00  0.00000000000E+00  0.13152701671E+03  0.13152701681E+03  0.50400000000E-02 0. -1.
         -1   -1    0    0    0  501 -0.00000000000E+00 -0.00000000000E+00 -0.16444460110E+02  0.16444460882E+02  0.50400000000E-02 0.  1.
         23    2    1    2    0    0  0.00000000000E+00  0.71054273576E-14  0.11508255660E+03  0.14797147769E+03  0.93013780571E+02 0.  0.
    9000005    2    3    3    0    0  0.24642284772E+02  0.36897670274E+02  0.41483556980E+02  0.62032586520E+02  0.12588725915E+02 0.  0.
         22    1    3    3    0    0 -0.24642284772E+02 -0.36897670274E+02  0.73598999624E+02  0.85938891173E+02  0.00000000000E+00 0. -1.
         22    1    4    4    0    0  0.15470814671E+02  0.25955184690E+02  0.19993920131E+02  0.36232230971E+02  0.00000000000E+00 0.  1.
         22    1    4    4    0    0  0.91714701010E+01  0.10942485584E+02  0.21489636849E+02  0.25800355549E+02  0.00000000000E+00 0.  1.
<mgrwt>
<rscale>  0 0.93013781E+02</rscale>
<asrwt>0</asrwt>
<pdfrwt beam="1">  1        1 0.20234926E-01 0.93013781E+02</pdfrwt>
<pdfrwt beam="2">  1       -1 0.25299170E-02 0.93013781E+02</pdfrwt>
<totfact> 0.10372978E+05</totfact>
</mgrwt>
</event>
<event>
 7    1  0.2911475E-009  0.9047769E+02  0.7818608E-02  0.1301699E+00
          1   -1    0    0  501    0  0.00000000000E+00  0.00000000000E+00  0.11135779634E+03  0.11135779645E+03  0.50400000000E-02 0. -1.
         -1   -1    0    0    0  501 -0.00000000000E+00 -0.00000000000E+00 -0.18378176807E+02  0.18378177498E+02  0.50400000000E-02 0.  1.
         23    2    1    2    0    0  0.00000000000E+00  0.00000000000E+00  0.92979619534E+02  0.12973597395E+03  0.90477694980E+02 0.  0.
    9000005    2    3    3    0    0 -0.21358313047E+02  0.87307783763E+01  0.10192707599E+03  0.10498802445E+03  0.10047508684E+02 0.  0.
         22    1    3    3    0    0  0.21358313047E+02 -0.87307783763E+01 -0.89474564604E+01  0.24747949499E+02  0.00000000000E+00 0.  1.
         22    1    4    4    0    0 -0.22441758308E+02  0.81170791150E+01  0.98210640302E+02  0.10106853792E+03  0.00000000000E+00 0. -1.
         22    1    4    4    0    0  0.10834452603E+01  0.61369926126E+00  0.37164356924E+01  0.39194865316E+01  0.00000000000E+00 0. -1.
<mgrwt>
<rscale>  0 0.90477695E+02</rscale>
<asrwt>0</asrwt>
<pdfrwt beam="1">  1        1 0.17131968E-01 0.90477695E+02</pdfrwt>
<pdfrwt beam="2">  1       -1 0.28274119E-02 0.90477695E+02</pdfrwt>
<totfact> 0.10860757E+05</totfact>
</mgrwt>
</event>
<event>
 7    1  0.2911475E-009  0.9476276E+02  0.7818608E-02  0.1291711E+00
          1   -1    0    0  501    0  0.00000000000E+00  0.00000000000E+00  0.51310122287E+02  0.51310122535E+02  0.50400000000E-02 0. -1.
         -1   -1    0    0    0  501 -0.00000000000E+00 -0.00000000000E+00 -0.43753453820E+02  0.43753454110E+02  0.50400000000E-02 0.  1.
         23    2    1    2    0    0  0.00000000000E+00  0.00000000000E+00  0.75566684677E+01  0.95063576645E+02  0.94762758329E+02 0.  0.
    9000005    2    3    3    0    0  0.41824707939E+02 -0.16274443679E+02 -0.87189944695E+01  0.47324065595E+02  0.12222217827E+02 0.  0.
         22    1    3    3    0    0 -0.41824707939E+02  0.16274443679E+02  0.16275662937E+02  0.47739511050E+02  0.00000000000E+00 0.  1.
         22    1    4    4    0    0  0.21841756858E+02 -0.12652226453E+02 -0.47659334938E-01  0.25241700582E+02  0.00000000000E+00 0.  1.
         22    1    4    4    0    0  0.19982951081E+02 -0.36222172260E+01 -0.86713351345E+01  0.22082365012E+02  0.00000000000E+00 0.  1.
<mgrwt>
<rscale>  0 0.94762758E+02</rscale>
<asrwt>0</asrwt>
<pdfrwt beam="1">  1        1 0.78938649E-02 0.94762758E+02</pdfrwt>
<pdfrwt beam="2">  1       -1 0.67313007E-02 0.94762758E+02</pdfrwt>
<totfact> 0.84481326E+04</totfact>
</mgrwt>
</event>
<event>
 7    1  0.2911475E-009  0.9083587E+02  0.7818608E-02  0.1300840E+00
          1   -1    0    0  501    0  0.00000000000E+00  0.00000000000E+00  0.21892992877E+03  0.21892992882E+03  0.50400000000E-02 0. -1.
         -1   -1    0    0    0  501 -0.00000000000E+00 -0.00000000000E+00 -0.94221420040E+01  0.94221433520E+01  0.50400000000E-02 0.  1.
         23    2    1    2    0    0  0.35527136788E-14  0.00000000000E+00  0.20950778676E+03  0.22835207218E+03  0.90835874813E+02 0.  0.
    9000005    2    3    3    0    0 -0.26833647995E+02 -0.15129412992E+02  0.24245042247E+02  0.40545713638E+02  0.10353212961E+02 0.  0.
         22    1    3    3    0    0  0.26833647995E+02  0.15129412992E+02  0.18526274451E+03  0.18780635854E+03  0.00000000000E+00 0. -1.
         22    1    4    4    0    0 -0.17593168053E+02 -0.14790435454E+02  0.19556075917E+02  0.30178082250E+02  0.00000000000E+00 0. -1.
         22    1    4    4    0    0 -0.92404799424E+01 -0.33897753825E+00  0.46889663301E+01  0.10367631387E+02  0.00000000000E+00 0. -1.
<mgrwt>
<rscale>  0 0.90835875E+02</rscale>
<asrwt>0</asrwt>
<pdfrwt beam="1">  1        1 0.33681530E-01 0.90835875E+02</pdfrwt>
<pdfrwt beam="2">  1       -1 0.14495603E-02 0.90835875E+02</pdfrwt>
<totfact> 0.12172319E+05</totfact>
</mgrwt>
</event>
<event>
 7    1  0.2911475E-009  0.8960143E+02  0.7818608E-02  0.1303820E+00
          1   -1    0    0  501    0  0.00000000000E+00  0.00000000000E+00  0.19717285236E+03  0.19717285242E+03  0.50400000000E-02 0. -1.
         -1   -1    0    0    0  501 -0.00000000000E+00 -0.00000000000E+00 -0.10179413879E+02  0.10179415127E+02  0.50400000000E-02 0.  1.
         23    2    1    2    0    0  0.00000000000E+00 -0.35527136788E-14  0.18699343848E+03  0.20735226755E+03  0.89601433156E+02 0.  0.
    9000005    2    3    3    0    0  0.32635936660E+02  0.24362167570E+02  0.53896217794E+02  0.68163583654E+02  0.91023224297E+01 0.  0.
         22    1    3    3    0    0 -0.32635936660E+02 -0.24362167570E+02  0.13309722069E+03  0.13918868390E+03  0.00000000000E+00 0. -1.
         22    1    4    4    0    0  0.33108836964E+02  0.23794460803E+02  0.51677281174E+02  0.65824864903E+02  0.00000000000E+00 0.  1.
         22    1    4    4    0    0 -0.47290030352E+00  0.56770676755E+00  0.22189366198E+01  0.23387187504E+01  0.00000000000E+00 0.  1.
<mgrwt>
<rscale>  0 0.89601433E+02</rscale>
<asrwt>0</asrwt>
<pdfrwt beam="1">  1        1 0.30334283E-01 0.89601433E+02</pdfrwt>
<pdfrwt beam="2">  1       -1 0.15660639E-02 0.89601433E+02</pdfrwt>
<totfact> 0.12372257E+05</totfact>
</mgrwt>
</event>
<event>
 7    1  0.2911475E-009  0.8705201E+02  0.7818608E-02  0.1310152E+00
          1   -1    0    0  501    0  0.00000000000E+00  0.00000000000E+00  0.47817962145E+02  0.47817962411E+02  0.50400000000E-02 0. -1.
         -1   -1    0    0    0  501 -0.00000000000E+00 -0.00000000000E+00 -0.39619281489E+02  0.39619281810E+02  0.50400000000E-02 0.  1.
         23    2    1    2    0    0  0.00000000000E+00  0.00000000000E+00  0.81986806561E+01  0.87437244221E+02  0.87052014982E+02 0.  0.
    9000005    2    3    3    0    0  0.37404262271E+02 -0.17297899060E+02  0.17981999151E+02  0.45081495276E+02  0.32699808682E+01 0.  0.
         22    1    3    3    0    0 -0.37404262271E+02  0.17297899060E+02 -0.97833184949E+01  0.42355748945E+02  0.00000000000E+00 0.  1.
         22    1    4    4    0    0  0.35073049094E+02 -0.15601812500E+02  0.16026255644E+02  0.41597790759E+02  0.00000000000E+00 0. -1.
         22    1    4    4    0    0  0.23312131769E+01 -0.16960865600E+01  0.19557435066E+01  0.34837045166E+01  0.00000000000E+00 0. -1.
<mgrwt>
<rscale>  0 0.87052015E+02</rscale>
<asrwt>0</asrwt>
<pdfrwt beam="1">  1        1 0.73566096E-02 0.87052015E+02</pdfrwt>
<pdfrwt beam="2">  1       -1 0.60952741E-02 0.87052015E+02</pdfrwt>
<totfact> 0.10596981E+05</totfact>
</mgrwt>
</event>
<event>
 7    1  0.2911475E-009  0.9269961E+02  0.7818608E-02  0.1296443E+00
          1   -1    0    0  501    0  0.00000000000E+00  0.00000000000E+00  0.58537127545E+03  0.58537127547E+03  0.50400000000E-02 0. -1.
         -1   -1    0    0    0  501 -0.00000000000E+00 -0.00000000000E+00 -0.36699841071E+01  0.36699875678E+01  0.50400000000E-02 0.  1.
         23    2    1    2    0    0  0.71054273576E-14  0.35527136788E-14  0.58170129134E+03  0.58904126304E+03  0.92699607406E+02 0.  0.
    9000005    2    3    3    0    0  0.39481896193E+02  0.17223496204E+02  0.39920174500E+03  0.40152712127E+03  0.25547906167E+01 0.  0.
         22    1    3    3    0    0 -0.39481896193E+02 -0.17223496204E+02  0.18249954634E+03  0.18751414176E+03  0.00000000000E+00 0.  1.
         22    1    4    4    0    0  0.45912440486E+01  0.18619717945E+01  0.38931528136E+02  0.39245513679E+02  0.00000000000E+00 0.  1.
         22    1    4    4    0    0  0.34890652144E+02  0.15361524409E+02  0.36027021687E+03  0.36228160759E+03  0.00000000000E+00 0.  1.
<mgrwt>
<rscale>  0 0.92699607E+02</rscale>
<asrwt>0</asrwt>
<pdfrwt beam="1">  1        1 0.90057041E-01 0.92699607E+02</pdfrwt>
<pdfrwt beam="2">  1       -1 0.56461370E-03 0.92699607E+02</pdfrwt>
<totfact> 0.13529186E+05</totfact>
</mgrwt>
</event>
<event>
 7    1  0.2911475E-009  0.9392291E+02  0.7818608E-02  0.1293621E+00
         -1   -1    0    0    0  501 -0.00000000000E+00  0.00000000000E+00  0.14797063542E+02  0.14797064400E+02  0.50400000000E-02 0.  1.
          1   -1    0    0  501    0  0.00000000000E+00 -0.00000000000E+00 -0.14904160784E+03  0.14904160793E+03  0.50400000000E-02 0. -1.
         23    2    1    2    0    0  0.00000000000E+00  0.44408920985E-15 -0.13424454430E+03  0.16383867233E+03  0.93922909217E+02 0.  0.
    9000005    2    3    3    0    0 -0.45464081899E+02 -0.16285405376E+01 -0.57608723174E+02  0.74716935546E+02  0.13936304549E+02 0.  0.
         22    1    3    3    0    0  0.45464081899E+02  0.16285405376E+01 -0.76635821127E+02  0.89121736782E+02  0.00000000000E+00 0. -1.
         22    1    4    4    0    0 -0.38235243354E+02  0.32526888770E+01 -0.42414698157E+02  0.57197206566E+02  0.00000000000E+00 0.  1.
         22    1    4    4    0    0 -0.72288385456E+01 -0.48812294146E+01 -0.15194025017E+02  0.17519728980E+02  0.00000000000E+00 0.  1.
<mgrwt>
<rscale>  0 0.93922909E+02</rscale>
<asrwt>0</asrwt>
<pdfrwt beam="2">  1        1 0.22929477E-01 0.93922909E+02</pdfrwt>
<pdfrwt beam="1">  1       -1 0.22764715E-02 0.93922909E+02</pdfrwt>
<totfact> 0.10336205E+05</totfact>
</mgrwt>
</event>
<event>
 7    1  0.2911475E-009  0.8759684E+02  0.7818608E-02  0.1308778E+00
         -1   -1    0    0    0  501 -0.00000000000E+00  0.00000000000E+00  0.48343958987E+01  0.48343985259E+01  0.50400000000E-02 0.  1.
          1   -1    0    0  501    0  0.00000000000E+00 -0.00000000000E+00 -0.39680266277E+03  0.39680266280E+03  0.50400000000E-02 0. -1.
         23    2    1    2    0    0  0.00000000000E+00  0.00000000000E+00 -0.39196826687E+03  0.40163706132E+03  0.87596842397E+02 0.  0.
    9000005    2    3    3    0    0  0.83980146750E+01  0.10296178063E+02 -0.38692677833E+03  0.38742599029E+03  0.14492350868E+02 0.  0.
         22    1    3    3    0    0 -0.83980146750E+01 -0.10296178063E+02 -0.50414885409E+01  0.14211071033E+02  0.00000000000E+00 0.  1.
         22    1    4    4    0    0  0.30412735807E+01  0.82527823461E+01 -0.86802993707E+02  0.87247449693E+02  0.00000000000E+00 0.  1.
         22    1    4    4    0    0  0.53567410943E+01  0.20433957174E+01 -0.30012378462E+03  0.30017854060E+03  0.00000000000E+00 0.  1.
<mgrwt>
<rscale>  0 0.87596842E+02</rscale>
<asrwt>0</asrwt>
<pdfrwt beam="2">  1        1 0.61046538E-01 0.87596842E+02</pdfrwt>
<pdfrwt beam="1">  1       -1 0.74375373E-03 0.87596842E+02</pdfrwt>
<totfact> 0.14979459E+05</totfact>
</mgrwt>
</event>
<event>
 7    1  0.2911475E-009  0.8664817E+02  0.7818608E-02  0.1311178E+00
         -1   -1    0    0    0  501 -0.00000000000E+00  0.00000000000E+00  0.15334050174E+01  0.15334133001E+01  0.50400000000E-02 0.  1.
          1   -1    0    0  501    0  0.00000000000E+00 -0.00000000000E+00 -0.12240543774E+04  0.12240543774E+04  0.50400000000E-02 0. -1.
         23    2    1    2    0    0  0.00000000000E+00  0.00000000000E+00 -0.12225209724E+04  0.12255877907E+04  0.86648166876E+02 0.  0.
    9000005    2    3    3    0    0  0.77107270001E+01  0.22389063016E+02 -0.11230817544E+04  0.11233680102E+04  0.90737992523E+01 0.  0.
         22    1    3    3    0    0 -0.77107270001E+01 -0.22389063016E+02 -0.99439217999E+02  0.10221978052E+03  0.00000000000E+00 0.  1.
         22    1    4    4    0    0  0.45443884613E+01  0.83883724871E+01 -0.27642287248E+03  0.27658745577E+03  0.00000000000E+00 0. -1.
         22    1    4    4    0    0  0.31663385388E+01  0.14000690529E+02 -0.84665888188E+03  0.84678055440E+03  0.00000000000E+00 0. -1.
<mgrwt>
<rscale>  0 0.86648167E+02</rscale>
<asrwt>0</asrwt>
<pdfrwt beam="2">  1        1 0.18831528E+00 0.86648167E+02</pdfrwt>
<pdfrwt beam="1">  1       -1 0.23591008E-03 0.86648167E+02</pdfrwt>
<totfact> 0.14423157E+05</totfact>
</mgrwt>
</event>
<event>
 7    1  0.3263365E-009  0.9184092E+02  0.7818608E-02  0.1298454E+00
         -1   -1    0    0    0  501 -0.00000000000E+00  0.00000000000E+00  0.70826177752E+02  0.70826177931E+02  0.50400000000E-02 0.  1.
          1   -1    0    0  501    0  0.00000000000E+00 -0.00000000000E+00 -0.29772726925E+02  0.29772727352E+02  0.50400000000E-02 0. -1.
         23    2    1    2    0    0  0.00000000000E+00  0.35527136788E-14  0.41053450827E+02  0.10059890528E+03  0.91840916368E+02 0.  0.
    9000005    2    3    3    0    0  0.32275402936E+02 -0.22681855481E+02 -0.19498154217E+01  0.42242679302E+02  0.14982455461E+02 0.  0.
         22    1    3    3    0    0 -0.32275402936E+02  0.22681855481E+02  0.43003266248E+02  0.58356225981E+02  0.00000000000E+00 0.  1.
         22    1    4    4    0    0  0.21311436467E+02 -0.13175845348E+02  0.59051007319E+01  0.25741997583E+02  0.00000000000E+00 0. -1.
         22    1    4    4    0    0  0.10963966469E+02 -0.95060101331E+01 -0.78549161536E+01  0.16500681718E+02  0.00000000000E+00 0. -1.
<mgrwt>
<rscale>  0 0.91840916E+02</rscale>
<asrwt>0</asrwt>
<pdfrwt beam="2">  1        1 0.45804196E-02 0.91840916E+02</pdfrwt>
<pdfrwt beam="1">  1       -1 0.10896335E-01 0.91840916E+02</pdfrwt>
<totfact> 0.84789239E+04</totfact>
</mgrwt>
</event>
<event>
 7    1  0.2911475E-009  0.1107372E+03  0.7818608E-02  0.1259211E+00
         -1   -1    0    0    0  501 -0.00000000000E+00  0.00000000000E+00  0.17566700028E+02  0.17566700751E+02  0.50400000000E-02 0.  1.
          1   -1    0    0  501    0  0.00000000000E+00 -0.00000000000E+00 -0.17451663186E+03  0.17451663193E+03  0.50400000000E-02 0. -1.
         23    2    1    2    0    0  0.00000000000E+00  0.35527136788E-14 -0.15694993183E+03  0.19208333268E+03  0.11073719155E+03 0.  0.
    9000005    2    3    3    0    0 -0.36222573427E+02 -0.17901778542E+02 -0.14369300360E+03  0.14955928482E+03  0.93675979736E+01 0.  0.
         22    1    3    3    0    0  0.36222573427E+02  0.17901778542E+02 -0.13256928235E+02  0.42524047866E+02  0.00000000000E+00 0.  1.
         22    1    4    4    0    0 -0.24716106968E+02 -0.15059065357E+02 -0.11326627782E+03  0.11690556481E+03  0.00000000000E+00 0. -1.
         22    1    4    4    0    0 -0.11506466459E+02 -0.28427131851E+01 -0.30426725777E+02  0.32653720005E+02  0.00000000000E+00 0. -1.
<mgrwt>
<rscale>  0 0.11073719E+03</rscale>
<asrwt>0</asrwt>
<pdfrwt beam="2">  1        1 0.26848711E-01 0.11073719E+03</pdfrwt>
<pdfrwt beam="1">  1       -1 0.27025694E-02 0.11073719E+03</pdfrwt>
<totfact> 0.67980299E+04</totfact>
</mgrwt>
</event>
<event>
 7    1  0.2911475E-009  0.9412304E+02  0.7818608E-02  0.1293164E+00
          1   -1    0    0  501    0  0.00000000000E+00  0.00000000000E+00  0.18007348074E+03  0.18007348081E+03  0.50400000000E-02 0. -1.
         -1   -1    0    0    0  501 -0.00000000000E+00 -0.00000000000E+00 -0.12299348127E+02  0.12299349160E+02  0.50400000000E-02 0.  1.
         23    2    1    2    0    0  0.00000000000E+00  0.17763568394E-14  0.16777413261E+03  0.19237282997E+03  0.94123037226E+02 0.  0.
    9000005    2    3    3    0    0 -0.29985767242E+02  0.15430514308E+02  0.15076118966E+03  0.15460131640E+03  0.59484214851E+01 0.  0.
         22    1    3    3    0    0  0.29985767242E+02 -0.15430514308E+02  0.17012942953E+02  0.37771513563E+02  0.00000000000E+00 0.  1.
         22    1    4    4    0    0 -0.15903153752E+02  0.81488008091E+01  0.66346153695E+02  0.68710445814E+02  0.00000000000E+00 0. -1.
         22    1    4    4    0    0 -0.14082613490E+02  0.72817134994E+01  0.84415035962E+02  0.85890870590E+02  0.00000000000E+00 0. -1.
<mgrwt>
<rscale>  0 0.94123037E+02</rscale>
<asrwt>0</asrwt>
<pdfrwt beam="1">  1        1 0.27703611E-01 0.94123037E+02</pdfrwt>
<pdfrwt beam="2">  1       -1 0.18922076E-02 0.94123037E+02</pdfrwt>
<totfact> 0.10650805E+05</totfact>
</mgrwt>
</event>
<event>
 7    1  0.2911475E-009  0.1038312E+03  0.7818608E-02  0.1272440E+00
         -1   -1    0    0    0  501 -0.00000000000E+00  0.00000000000E+00  0.39667627483E+02  0.39667627803E+02  0.50400000000E-02 0.  1.
          1   -1    0    0  501    0  0.00000000000E+00 -0.00000000000E+00 -0.67945283027E+02  0.67945283214E+02  0.50400000000E-02 0. -1.
         23    2    1    2    0    0  0.00000000000E+00 -0.71054273576E-14 -0.28277655544E+02  0.10761291102E+03  0.10383117458E+03 0.  0.
    9000005    2    3    3    0    0  0.36593863894E+02 -0.30288953829E+02  0.69404351854E+01  0.48478779474E+02  0.67446882780E+01 0.  0.
         22    1    3    3    0    0 -0.36593863894E+02  0.30288953829E+02 -0.35218090729E+02  0.59134131543E+02  0.00000000000E+00 0. -1.
         22    1    4    4    0    0  0.18134744937E+02 -0.11360152116E+02  0.12604319540E+01  0.21436201127E+02  0.00000000000E+00 0.  1.
         22    1    4    4    0    0  0.18459118957E+02 -0.18928801713E+02  0.56800032314E+01  0.27042578347E+02  0.00000000000E+00 0.  1.
<mgrwt>
<rscale>  0 0.10383117E+03</rscale>
<asrwt>0</asrwt>
<pdfrwt beam="2">  1        1 0.10453121E-01 0.10383117E+03</pdfrwt>
<pdfrwt beam="1">  1       -1 0.61027120E-02 0.10383117E+03</pdfrwt>
<totfact> 0.68354103E+04</totfact>
</mgrwt>
</event>
<event>
 7    1  0.2911475E-009  0.9276316E+02  0.7818608E-02  0.1296295E+00
          1   -1    0    0  501    0  0.00000000000E+00  0.00000000000E+00  0.16062162999E+02  0.16062163790E+02  0.50400000000E-02 0. -1.
         -1   -1    0    0    0  501 -0.00000000000E+00 -0.00000000000E+00 -0.13393281416E+03  0.13393281425E+03  0.50400000000E-02 0.  1.
         23    2    1    2    0    0 -0.35527136788E-14  0.00000000000E+00 -0.11787065116E+03  0.14999497804E+03  0.92763155581E+02 0.  0.
    9000005    2    3    3    0    0 -0.16532826702E+02  0.30115439294E+02 -0.94400192301E+01  0.36251951957E+02  0.66944764552E+01 0.  0.
         22    1    3    3    0    0  0.16532826702E+02 -0.30115439294E+02 -0.10843063193E+03  0.11374302608E+03  0.00000000000E+00 0.  1.
         22    1    4    4    0    0 -0.13930465083E+02  0.28549869091E+02 -0.96697737647E+01  0.33206285658E+02  0.00000000000E+00 0.  1.
         22    1    4    4    0    0 -0.26023616196E+01  0.15655702025E+01  0.22975453463E+00  0.30456662989E+01  0.00000000000E+00 0.  1.
<mgrwt>
<rscale>  0 0.92763156E+02</rscale>
<asrwt>0</asrwt>
<pdfrwt beam="1">  1        1 0.24711022E-02 0.92763156E+02</pdfrwt>
<pdfrwt beam="2">  1       -1 0.20605048E-01 0.92763156E+02</pdfrwt>
<totfact> 0.73371119E+04</totfact>
</mgrwt>
</event>
<event>
 7    1  0.2911475E-009  0.8883721E+02  0.7818608E-02  0.1305692E+00
         -1   -1    0    0    0  501 -0.00000000000E+00  0.00000000000E+00  0.33139065657E+01  0.33139103983E+01  0.50400000000E-02 0.  1.
          1   -1    0    0  501    0  0.00000000000E+00 -0.00000000000E+00 -0.59537328412E+03  0.59537328414E+03  0.50400000000E-02 0. -1.
         23    2    1    2    0    0  0.00000000000E+00  0.17763568394E-14 -0.59205937755E+03  0.59868719454E+03  0.88837212675E+02 0.  0.
    9000005    2    3    3    0    0  0.40363229343E+02 -0.81736465399E+01 -0.40403832586E+03  0.40620884599E+03  0.79157447332E+01 0.  0.
         22    1    3    3    0    0 -0.40363229343E+02  0.81736465399E+01 -0.18802105169E+03  0.19247834855E+03  0.00000000000E+00 0. -1.
         22    1    4    4    0    0  0.29204704899E+02 -0.36994982805E+01 -0.31272797184E+03  0.31411046695E+03  0.00000000000E+00 0. -1.
         22    1    4    4    0    0  0.11158524445E+02 -0.44741482594E+01 -0.91310354023E+02  0.92098379042E+02  0.00000000000E+00 0. -1.
<mgrwt>
<rscale>  0 0.88837213E+02</rscale>
<asrwt>0</asrwt>
<pdfrwt beam="2">  1        1 0.91595805E-01 0.88837213E+02</pdfrwt>
<pdfrwt beam="1">  1       -1 0.50983255E-03 0.88837213E+02</pdfrwt>
<totfact> 0.15158484E+05</totfact>
</mgrwt>
</event>
<event>
 7    1  0.2911475E-009  0.9210305E+02  0.7818608E-02  0.1297837E+00
         -1   -1    0    0    0  501 -0.00000000000E+00  0.00000000000E+00  0.11024574157E+03  0.11024574169E+03  0.50400000000E-02 0.  1.
          1   -1    0    0  501    0  0.00000000000E+00 -0.00000000000E+00 -0.19236506856E+02  0.19236507516E+02  0.50400000000E-02 0. -1.
         23    2    1    2    0    0  0.00000000000E+00  0.00000000000E+00  0.91009234716E+02  0.12948224920E+03  0.92103051280E+02 0.  0.
    9000005    2    3    3    0    0 -0.14785306962E+02 -0.22392132109E+02  0.98023381353E+02  0.10174759335E+03  0.48965883953E+01 0.  0.
         22    1    3    3    0    0  0.14785306962E+02  0.22392132109E+02 -0.70141466369E+01  0.27734655855E+02  0.00000000000E+00 0. -1.
         22    1    4    4    0    0 -0.48976713808E+00 -0.40392502472E+00  0.66846642171E+00  0.92188645293E+00  0.00000000000E+00 0.  1.
         22    1    4    4    0    0 -0.14295539824E+02 -0.21988207084E+02  0.97354914931E+02  0.10082570690E+03  0.00000000000E+00 0.  1.
<mgrwt>
<rscale>  0 0.92103051E+02</rscale>
<asrwt>0</asrwt>
<pdfrwt beam="2">  1        1 0.29594626E-02 0.92103051E+02</pdfrwt>
<pdfrwt beam="1">  1       -1 0.16960884E-01 0.92103051E+02</pdfrwt>
<totfact> 0.77813653E+04</totfact>
</mgrwt>
</event>
<event>
 7    1  0.2911475E-009  0.9968967E+02  0.7818608E-02  0.1280950E+00
          1   -1    0    0  501    0  0.00000000000E+00  0.00000000000E+00  0.81627877777E+01  0.81627893336E+01  0.50400000000E-02 0. -1.
         -1   -1    0    0    0  501 -0.00000000000E+00 -0.00000000000E+00 -0.30436994026E+03  0.30436994030E+03  0.50400000000E-02 0.  1.
         23    2    1    2    0    0  0.00000000000E+00  0.00000000000E+00 -0.29620715248E+03  0.31253272964E+03  0.99689668029E+02 0.  0.
    9000005    2    3    3    0    0 -0.47280198532E+02  0.90710569511E+01 -0.18354225352E+03  0.19001301406E+03  0.99742386196E+01 0.  0.
         22    1    3    3    0    0  0.47280198532E+02 -0.90710569511E+01 -0.11266489896E+03  0.12251971558E+03  0.00000000000E+00 0.  1.
         22    1    4    4    0    0 -0.16164301994E+01 -0.15272932771E+01 -0.10548094343E+02  0.10779970575E+02  0.00000000000E+00 0. -1.
         22    1    4    4    0    0 -0.45663768333E+02  0.10598350228E+02 -0.17299415918E+03  0.17923304349E+03  0.00000000000E+00 0. -1.
<mgrwt>
<rscale>  0 0.99689668E+02</rscale>
<asrwt>0</asrwt>
<pdfrwt beam="1">  1        1 0.12558139E-02 0.99689668E+02</pdfrwt>
<pdfrwt beam="2">  1       -1 0.46826136E-01 0.99689668E+02</pdfrwt>
<totfact> 0.47659371E+04</totfact>
</mgrwt>
</event>
<event>
 7    1  0.2911475E-009  0.9369823E+02  0.7818608E-02  0.1294135E+00
         -1   -1    0    0    0  501 -0.00000000000E+00  0.00000000000E+00  0.34998248676E+01  0.34998284966E+01  0.50400000000E-02 0.  1.
          1   -1    0    0  501    0  0.00000000000E+00 -0.00000000000E+00 -0.62712808864E+03  0.62712808866E+03  0.50400000000E-02 0. -1.
         23    2    1    2    0    0 -0.88817841970E-15  0.00000000000E+00 -0.62362826377E+03  0.63062791716E+03  0.93698231156E+02 0.  0.
    9000005    2    3    3    0    0 -0.61810158317E+01  0.32666042936E+02 -0.53130255991E+03  0.53249886483E+03  0.12936597502E+02 0.  0.
         22    1    3    3    0    0  0.61810158317E+01 -0.32666042936E+02 -0.92325703856E+02  0.98129052326E+02  0.00000000000E+00 0.  1.
         22    1    4    4    0    0  0.25988258882E+01  0.17080378344E+02 -0.30594935568E+03  0.30643678216E+03  0.00000000000E+00 0.  1.
         22    1    4    4    0    0 -0.87798417198E+01  0.15585664593E+02 -0.22535320423E+03  0.22606208267E+03  0.00000000000E+00 0.  1.
<mgrwt>
<rscale>  0 0.93698231E+02</rscale>
<asrwt>0</asrwt>
<pdfrwt beam="2">  1        1 0.96481155E-01 0.93698231E+02</pdfrwt>
<pdfrwt beam="1">  1       -1 0.53843537E-03 0.93698231E+02</pdfrwt>
<totfact> 0.13201011E+05</totfact>
</mgrwt>
</event>
<event>
 7    1  0.2911475E-009  0.9020096E+02  0.7818608E-02  0.1302366E+00
         -1   -1    0    0    0  501 -0.00000000000E+00  0.00000000000E+00  0.66956028818E+02  0.66956029008E+02  0.50400000000E-02 0.  1.
          1   -1    0    0  501    0  0.00000000000E+00 -0.00000000000E+00 -0.30378943580E+02  0.30378943998E+02  0.50400000000E-02 0. -1.
         23    2    1    2    0    0  0.00000000000E+00 -0.35527136788E-14  0.36577085238E+02  0.97334973005E+02  0.90200963439E+02 0.  0.
    9000005    2    3    3    0    0 -0.19006861856E+02  0.27195166139E+02  0.51225957692E+02  0.61066152744E+02  0.20343083816E+01 0.  0.
         22    1    3    3    0    0  0.19006861856E+02 -0.27195166139E+02 -0.14648872453E+02  0.36268820261E+02  0.00000000000E+00 0. -1.
         22    1    4    4    0    0 -0.16039914210E+02  0.23358657269E+02  0.42428622231E+02  0.51020522358E+02  0.00000000000E+00 0.  1.
         22    1    4    4    0    0 -0.29669476461E+01  0.38365088703E+01  0.87973354609E+01  0.10045630386E+02  0.00000000000E+00 0.  1.
<mgrwt>
<rscale>  0 0.90200963E+02</rscale>
<asrwt>0</asrwt>
<pdfrwt beam="2">  1        1 0.46736837E-02 0.90200963E+02</pdfrwt>
<pdfrwt beam="1">  1       -1 0.10300927E-01 0.90200963E+02</pdfrwt>
<totfact> 0.89578367E+04</totfact>
</mgrwt>
</event>
<event>
 7    1  0.2911475E-009  0.8920046E+02  0.7818608E-02  0.1304800E+00
          1   -1    0    0  501    0  0.00000000000E+00  0.00000000000E+00  0.24435439303E+03  0.24435439308E+03  0.50400000000E-02 0. -1.
         -1   -1    0    0    0  501 -0.00000000000E+00 -0.00000000000E+00 -0.81405541991E+01  0.81405557592E+01  0.50400000000E-02 0.  1.
         23    2    1    2    0    0 -0.35527136788E-14 -0.11102230246E-15  0.23621383883E+03  0.25249494884E+03  0.89200457033E+02 0.  0.
    9000005    2    3    3    0    0 -0.23902248966E+02 -0.76175369791E+00  0.22451707144E+03  0.22587330085E+03  0.62397831413E+01 0.  0.
         22    1    3    3    0    0  0.23902248966E+02  0.76175369791E+00  0.11696767386E+02  0.26621647988E+02  0.00000000000E+00 0.  1.
         22    1    4    4    0    0 -0.18537407943E+02  0.77615815492E+00  0.19050948308E+03  0.19141081750E+03  0.00000000000E+00 0.  1.
         22    1    4    4    0    0 -0.53648410233E+01 -0.15379118528E+01  0.34007588366E+02  0.34462483348E+02  0.00000000000E+00 0.  1.
<mgrwt>
<rscale>  0 0.89200457E+02</rscale>
<asrwt>0</asrwt>
<pdfrwt beam="1">  1        1 0.37592975E-01 0.89200457E+02</pdfrwt>
<pdfrwt beam="2">  1       -1 0.12523934E-02 0.89200457E+02</pdfrwt>
<totfact> 0.13053341E+05</totfact>
</mgrwt>
</event>
<event>
 7    1  0.2911475E-009  0.8436524E+02  0.7818608E-02  0.1317101E+00
          1   -1    0    0  501    0  0.00000000000E+00  0.00000000000E+00  0.95232089461E+02  0.95232089594E+02  0.50400000000E-02 0. -1.
         -1   -1    0    0    0  501 -0.00000000000E+00 -0.00000000000E+00 -0.18684597683E+02  0.18684598362E+02  0.50400000000E-02 0.  1.
         23    2    1    2    0    0 -0.35527136788E-14 -0.35527136788E-14  0.76547491778E+02  0.11391668796E+03  0.84365237494E+02 0.  0.
    9000005    2    3    3    0    0 -0.27641911200E+02  0.28216320925E+02  0.20150142770E+02  0.45062515995E+02  0.80228469257E+01 0.  0.
         22    1    3    3    0    0  0.27641911200E+02 -0.28216320925E+02  0.56397349008E+02  0.68854171961E+02  0.00000000000E+00 0. -1.
         22    1    4    4    0    0 -0.76848549138E+00  0.39377625171E+01  0.28825963136E+01  0.49402333041E+01  0.00000000000E+00 0. -1.
         22    1    4    4    0    0 -0.26873425709E+02  0.24278558408E+02  0.17267546457E+02  0.40122282691E+02  0.00000000000E+00 0. -1.
<mgrwt>
<rscale>  0 0.84365237E+02</rscale>
<asrwt>0</asrwt>
<pdfrwt beam="1">  1        1 0.14651091E-01 0.84365237E+02</pdfrwt>
<pdfrwt beam="2">  1       -1 0.28745535E-02 0.84365237E+02</pdfrwt>
<totfact> 0.12791857E+05</totfact>
</mgrwt>
</event>
<event>
 7    1  0.2911475E-009  0.9098890E+02  0.7818608E-02  0.1300474E+00
          1   -1    0    0  501    0  0.00000000000E+00  0.00000000000E+00  0.99335395445E+01  0.99335408230E+01  0.50400000000E-02 0. -1.
         -1   -1    0    0    0  501 -0.00000000000E+00 -0.00000000000E+00 -0.20835925806E+03  0.20835925812E+03  0.50400000000E-02 0.  1.
         23    2    1    2    0    0  0.35527136788E-14  0.00000000000E+00 -0.19842571851E+03  0.21829279894E+03  0.90988902083E+02 0.  0.
    9000005    2    3    3    0    0 -0.25540865819E+02  0.14416743099E+02 -0.18199218297E+03  0.18467376566E+03  0.11093545493E+02 0.  0.
         22    1    3    3    0    0  0.25540865819E+02 -0.14416743099E+02 -0.16433535540E+02  0.33619033280E+02  0.00000000000E+00 0. -1.
         22    1    4    4    0    0 -0.99545853527E+01  0.29717562376E+01 -0.38209071620E+02  0.39596189952E+02  0.00000000000E+00 0. -1.
         22    1    4    4    0    0 -0.15586280467E+02  0.11444986861E+02 -0.14378311135E+03  0.14507757571E+03  0.00000000000E+00 0. -1.
<mgrwt>
<rscale>  0 0.90988902E+02</rscale>
<asrwt>0</asrwt>
<pdfrwt beam="1">  1        1 0.15282371E-02 0.90988902E+02</pdfrwt>
<pdfrwt beam="2">  1       -1 0.32055267E-01 0.90988902E+02</pdfrwt>
<totfact> 0.68974125E+04</totfact>
</mgrwt>
</event>
<event>
 7    1  0.2911475E-009  0.9026960E+02  0.7818608E-02  0.1302200E+00
          1   -1    0    0  501    0  0.00000000000E+00  0.00000000000E+00  0.59462197794E+03  0.59462197796E+03  0.50400000000E-02 0. -1.
         -1   -1    0    0    0  501 -0.00000000000E+00 -0.00000000000E+00 -0.34259568084E+01  0.34259605156E+01  0.50400000000E-02 0.  1.
         23    2    1    2    0    0  0.00000000000E+00  0.88817841970E-15  0.59119602113E+03  0.59804793847E+03  0.90269603493E+02 0.  0.
    9000005    2    3    3    0    0 -0.16593079400E+02 -0.70985931510E+01  0.56939633461E+03  0.56974693777E+03  0.85829434911E+01 0.  0.
         22    1    3    3    0    0  0.16593079400E+02  0.70985931510E+01  0.21799686519E+02  0.28301000708E+02  0.00000000000E+00 0.  1.
         22    1    4    4    0    0 -0.81853895858E+01 -0.78816685215E+01  0.28844249031E+03  0.28866622857E+03  0.00000000000E+00 0. -1.
         22    1    4    4    0    0 -0.84076898147E+01  0.78307537054E+00  0.28095384430E+03  0.28108070919E+03  0.00000000000E+00 0. -1.
<mgrwt>
<rscale>  0 0.90269603E+02</rscale>
<asrwt>0</asrwt>
<pdfrwt beam="1">  1        1 0.91480346E-01 0.90269603E+02</pdfrwt>
<pdfrwt beam="2">  1       -1 0.52707032E-03 0.90269603E+02</pdfrwt>
<totfact> 0.14530197E+05</totfact>
</mgrwt>
</event>
<event>
 7    1  0.2911475E-009  0.9217249E+02  0.7818608E-02  0.1297674E+00
          1   -1    0    0  501    0  0.00000000000E+00  0.00000000000E+00  0.44234938299E+03  0.44234938302E+03  0.50400000000E-02 0.  1.
         -1   -1    0    0    0  501 -0.00000000000E+00 -0.00000000000E+00 -0.48015016224E+01  0.48015042676E+01  0.50400000000E-02 0. -1.
         23    2    1    2    0    0  0.71054273576E-14  0.00000000000E+00  0.43754788137E+03  0.44715088729E+03  0.92172487824E+02 0.  0.
    9000005    2    3    3    0    0  0.41936484203E+02  0.54101417315E+01  0.30144524724E+03  0.30463118564E+03  0.11957585037E+02 0.  0.
         22    1    3    3    0    0 -0.41936484203E+02 -0.54101417315E+01  0.13610263413E+03  0.14251970164E+03  0.00000000000E+00 0. -1.
         22    1    4    4    0    0  0.42220842461E+02  0.65529697157E+01  0.29104314939E+03  0.29416263488E+03  0.00000000000E+00 0.  1.
         22    1    4    4    0    0 -0.28435825773E+00 -0.11428279842E+01  0.10402097852E+02  0.10468550766E+02  0.00000000000E+00 0.  1.
<mgrwt>
<rscale>  0 0.92172488E+02</rscale>
<asrwt>0</asrwt>
<pdfrwt beam="1">  1        1 0.68053755E-01 0.92172488E+02</pdfrwt>
<pdfrwt beam="2">  1       -1 0.73869273E-03 0.92172488E+02</pdfrwt>
<totfact> 0.13312238E+05</totfact>
</mgrwt>
</event>
<event>
 7    1  0.2911475E-009  0.9314527E+02  0.7818608E-02  0.1295409E+00
         -1   -1    0    0    0  501 -0.00000000000E+00  0.00000000000E+00  0.40951960367E+02  0.40951960677E+02  0.50400000000E-02 0.  1.
          1   -1    0    0  501    0  0.00000000000E+00 -0.00000000000E+00 -0.52964743669E+02  0.52964743909E+02  0.50400000000E-02 0. -1.
         23    2    1    2    0    0  0.00000000000E+00  0.35527136788E-14 -0.12012783302E+02  0.93916704586E+02  0.93145265245E+02 0.  0.
    9000005    2    3    3    0    0  0.38695057435E+02  0.22820106031E+02  0.18068729801E+01  0.46916198111E+02  0.13408957679E+02 0.  0.
         22    1    3    3    0    0 -0.38695057435E+02 -0.22820106031E+02 -0.13819656282E+02  0.47000506475E+02  0.00000000000E+00 0. -1.
         22    1    4    4    0    0  0.50718209596E+01  0.93230223303E+01  0.11903547017E+01  0.10679843516E+02  0.00000000000E+00 0.  1.
         22    1    4    4    0    0  0.33623236476E+02  0.13497083700E+02  0.61651827845E+00  0.36236354594E+02  0.00000000000E+00 0.  1.
<mgrwt>
<rscale>  0 0.93145265E+02</rscale>
<asrwt>0</asrwt>
<pdfrwt beam="2">  1        1 0.81484222E-02 0.93145265E+02</pdfrwt>
<pdfrwt beam="1">  1       -1 0.63003016E-02 0.93145265E+02</pdfrwt>
<totfact> 0.89096229E+04</totfact>
</mgrwt>
</event>
<event>
 7    1  0.2911475E-009  0.9003925E+02  0.7818608E-02  0.1302757E+00
          1   -1    0    0  501    0  0.00000000000E+00  0.00000000000E+00  0.45898479164E+02  0.45898479441E+02  0.50400000000E-02 0. -1.
         -1   -1    0    0    0  501 -0.00000000000E+00 -0.00000000000E+00 -0.44157602194E+02  0.44157602481E+02  0.50400000000E-02 0.  1.
         23    2    1    2    0    0  0.00000000000E+00 -0.35527136788E-14  0.17408769705E+01  0.90056081922E+02  0.90039253876E+02 0.  0.
    9000005    2    3    3    0    0  0.95784469448E+01  0.27078959335E+02  0.33704497966E+02  0.47082953672E+02  0.15993581800E+02 0.  0.
         22    1    3    3    0    0 -0.95784469448E+01 -0.27078959335E+02 -0.31963620995E+02  0.42973128251E+02  0.00000000000E+00 0.  1.
         22    1    4    4    0    0 -0.24841244210E+01  0.15794034078E+02  0.13065951775E+02  0.20648038221E+02  0.00000000000E+00 0.  1.
         22    1    4    4    0    0  0.12062571366E+02  0.11284925257E+02  0.20638546191E+02  0.26434915451E+02  0.00000000000E+00 0.  1.
<mgrwt>
<rscale>  0 0.90039254E+02</rscale>
<asrwt>0</asrwt>
<pdfrwt beam="1">  1        1 0.70613046E-02 0.90039254E+02</pdfrwt>
<pdfrwt beam="2">  1       -1 0.67934773E-02 0.90039254E+02</pdfrwt>
<totfact> 0.95879821E+04</totfact>
</mgrwt>
</event>
<event>
 7    1  0.2911475E-009  0.9146546E+02  0.7818608E-02  0.1299341E+00
         -1   -1    0    0    0  501 -0.00000000000E+00  0.00000000000E+00  0.40818342449E+03  0.40818342452E+03  0.50400000000E-02 0.  1.
          1   -1    0    0  501    0  0.00000000000E+00 -0.00000000000E+00 -0.51238782276E+01  0.51238807063E+01  0.50400000000E-02 0. -1.
         23    2    1    2    0    0 -0.71054273576E-14  0.00000000000E+00  0.40305954626E+03  0.41330730523E+03  0.91465461903E+02 0.  0.
    9000005    2    3    3    0    0 -0.37891251654E+02 -0.23755533819E+01  0.31531839580E+03  0.31770448262E+03  0.83100747380E+01 0.  0.
         22    1    3    3    0    0  0.37891251654E+02  0.23755533819E+01  0.87741150466E+02  0.95602822610E+02  0.00000000000E+00 0. -1.
         22    1    4    4    0    0 -0.18808644832E+02  0.63447208142E+00  0.12510156404E+03  0.12650916568E+03  0.00000000000E+00 0.  1.
         22    1    4    4    0    0 -0.19082606822E+02 -0.30100254633E+01  0.19021683175E+03  0.19119531694E+03  0.00000000000E+00 0.  1.
<mgrwt>
<rscale>  0 0.91465462E+02</rscale>
<asrwt>0</asrwt>
<pdfrwt beam="2">  1        1 0.78828900E-03 0.91465462E+02</pdfrwt>
<pdfrwt beam="1">  1       -1 0.62797462E-01 0.91465462E+02</pdfrwt>
<totfact> 0.52307286E+04</totfact>
</mgrwt>
</event>
<event>
 7    1  0.2911475E-009  0.9885360E+02  0.7818608E-02  0.1282725E+00
          1   -1    0    0  501    0  0.00000000000E+00  0.00000000000E+00  0.29254066021E+03  0.29254066025E+03  0.50400000000E-02 0. -1.
         -1   -1    0    0    0  501 -0.00000000000E+00 -0.00000000000E+00 -0.83510036437E+01  0.83510051646E+01  0.50400000000E-02 0.  1.
         23    2    1    2    0    0 -0.17763568394E-14  0.71054273576E-14  0.28418965656E+03  0.30089166542E+03  0.98853595881E+02 0.  0.
    9000005    2    3    3    0    0 -0.15483948057E+02  0.45366152301E+02  0.16129565417E+03  0.16897966351E+03  0.15491875427E+02 0.  0.
         22    1    3    3    0    0  0.15483948057E+02 -0.45366152301E+02  0.12289400239E+03  0.13191200190E+03  0.00000000000E+00 0.  1.
         22    1    4    4    0    0 -0.11783371646E+02  0.12889541824E+02  0.64012540124E+02  0.66352041633E+02  0.00000000000E+00 0. -1.
         22    1    4    4    0    0 -0.37005764111E+01  0.32476610477E+02  0.97283114046E+02  0.10262762188E+03  0.00000000000E+00 0. -1.
<mgrwt>
<rscale>  0 0.98853596E+02</rscale>
<asrwt>0</asrwt>
<pdfrwt beam="1">  1        1 0.45006259E-01 0.98853596E+02</pdfrwt>
<pdfrwt beam="2">  1       -1 0.12847698E-02 0.98853596E+02</pdfrwt>
<totfact> 0.10268728E+05</totfact>
</mgrwt>
</event>
<event>
 7    1  0.2911475E-009  0.9798499E+02  0.7818608E-02  0.1284591E+00
          1   -1    0    0  501    0  0.00000000000E+00  0.00000000000E+00  0.17889505105E+03  0.17889505112E+03  0.50400000000E-02 0. -1.
         -1   -1    0    0    0  501 -0.00000000000E+00 -0.00000000000E+00 -0.13417164701E+02  0.13417165648E+02  0.50400000000E-02 0.  1.
         23    2    1    2    0    0  0.22204460493E-15  0.00000000000E+00  0.16547788635E+03  0.19231221677E+03  0.97984987870E+02 0.  0.
    9000005    2    3    3    0    0  0.15831348114E+01 -0.16147906977E+02  0.17320212514E+03  0.17434210045E+03  0.11529554267E+02 0.  0.
         22    1    3    3    0    0 -0.15831348114E+01  0.16147906977E+02 -0.77242387895E+01  0.17970116317E+02  0.00000000000E+00 0.  1.
         22    1    4    4    0    0  0.53543947435E+01 -0.45626449473E+01  0.86890875339E+02  0.87175177024E+02  0.00000000000E+00 0. -1.
         22    1    4    4    0    0 -0.37712599321E+01 -0.11585262030E+02  0.86311249800E+02  0.87166923428E+02  0.00000000000E+00 0. -1.
<mgrwt>
<rscale>  0 0.97984988E+02</rscale>
<asrwt>0</asrwt>
<pdfrwt beam="1">  1        1 0.27522315E-01 0.97984988E+02</pdfrwt>
<pdfrwt beam="2">  1       -1 0.20641793E-02 0.97984988E+02</pdfrwt>
<totfact> 0.95410208E+04</totfact>
</mgrwt>
</event>
<event>
 7    1  0.2911475E-009  0.9025979E+02  0.7818608E-02  0.1302224E+00
          1   -1    0    0  501    0  0.00000000000E+00  0.00000000000E+00  0.30176954900E+02  0.30176955321E+02  0.50400000000E-02 0. -1.
         -1   -1    0    0    0  501 -0.00000000000E+00 -0.00000000000E+00 -0.67492141311E+02  0.67492141499E+02  0.50400000000E-02 0.  1.
         23    2    1    2    0    0  0.00000000000E+00  0.00000000000E+00 -0.37315186411E+02  0.97669096820E+02  0.90259788039E+02 0.  0.
    9000005    2    3    3    0    0 -0.35364800051E+02 -0.26958821516E+02 -0.23935944946E+02  0.51231490914E+02  0.86191101969E+01 0.  0.
         22    1    3    3    0    0  0.35364800051E+02  0.26958821516E+02 -0.13379241464E+02  0.46437605907E+02  0.00000000000E+00 0. -1.
         22    1    4    4    0    0 -0.56539967635E+01 -0.88142327576E+01 -0.60167817968E+01  0.12077253069E+02  0.00000000000E+00 0. -1.
         22    1    4    4    0    0 -0.29710803288E+02 -0.18144588758E+02 -0.17919163150E+02  0.39154237845E+02  0.00000000000E+00 0. -1.
<mgrwt>
<rscale>  0 0.90259788E+02</rscale>
<asrwt>0</asrwt>
<pdfrwt beam="1">  1        1 0.46426085E-02 0.90259788E+02</pdfrwt>
<pdfrwt beam="2">  1       -1 0.10383406E-01 0.90259788E+02</pdfrwt>
<totfact> 0.89316636E+04</totfact>
</mgrwt>
</event>
<event>
 7    1  0.2911475E-009  0.9083213E+02  0.7818608E-02  0.1300849E+00
          1   -1    0    0  501    0  0.00000000000E+00  0.00000000000E+00  0.10015115512E+02  0.10015116780E+02  0.50400000000E-02 0. -1.
         -1   -1    0    0    0  501 -0.00000000000E+00 -0.00000000000E+00 -0.20595056977E+03  0.20595056983E+03  0.50400000000E-02 0.  1.
         23    2    1    2    0    0  0.00000000000E+00  0.00000000000E+00 -0.19593545425E+03  0.21596568661E+03  0.90832128448E+02 0.  0.
    9000005    2    3    3    0    0  0.34080880741E+02 -0.95742232053E+01 -0.30409483798E+02  0.46696613599E+02  0.16324321298E+01 0.  0.
         22    1    3    3    0    0 -0.34080880741E+02  0.95742232053E+01 -0.16552597046E+03  0.16926907301E+03  0.00000000000E+00 0.  1.
         22    1    4    4    0    0  0.88183930743E+01 -0.29680005906E+01 -0.87110828461E+01  0.12745824739E+02  0.00000000000E+00 0.  1.
         22    1    4    4    0    0  0.25262487667E+02 -0.66062226147E+01 -0.21698400952E+02  0.33950788860E+02  0.00000000000E+00 0.  1.
<mgrwt>
<rscale>  0 0.90832128E+02</rscale>
<asrwt>0</asrwt>
<pdfrwt beam="1">  1        1 0.15407873E-02 0.90832128E+02</pdfrwt>
<pdfrwt beam="2">  1       -1 0.31684700E-01 0.90832128E+02</pdfrwt>
<totfact> 0.69521323E+04</totfact>
</mgrwt>
</event>
<event>
 7    1  0.2911475E-009  0.9964601E+02  0.7818608E-02  0.1281042E+00
          1   -1    0    0  501    0  0.00000000000E+00  0.00000000000E+00  0.55154310078E+01  0.55154333106E+01  0.50400000000E-02 0. -1.
         -1   -1    0    0    0  501 -0.00000000000E+00 -0.00000000000E+00 -0.45007026658E+03  0.45007026661E+03  0.50400000000E-02 0.  1.
         23    2    1    2    0    0  0.71054273576E-14  0.17763568394E-14 -0.44455483557E+03  0.45558569992E+03  0.99646014170E+02 0.  0.
    9000005    2    3    3    0    0  0.41600202745E+02  0.14076179502E+02 -0.32252843308E+03  0.32589700109E+03  0.15985915021E+02 0.  0.
         22    1    3    3    0    0 -0.41600202745E+02 -0.14076179502E+02 -0.12202640250E+03  0.12968869883E+03  0.00000000000E+00 0. -1.
         22    1    4    4    0    0  0.29999126052E+02  0.23150126505E+01 -0.21947838756E+03  0.22153119296E+03  0.00000000000E+00 0.  1.
         22    1    4    4    0    0  0.11601076693E+02  0.11761166852E+02 -0.10305004552E+03  0.10436580813E+03  0.00000000000E+00 0.  1.
<mgrwt>
<rscale>  0 0.99646014E+02</rscale>
<asrwt>0</asrwt>
<pdfrwt beam="1">  1        1 0.84852838E-03 0.99646014E+02</pdfrwt>
<pdfrwt beam="2">  1       -1 0.69241551E-01 0.99646014E+02</pdfrwt>
<totfact> 0.39616336E+04</totfact>
</mgrwt>
</event>
<event>
 7    1  0.2911475E-009  0.9784242E+02  0.7818608E-02  0.1284900E+00
          1   -1    0    0  501    0  0.00000000000E+00  0.00000000000E+00  0.40410787085E+02  0.40410787399E+02  0.50400000000E-02 0. -1.
         -1   -1    0    0    0  501 -0.00000000000E+00 -0.00000000000E+00 -0.59223904826E+02  0.59223905040E+02  0.50400000000E-02 0.  1.
         23    2    1    2    0    0  0.71054273576E-14  0.44408920985E-15 -0.18813117741E+02  0.99634692440E+02  0.97842416867E+02 0.  0.
    9000005    2    3    3    0    0  0.32559317507E+02 -0.19702968090E+01  0.26893579899E+02  0.43482279890E+02  0.10171174888E+02 0.  0.
         22    1    3    3    0    0 -0.32559317507E+02  0.19702968090E+01 -0.45706697640E+02  0.56152412550E+02  0.00000000000E+00 0.  1.
         22    1    4    4    0    0  0.13729491482E+02 -0.55869868903E+01  0.95873426253E+01  0.17653059153E+02  0.00000000000E+00 0. -1.
         22    1    4    4    0    0  0.18829826025E+02  0.36166900812E+01  0.17306237274E+02  0.25829220736E+02  0.00000000000E+00 0. -1.
<mgrwt>
<rscale>  0 0.97842417E+02</rscale>
<asrwt>0</asrwt>
<pdfrwt beam="1">  1        1 0.62170442E-02 0.97842417E+02</pdfrwt>
<pdfrwt beam="2">  1       -1 0.91113700E-02 0.97842417E+02</pdfrwt>
<totfact> 0.74300635E+04</totfact>
</mgrwt>
</event>
<event>
 7    1  0.2911475E-009  0.9146244E+02  0.7818608E-02  0.1299348E+00
         -1   -1    0    0    0  501 -0.00000000000E+00  0.00000000000E+00  0.24727521282E+01  0.24727572645E+01  0.50400000000E-02 0. -1.
          1   -1    0    0  501    0  0.00000000000E+00 -0.00000000000E+00 -0.84575491920E+03  0.84575491922E+03  0.50400000000E-02 0.  1.
         23    2    1    2    0    0 -0.17763568394E-14  0.00000000000E+00 -0.84328216708E+03  0.84822767648E+03  0.91462439528E+02 0.  0.
    9000005    2    3    3    0    0  0.15774488180E+02  0.14582343395E+02 -0.79577816095E+03  0.79609218172E+03  0.61968649721E+01 0.  0.
         22    1    3    3    0    0 -0.15774488180E+02 -0.14582343395E+02 -0.47504006130E+02  0.52135494767E+02  0.00000000000E+00 0. -1.
         22    1    4    4    0    0  0.13769083703E+02  0.10961736257E+02 -0.70509854037E+03  0.70531815442E+03  0.00000000000E+00 0. -1.
         22    1    4    4    0    0  0.20054044769E+01  0.36206071375E+01 -0.90679620580E+02  0.90774027297E+02  0.00000000000E+00 0. -1.
<mgrwt>
<rscale>  0 0.91462440E+02</rscale>
<asrwt>0</asrwt>
<pdfrwt beam="2">  1        1 0.13011591E+00 0.91462440E+02</pdfrwt>
<pdfrwt beam="1">  1       -1 0.38042447E-03 0.91462440E+02</pdfrwt>
<totfact> 0.13931132E+05</totfact>
</mgrwt>
</event>
<event>
 7    1  0.2911475E-009  0.9232553E+02  0.7818608E-02  0.1297316E+00
          1   -1    0    0  501    0  0.00000000000E+00  0.00000000000E+00  0.26727301146E+01  0.26727348666E+01  0.50400000000E-02 0. -1.
         -1   -1    0    0    0  501 -0.00000000000E+00 -0.00000000000E+00 -0.79731174955E+03  0.79731174957E+03  0.50400000000E-02 0.  1.
         23    2    1    2    0    0  0.00000000000E+00  0.00000000000E+00 -0.79463901944E+03  0.79998448443E+03  0.92325533431E+02 0.  0.
    9000005    2    3    3    0    0 -0.19165633143E+02  0.29907439083E+02 -0.64735329594E+03  0.64847586834E+03  0.13888327539E+02 0.  0.
         22    1    3    3    0    0  0.19165633143E+02 -0.29907439083E+02 -0.14728572350E+03  0.15150861610E+03  0.00000000000E+00 0. -1.
         22    1    4    4    0    0 -0.60136963244E+01  0.83071570827E+01 -0.31281852610E+03  0.31298658705E+03  0.00000000000E+00 0.  1.
         22    1    4    4    0    0 -0.13151936819E+02  0.21600282000E+02 -0.33453476984E+03  0.33548928129E+03  0.00000000000E+00 0.  1.
<mgrwt>
<rscale>  0 0.92325533E+02</rscale>
<asrwt>0</asrwt>
<pdfrwt beam="1">  1        1 0.41119025E-03 0.92325533E+02</pdfrwt>
<pdfrwt beam="2">  1       -1 0.12266316E+00 0.92325533E+02</pdfrwt>
<totfact> 0.31697580E+04</totfact>
</mgrwt>
</event>
<event>
 7    1  0.2911475E-009  0.8961241E+02  0.7818608E-02  0.1303793E+00
         -1   -1    0    0    0  501 -0.00000000000E+00  0.00000000000E+00  0.33507561499E+02  0.33507561878E+02  0.50400000000E-02 0.  1.
          1   -1    0    0  501    0  0.00000000000E+00 -0.00000000000E+00 -0.59914713197E+02  0.59914713409E+02  0.50400000000E-02 0. -1.
         23    2    1    2    0    0  0.17763568394E-14 -0.35527136788E-14 -0.26407151699E+02  0.93422275287E+02  0.89612409068E+02 0.  0.
    9000005    2    3    3    0    0  0.11618179445E+02 -0.27376839026E+02 -0.47988465911E+02  0.56676846567E+02  0.49898564754E+01 0.  0.
         22    1    3    3    0    0 -0.11618179445E+02  0.27376839026E+02  0.21581314213E+02  0.36745428720E+02  0.00000000000E+00 0.  1.
         22    1    4    4    0    0  0.11172929951E+02 -0.21761162624E+02 -0.40348597035E+02  0.47184656883E+02  0.00000000000E+00 0. -1.
         22    1    4    4    0    0  0.44524949328E+00 -0.56156764021E+01 -0.76398688762E+01  0.94921896847E+01  0.00000000000E+00 0. -1.
<mgrwt>
<rscale>  0 0.89612409E+02</rscale>
<asrwt>0</asrwt>
<pdfrwt beam="2">  1        1 0.92176482E-02 0.89612409E+02</pdfrwt>
<pdfrwt beam="1">  1       -1 0.51550095E-02 0.89612409E+02</pdfrwt>
<totfact> 0.10107884E+05</totfact>
</mgrwt>
</event>
<event>
 7    1  0.2911475E-009  0.8931693E+02  0.7818608E-02  0.1304514E+00
          1   -1    0    0  501    0  0.00000000000E+00  0.00000000000E+00  0.41737185355E+01  0.41737215785E+01  0.50400000000E-02 0. -1.
         -1   -1    0    0    0  501 -0.00000000000E+00 -0.00000000000E+00 -0.47784191920E+03  0.47784191922E+03  0.50400000000E-02 0.  1.
         23    2    1    2    0    0  0.00000000000E+00  0.00000000000E+00 -0.47366820066E+03  0.48201564080E+03  0.89316928183E+02 0.  0.
    9000005    2    3    3    0    0 -0.39679781908E+02 -0.16452926161E+02 -0.27103580313E+03  0.27488024450E+03  0.15923516159E+02 0.  0.
         22    1    3    3    0    0  0.39679781908E+02  0.16452926161E+02 -0.20263239753E+03  0.20713539630E+03  0.00000000000E+00 0. -1.
         22    1    4    4    0    0 -0.50201009125E+01 -0.62233243606E+00 -0.75323442801E+02  0.75493110588E+02  0.00000000000E+00 0.  1.
         22    1    4    4    0    0 -0.34659680996E+02 -0.15830593725E+02 -0.19571236033E+03  0.19938713391E+03  0.00000000000E+00 0.  1.
<mgrwt>
<rscale>  0 0.89316928E+02</rscale>
<asrwt>0</asrwt>
<pdfrwt beam="1">  1        1 0.64211116E-03 0.89316928E+02</pdfrwt>
<pdfrwt beam="2">  1       -1 0.73514098E-01 0.89316928E+02</pdfrwt>
<totfact> 0.51030908E+04</totfact>
</mgrwt>
</event>
<event>
 7    1  0.2911475E-009  0.9129968E+02  0.7818608E-02  0.1299735E+00
          1   -1    0    0  501    0  0.00000000000E+00  0.00000000000E+00  0.23692653506E+03  0.23692653511E+03  0.50400000000E-02 0. -1.
         -1   -1    0    0    0  501 -0.00000000000E+00 -0.00000000000E+00 -0.87955859397E+01  0.87955873837E+01  0.50400000000E-02 0.  1.
         23    2    1    2    0    0  0.00000000000E+00  0.00000000000E+00  0.22813094912E+03  0.24572212250E+03  0.91299679835E+02 0.  0.
    9000005    2    3    3    0    0 -0.28616073230E+01  0.38957143261E+02  0.52974473920E+02  0.66262827358E+02  0.76563434351E+01 0.  0.
         22    1    3    3    0    0  0.28616073230E+01 -0.38957143261E+02  0.17515647520E+03  0.17945929514E+03  0.00000000000E+00 0. -1.
         22    1    4    4    0    0 -0.97211333833E+00  0.27358239220E+02  0.31105867768E+02  0.41436617468E+02  0.00000000000E+00 0.  1.
         22    1    4    4    0    0 -0.18894939846E+01  0.11598904041E+02  0.21868606152E+02  0.24826209890E+02  0.00000000000E+00 0.  1.
<mgrwt>
<rscale>  0 0.91299680E+02</rscale>
<asrwt>0</asrwt>
<pdfrwt beam="1">  1        1 0.36450236E-01 0.91299680E+02</pdfrwt>
<pdfrwt beam="2">  1       -1 0.13531672E-02 0.91299680E+02</pdfrwt>
<totfact> 0.12194156E+05</totfact>
</mgrwt>
</event>
<event>
 7    1  0.2911475E-009  0.9146616E+02  0.7818608E-02  0.1299340E+00
          1   -1    0    0  501    0  0.00000000000E+00  0.00000000000E+00  0.67312520498E+01  0.67312539367E+01  0.50400000000E-02 0. -1.
         -1   -1    0    0    0  501 -0.00000000000E+00 -0.00000000000E+00 -0.31071695515E+03  0.31071695519E+03  0.50400000000E-02 0.  1.
         23    2    1    2    0    0  0.00000000000E+00  0.71054273576E-14 -0.30398570310E+03  0.31744820913E+03  0.91466156523E+02 0.  0.
    9000005    2    3    3    0    0 -0.91693176473E+01  0.38442138160E+02 -0.83413726401E+02  0.93363690971E+02  0.14037616151E+02 0.  0.
         22    1    3    3    0    0  0.91693176473E+01 -0.38442138160E+02 -0.22057197670E+03  0.22408451816E+03  0.00000000000E+00 0.  1.
         22    1    4    4    0    0 -0.37874310755E+01  0.12821910153E+01 -0.48292166080E+01  0.62697672204E+01  0.00000000000E+00 0.  1.
         22    1    4    4    0    0 -0.53818865718E+01  0.37159947145E+02 -0.78584509793E+02  0.87093923750E+02  0.00000000000E+00 0.  1.
<mgrwt>
<rscale>  0 0.91466157E+02</rscale>
<asrwt>0</asrwt>
<pdfrwt beam="1">  1        1 0.10355776E-02 0.91466157E+02</pdfrwt>
<pdfrwt beam="2">  1       -1 0.47802597E-01 0.91466157E+02</pdfrwt>
<totfact> 0.59249363E+04</totfact>
</mgrwt>
</event>
<event>
 7    1  0.2911475E-009  0.8950012E+02  0.7818608E-02  0.1304067E+00
         -1   -1    0    0    0  501 -0.00000000000E+00  0.00000000000E+00  0.49498647241E+02  0.49498647497E+02  0.50400000000E-02 0.  1.
          1   -1    0    0  501    0  0.00000000000E+00 -0.00000000000E+00 -0.40457022021E+02  0.40457022335E+02  0.50400000000E-02 0. -1.
         23    2    1    2    0    0  0.00000000000E+00  0.17763568394E-14  0.90416252193E+01  0.89955669833E+02  0.89500120382E+02 0.  0.
    9000005    2    3    3    0    0  0.93329485997E+01  0.14473376262E+02 -0.36350156435E+02  0.41406762618E+02  0.98287113935E+01 0.  0.
         22    1    3    3    0    0 -0.93329485997E+01 -0.14473376262E+02  0.45391781654E+02  0.48548907215E+02  0.00000000000E+00 0.  1.
         22    1    4    4    0    0  0.83950823112E+00 -0.13330810433E+01 -0.54631663355E+01  0.56857774796E+01  0.00000000000E+00 0.  1.
         22    1    4    4    0    0  0.84934403686E+01  0.15806457306E+02 -0.30886990099E+02  0.35720985138E+02  0.00000000000E+00 0.  1.
<mgrwt>
<rscale>  0 0.89500120E+02</rscale>
<asrwt>0</asrwt>
<pdfrwt beam="2">  1        1 0.62241573E-02 0.89500120E+02</pdfrwt>
<pdfrwt beam="1">  1       -1 0.76151765E-02 0.89500120E+02</pdfrwt>
<totfact> 0.95694131E+04</totfact>
</mgrwt>
</event>
<event>
 7    1  0.2911475E-009  0.8912271E+02  0.7818608E-02  0.1304990E+00
          1   -1    0    0  501    0  0.00000000000E+00  0.00000000000E+00  0.47509876534E+03  0.47509876537E+03  0.50400000000E-02 0. -1.
         -1   -1    0    0    0  501 -0.00000000000E+00 -0.00000000000E+00 -0.41795806690E+01  0.41795837078E+01  0.50400000000E-02 0.  1.
         23    2    1    2    0    0  0.00000000000E+00  0.35527136788E-14  0.47091918467E+03  0.47927834907E+03  0.89122709790E+02 0.  0.
    9000005    2    3    3    0    0  0.33556000918E+02  0.27668520642E+02  0.28173190205E+03  0.28515627372E+03  0.70486580526E+01 0.  0.
         22    1    3    3    0    0 -0.33556000918E+02 -0.27668520642E+02  0.18918728262E+03  0.19412207535E+03  0.00000000000E+00 0. -1.
         22    1    4    4    0    0  0.11774790104E+01  0.27239297618E+01  0.27513995163E+02  0.27673564642E+02  0.00000000000E+00 0.  1.
         22    1    4    4    0    0  0.32378521908E+02  0.24944590881E+02  0.25421790688E+03  0.25748270908E+03  0.00000000000E+00 0.  1.
<mgrwt>
<rscale>  0 0.89122710E+02</rscale>
<asrwt>0</asrwt>
<pdfrwt beam="1">  1        1 0.73092084E-01 0.89122710E+02</pdfrwt>
<pdfrwt beam="2">  1       -1 0.64301294E-03 0.89122710E+02</pdfrwt>
<totfact> 0.14698607E+05</totfact>
</mgrwt>
</event>
<event>
 7    1  0.2911475E-009  0.9183915E+02  0.7818608E-02  0.1298458E+00
          1   -1    0    0  501    0  0.00000000000E+00  0.00000000000E+00  0.20446493294E+03  0.20446493300E+03  0.50400000000E-02 0. -1.
         -1   -1    0    0    0  501 -0.00000000000E+00 -0.00000000000E+00 -0.10312805619E+02  0.10312806851E+02  0.50400000000E-02 0.  1.
         23    2    1    2    0    0  0.88817841970E-15  0.00000000000E+00  0.19415212732E+03  0.21477773985E+03  0.91839147389E+02 0.  0.
    9000005    2    3    3    0    0  0.52192460132E+01  0.10449440923E+02  0.20052028013E+03  0.20147417963E+03  0.15717218939E+02 0.  0.
         22    1    3    3    0    0 -0.52192460132E+01 -0.10449440923E+02 -0.63681528024E+01  0.13303560225E+02  0.00000000000E+00 0.  1.
         22    1    4    4    0    0 -0.26634838502E+01  0.15480659032E+01  0.12377346552E+03  0.12381179840E+03  0.00000000000E+00 0. -1.
         22    1    4    4    0    0  0.78827298633E+01  0.89013750202E+01  0.76746814601E+02  0.77662381233E+02  0.00000000000E+00 0. -1.
<mgrwt>
<rscale>  0 0.91839147E+02</rscale>
<asrwt>0</asrwt>
<pdfrwt beam="1">  1        1 0.31456141E-01 0.91839147E+02</pdfrwt>
<pdfrwt beam="2">  1       -1 0.15865857E-02 0.91839147E+02</pdfrwt>
<totfact> 0.11662695E+05</totfact>
</mgrwt>
</event>
<event>
 7    1  0.3017848E-009  0.1256596E+03  0.7818608E-02  0.1234042E+00
          1   -1    0    0  501    0  0.00000000000E+00  0.00000000000E+00  0.29715307320E+03  0.29715307324E+03  0.50400000000E-02 0. -1.
         -1   -1    0    0    0  501 -0.00000000000E+00 -0.00000000000E+00 -0.13284687971E+02  0.13284688927E+02  0.50400000000E-02 0.  1.
         23    2    1    2    0    0  0.00000000000E+00 -0.35527136788E-14  0.28386838523E+03  0.31043776217E+03  0.12565963572E+03 0.  0.
    9000005    2    3    3    0    0 -0.53538726256E+02 -0.30746216751E+02  0.15925362398E+03  0.17136740669E+03  0.13904900912E+02 0.  0.
         22    1    3    3    0    0  0.53538726256E+02  0.30746216751E+02  0.12461476125E+03  0.13907035548E+03  0.00000000000E+00 0.  1.
         22    1    4    4    0    0 -0.18591097974E+02 -0.37512514933E+01  0.42416817419E+02  0.46463826915E+02  0.00000000000E+00 0.  1.
         22    1    4    4    0    0 -0.34947628282E+02 -0.26994965258E+02  0.11683680656E+03  0.12490357977E+03  0.00000000000E+00 0.  1.
<mgrwt>
<rscale>  0 0.12565964E+03</rscale>
<asrwt>0</asrwt>
<pdfrwt beam="1">  1        1 0.45715859E-01 0.12565964E+03</pdfrwt>
<pdfrwt beam="2">  1       -1 0.20437982E-02 0.12565964E+03</pdfrwt>
<totfact> 0.53594889E+04</totfact>
</mgrwt>
</event>
<event>
 7    1  0.2911475E-009  0.9501770E+02  0.7818608E-02  0.1291136E+00
          1   -1    0    0  501    0  0.00000000000E+00  0.00000000000E+00  0.11467588254E+03  0.11467588265E+03  0.50400000000E-02 0. -1.
         -1   -1    0    0    0  501 -0.00000000000E+00 -0.00000000000E+00 -0.19682350295E+02  0.19682350940E+02  0.50400000000E-02 0.  1.
         23    2    1    2    0    0  0.00000000000E+00  0.00000000000E+00  0.94993532245E+02  0.13435823359E+03  0.95017702379E+02 0.  0.
    9000005    2    3    3    0    0 -0.40609778736E+02 -0.23253365408E+02  0.48718259443E+02  0.68545818313E+02  0.11627006205E+02 0.  0.
         22    1    3    3    0    0  0.40609778736E+02  0.23253365408E+02  0.46275272803E+02  0.65812415278E+02  0.00000000000E+00 0. -1.
         22    1    4    4    0    0 -0.24693511809E+02 -0.10473855344E+02  0.34359437148E+02  0.43589472265E+02  0.00000000000E+00 0.  1.
         22    1    4    4    0    0 -0.15916266927E+02 -0.12779510064E+02  0.14358822295E+02  0.24956346048E+02  0.00000000000E+00 0.  1.
<mgrwt>
<rscale>  0 0.95017702E+02</rscale>
<asrwt>0</asrwt>
<pdfrwt beam="1">  1        1 0.17642443E-01 0.95017702E+02</pdfrwt>
<pdfrwt beam="2">  1       -1 0.30280540E-02 0.95017702E+02</pdfrwt>
<totfact> 0.95529872E+04</totfact>
</mgrwt>
</event>
<event>
 7    1  0.2911475E-009  0.8971883E+02  0.7818608E-02  0.1303534E+00
         -1   -1    0    0    0  501 -0.00000000000E+00  0.00000000000E+00  0.13480197436E+02  0.13480198378E+02  0.50400000000E-02 0.  1.
          1   -1    0    0  501    0  0.00000000000E+00 -0.00000000000E+00 -0.14928319952E+03  0.14928319960E+03  0.50400000000E-02 0. -1.
         23    2    1    2    0    0  0.00000000000E+00  0.00000000000E+00 -0.13580300208E+03  0.16276339798E+03  0.89718829395E+02 0.  0.
    9000005    2    3    3    0    0 -0.20509147370E+02  0.36468679514E+02 -0.96720666466E+02  0.10550941412E+03  0.51729521658E+01 0.  0.
         22    1    3    3    0    0  0.20509147370E+02 -0.36468679514E+02 -0.39082335617E+02  0.57253983867E+02  0.00000000000E+00 0.  1.
         22    1    4    4    0    0 -0.17190691099E+02  0.26054607306E+02 -0.70436837974E+02  0.77043562782E+02  0.00000000000E+00 0.  1.
         22    1    4    4    0    0 -0.33184562704E+01  0.10414072208E+02 -0.26283828491E+02  0.28465851334E+02  0.00000000000E+00 0.  1.
<mgrwt>
<rscale>  0 0.89718829E+02</rscale>
<asrwt>0</asrwt>
<pdfrwt beam="2">  1        1 0.22966645E-01 0.89718829E+02</pdfrwt>
<pdfrwt beam="1">  1       -1 0.20738767E-02 0.89718829E+02</pdfrwt>
<totfact> 0.11700601E+05</totfact>
</mgrwt>
</event>
<event>
 7    1  0.2911475E-009  0.9237001E+02  0.7818608E-02  0.1297212E+00
         -1   -1    0    0    0  501 -0.00000000000E+00  0.00000000000E+00  0.34070376538E+03  0.34070376541E+03  0.50400000000E-02 0.  1.
          1   -1    0    0  501    0  0.00000000000E+00 -0.00000000000E+00 -0.62607298740E+01  0.62607319027E+01  0.50400000000E-02 0. -1.
         23    2    1    2    0    0  0.00000000000E+00  0.00000000000E+00  0.33444303550E+03  0.34696449732E+03  0.92370008130E+02 0.  0.
    9000005    2    3    3    0    0 -0.33426278498E+02 -0.27143598722E+02  0.10936717126E+03  0.11780683170E+03  0.79486099568E+01 0.  0.
         22    1    3    3    0    0  0.33426278498E+02  0.27143598722E+02  0.22507586424E+03  0.22915766562E+03  0.00000000000E+00 0.  1.
         22    1    4    4    0    0 -0.58752448396E+01 -0.91451627626E+01  0.28128108120E+02  0.30155314131E+02  0.00000000000E+00 0. -1.
         22    1    4    4    0    0 -0.27551033658E+02 -0.17998435959E+02  0.81239063139E+02  0.87651517570E+02  0.00000000000E+00 0. -1.
<mgrwt>
<rscale>  0 0.92370008E+02</rscale>
<asrwt>0</asrwt>
<pdfrwt beam="2">  1        1 0.96318923E-03 0.92370008E+02</pdfrwt>
<pdfrwt beam="1">  1       -1 0.52415972E-01 0.92370008E+02</pdfrwt>
<totfact> 0.55543514E+04</totfact>
</mgrwt>
</event>
<event>
 7    1  0.2911475E-009  0.9054795E+02  0.7818608E-02  0.1301530E+00
          1   -1    0    0  501    0  0.00000000000E+00  0.00000000000E+00  0.21178155895E+03  0.21178155901E+03  0.50400000000E-02 0. -1.
         -1   -1    0    0    0  501 -0.00000000000E+00 -0.00000000000E+00 -0.96785230702E+01  0.96785243825E+01  0.50400000000E-02 0.  1.
         23    2    1    2    0    0  0.00000000000E+00  0.00000000000E+00  0.20210303588E+03  0.22146008340E+03  0.90547950968E+02 0.  0.
    9000005    2    3    3    0    0 -0.64982666024E+01  0.44564017472E+02  0.10315575437E+03  0.11274603811E+03  0.65100176202E+01 0.  0.
         22    1    3    3    0    0  0.64982666024E+01 -0.44564017472E+02  0.98947281516E+02  0.10871404528E+03  0.00000000000E+00 0.  1.
         22    1    4    4    0    0 -0.31557079515E+01  0.33396948556E+02  0.81900987841E+02  0.88504725721E+02  0.00000000000E+00 0.  1.
         22    1    4    4    0    0 -0.33425586509E+01  0.11167068916E+02  0.21254766526E+02  0.24241312394E+02  0.00000000000E+00 0.  1.
<mgrwt>
<rscale>  0 0.90547951E+02</rscale>
<asrwt>0</asrwt>
<pdfrwt beam="1">  1        1 0.32581779E-01 0.90547951E+02</pdfrwt>
<pdfrwt beam="2">  1       -1 0.14890036E-02 0.90547951E+02</pdfrwt>
<totfact> 0.12197010E+05</totfact>
</mgrwt>
</event>
<event>
 7    1  0.2911475E-009  0.7894768E+02  0.7818608E-02  0.1332065E+00
          1   -1    0    0  501    0  0.00000000000E+00  0.00000000000E+00  0.36247656266E+02  0.36247656617E+02  0.50400000000E-02 0. -1.
         -1   -1    0    0    0  501 -0.00000000000E+00 -0.00000000000E+00 -0.42987170821E+02  0.42987171117E+02  0.50400000000E-02 0.  1.
         23    2    1    2    0    0 -0.17763568394E-14  0.00000000000E+00 -0.67395145549E+01  0.79234827733E+02  0.78947684383E+02 0.  0.
    9000005    2    3    3    0    0  0.10323381833E+02 -0.30765952851E+02 -0.23203503216E+02  0.42845557475E+02  0.15627641106E+02 0.  0.
         22    1    3    3    0    0 -0.10323381833E+02  0.30765952851E+02  0.16463988661E+02  0.36389270258E+02  0.00000000000E+00 0. -1.
         22    1    4    4    0    0  0.79796573460E+01 -0.45186407189E+01 -0.30279686669E+01  0.96572066123E+01  0.00000000000E+00 0.  1.
         22    1    4    4    0    0  0.23437244874E+01 -0.26247312132E+02 -0.20175534549E+02  0.33188350863E+02  0.00000000000E+00 0.  1.
<mgrwt>
<rscale>  0 0.78947684E+02</rscale>
<asrwt>0</asrwt>
<pdfrwt beam="1">  1        1 0.55765626E-02 0.78947684E+02</pdfrwt>
<pdfrwt beam="2">  1       -1 0.66134109E-02 0.78947684E+02</pdfrwt>
<totfact> 0.13371204E+05</totfact>
</mgrwt>
</event>
<event>
 7    1  0.2911475E-009  0.8987980E+02  0.7818608E-02  0.1303143E+00
         -1   -1    0    0    0  501 -0.00000000000E+00  0.00000000000E+00  0.38444760219E+02  0.38444760549E+02  0.50400000000E-02 0.  1.
          1   -1    0    0  501    0  0.00000000000E+00 -0.00000000000E+00 -0.52532379458E+02  0.52532379699E+02  0.50400000000E-02 0. -1.
         23    2    1    2    0    0  0.00000000000E+00  0.00000000000E+00 -0.14087619239E+02  0.90977140249E+02  0.89879803249E+02 0.  0.
    9000005    2    3    3    0    0  0.27487376406E+02  0.18551377667E+02  0.21396820275E+02  0.42409095995E+02  0.15524111252E+02 0.  0.
         22    1    3    3    0    0 -0.27487376406E+02 -0.18551377667E+02 -0.35484439514E+02  0.48568044254E+02  0.00000000000E+00 0. -1.
         22    1    4    4    0    0  0.84275100886E+01  0.79069570779E+01  0.16317722838E+02  0.19995273820E+02  0.00000000000E+00 0.  1.
         22    1    4    4    0    0  0.19059866317E+02  0.10644420589E+02  0.50790974378E+01  0.22413822175E+02  0.00000000000E+00 0.  1.
<mgrwt>
<rscale>  0 0.89879803E+02</rscale>
<asrwt>0</asrwt>
<pdfrwt beam="2">  1        1 0.80819045E-02 0.89879803E+02</pdfrwt>
<pdfrwt beam="1">  1       -1 0.59145786E-02 0.89879803E+02</pdfrwt>
<totfact> 0.98305284E+04</totfact>
</mgrwt>
</event>
<event>
 7    1  0.2911475E-009  0.9075394E+02  0.7818608E-02  0.1301036E+00
          1   -1    0    0  501    0  0.00000000000E+00  0.00000000000E+00  0.60782344777E+02  0.60782344986E+02  0.50400000000E-02 0. -1.
         -1   -1    0    0    0  501 -0.00000000000E+00 -0.00000000000E+00 -0.33876112572E+02  0.33876112946E+02  0.50400000000E-02 0.  1.
         23    2    1    2    0    0 -0.88817841970E-15  0.71054273576E-14  0.26906232205E+02  0.94658457932E+02  0.90753943863E+02 0.  0.
    9000005    2    3    3    0    0 -0.66386478446E+01  0.43953440939E+02  0.16028495413E+02  0.48894915966E+02  0.12562783392E+02 0.  0.
         22    1    3    3    0    0  0.66386478446E+01 -0.43953440939E+02  0.10877736793E+02  0.45763541966E+02  0.00000000000E+00 0. -1.
         22    1    4    4    0    0  0.26271342037E-01  0.34770173261E+02  0.10863709551E+02  0.36427816624E+02  0.00000000000E+00 0. -1.
         22    1    4    4    0    0 -0.66649191866E+01  0.91832676781E+01  0.51647858615E+01  0.12467099342E+02  0.00000000000E+00 0. -1.
<mgrwt>
<rscale>  0 0.90753944E+02</rscale>
<asrwt>0</asrwt>
<pdfrwt beam="1">  1        1 0.93511300E-02 0.90753944E+02</pdfrwt>
<pdfrwt beam="2">  1       -1 0.52117097E-02 0.90753944E+02</pdfrwt>
<totfact> 0.97812278E+04</totfact>
</mgrwt>
</event>
<event>
 7    1  0.2911475E-009  0.9035442E+02  0.7818608E-02  0.1301996E+00
          1   -1    0    0  501    0  0.00000000000E+00  0.00000000000E+00  0.11484862119E+03  0.11484862130E+03  0.50400000000E-02 0.  1.
         -1   -1    0    0    0  501 -0.00000000000E+00 -0.00000000000E+00 -0.17771047763E+02  0.17771048477E+02  0.50400000000E-02 0. -1.
         23    2    1    2    0    0  0.00000000000E+00  0.00000000000E+00  0.97077573423E+02  0.13261966977E+03  0.90354421858E+02 0.  0.
    9000005    2    3    3    0    0 -0.16222626541E+02 -0.92121974017E+01 -0.88736161670E+01  0.25038571209E+02  0.14147465902E+02 0.  0.
         22    1    3    3    0    0  0.16222626541E+02  0.92121974017E+01  0.10595118959E+03  0.10758109856E+03  0.00000000000E+00 0.  1.
         22    1    4    4    0    0  0.13853331111E+01  0.17525351664E+01  0.47901715650E+00  0.22847285997E+01  0.00000000000E+00 0. -1.
         22    1    4    4    0    0 -0.17607959652E+02 -0.10964732568E+02 -0.93526333235E+01  0.22753842609E+02  0.00000000000E+00 0. -1.
<mgrwt>
<rscale>  0 0.90354422E+02</rscale>
<asrwt>0</asrwt>
<pdfrwt beam="1">  1        1 0.17669018E-01 0.90354422E+02</pdfrwt>
<pdfrwt beam="2">  1       -1 0.27340075E-02 0.90354422E+02</pdfrwt>
<totfact> 0.10958513E+05</totfact>
</mgrwt>
</event>
<event>
 7    1  0.2911475E-009  0.8733021E+02  0.7818608E-02  0.1309449E+00
          1   -1    0    0  501    0  0.00000000000E+00  0.00000000000E+00  0.54733706685E+03  0.54733706687E+03  0.50400000000E-02 0. -1.
         -1   -1    0    0    0  501 -0.00000000000E+00 -0.00000000000E+00 -0.34834847683E+01  0.34834884143E+01  0.50400000000E-02 0.  1.
         23    2    1    2    0    0 -0.35527136788E-14  0.00000000000E+00  0.54385358208E+03  0.55082055528E+03  0.87330208886E+02 0.  0.
    9000005    2    3    3    0    0 -0.28174969115E+02 -0.23725470551E+01  0.48095591282E+03  0.48185988053E+03  0.84200074434E+01 0.  0.
         22    1    3    3    0    0  0.28174969115E+02  0.23725470551E+01  0.62897669256E+02  0.68960674750E+02  0.00000000000E+00 0.  1.
         22    1    4    4    0    0 -0.26053045907E+02 -0.44520381199E+01  0.41903411670E+03  0.41986685128E+03  0.00000000000E+00 0.  1.
         22    1    4    4    0    0 -0.21219232076E+01  0.20794910648E+01  0.61921796122E+02  0.61993029254E+02  0.00000000000E+00 0.  1.
<mgrwt>
<rscale>  0 0.87330209E+02</rscale>
<asrwt>0</asrwt>
<pdfrwt beam="1">  1        1 0.84205694E-01 0.87330209E+02</pdfrwt>
<pdfrwt beam="2">  1       -1 0.53592107E-03 0.87330209E+02</pdfrwt>
<totfact> 0.15755677E+05</totfact>
</mgrwt>
</event>
<event>
 7    1  0.2911475E-009  0.9223269E+02  0.7818608E-02  0.1297533E+00
          1   -1    0    0  501    0  0.00000000000E+00  0.00000000000E+00  0.17908125541E+02  0.17908126251E+02  0.50400000000E-02 0. -1.
         -1   -1    0    0    0  501 -0.00000000000E+00 -0.00000000000E+00 -0.11875712127E+03  0.11875712138E+03  0.50400000000E-02 0.  1.
         23    2    1    2    0    0 -0.17763568394E-14  0.00000000000E+00 -0.10084899573E+03  0.13666524763E+03  0.92232694690E+02 0.  0.
    9000005    2    3    3    0    0 -0.12341783131E+02 -0.19157666022E+02  0.60093476951E+01  0.27403903423E+02  0.13983057063E+02 0.  0.
         22    1    3    3    0    0  0.12341783131E+02  0.19157666022E+02 -0.10685834342E+03  0.10926134421E+03  0.00000000000E+00 0.  1.
         22    1    4    4    0    0  0.19247715230E+00 -0.11448152372E+02 -0.15166149582E+00  0.11450774707E+02  0.00000000000E+00 0. -1.
         22    1    4    4    0    0 -0.12534260283E+02 -0.77095136502E+01  0.61610091909E+01  0.15953128716E+02  0.00000000000E+00 0. -1.
<mgrwt>
<rscale>  0 0.92232695E+02</rscale>
<asrwt>0</asrwt>
<pdfrwt beam="1">  1        1 0.27550964E-02 0.92232695E+02</pdfrwt>
<pdfrwt beam="2">  1       -1 0.18270326E-01 0.92232695E+02</pdfrwt>
<totfact> 0.76387418E+04</totfact>
</mgrwt>
</event>
<event>
 7    1  0.2911475E-009  0.9111438E+02  0.7818608E-02  0.1300175E+00
         -1   -1    0    0    0  501 -0.00000000000E+00  0.00000000000E+00  0.96530415095E+02  0.96530415227E+02  0.50400000000E-02 0.  1.
          1   -1    0    0  501    0  0.00000000000E+00 -0.00000000000E+00 -0.21500554983E+02  0.21500555574E+02  0.50400000000E-02 0. -1.
         23    2    1    2    0    0  0.00000000000E+00  0.35527136788E-14  0.75029860112E+02  0.11803097080E+03  0.91114379545E+02 0.  0.
    9000005    2    3    3    0    0 -0.17610566940E+02  0.21871077615E+02  0.83725071213E+02  0.88635685464E+02  0.76105902498E+01 0.  0.
         22    1    3    3    0    0  0.17610566940E+02 -0.21871077615E+02 -0.86952111016E+01  0.29395285337E+02  0.00000000000E+00 0. -1.
         22    1    4    4    0    0 -0.52859719731E+01  0.45124134877E+01  0.31109536299E+02  0.31876427402E+02  0.00000000000E+00 0. -1.
         22    1    4    4    0    0 -0.12324594966E+02  0.17358664127E+02  0.52615534915E+02  0.56759258062E+02  0.00000000000E+00 0. -1.
<mgrwt>
<rscale>  0 0.91114380E+02</rscale>
<asrwt>0</asrwt>
<pdfrwt beam="2">  1        1 0.33077778E-02 0.91114380E+02</pdfrwt>
<pdfrwt beam="1">  1       -1 0.14850833E-01 0.91114380E+02</pdfrwt>
<totfact> 0.82046966E+04</totfact>
</mgrwt>
</event>
<event>
 7    1  0.2911475E-009  0.9355791E+02  0.7818608E-02  0.1294457E+00
         -1   -1    0    0    0  501 -0.00000000000E+00  0.00000000000E+00  0.27212397110E+02  0.27212397576E+02  0.50400000000E-02 0.  1.
          1   -1    0    0  501    0  0.00000000000E+00 -0.00000000000E+00 -0.80414469695E+02  0.80414469853E+02  0.50400000000E-02 0. -1.
         23    2    1    2    0    0  0.00000000000E+00  0.00000000000E+00 -0.53202072585E+02  0.10762686743E+03  0.93557907551E+02 0.  0.
    9000005    2    3    3    0    0  0.45719237562E+02  0.46522387400E+01 -0.17824407948E+02  0.49631426542E+02  0.58031864888E+01 0.  0.
         22    1    3    3    0    0 -0.45719237562E+02 -0.46522387400E+01 -0.35377664637E+02  0.57995440887E+02  0.00000000000E+00 0. -1.
         22    1    4    4    0    0  0.29792559190E+02  0.57648722301E+01 -0.12158719361E+02  0.32690438838E+02  0.00000000000E+00 0.  1.
         22    1    4    4    0    0  0.15926678371E+02 -0.11126334902E+01 -0.56656885874E+01  0.16940987704E+02  0.00000000000E+00 0.  1.
<mgrwt>
<rscale>  0 0.93557908E+02</rscale>
<asrwt>0</asrwt>
<pdfrwt beam="2">  1        1 0.12371457E-01 0.93557908E+02</pdfrwt>
<pdfrwt beam="1">  1       -1 0.41865227E-02 0.93557908E+02</pdfrwt>
<totfact> 0.93921815E+04</totfact>
</mgrwt>
</event>
<event>
 7    1  0.2911475E-009  0.9163832E+02  0.7818608E-02  0.1298932E+00
          1   -1    0    0  501    0  0.00000000000E+00  0.00000000000E+00  0.74896977564E+02  0.74896977733E+02  0.50400000000E-02 0. -1.
         -1   -1    0    0    0  501 -0.00000000000E+00 -0.00000000000E+00 -0.28030441259E+02  0.28030441712E+02  0.50400000000E-02 0.  1.
         23    2    1    2    0    0  0.00000000000E+00  0.00000000000E+00  0.46866536305E+02  0.10292741945E+03  0.91638318669E+02 0.  0.
    9000005    2    3    3    0    0 -0.10080759064E+02 -0.17475946657E+02  0.68767158802E+02  0.73150453840E+02  0.14664117855E+02 0.  0.
         22    1    3    3    0    0  0.10080759064E+02  0.17475946657E+02 -0.21900622497E+02  0.29776965605E+02  0.00000000000E+00 0.  1.
         22    1    4    4    0    0 -0.86978193224E+01 -0.62323714726E+01  0.16471682711E+02  0.19642068284E+02  0.00000000000E+00 0.  1.
         22    1    4    4    0    0 -0.13829397416E+01 -0.11243575185E+02  0.52295476091E+02  0.53508385556E+02  0.00000000000E+00 0.  1.
<mgrwt>
<rscale>  0 0.91638319E+02</rscale>
<asrwt>0</asrwt>
<pdfrwt beam="1">  1        1 0.11522612E-01 0.91638319E+02</pdfrwt>
<pdfrwt beam="2">  1       -1 0.43123755E-02 0.91638319E+02</pdfrwt>
<totfact> 0.98330645E+04</totfact>
</mgrwt>
</event>
<event>
 7    1  0.2911475E-009  0.9154231E+02  0.7818608E-02  0.1299159E+00
         -1   -1    0    0    0  501 -0.00000000000E+00  0.00000000000E+00  0.22991847968E+02  0.22991848521E+02  0.50400000000E-02 0.  1.
          1   -1    0    0  501    0  0.00000000000E+00 -0.00000000000E+00 -0.91119188105E+02  0.91119188244E+02  0.50400000000E-02 0. -1.
         23    2    1    2    0    0 -0.35527136788E-14 -0.35527136788E-14 -0.68127340137E+02  0.11411103677E+03  0.91542308456E+02 0.  0.
    9000005    2    3    3    0    0 -0.14883550507E+02 -0.15933725204E+02  0.15703470507E+02  0.27491128616E+02  0.58102919117E+01 0.  0.
         22    1    3    3    0    0  0.14883550507E+02  0.15933725204E+02 -0.83830810644E+02  0.86619908149E+02  0.00000000000E+00 0. -1.
         22    1    4    4    0    0 -0.17690841287E+01  0.18801227144E+00  0.13689776944E+01  0.22447955801E+01  0.00000000000E+00 0. -1.
         22    1    4    4    0    0 -0.13114466378E+02 -0.16121737475E+02  0.14334492812E+02  0.25246333036E+02  0.00000000000E+00 0. -1.
<mgrwt>
<rscale>  0 0.91542308E+02</rscale>
<asrwt>0</asrwt>
<pdfrwt beam="2">  1        1 0.14018336E-01 0.91542308E+02</pdfrwt>
<pdfrwt beam="1">  1       -1 0.35372075E-02 0.91542308E+02</pdfrwt>
<totfact> 0.10174653E+05</totfact>
</mgrwt>
</event>
<event>
 7    1  0.2911475E-009  0.9049854E+02  0.7818608E-02  0.1301649E+00
          1   -1    0    0  501    0  0.00000000000E+00  0.00000000000E+00  0.13009621316E+03  0.13009621326E+03  0.50400000000E-02 0. -1.
         -1   -1    0    0    0  501 -0.00000000000E+00 -0.00000000000E+00 -0.15738325499E+02  0.15738326306E+02  0.50400000000E-02 0.  1.
         23    2    1    2    0    0  0.71054273576E-14  0.00000000000E+00  0.11435788766E+03  0.14583453956E+03  0.90498543962E+02 0.  0.
    9000005    2    3    3    0    0  0.32284235197E+02  0.30995582114E+02  0.52539159159E+02  0.69515779442E+02  0.83115818865E+01 0.  0.
         22    1    3    3    0    0 -0.32284235197E+02 -0.30995582114E+02  0.61818728500E+02  0.76318760120E+02  0.00000000000E+00 0.  1.
         22    1    4    4    0    0  0.15998586398E+02  0.20763329419E+02  0.28322954065E+02  0.38590936011E+02  0.00000000000E+00 0. -1.
         22    1    4    4    0    0  0.16285648800E+02  0.10232252694E+02  0.24216205095E+02  0.30924843431E+02  0.00000000000E+00 0. -1.
<mgrwt>
<rscale>  0 0.90498544E+02</rscale>
<asrwt>0</asrwt>
<pdfrwt beam="1">  1        1 0.20014803E-01 0.90498544E+02</pdfrwt>
<pdfrwt beam="2">  1       -1 0.24212808E-02 0.90498544E+02</pdfrwt>
<totfact> 0.11151051E+05</totfact>
</mgrwt>
</event>
<event>
 7    1  0.2911475E-009  0.9228320E+02  0.7818608E-02  0.1297415E+00
         -1   -1    0    0    0  501 -0.00000000000E+00  0.00000000000E+00  0.36225648844E+03  0.36225648848E+03  0.50400000000E-02 0.  1.
          1   -1    0    0  501    0  0.00000000000E+00 -0.00000000000E+00 -0.58771801484E+01  0.58771823094E+01  0.50400000000E-02 0. -1.
         23    2    1    2    0    0 -0.35527136788E-14 -0.35527136788E-14  0.35637930830E+03  0.36813367079E+03  0.92283195583E+02 0.  0.
    9000005    2    3    3    0    0 -0.28003034001E+02 -0.16112376406E+02  0.30895653315E+03  0.31075163362E+03  0.82861231487E+01 0.  0.
         22    1    3    3    0    0  0.28003034001E+02  0.16112376406E+02  0.47422775147E+02  0.57382037166E+02  0.00000000000E+00 0. -1.
         22    1    4    4    0    0 -0.21370144546E+02 -0.81991468134E+01  0.19931077778E+03  0.20062077466E+03  0.00000000000E+00 0. -1.
         22    1    4    4    0    0 -0.66328894558E+01 -0.79132295922E+01  0.10964575537E+03  0.11013085896E+03  0.00000000000E+00 0. -1.
<mgrwt>
<rscale>  0 0.92283196E+02</rscale>
<asrwt>0</asrwt>
<pdfrwt beam="2">  1        1 0.90418138E-03 0.92283196E+02</pdfrwt>
<pdfrwt beam="1">  1       -1 0.55731789E-01 0.92283196E+02</pdfrwt>
<totfact> 0.54165373E+04</totfact>
</mgrwt>
</event>
<event>
 7    1  0.2911475E-009  0.9014959E+02  0.7818608E-02  0.1302490E+00
         -1   -1    0    0    0  501 -0.00000000000E+00  0.00000000000E+00  0.11755138233E+02  0.11755139314E+02  0.50400000000E-02 0. -1.
          1   -1    0    0  501    0  0.00000000000E+00 -0.00000000000E+00 -0.17283820747E+03  0.17283820755E+03  0.50400000000E-02 0.  1.
         23    2    1    2    0    0  0.00000000000E+00  0.00000000000E+00 -0.16108306924E+03  0.18459334686E+03  0.90149589625E+02 0.  0.
    9000005    2    3    3    0    0  0.39219794118E+02  0.17254559593E+02 -0.10554275690E+03  0.11444608482E+03  0.11077938369E+02 0.  0.
         22    1    3    3    0    0 -0.39219794118E+02 -0.17254559593E+02 -0.55540312342E+02  0.70147262046E+02  0.00000000000E+00 0. -1.
         22    1    4    4    0    0  0.65358018323E+00  0.15724211526E+01 -0.11419271373E+01  0.20502860590E+01  0.00000000000E+00 0. -1.
         22    1    4    4    0    0  0.38566213935E+02  0.15682138441E+02 -0.10440082976E+03  0.11239579876E+03  0.00000000000E+00 0. -1.
<mgrwt>
<rscale>  0 0.90149590E+02</rscale>
<asrwt>0</asrwt>
<pdfrwt beam="2">  1        1 0.26590492E-01 0.90149590E+02</pdfrwt>
<pdfrwt beam="1">  1       -1 0.18084830E-02 0.90149590E+02</pdfrwt>
<totfact> 0.11869226E+05</totfact>
</mgrwt>
</event>
<event>
 7    1  0.2911475E-009  0.9395220E+02  0.7818608E-02  0.1293554E+00
         -1   -1    0    0    0  501 -0.00000000000E+00  0.00000000000E+00  0.21678775058E+02  0.21678775644E+02  0.50400000000E-02 0.  1.
          1   -1    0    0  501    0  0.00000000000E+00 -0.00000000000E+00 -0.10179330088E+03  0.10179330100E+03  0.50400000000E-02 0. -1.
         23    2    1    2    0    0  0.00000000000E+00  0.00000000000E+00 -0.80114525822E+02  0.12347207665E+03  0.93952203084E+02 0.  0.
    9000005    2    3    3    0    0  0.17332854615E+02  0.42906860695E+02 -0.43413669818E+02  0.64409572678E+02  0.11064347327E+02 0.  0.
         22    1    3    3    0    0 -0.17332854615E+02 -0.42906860695E+02 -0.36700856004E+02  0.59062503970E+02  0.00000000000E+00 0. -1.
         22    1    4    4    0    0 -0.11674783905E+01  0.11104113289E+01 -0.43462803192E+00  0.16688081489E+01  0.00000000000E+00 0.  1.
         22    1    4    4    0    0  0.18500333006E+02  0.41796449366E+02 -0.42979041786E+02  0.62740764529E+02  0.00000000000E+00 0.  1.
<mgrwt>
<rscale>  0 0.93952203E+02</rscale>
<asrwt>0</asrwt>
<pdfrwt beam="2">  1        1 0.15660508E-01 0.93952203E+02</pdfrwt>
<pdfrwt beam="1">  1       -1 0.33351963E-02 0.93952203E+02</pdfrwt>
<totfact> 0.96520644E+04</totfact>
</mgrwt>
</event>
<event>
 7    1  0.2911475E-009  0.9094639E+02  0.7818608E-02  0.1300576E+00
         -1   -1    0    0    0  501 -0.00000000000E+00  0.00000000000E+00  0.87369333167E+02  0.87369333312E+02  0.50400000000E-02 0.  1.
          1   -1    0    0  501    0  0.00000000000E+00 -0.00000000000E+00 -0.23667474304E+02  0.23667474841E+02  0.50400000000E-02 0. -1.
         23    2    1    2    0    0  0.00000000000E+00  0.00000000000E+00  0.63701858862E+02  0.11103680815E+03  0.90946390485E+02 0.  0.
    9000005    2    3    3    0    0  0.19287139331E+02  0.51373392376E+00 -0.18301004419E+02  0.26794732843E+02  0.32822673940E+01 0.  0.
         22    1    3    3    0    0 -0.19287139331E+02 -0.51373392376E+00  0.82002863282E+02  0.84242075310E+02  0.00000000000E+00 0.  1.
         22    1    4    4    0    0  0.46768807026E+01 -0.84916440100E-01 -0.26515744446E+01  0.53769202098E+01  0.00000000000E+00 0.  1.
         22    1    4    4    0    0  0.14610258628E+02  0.59865036386E+00 -0.15649429975E+02  0.21417812633E+02  0.00000000000E+00 0.  1.
<mgrwt>
<rscale>  0 0.90946390E+02</rscale>
<asrwt>0</asrwt>
<pdfrwt beam="2">  1        1 0.36411499E-02 0.90946390E+02</pdfrwt>
<pdfrwt beam="1">  1       -1 0.13441436E-01 0.90946390E+02</pdfrwt>
<totfact> 0.83920332E+04</totfact>
</mgrwt>
</event>
<event>
 7    1  0.2911475E-009  0.9040457E+02  0.7818608E-02  0.1301875E+00
         -1   -1    0    0    0  501 -0.00000000000E+00  0.00000000000E+00  0.61547978983E+03  0.61547978985E+03  0.50400000000E-02 0.  1.
          1   -1    0    0  501    0  0.00000000000E+00 -0.00000000000E+00 -0.33197601070E+01  0.33197639329E+01  0.50400000000E-02 0. -1.
         23    2    1    2    0    0  0.00000000000E+00  0.00000000000E+00  0.61216002973E+03  0.61879955379E+03  0.90404567209E+02 0.  0.
    9000005    2    3    3    0    0 -0.24044081878E+02 -0.26020582162E+02  0.49781201744E+03  0.49908883378E+03  0.42036570076E+01 0.  0.
         22    1    3    3    0    0  0.24044081878E+02  0.26020582162E+02  0.11434801229E+03  0.11971072000E+03  0.00000000000E+00 0. -1.
         22    1    4    4    0    0 -0.17730049182E+02 -0.20250746183E+02  0.35317597695E+03  0.35420011019E+03  0.00000000000E+00 0. -1.
         22    1    4    4    0    0 -0.63140326961E+01 -0.57698359791E+01  0.14463604049E+03  0.14488872359E+03  0.00000000000E+00 0. -1.
<mgrwt>
<rscale>  0 0.90404567E+02</rscale>
<asrwt>0</asrwt>
<pdfrwt beam="2">  1        1 0.51073216E-03 0.90404567E+02</pdfrwt>
<pdfrwt beam="1">  1       -1 0.94689285E-01 0.90404567E+02</pdfrwt>
<totfact> 0.41760073E+04</totfact>
</mgrwt>
</event>
<event>
 7    1  0.2911475E-009  0.9684921E+02  0.7818608E-02  0.1287065E+00
         -1   -1    0    0    0  501 -0.00000000000E+00  0.00000000000E+00  0.71012675343E+02  0.71012675522E+02  0.50400000000E-02 0. -1.
          1   -1    0    0  501    0  0.00000000000E+00 -0.00000000000E+00 -0.33021464808E+02  0.33021465193E+02  0.50400000000E-02 0.  1.
         23    2    1    2    0    0  0.00000000000E+00 -0.35527136788E-14  0.37991210535E+02  0.10403414071E+03  0.96849214537E+02 0.  0.
    9000005    2    3    3    0    0  0.35224217434E+02  0.27675882155E+02  0.35911499506E+01  0.47553488141E+02  0.15547923639E+02 0.  0.
         22    1    3    3    0    0 -0.35224217434E+02 -0.27675882155E+02  0.34400060584E+02  0.56480652573E+02  0.00000000000E+00 0. -1.
         22    1    4    4    0    0  0.12313096410E+02  0.25825088332E+01  0.50164698291E+01  0.13544248396E+02  0.00000000000E+00 0. -1.
         22    1    4    4    0    0  0.22911121025E+02  0.25093373322E+02 -0.14253198786E+01  0.34009239745E+02  0.00000000000E+00 0. -1.
<mgrwt>
<rscale>  0 0.96849215E+02</rscale>
<asrwt>0</asrwt>
<pdfrwt beam="2">  1        1 0.50802255E-02 0.96849215E+02</pdfrwt>
<pdfrwt beam="1">  1       -1 0.10925027E-01 0.96849215E+02</pdfrwt>
<totfact> 0.74006203E+04</totfact>
</mgrwt>
</event>
<event>
 7    1  0.2911475E-009  0.9104230E+02  0.7818608E-02  0.1300347E+00
         -1   -1    0    0    0  501 -0.00000000000E+00  0.00000000000E+00  0.31246967307E+02  0.31246967713E+02  0.50400000000E-02 0.  1.
          1   -1    0    0  501    0  0.00000000000E+00 -0.00000000000E+00 -0.66316045042E+02  0.66316045233E+02  0.50400000000E-02 0. -1.
         23    2    1    2    0    0 -0.88817841970E-15  0.00000000000E+00 -0.35069077735E+02  0.97563012946E+02  0.91042304903E+02 0.  0.
    9000005    2    3    3    0    0  0.52477797428E+01 -0.28220002915E+02 -0.54912922503E+02  0.62667656064E+02  0.93754094324E+01 0.  0.
         22    1    3    3    0    0 -0.52477797428E+01  0.28220002915E+02  0.19843844768E+02  0.34895356882E+02  0.00000000000E+00 0.  1.
         22    1    4    4    0    0  0.64579831873E+01 -0.12450021856E+02 -0.30625755938E+02  0.33684499667E+02  0.00000000000E+00 0.  1.
         22    1    4    4    0    0 -0.12102034445E+01 -0.15769981059E+02 -0.24287166565E+02  0.28983156397E+02  0.00000000000E+00 0.  1.
<mgrwt>
<rscale>  0 0.91042305E+02</rscale>
<asrwt>0</asrwt>
<pdfrwt beam="2">  1        1 0.10202469E-01 0.91042305E+02</pdfrwt>
<pdfrwt beam="1">  1       -1 0.48072258E-02 0.91042305E+02</pdfrwt>
<totfact> 0.98250818E+04</totfact>
</mgrwt>
</event>
<event>
 7    1  0.2911475E-009  0.8992340E+02  0.7818608E-02  0.1303037E+00
         -1   -1    0    0    0  501 -0.00000000000E+00  0.00000000000E+00  0.69314957862E+02  0.69314958045E+02  0.50400000000E-02 0.  1.
          1   -1    0    0  501    0  0.00000000000E+00 -0.00000000000E+00 -0.29164762811E+02  0.29164763246E+02  0.50400000000E-02 0. -1.
         23    2    1    2    0    0  0.00000000000E+00  0.00000000000E+00  0.40150195051E+02  0.98479721291E+02  0.89923397083E+02 0.  0.
    9000005    2    3    3    0    0  0.26667410159E+02 -0.71787669100E+01  0.57885057807E+02  0.65658831360E+02  0.14061179157E+02 0.  0.
         22    1    3    3    0    0 -0.26667410159E+02  0.71787669100E+01 -0.17734862755E+02  0.32820889932E+02  0.00000000000E+00 0. -1.
         22    1    4    4    0    0  0.23380822740E+02 -0.10757011076E+02  0.52054311252E+02  0.58069161171E+02  0.00000000000E+00 0.  1.
         22    1    4    4    0    0  0.32865874195E+01  0.35782441658E+01  0.58307465551E+01  0.75896701882E+01  0.00000000000E+00 0.  1.
<mgrwt>
<rscale>  0 0.89923397E+02</rscale>
<asrwt>0</asrwt>
<pdfrwt beam="2">  1        1 0.44868867E-02 0.89923397E+02</pdfrwt>
<pdfrwt beam="1">  1       -1 0.10663840E-01 0.89923397E+02</pdfrwt>
<totfact> 0.89786286E+04</totfact>
</mgrwt>
</event>
<event>
 7    1  0.2911475E-009  0.1010969E+03  0.7818608E-02  0.1278006E+00
          1   -1    0    0  501    0  0.00000000000E+00  0.00000000000E+00  0.49037952289E+02  0.49037952548E+02  0.50400000000E-02 0. -1.
         -1   -1    0    0    0  501 -0.00000000000E+00 -0.00000000000E+00 -0.52105442129E+02  0.52105442372E+02  0.50400000000E-02 0.  1.
         23    2    1    2    0    0  0.00000000000E+00 -0.17763568394E-14 -0.30674898396E+01  0.10114339492E+03  0.10109686861E+03 0.  0.
    9000005    2    3    3    0    0  0.45633297927E+02  0.15774322963E+02 -0.16472224923E+02  0.51034373105E+02  0.13949550970E+01 0.  0.
         22    1    3    3    0    0 -0.45633297927E+02 -0.15774322963E+02  0.13404735083E+02  0.50109021815E+02  0.00000000000E+00 0. -1.
         22    1    4    4    0    0  0.39116159333E+02  0.13962984668E+02 -0.14423133763E+02  0.43966642462E+02  0.00000000000E+00 0.  1.
         22    1    4    4    0    0  0.65171385937E+01  0.18113382951E+01 -0.20490911595E+01  0.70677306435E+01  0.00000000000E+00 0.  1.
<mgrwt>
<rscale>  0 0.10109687E+03</rscale>
<asrwt>0</asrwt>
<pdfrwt beam="1">  1        1 0.75443003E-02 0.10109687E+03</pdfrwt>
<pdfrwt beam="2">  1       -1 0.80162220E-02 0.10109687E+03</pdfrwt>
<totfact> 0.69846129E+04</totfact>
</mgrwt>
</event>
<event>
 7    1  0.2911475E-009  0.9160984E+02  0.7818608E-02  0.1298999E+00
         -1   -1    0    0    0  501 -0.00000000000E+00  0.00000000000E+00  0.25604205652E+01  0.25604255257E+01  0.50400000000E-02 0.  1.
          1   -1    0    0  501    0  0.00000000000E+00 -0.00000000000E+00 -0.81943128967E+03  0.81943128968E+03  0.50400000000E-02 0. -1.
         23    2    1    2    0    0 -0.17763568394E-14 -0.35527136788E-14 -0.81687086910E+03  0.82199171521E+03  0.91609841632E+02 0.  0.
    9000005    2    3    3    0    0 -0.11555170222E+02  0.22516373538E+02 -0.75013328055E+03  0.75061654613E+03  0.92060680611E+01 0.  0.
         22    1    3    3    0    0  0.11555170222E+02 -0.22516373538E+02 -0.66737588547E+02  0.71375169081E+02  0.00000000000E+00 0.  1.
         22    1    4    4    0    0 -0.21593660231E+01  0.32170740076E+01 -0.48321915095E+02  0.48477003881E+02  0.00000000000E+00 0.  1.
         22    1    4    4    0    0 -0.93958041984E+01  0.19299299531E+02 -0.70181136546E+03  0.70213954225E+03  0.00000000000E+00 0.  1.
<mgrwt>
<rscale>  0 0.91609842E+02</rscale>
<asrwt>0</asrwt>
<pdfrwt beam="2">  1        1 0.12606614E+00 0.91609842E+02</pdfrwt>
<pdfrwt beam="1">  1       -1 0.39391189E-03 0.91609842E+02</pdfrwt>
<totfact> 0.13922095E+05</totfact>
</mgrwt>
</event>
<event>
 7    1  0.2911475E-009  0.9038165E+02  0.7818608E-02  0.1301930E+00
          1   -1    0    0  501    0  0.00000000000E+00  0.00000000000E+00  0.11148323425E+03  0.11148323436E+03  0.50400000000E-02 0. -1.
         -1   -1    0    0    0  501 -0.00000000000E+00 -0.00000000000E+00 -0.18318545133E+02  0.18318545826E+02  0.50400000000E-02 0.  1.
         23    2    1    2    0    0  0.00000000000E+00  0.00000000000E+00  0.93164689114E+02  0.12980178019E+03  0.90381651026E+02 0.  0.
    9000005    2    3    3    0    0  0.19034180555E+02 -0.18740641589E+02  0.98420269581E+02  0.10257802581E+03  0.11053969296E+02 0.  0.
         22    1    3    3    0    0 -0.19034180555E+02  0.18740641589E+02 -0.52555804672E+01  0.27223754382E+02  0.00000000000E+00 0.  1.
         22    1    4    4    0    0  0.43149000824E+01 -0.93285521331E+01  0.23530887805E+02  0.25677673736E+02  0.00000000000E+00 0. -1.
         22    1    4    4    0    0  0.14719280473E+02 -0.94120894562E+01  0.74889381777E+02  0.76900352070E+02  0.00000000000E+00 0. -1.
<mgrwt>
<rscale>  0 0.90381651E+02</rscale>
<asrwt>0</asrwt>
<pdfrwt beam="1">  1        1 0.17151267E-01 0.90381651E+02</pdfrwt>
<pdfrwt beam="2">  1       -1 0.28182378E-02 0.90381651E+02</pdfrwt>
<totfact> 0.10894170E+05</totfact>
</mgrwt>
</event>
<event>
 7    1  0.2911475E-009  0.9057840E+02  0.7818608E-02  0.1301457E+00
         -1   -1    0    0    0  501 -0.00000000000E+00  0.00000000000E+00  0.12451966265E+04  0.12451966265E+04  0.50400000000E-02 0.  1.
          1   -1    0    0  501    0  0.00000000000E+00 -0.00000000000E+00 -0.16472153592E+01  0.16472230696E+01  0.50400000000E-02 0. -1.
         23    2    1    2    0    0  0.00000000000E+00  0.00000000000E+00  0.12435494111E+04  0.12468438496E+04  0.90578404083E+02 0.  0.
    9000005    2    3    3    0    0 -0.12893226358E+02  0.11801378242E+02  0.11956489534E+04  0.11958540303E+04  0.13599055056E+02 0.  0.
         22    1    3    3    0    0  0.12893226358E+02 -0.11801378242E+02  0.47900457731E+02  0.50989819231E+02  0.00000000000E+00 0. -1.
         22    1    4    4    0    0 -0.80298073987E+01  0.71763987844E+01  0.32340844177E+03  0.32358769864E+03  0.00000000000E+00 0. -1.
         22    1    4    4    0    0 -0.48634189591E+01  0.46249794574E+01  0.87224051161E+03  0.87226633168E+03  0.00000000000E+00 0. -1.
<mgrwt>
<rscale>  0 0.90578404E+02</rscale>
<asrwt>0</asrwt>
<pdfrwt beam="2">  1        1 0.25341753E-03 0.90578404E+02</pdfrwt>
<pdfrwt beam="1">  1       -1 0.19156932E+00 0.90578404E+02</pdfrwt>
<totfact> 0.19340039E+04</totfact>
</mgrwt>
</event>
<event>
 7    1  0.2911475E-009  0.9198405E+02  0.7818608E-02  0.1298117E+00
          1   -1    0    0  501    0  0.00000000000E+00  0.00000000000E+00  0.31613447328E+02  0.31613447730E+02  0.50400000000E-02 0. -1.
         -1   -1    0    0    0  501 -0.00000000000E+00 -0.00000000000E+00 -0.66910336632E+02  0.66910336822E+02  0.50400000000E-02 0.  1.
         23    2    1    2    0    0  0.00000000000E+00  0.00000000000E+00 -0.35296889304E+02  0.98523784552E+02  0.91984051487E+02 0.  0.
    9000005    2    3    3    0    0  0.25633775818E+02 -0.10255901146E+01  0.22909906378E+02  0.34914246263E+02  0.59998736682E+01 0.  0.
         22    1    3    3    0    0 -0.25633775818E+02  0.10255901146E+01 -0.58206795682E+02  0.63609538289E+02  0.00000000000E+00 0.  1.
         22    1    4    4    0    0  0.21429157120E+02 -0.11729933531E+00  0.21578239972E+02  0.30411231055E+02  0.00000000000E+00 0. -1.
         22    1    4    4    0    0  0.42046186984E+01 -0.90829077929E+00  0.13316664059E+01  0.45030152071E+01  0.00000000000E+00 0. -1.
<mgrwt>
<rscale>  0 0.91984051E+02</rscale>
<asrwt>0</asrwt>
<pdfrwt beam="1">  1        1 0.48636073E-02 0.91984051E+02</pdfrwt>
<pdfrwt beam="2">  1       -1 0.10293898E-01 0.91984051E+02</pdfrwt>
<totfact> 0.85233378E+04</totfact>
</mgrwt>
</event>
<event>
 7    1  0.2911475E-009  0.9216889E+02  0.7818608E-02  0.1297683E+00
         -1   -1    0    0    0  501 -0.00000000000E+00  0.00000000000E+00  0.35373704167E+02  0.35373704526E+02  0.50400000000E-02 0.  1.
          1   -1    0    0  501    0  0.00000000000E+00 -0.00000000000E+00 -0.60038269428E+02  0.60038269640E+02  0.50400000000E-02 0. -1.
         23    2    1    2    0    0  0.00000000000E+00  0.00000000000E+00 -0.24664565261E+02  0.95411974165E+02  0.92168888648E+02 0.  0.
    9000005    2    3    3    0    0  0.31864809034E+02  0.13793369270E+01 -0.46064170615E+02  0.57003488978E+02  0.10498634013E+02 0.  0.
         22    1    3    3    0    0 -0.31864809034E+02 -0.13793369270E+01  0.21399605353E+02  0.38408485187E+02  0.00000000000E+00 0.  1.
         22    1    4    4    0    0  0.26638972415E+01  0.22913807614E+01 -0.17498582642E+01  0.39254016676E+01  0.00000000000E+00 0. -1.
         22    1    4    4    0    0  0.29200911792E+02 -0.91204383434E+00 -0.44314312351E+02  0.53078087311E+02  0.00000000000E+00 0. -1.
<mgrwt>
<rscale>  0 0.92168889E+02</rscale>
<asrwt>0</asrwt>
<pdfrwt beam="2">  1        1 0.92366569E-02 0.92168889E+02</pdfrwt>
<pdfrwt beam="1">  1       -1 0.54421084E-02 0.92168889E+02</pdfrwt>
<totfact> 0.93525513E+04</totfact>
</mgrwt>
</event>
<event>
 7    1  0.2911475E-009  0.9229681E+02  0.7818608E-02  0.1297383E+00
         -1   -1    0    0    0  501 -0.00000000000E+00  0.00000000000E+00  0.36877409405E+02  0.36877409750E+02  0.50400000000E-02 0.  1.
          1   -1    0    0  501    0  0.00000000000E+00 -0.00000000000E+00 -0.57750131748E+02  0.57750131968E+02  0.50400000000E-02 0. -1.
         23    2    1    2    0    0  0.17763568394E-14  0.00000000000E+00 -0.20872722342E+02  0.94627541717E+02  0.92296809877E+02 0.  0.
    9000005    2    3    3    0    0  0.15714871171E+02 -0.17024642880E+02  0.29769192172E+02  0.38937334798E+02  0.96496423497E+01 0.  0.
         22    1    3    3    0    0 -0.15714871171E+02  0.17024642880E+02 -0.50641914514E+02  0.55690206920E+02  0.00000000000E+00 0. -1.
         22    1    4    4    0    0  0.16804901687E+02 -0.14424960820E+02  0.25013762834E+02  0.33409168599E+02  0.00000000000E+00 0. -1.
         22    1    4    4    0    0 -0.10900305153E+01 -0.25996820598E+01  0.47554293372E+01  0.55281661984E+01  0.00000000000E+00 0. -1.
<mgrwt>
<rscale>  0 0.92296810E+02</rscale>
<asrwt>0</asrwt>
<pdfrwt beam="2">  1        1 0.88846357E-02 0.92296810E+02</pdfrwt>
<pdfrwt beam="1">  1       -1 0.56734477E-02 0.92296810E+02</pdfrwt>
<totfact> 0.92615242E+04</totfact>
</mgrwt>
</event>
<event>
 7    1  0.2911475E-009  0.9033217E+02  0.7818608E-02  0.1302049E+00
         -1   -1    0    0    0  501 -0.00000000000E+00  0.00000000000E+00  0.21250480172E+02  0.21250480770E+02  0.50400000000E-02 0.  1.
          1   -1    0    0  501    0  0.00000000000E+00 -0.00000000000E+00 -0.95996666195E+02  0.95996666327E+02  0.50400000000E-02 0. -1.
         23    2    1    2    0    0  0.00000000000E+00  0.35527136788E-14 -0.74746186022E+02  0.11724714710E+03  0.90332171331E+02 0.  0.
    9000005    2    3    3    0    0 -0.10030029944E+02  0.25805919417E+02  0.83062487350E+01  0.29701422491E+02  0.68288909999E+01 0.  0.
         22    1    3    3    0    0  0.10030029944E+02 -0.25805919417E+02 -0.83052434757E+02  0.87545724606E+02  0.00000000000E+00 0. -1.
         22    1    4    4    0    0 -0.92228271652E+00  0.43268395130E+01  0.40261039395E+01  0.59817772035E+01  0.00000000000E+00 0.  1.
         22    1    4    4    0    0 -0.91077472274E+01  0.21479079904E+02  0.42801447956E+01  0.23719645287E+02  0.00000000000E+00 0.  1.
<mgrwt>
<rscale>  0 0.90332171E+02</rscale>
<asrwt>0</asrwt>
<pdfrwt beam="2">  1        1 0.14768718E-01 0.90332171E+02</pdfrwt>
<pdfrwt beam="1">  1       -1 0.32693047E-02 0.90332171E+02</pdfrwt>
<totfact> 0.10641389E+05</totfact>
</mgrwt>
</event>
<event>
 7    1  0.2911475E-009  0.8971091E+02  0.7818608E-02  0.1303553E+00
         -1   -1    0    0    0  501 -0.00000000000E+00  0.00000000000E+00  0.26600388971E+02  0.26600389448E+02  0.50400000000E-02 0.  1.
          1   -1    0    0  501    0  0.00000000000E+00 -0.00000000000E+00 -0.75638439360E+02  0.75638439528E+02  0.50400000000E-02 0. -1.
         23    2    1    2    0    0  0.00000000000E+00  0.00000000000E+00 -0.49038050389E+02  0.10223882898E+03  0.89710912182E+02 0.  0.
    9000005    2    3    3    0    0  0.35973888941E+02 -0.12646331755E+02 -0.49313584223E+02  0.64105820817E+02  0.14955810951E+02 0.  0.
         22    1    3    3    0    0 -0.35973888941E+02  0.12646331755E+02  0.27553383395E+00  0.38133008160E+02  0.00000000000E+00 0.  1.
         22    1    4    4    0    0  0.15633980326E+02  0.21021899683E+01 -0.20740515745E+02  0.26057811437E+02  0.00000000000E+00 0. -1.
         22    1    4    4    0    0  0.20339908615E+02 -0.14748521724E+02 -0.28573068478E+02  0.38048009380E+02  0.00000000000E+00 0. -1.
<mgrwt>
<rscale>  0 0.89710912E+02</rscale>
<asrwt>0</asrwt>
<pdfrwt beam="2">  1        1 0.11636683E-01 0.89710912E+02</pdfrwt>
<pdfrwt beam="1">  1       -1 0.40923676E-02 0.89710912E+02</pdfrwt>
<totfact> 0.10440427E+05</totfact>
</mgrwt>
</event>
<event>
 7    1  0.2911475E-009  0.9099108E+02  0.7818608E-02  0.1300469E+00
         -1   -1    0    0    0  501 -0.00000000000E+00  0.00000000000E+00  0.46717427007E+02  0.46717427279E+02  0.50400000000E-02 0.  1.
          1   -1    0    0  501    0  0.00000000000E+00 -0.00000000000E+00 -0.44305613593E+02  0.44305613879E+02  0.50400000000E-02 0. -1.
         23    2    1    2    0    0  0.00000000000E+00  0.00000000000E+00  0.24118134143E+01  0.91023041158E+02  0.90991082957E+02 0.  0.
    9000005    2    3    3    0    0 -0.64701981484E+01 -0.31286222936E+02 -0.29733923296E+02  0.45701527522E+02  0.13558473867E+02 0.  0.
         22    1    3    3    0    0  0.64701981484E+01  0.31286222936E+02  0.32145736710E+02  0.45321513636E+02  0.00000000000E+00 0.  1.
         22    1    4    4    0    0 -0.25654853726E+01 -0.66954552236E+01 -0.33833109012E+00  0.71781128282E+01  0.00000000000E+00 0.  1.
         22    1    4    4    0    0 -0.39047127758E+01 -0.24590767712E+02 -0.29395592206E+02  0.38523414694E+02  0.00000000000E+00 0.  1.
<mgrwt>
<rscale>  0 0.90991083E+02</rscale>
<asrwt>0</asrwt>
<pdfrwt beam="2">  1        1 0.68162483E-02 0.90991083E+02</pdfrwt>
<pdfrwt beam="1">  1       -1 0.71872965E-02 0.90991083E+02</pdfrwt>
<totfact> 0.92605531E+04</totfact>
</mgrwt>
</event>
<event>
 7    1  0.2911475E-009  0.9680136E+02  0.7818608E-02  0.1287170E+00
          1   -1    0    0  501    0  0.00000000000E+00  0.00000000000E+00  0.71714942958E+02  0.71714943135E+02  0.50400000000E-02 0. -1.
         -1   -1    0    0    0  501 -0.00000000000E+00 -0.00000000000E+00 -0.32665795834E+02  0.32665796223E+02  0.50400000000E-02 0.  1.
         23    2    1    2    0    0 -0.17763568394E-14  0.71054273576E-14  0.39049147124E+02  0.10438073936E+03  0.96801357727E+02 0.  0.
    9000005    2    3    3    0    0  0.14235423968E+02 -0.41147950848E+02  0.40238365601E+02  0.60823703243E+02  0.13586598377E+02 0.  0.
         22    1    3    3    0    0 -0.14235423968E+02  0.41147950848E+02 -0.11892184770E+01  0.43557036115E+02  0.00000000000E+00 0.  1.
         22    1    4    4    0    0  0.63307314637E+01 -0.72126677392E+01  0.35670195895E+01  0.10238377095E+02  0.00000000000E+00 0. -1.
         22    1    4    4    0    0  0.79046925041E+01 -0.33935283108E+02  0.36671346011E+02  0.50585326148E+02  0.00000000000E+00 0. -1.
<mgrwt>
<rscale>  0 0.96801358E+02</rscale>
<asrwt>0</asrwt>
<pdfrwt beam="1">  1        1 0.11033068E-01 0.96801358E+02</pdfrwt>
<pdfrwt beam="2">  1       -1 0.50255071E-02 0.96801358E+02</pdfrwt>
<totfact> 0.83906801E+04</totfact>
</mgrwt>
</event>
<event>
 7    1  0.2911475E-009  0.9252277E+02  0.7818608E-02  0.1296855E+00
         -1   -1    0    0    0  501 -0.00000000000E+00  0.00000000000E+00  0.45557531340E+03  0.45557531343E+03  0.50400000000E-02 0.  1.
          1   -1    0    0  501    0  0.00000000000E+00 -0.00000000000E+00 -0.46976104189E+01  0.46976131226E+01  0.50400000000E-02 0. -1.
         23    2    1    2    0    0 -0.17763568394E-14  0.00000000000E+00  0.45087770298E+03  0.46027292655E+03  0.92522774871E+02 0.  0.
    9000005    2    3    3    0    0 -0.15897733760E+02 -0.41802754853E+02  0.21074279814E+03  0.21600876468E+03  0.15717862390E+02 0.  0.
         22    1    3    3    0    0  0.15897733760E+02  0.41802754853E+02  0.24013490484E+03  0.24426416187E+03  0.00000000000E+00 0.  1.
         22    1    4    4    0    0 -0.22835642965E+00 -0.15988900004E+02  0.51402726566E+02  0.53832493612E+02  0.00000000000E+00 0. -1.
         22    1    4    4    0    0 -0.15669377330E+02 -0.25813854849E+02  0.15934007158E+03  0.16217627107E+03  0.00000000000E+00 0. -1.
<mgrwt>
<rscale>  0 0.92522775E+02</rscale>
<asrwt>0</asrwt>
<pdfrwt beam="2">  1        1 0.72270917E-03 0.92522775E+02</pdfrwt>
<pdfrwt beam="1">  1       -1 0.70088543E-01 0.92522775E+02</pdfrwt>
<totfact> 0.47829009E+04</totfact>
</mgrwt>
</event>
<event>
 7    1  0.2911475E-009  0.9189527E+02  0.7818608E-02  0.1298326E+00
          1   -1    0    0  501    0  0.00000000000E+00  0.00000000000E+00  0.12204551726E+02  0.12204552767E+02  0.50400000000E-02 0. -1.
         -1   -1    0    0    0  501 -0.00000000000E+00 -0.00000000000E+00 -0.17298340671E+03  0.17298340679E+03  0.50400000000E-02 0.  1.
         23    2    1    2    0    0  0.00000000000E+00 -0.33306690739E-15 -0.16077885499E+03  0.18518795955E+03  0.91895267302E+02 0.  0.
    9000005    2    3    3    0    0  0.44201842798E+02 -0.58783848839E+00 -0.69710338043E+02  0.83957414562E+02  0.15335180760E+02 0.  0.
         22    1    3    3    0    0 -0.44201842798E+02  0.58783848839E+00 -0.91068516944E+02  0.10123054499E+03  0.00000000000E+00 0.  1.
         22    1    4    4    0    0  0.21993034550E+02  0.65250108459E+01 -0.28278175208E+02  0.36413246605E+02  0.00000000000E+00 0. -1.
         22    1    4    4    0    0  0.22208808249E+02 -0.71128493343E+01 -0.41432162836E+02  0.47544167957E+02  0.00000000000E+00 0. -1.
<mgrwt>
<rscale>  0 0.91895267E+02</rscale>
<asrwt>0</asrwt>
<pdfrwt beam="1">  1        1 0.18776235E-02 0.91895267E+02</pdfrwt>
<pdfrwt beam="2">  1       -1 0.26612830E-01 0.91895267E+02</pdfrwt>
<totfact> 0.70755316E+04</totfact>
</mgrwt>
</event>
<event>
 7    1  0.2911475E-009  0.9379180E+02  0.7818608E-02  0.1293921E+00
         -1   -1    0    0    0  501 -0.00000000000E+00  0.00000000000E+00  0.48084589262E+02  0.48084589526E+02  0.50400000000E-02 0.  1.
          1   -1    0    0  501    0  0.00000000000E+00 -0.00000000000E+00 -0.45736597877E+02  0.45736598154E+02  0.50400000000E-02 0. -1.
         23    2    1    2    0    0  0.00000000000E+00  0.00000000000E+00  0.23479913854E+01  0.93821187681E+02  0.93791802383E+02 0.  0.
    9000005    2    3    3    0    0 -0.11480350674E+02  0.41233796245E+02  0.17679362219E+02  0.48356087483E+02  0.13918582679E+02 0.  0.
         22    1    3    3    0    0  0.11480350674E+02 -0.41233796245E+02 -0.15331370833E+02  0.45465100198E+02  0.00000000000E+00 0. -1.
         22    1    4    4    0    0 -0.55006519258E+01  0.36399018984E+02  0.17252360425E+02  0.40654516291E+02  0.00000000000E+00 0.  1.
         22    1    4    4    0    0 -0.59796987486E+01  0.48347772607E+01  0.42700179303E+00  0.77015711914E+01  0.00000000000E+00 0.  1.
<mgrwt>
<rscale>  0 0.93791802E+02</rscale>
<asrwt>0</asrwt>
<pdfrwt beam="2">  1        1 0.70363997E-02 0.93791802E+02</pdfrwt>
<pdfrwt beam="1">  1       -1 0.73976291E-02 0.93791802E+02</pdfrwt>
<totfact> 0.85437125E+04</totfact>
</mgrwt>
</event>
<event>
 7    1  0.2911475E-009  0.9086475E+02  0.7818608E-02  0.1300771E+00
         -1   -1    0    0    0  501 -0.00000000000E+00  0.00000000000E+00  0.14875008288E+03  0.14875008296E+03  0.50400000000E-02 0.  1.
          1   -1    0    0  501    0  0.00000000000E+00 -0.00000000000E+00 -0.13876298412E+02  0.13876299328E+02  0.50400000000E-02 0. -1.
         23    2    1    2    0    0  0.17763568394E-14  0.00000000000E+00  0.13487378447E+03  0.16262638229E+03  0.90864748285E+02 0.  0.
    9000005    2    3    3    0    0 -0.83141086557E+01 -0.43619880252E+02  0.70989705810E+02  0.84825393469E+02  0.13564316804E+02 0.  0.
         22    1    3    3    0    0  0.83141086557E+01  0.43619880252E+02  0.63884078655E+02  0.77800988821E+02  0.00000000000E+00 0.  1.
         22    1    4    4    0    0 -0.69007713327E+01 -0.36510743153E+02  0.47885242817E+02  0.60610654923E+02  0.00000000000E+00 0. -1.
         22    1    4    4    0    0 -0.14133373230E+01 -0.71091370989E+01  0.23104462993E+02  0.24214738546E+02  0.00000000000E+00 0. -1.
<mgrwt>
<rscale>  0 0.90864748E+02</rscale>
<asrwt>0</asrwt>
<pdfrwt beam="2">  1        1 0.21348151E-02 0.90864748E+02</pdfrwt>
<pdfrwt beam="1">  1       -1 0.22884629E-01 0.90864748E+02</pdfrwt>
<totfact> 0.75604446E+04</totfact>
</mgrwt>
</event>
<event>
 7    1  0.2911475E-009  0.9351686E+02  0.7818608E-02  0.1294552E+00
          1   -1    0    0  501    0  0.00000000000E+00  0.00000000000E+00  0.31825301933E+03  0.31825301937E+03  0.50400000000E-02 0. -1.
         -1   -1    0    0    0  501 -0.00000000000E+00 -0.00000000000E+00 -0.68698502369E+01  0.68698520857E+01  0.50400000000E-02 0.  1.
         23    2    1    2    0    0  0.35527136788E-14 -0.71054273576E-14  0.31138316910E+03  0.32512287146E+03  0.93516862379E+02 0.  0.
    9000005    2    3    3    0    0  0.22295643026E+02 -0.37571543357E+02  0.11251718375E+03  0.12151443181E+03  0.14032958743E+02 0.  0.
         22    1    3    3    0    0 -0.22295643026E+02  0.37571543357E+02  0.19886598534E+03  0.20360843965E+03  0.00000000000E+00 0. -1.
         22    1    4    4    0    0  0.18510862517E+01 -0.16650744970E+00  0.96325799511E+00  0.20933492320E+01  0.00000000000E+00 0.  1.
         22    1    4    4    0    0  0.20444556775E+02 -0.37405035908E+02  0.11155392576E+03  0.11942108258E+03  0.00000000000E+00 0.  1.
<mgrwt>
<rscale>  0 0.93516862E+02</rscale>
<asrwt>0</asrwt>
<pdfrwt beam="1">  1        1 0.48961994E-01 0.93516862E+02</pdfrwt>
<pdfrwt beam="2">  1       -1 0.10569004E-02 0.93516862E+02</pdfrwt>
<totfact> 0.12109069E+05</totfact>
</mgrwt>
</event>
<event>
 7    1  0.2911475E-009  0.9056507E+02  0.7818608E-02  0.1301489E+00
          1   -1    0    0  501    0  0.00000000000E+00  0.00000000000E+00  0.19593632376E+02  0.19593633024E+02  0.50400000000E-02 0. -1.
         -1   -1    0    0    0  501 -0.00000000000E+00 -0.00000000000E+00 -0.10465174307E+03  0.10465174319E+03  0.50400000000E-02 0.  1.
         23    2    1    2    0    0 -0.71054273576E-14  0.35527136788E-14 -0.85058110690E+02  0.12424537621E+03  0.90565066752E+02 0.  0.
    9000005    2    3    3    0    0  0.34089580271E+02 -0.29016016861E+02 -0.42248461165E+02  0.62304317050E+02  0.96367388013E+01 0.  0.
         22    1    3    3    0    0 -0.34089580271E+02  0.29016016861E+02 -0.42809649525E+02  0.61941059161E+02  0.00000000000E+00 0.  1.
         22    1    4    4    0    0  0.32702546354E+02 -0.29725763172E+02 -0.40299302024E+02  0.59808956501E+02  0.00000000000E+00 0.  1.
         22    1    4    4    0    0  0.13870339169E+01  0.70974631006E+00 -0.19491591412E+01  0.24953605489E+01  0.00000000000E+00 0.  1.
<mgrwt>
<rscale>  0 0.90565067E+02</rscale>
<asrwt>0</asrwt>
<pdfrwt beam="1">  1        1 0.30144051E-02 0.90565067E+02</pdfrwt>
<pdfrwt beam="2">  1       -1 0.16100268E-01 0.90565067E+02</pdfrwt>
<totfact> 0.82089365E+04</totfact>
</mgrwt>
</event>
<event>
 7    1  0.2911475E-009  0.9275505E+02  0.7818608E-02  0.1296314E+00
         -1   -1    0    0    0  501 -0.00000000000E+00  0.00000000000E+00  0.99555200915E+01  0.99555213673E+01  0.50400000000E-02 0.  1.
          1   -1    0    0  501    0  0.00000000000E+00 -0.00000000000E+00 -0.21604847009E+03  0.21604847014E+03  0.50400000000E-02 0. -1.
         23    2    1    2    0    0  0.00000000000E+00  0.22204460493E-15 -0.20609294999E+03  0.22600399151E+03  0.92755054536E+02 0.  0.
    9000005    2    3    3    0    0  0.37351669887E+02  0.13703316520E+01 -0.43738851978E+02  0.59403036548E+02  0.14785416011E+02 0.  0.
         22    1    3    3    0    0 -0.37351669887E+02 -0.13703316520E+01 -0.16235409802E+03  0.16660095496E+03  0.00000000000E+00 0. -1.
         22    1    4    4    0    0  0.45928012255E+01 -0.75126429525E+00 -0.15227145142E+02  0.15922442347E+02  0.00000000000E+00 0. -1.
         22    1    4    4    0    0  0.32758868661E+02  0.21215959473E+01 -0.28511706836E+02  0.43480594200E+02  0.00000000000E+00 0. -1.
<mgrwt>
<rscale>  0 0.92755055E+02</rscale>
<asrwt>0</asrwt>
<pdfrwt beam="2">  1        1 0.33238223E-01 0.92755055E+02</pdfrwt>
<pdfrwt beam="1">  1       -1 0.15316187E-02 0.92755055E+02</pdfrwt>
<totfact> 0.11478930E+05</totfact>
</mgrwt>
</event>
<event>
 7    1  0.2911475E-009  0.9194770E+02  0.7818608E-02  0.1298202E+00
          1   -1    0    0  501    0  0.00000000000E+00  0.00000000000E+00  0.80031783896E+01  0.80031799766E+01  0.50400000000E-02 0. -1.
         -1   -1    0    0    0  501 -0.00000000000E+00 -0.00000000000E+00 -0.26409441441E+03  0.26409441445E+03  0.50400000000E-02 0.  1.
         23    2    1    2    0    0  0.00000000000E+00  0.00000000000E+00 -0.25609123602E+03  0.27209759443E+03  0.91947701062E+02 0.  0.
    9000005    2    3    3    0    0 -0.89110306333E+01 -0.40608881004E+02 -0.81376111663E+02  0.92503991089E+02  0.14367641931E+02 0.  0.
         22    1    3    3    0    0  0.89110306333E+01  0.40608881004E+02 -0.17471512435E+03  0.17959360334E+03  0.00000000000E+00 0.  1.
         22    1    4    4    0    0 -0.10674207374E+02 -0.31103917235E+02 -0.71418669387E+02  0.78625814510E+02  0.00000000000E+00 0. -1.
         22    1    4    4    0    0  0.17631767404E+01 -0.95049637692E+01 -0.99574422764E+01  0.13878176579E+02  0.00000000000E+00 0. -1.
<mgrwt>
<rscale>  0 0.91947701E+02</rscale>
<asrwt>0</asrwt>
<pdfrwt beam="1">  1        1 0.12312585E-02 0.91947701E+02</pdfrwt>
<pdfrwt beam="2">  1       -1 0.40629903E-01 0.91947701E+02</pdfrwt>
<totfact> 0.62160660E+04</totfact>
</mgrwt>
</event>
<event>
 7    1  0.2911475E-009  0.9326520E+02  0.7818608E-02  0.1295132E+00
          1   -1    0    0  501    0  0.00000000000E+00  0.00000000000E+00  0.82880505796E+02  0.82880505949E+02  0.50400000000E-02 0. -1.
         -1   -1    0    0    0  501 -0.00000000000E+00 -0.00000000000E+00 -0.26237766601E+02  0.26237767085E+02  0.50400000000E-02 0.  1.
         23    2    1    2    0    0  0.00000000000E+00  0.00000000000E+00  0.56642739195E+02  0.10911827303E+03  0.93265200404E+02 0.  0.
    9000005    2    3    3    0    0  0.45705017670E+02 -0.24195779343E+01  0.18887631265E+02  0.49786568420E+02  0.52112169976E+01 0.  0.
         22    1    3    3    0    0 -0.45705017670E+02  0.24195779343E+01  0.37755107930E+02  0.59331704614E+02  0.00000000000E+00 0.  1.
         22    1    4    4    0    0  0.16128897099E+02  0.10518166676E+01  0.49271091056E+01  0.16897456734E+02  0.00000000000E+00 0. -1.
         22    1    4    4    0    0  0.29576120571E+02 -0.34713946019E+01  0.13960522159E+02  0.32889111686E+02  0.00000000000E+00 0. -1.
<mgrwt>
<rscale>  0 0.93265200E+02</rscale>
<asrwt>0</asrwt>
<pdfrwt beam="1">  1        1 0.12750847E-01 0.93265200E+02</pdfrwt>
<pdfrwt beam="2">  1       -1 0.40365795E-02 0.93265200E+02</pdfrwt>
<totfact> 0.95196928E+04</totfact>
</mgrwt>
</event>
<event>
 7    1  0.2911475E-009  0.9211518E+02  0.7818608E-02  0.1297809E+00
          1   -1    0    0  501    0  0.00000000000E+00  0.00000000000E+00  0.18969045966E+02  0.18969046636E+02  0.50400000000E-02 0. -1.
         -1   -1    0    0    0  501 -0.00000000000E+00 -0.00000000000E+00 -0.11182963909E+03  0.11182963920E+03  0.50400000000E-02 0.  1.
         23    2    1    2    0    0 -0.35527136788E-14  0.00000000000E+00 -0.92860593124E+02  0.13079868584E+03  0.92115180411E+02 0.  0.
    9000005    2    3    3    0    0 -0.26754463385E+02  0.28000157925E+02 -0.14766180976E+02  0.43629038808E+02  0.13625078784E+02 0.  0.
         22    1    3    3    0    0  0.26754463385E+02 -0.28000157925E+02 -0.78094412149E+02  0.87169647032E+02  0.00000000000E+00 0.  1.
         22    1    4    4    0    0 -0.11776607589E+01  0.30848331721E+00  0.20246135411E+01  0.23624366258E+01  0.00000000000E+00 0. -1.
         22    1    4    4    0    0 -0.25576802626E+02  0.27691674608E+02 -0.16790794517E+02  0.41266602182E+02  0.00000000000E+00 0. -1.
<mgrwt>
<rscale>  0 0.92115180E+02</rscale>
<asrwt>0</asrwt>
<pdfrwt beam="1">  1        1 0.29183149E-02 0.92115180E+02</pdfrwt>
<pdfrwt beam="2">  1       -1 0.17204559E-01 0.92115180E+02</pdfrwt>
<totfact> 0.77569419E+04</totfact>
</mgrwt>
</event>
<event>
 7    1  0.2911475E-009  0.8647089E+02  0.7818608E-02  0.1311630E+00
         -1   -1    0    0    0  501 -0.00000000000E+00  0.00000000000E+00  0.32394622894E+02  0.32394623286E+02  0.50400000000E-02 0.  1.
          1   -1    0    0  501    0  0.00000000000E+00 -0.00000000000E+00 -0.57704136595E+02  0.57704136815E+02  0.50400000000E-02 0. -1.
         23    2    1    2    0    0  0.00000000000E+00 -0.11102230246E-15 -0.25309513701E+02  0.90098760101E+02  0.86470891565E+02 0.  0.
    9000005    2    3    3    0    0  0.22960083405E+02 -0.68012368410E+00 -0.49962095992E+02  0.56403392292E+02  0.12550044938E+02 0.  0.
         22    1    3    3    0    0 -0.22960083405E+02  0.68012368410E+00  0.24652582291E+02  0.33695367809E+02  0.00000000000E+00 0.  1.
         22    1    4    4    0    0  0.15584310315E+02  0.21805450131E+01 -0.43266222998E+02  0.46039022113E+02  0.00000000000E+00 0. -1.
         22    1    4    4    0    0  0.73757730898E+01 -0.28606686972E+01 -0.66958729935E+01  0.10364370179E+02  0.00000000000E+00 0. -1.
<mgrwt>
<rscale>  0 0.86470892E+02</rscale>
<asrwt>0</asrwt>
<pdfrwt beam="2">  1        1 0.88775595E-02 0.86470892E+02</pdfrwt>
<pdfrwt beam="1">  1       -1 0.49837882E-02 0.86470892E+02</pdfrwt>
<totfact> 0.11092185E+05</totfact>
</mgrwt>
</event>
<event>
 7    1  0.2911475E-009  0.8450208E+02  0.7818608E-02  0.1316740E+00
         -1   -1    0    0    0  501 -0.00000000000E+00  0.00000000000E+00  0.11108380999E+03  0.11108381011E+03  0.50400000000E-02 0.  1.
          1   -1    0    0  501    0  0.00000000000E+00 -0.00000000000E+00 -0.16070300747E+02  0.16070301537E+02  0.50400000000E-02 0. -1.
         23    2    1    2    0    0  0.35527136788E-14  0.00000000000E+00  0.95013509246E+02  0.12715411164E+03  0.84502077896E+02 0.  0.
    9000005    2    3    3    0    0 -0.25074117972E+02  0.20762228545E+01  0.98519746192E+02  0.10175104508E+03  0.37566862221E+01 0.  0.
         22    1    3    3    0    0  0.25074117972E+02 -0.20762228545E+01 -0.35062369454E+01  0.25403066566E+02  0.00000000000E+00 0. -1.
         22    1    4    4    0    0 -0.19167772024E+02  0.83284385825E+00  0.80184988654E+02  0.82448344548E+02  0.00000000000E+00 0.  1.
         22    1    4    4    0    0 -0.59063459483E+01  0.12433789962E+01  0.18334757538E+02  0.19302700530E+02  0.00000000000E+00 0.  1.
<mgrwt>
<rscale>  0 0.84502078E+02</rscale>
<asrwt>0</asrwt>
<pdfrwt beam="2">  1        1 0.24723539E-02 0.84502078E+02</pdfrwt>
<pdfrwt beam="1">  1       -1 0.17089818E-01 0.84502078E+02</pdfrwt>
<totfact> 0.97001749E+04</totfact>
</mgrwt>
</event>
<event>
 7    1  0.2911475E-009  0.9174027E+02  0.7818608E-02  0.1298691E+00
         -1   -1    0    0    0  501 -0.00000000000E+00  0.00000000000E+00  0.83491433649E+01  0.83491448861E+01  0.50400000000E-02 0.  1.
          1   -1    0    0  501    0  0.00000000000E+00 -0.00000000000E+00 -0.25201017626E+03  0.25201017631E+03  0.50400000000E-02 0. -1.
         23    2    1    2    0    0  0.00000000000E+00  0.00000000000E+00 -0.24366103290E+03  0.26035932120E+03  0.91740270234E+02 0.  0.
    9000005    2    3    3    0    0 -0.28022726987E+02 -0.22337964079E+02 -0.41474862346E+02  0.55021780965E+02  0.47931520906E+01 0.  0.
         22    1    3    3    0    0  0.28022726987E+02  0.22337964079E+02 -0.20218617055E+03  0.20533754023E+03  0.00000000000E+00 0. -1.
         22    1    4    4    0    0 -0.17590586618E+02 -0.11264791295E+02 -0.25471718749E+02  0.32941352682E+02  0.00000000000E+00 0.  1.
         22    1    4    4    0    0 -0.10432140369E+02 -0.11073172784E+02 -0.16003143597E+02  0.22080428283E+02  0.00000000000E+00 0.  1.
<mgrwt>
<rscale>  0 0.91740270E+02</rscale>
<asrwt>0</asrwt>
<pdfrwt beam="2">  1        1 0.38770791E-01 0.91740270E+02</pdfrwt>
<pdfrwt beam="1">  1       -1 0.12844839E-02 0.91740270E+02</pdfrwt>
<totfact> 0.12183930E+05</totfact>
</mgrwt>
</event>
<event>
 7    1  0.2911475E-009  0.8933462E+02  0.7818608E-02  0.1304471E+00
          1   -1    0    0  501    0  0.00000000000E+00  0.00000000000E+00  0.57425737418E+02  0.57425737639E+02  0.50400000000E-02 0. -1.
         -1   -1    0    0    0  501 -0.00000000000E+00 -0.00000000000E+00 -0.34743458294E+02  0.34743458660E+02  0.50400000000E-02 0.  1.
         23    2    1    2    0    0  0.71054273576E-14  0.00000000000E+00  0.22682279124E+02  0.92169196299E+02  0.89334623524E+02 0.  0.
    9000005    2    3    3    0    0 -0.33780409267E+02 -0.89477334472E+01 -0.17269578561E+02  0.39090679774E+02  0.29436231827E+01 0.  0.
         22    1    3    3    0    0  0.33780409267E+02  0.89477334472E+01  0.39951857685E+02  0.53078516526E+02  0.00000000000E+00 0. -1.
         22    1    4    4    0    0 -0.15600878961E+02 -0.56146643839E+01 -0.78025719769E+01  0.18324628508E+02  0.00000000000E+00 0.  1.
         22    1    4    4    0    0 -0.18179530305E+02 -0.33330690633E+01 -0.94670065843E+01  0.20766051266E+02  0.00000000000E+00 0.  1.
<mgrwt>
<rscale>  0 0.89334624E+02</rscale>
<asrwt>0</asrwt>
<pdfrwt beam="1">  1        1 0.88347289E-02 0.89334624E+02</pdfrwt>
<pdfrwt beam="2">  1       -1 0.53451475E-02 0.89334624E+02</pdfrwt>
<totfact> 0.10130808E+05</totfact>
</mgrwt>
</event>
<event>
 7    1  0.2911475E-009  0.9151278E+02  0.7818608E-02  0.1299229E+00
          1   -1    0    0  501    0  0.00000000000E+00  0.00000000000E+00  0.45393769546E+02  0.45393769826E+02  0.50400000000E-02 0. -1.
         -1   -1    0    0    0  501 -0.00000000000E+00 -0.00000000000E+00 -0.46121902291E+02  0.46121902566E+02  0.50400000000E-02 0.  1.
         23    2    1    2    0    0  0.00000000000E+00  0.35527136788E-14 -0.72813274464E+00  0.91515672392E+02  0.91512775698E+02 0.  0.
    9000005    2    3    3    0    0  0.34035430138E+02 -0.29256755771E+02  0.76478100975E+01  0.45859077233E+02  0.54952436205E+01 0.  0.
         22    1    3    3    0    0 -0.34035430138E+02  0.29256755771E+02 -0.83759428422E+01  0.45656595158E+02  0.00000000000E+00 0.  1.
         22    1    4    4    0    0  0.28858661091E+02 -0.24729802735E+02  0.84571685300E+01  0.38934678152E+02  0.00000000000E+00 0.  1.
         22    1    4    4    0    0  0.51767690470E+01 -0.45269530366E+01 -0.80935843247E+00  0.69243990811E+01  0.00000000000E+00 0.  1.
<mgrwt>
<rscale>  0 0.91512776E+02</rscale>
<asrwt>0</asrwt>
<pdfrwt beam="1">  1        1 0.69836569E-02 0.91512776E+02</pdfrwt>
<pdfrwt beam="2">  1       -1 0.70956773E-02 0.91512776E+02</pdfrwt>
<totfact> 0.91462316E+04</totfact>
</mgrwt>
</event>
<event>
 7    1  0.2911475E-009  0.8923226E+02  0.7818608E-02  0.1304722E+00
          1   -1    0    0  501    0  0.00000000000E+00  0.00000000000E+00  0.34423565683E+03  0.34423565686E+03  0.50400000000E-02 0. -1.
         -1   -1    0    0    0  501 -0.00000000000E+00 -0.00000000000E+00 -0.57826624210E+01  0.57826646174E+01  0.50400000000E-02 0.  1.
         23    2    1    2    0    0  0.17763568394E-14  0.00000000000E+00  0.33845299440E+03  0.35001832148E+03  0.89232258462E+02 0.  0.
    9000005    2    3    3    0    0  0.14495212630E+02  0.11190857300E+02  0.32860327798E+03  0.32922497182E+03  0.85802852774E+01 0.  0.
         22    1    3    3    0    0 -0.14495212630E+02 -0.11190857300E+02  0.98497164213E+01  0.20793349655E+02  0.00000000000E+00 0.  1.
         22    1    4    4    0    0  0.18758112445E+01 -0.14076571186E+01  0.31635368896E+02  0.31722180436E+02  0.00000000000E+00 0.  1.
         22    1    4    4    0    0  0.12619401386E+02  0.12598514418E+02  0.29696790909E+03  0.29750279139E+03  0.00000000000E+00 0.  1.
<mgrwt>
<rscale>  0 0.89232258E+02</rscale>
<asrwt>0</asrwt>
<pdfrwt beam="1">  1        1 0.52959347E-01 0.89232258E+02</pdfrwt>
<pdfrwt beam="2">  1       -1 0.88964030E-03 0.89232258E+02</pdfrwt>
<totfact> 0.13918464E+05</totfact>
</mgrwt>
</event>
<event>
 7    1  0.2911475E-009  0.9053534E+02  0.7818608E-02  0.1301560E+00
         -1   -1    0    0    0  501 -0.00000000000E+00  0.00000000000E+00  0.10734529125E+03  0.10734529137E+03  0.50400000000E-02 0.  1.
          1   -1    0    0  501    0  0.00000000000E+00 -0.00000000000E+00 -0.19089445789E+02  0.19089446454E+02  0.50400000000E-02 0. -1.
         23    2    1    2    0    0  0.27755575616E-15  0.00000000000E+00  0.88255845462E+02  0.12643473782E+03  0.90535344867E+02 0.  0.
    9000005    2    3    3    0    0  0.39511090417E+00  0.22233960542E+02  0.98813243681E+02  0.10181840643E+03  0.10412763673E+02 0.  0.
         22    1    3    3    0    0 -0.39511090417E+00 -0.22233960542E+02 -0.10557398220E+02  0.24616331392E+02  0.00000000000E+00 0. -1.
         22    1    4    4    0    0  0.27546809805E+01  0.21103708443E+02  0.78370702469E+02  0.81209123766E+02  0.00000000000E+00 0. -1.
         22    1    4    4    0    0 -0.23595700764E+01  0.11302520997E+01  0.20442541213E+02  0.20609282665E+02  0.00000000000E+00 0. -1.
<mgrwt>
<rscale>  0 0.90535345E+02</rscale>
<asrwt>0</asrwt>
<pdfrwt beam="2">  1        1 0.29368379E-02 0.90535345E+02</pdfrwt>
<pdfrwt beam="1">  1       -1 0.16514660E-01 0.90535345E+02</pdfrwt>
<totfact> 0.81761100E+04</totfact>
</mgrwt>
</event>
<event>
 7    1  0.2911475E-009  0.9099541E+02  0.7818608E-02  0.1300459E+00
         -1   -1    0    0    0  501 -0.00000000000E+00  0.00000000000E+00  0.84435390248E+02  0.84435390398E+02  0.50400000000E-02 0.  1.
          1   -1    0    0  501    0  0.00000000000E+00 -0.00000000000E+00 -0.24516272765E+02  0.24516273283E+02  0.50400000000E-02 0. -1.
         23    2    1    2    0    0  0.00000000000E+00  0.00000000000E+00  0.59919117483E+02  0.10895166368E+03  0.90995408560E+02 0.  0.
    9000005    2    3    3    0    0 -0.39316721188E+02 -0.10893994844E+02  0.53832567500E+02  0.67702060298E+02  0.45978208115E+01 0.  0.
         22    1    3    3    0    0  0.39316721188E+02  0.10893994844E+02  0.60865499827E+01  0.41249603384E+02  0.00000000000E+00 0. -1.
         22    1    4    4    0    0 -0.14299601460E+02 -0.35192436520E+01  0.23091289291E+02  0.27387429944E+02  0.00000000000E+00 0. -1.
         22    1    4    4    0    0 -0.25017119728E+02 -0.73747511919E+01  0.30741278209E+02  0.40314630354E+02  0.00000000000E+00 0. -1.
<mgrwt>
<rscale>  0 0.90995409E+02</rscale>
<asrwt>0</asrwt>
<pdfrwt beam="2">  1        1 0.37717344E-02 0.90995409E+02</pdfrwt>
<pdfrwt beam="1">  1       -1 0.12990060E-01 0.90995409E+02</pdfrwt>
<totfact> 0.84303629E+04</totfact>
</mgrwt>
</event>
<event>
 7    1  0.2911475E-009  0.7730557E+02  0.7818608E-02  0.1336877E+00
          1   -1    0    0  501    0  0.00000000000E+00  0.00000000000E+00  0.53066223242E+02  0.53066223482E+02  0.50400000000E-02 0. -1.
         -1   -1    0    0    0  501 -0.00000000000E+00 -0.00000000000E+00 -0.28154215226E+02  0.28154215677E+02  0.50400000000E-02 0.  1.
         23    2    1    2    0    0  0.00000000000E+00  0.00000000000E+00  0.24912008016E+02  0.81220439159E+02  0.77305572850E+02 0.  0.
    9000005    2    3    3    0    0 -0.87761144788E+01  0.34931797590E+02  0.23328110216E+02  0.45168263074E+02  0.14096829243E+02 0.  0.
         22    1    3    3    0    0  0.87761144788E+01 -0.34931797590E+02  0.15838978003E+01  0.36052176084E+02  0.00000000000E+00 0.  1.
         22    1    4    4    0    0  0.36245679183E+01  0.10409933394E+02  0.86705442185E+01  0.14024355347E+02  0.00000000000E+00 0.  1.
         22    1    4    4    0    0 -0.12400682397E+02  0.24521864195E+02  0.14657565998E+02  0.31143907727E+02  0.00000000000E+00 0.  1.
<mgrwt>
<rscale>  0 0.77305573E+02</rscale>
<asrwt>0</asrwt>
<pdfrwt beam="1">  1        1 0.81640344E-02 0.77305573E+02</pdfrwt>
<pdfrwt beam="2">  1       -1 0.43314178E-02 0.77305573E+02</pdfrwt>
<totfact> 0.14898185E+05</totfact>
</mgrwt>
</event>
<event>
 7    1  0.2911475E-009  0.9098970E+02  0.7818608E-02  0.1300473E+00
          1   -1    0    0  501    0  0.00000000000E+00  0.00000000000E+00  0.39442531905E+03  0.39442531909E+03  0.50400000000E-02 0. -1.
         -1   -1    0    0    0  501 -0.00000000000E+00 -0.00000000000E+00 -0.52475858977E+01  0.52475883180E+01  0.50400000000E-02 0.  1.
         23    2    1    2    0    0  0.00000000000E+00  0.00000000000E+00  0.38917773316E+03  0.39967290740E+03  0.90989696824E+02 0.  0.
    9000005    2    3    3    0    0 -0.18165228623E+02 -0.61787450273E+00  0.37720215733E+03  0.37790660969E+03  0.14197917228E+02 0.  0.
         22    1    3    3    0    0  0.18165228623E+02  0.61787450273E+00  0.11975575828E+02  0.21766297715E+02  0.00000000000E+00 0.  1.
         22    1    4    4    0    0 -0.20500817407E+02  0.40242040145E-01  0.34827326567E+03  0.34887612804E+03  0.00000000000E+00 0. -1.
         22    1    4    4    0    0  0.23355887841E+01 -0.65811654288E+00  0.28928891657E+02  0.29030481651E+02  0.00000000000E+00 0. -1.
<mgrwt>
<rscale>  0 0.90989697E+02</rscale>
<asrwt>0</asrwt>
<pdfrwt beam="1">  1        1 0.60680829E-01 0.90989697E+02</pdfrwt>
<pdfrwt beam="2">  1       -1 0.80732096E-03 0.90989697E+02</pdfrwt>
<totfact> 0.13531642E+05</totfact>
</mgrwt>
</event>
<event>
 7    1  0.2911475E-009  0.8829306E+02  0.7818608E-02  0.1307039E+00
         -1   -1    0    0    0  501 -0.00000000000E+00  0.00000000000E+00  0.45376340952E+02  0.45376341232E+02  0.50400000000E-02 0.  1.
          1   -1    0    0  501    0  0.00000000000E+00 -0.00000000000E+00 -0.42950048750E+02  0.42950049046E+02  0.50400000000E-02 0. -1.
         23    2    1    2    0    0  0.00000000000E+00  0.00000000000E+00  0.24262922021E+01  0.88326390278E+02  0.88293059329E+02 0.  0.
    9000005    2    3    3    0    0 -0.24023496171E+02 -0.25978672279E+02 -0.23431584760E+02  0.44501173991E+02  0.13390128476E+02 0.  0.
         22    1    3    3    0    0  0.24023496171E+02  0.25978672279E+02  0.25857876962E+02  0.43825216287E+02  0.00000000000E+00 0.  1.
         22    1    4    4    0    0 -0.24719497439E+02 -0.24006958054E+02 -0.24374081805E+02  0.42207623156E+02  0.00000000000E+00 0. -1.
         22    1    4    4    0    0  0.69600126849E+00 -0.19717142250E+01  0.94249704562E+00  0.22935508348E+01  0.00000000000E+00 0. -1.
<mgrwt>
<rscale>  0 0.88293059E+02</rscale>
<asrwt>0</asrwt>
<pdfrwt beam="2">  1        1 0.66076999E-02 0.88293059E+02</pdfrwt>
<pdfrwt beam="1">  1       -1 0.69809756E-02 0.88293059E+02</pdfrwt>
<totfact> 0.10029130E+05</totfact>
</mgrwt>
</event>
<event>
 7    1  0.2911475E-009  0.9097976E+02  0.7818608E-02  0.1300496E+00
         -1   -1    0    0    0  501 -0.00000000000E+00  0.00000000000E+00  0.11011040881E+02  0.11011042034E+02  0.50400000000E-02 0.  1.
          1   -1    0    0  501    0  0.00000000000E+00 -0.00000000000E+00 -0.18793220262E+03  0.18793220269E+03  0.50400000000E-02 0. -1.
         23    2    1    2    0    0  0.00000000000E+00  0.00000000000E+00 -0.17692116174E+03  0.19894324473E+03  0.90979762308E+02 0.  0.
    9000005    2    3    3    0    0  0.55220715712E+01  0.34246595933E+02 -0.29030421863E+02  0.47038690647E+02  0.12905441367E+02 0.  0.
         22    1    3    3    0    0 -0.55220715712E+01 -0.34246595933E+02 -0.14789073988E+03  0.15190455408E+03  0.00000000000E+00 0. -1.
         22    1    4    4    0    0  0.47729501715E+00  0.20787904840E+02 -0.24130081260E+02  0.31853188534E+02  0.00000000000E+00 0.  1.
         22    1    4    4    0    0  0.50447765540E+01  0.13458691093E+02 -0.49003406029E+01  0.15185502114E+02  0.00000000000E+00 0.  1.
<mgrwt>
<rscale>  0 0.90979762E+02</rscale>
<asrwt>0</asrwt>
<pdfrwt beam="2">  1        1 0.28912644E-01 0.90979762E+02</pdfrwt>
<pdfrwt beam="1">  1       -1 0.16940065E-02 0.90979762E+02</pdfrwt>
<totfact> 0.11767223E+05</totfact>
</mgrwt>
</event>
<event>
 7    1  0.2911475E-009  0.9218399E+02  0.7818608E-02  0.1297647E+00
         -1   -1    0    0    0  501 -0.00000000000E+00  0.00000000000E+00  0.63256621028E+01  0.63256641106E+01  0.50400000000E-02 0.  1.
          1   -1    0    0  501    0  0.00000000000E+00 -0.00000000000E+00 -0.33584966833E+03  0.33584966836E+03  0.50400000000E-02 0. -1.
         23    2    1    2    0    0 -0.17763568394E-14  0.00000000000E+00 -0.32952400622E+03  0.34217533247E+03  0.92183987094E+02 0.  0.
    9000005    2    3    3    0    0 -0.13084361915E+02 -0.37010760726E+02 -0.25333294241E+03  0.25646608477E+03  0.75017327142E+01 0.  0.
         22    1    3    3    0    0  0.13084361915E+02  0.37010760726E+02 -0.76191063817E+02  0.85709247703E+02  0.00000000000E+00 0.  1.
         22    1    4    4    0    0 -0.87557965571E+01 -0.27738798317E+02 -0.20569843873E+03  0.20774492196E+03  0.00000000000E+00 0.  1.
         22    1    4    4    0    0 -0.43285653578E+01 -0.92719624085E+01 -0.47634503680E+02  0.48721162812E+02  0.00000000000E+00 0.  1.
<mgrwt>
<rscale>  0 0.92183987E+02</rscale>
<asrwt>0</asrwt>
<pdfrwt beam="2">  1        1 0.51669166E-01 0.92183987E+02</pdfrwt>
<pdfrwt beam="1">  1       -1 0.97317921E-03 0.92183987E+02</pdfrwt>
<totfact> 0.12708021E+05</totfact>
</mgrwt>
</event>
<event>
 7    1  0.2911475E-009  0.8992382E+02  0.7818608E-02  0.1303036E+00
         -1   -1    0    0    0  501 -0.00000000000E+00  0.00000000000E+00  0.38788234759E+01  0.38788267503E+01  0.50400000000E-02 0.  1.
          1   -1    0    0  501    0  0.00000000000E+00 -0.00000000000E+00 -0.52118187418E+03  0.52118187420E+03  0.50400000000E-02 0. -1.
         23    2    1    2    0    0  0.35527136788E-14  0.00000000000E+00 -0.51730305070E+03  0.52506070095E+03  0.89923820088E+02 0.  0.
    9000005    2    3    3    0    0  0.22233534022E+02 -0.37649999028E+02 -0.29265111570E+03  0.29619317516E+03  0.13185940600E+02 0.  0.
         22    1    3    3    0    0 -0.22233534022E+02  0.37649999028E+02 -0.22465193500E+03  0.22886752579E+03  0.00000000000E+00 0.  1.
         22    1    4    4    0    0 -0.61599416485E+00 -0.67041819351E+00 -0.26495373400E+02  0.26511011316E+02  0.00000000000E+00 0.  1.
         22    1    4    4    0    0  0.22849528187E+02 -0.36979580834E+02 -0.26615574230E+03  0.26968216385E+03  0.00000000000E+00 0.  1.
<mgrwt>
<rscale>  0 0.89923820E+02</rscale>
<asrwt>0</asrwt>
<pdfrwt beam="2">  1        1 0.80181772E-01 0.89923820E+02</pdfrwt>
<pdfrwt beam="1">  1       -1 0.59674274E-03 0.89923820E+02</pdfrwt>
<totfact> 0.14513520E+05</totfact>
</mgrwt>
</event>
<event>
 7    1  0.2911475E-009  0.7908866E+02  0.7818608E-02  0.1331658E+00
         -1   -1    0    0    0  501 -0.00000000000E+00  0.00000000000E+00  0.88831262345E+02  0.88831262488E+02  0.50400000000E-02 0.  1.
          1   -1    0    0  501    0  0.00000000000E+00 -0.00000000000E+00 -0.17603642633E+02  0.17603643354E+02  0.50400000000E-02 0. -1.
         23    2    1    2    0    0  0.00000000000E+00  0.44408920985E-15  0.71227619712E+02  0.10643490584E+03  0.79088655140E+02 0.  0.
    9000005    2    3    3    0    0 -0.21583922166E+02 -0.31818694638E+01 -0.47124064666E+01  0.27423023411E+02  0.15931900356E+02 0.  0.
         22    1    3    3    0    0  0.21583922166E+02  0.31818694638E+01  0.75940026179E+02  0.79011882431E+02  0.00000000000E+00 0.  1.
         22    1    4    4    0    0 -0.19824506528E+02  0.28968607978E+01 -0.61026956136E+01  0.20943871546E+02  0.00000000000E+00 0.  1.
         22    1    4    4    0    0 -0.17594156374E+01 -0.60787302616E+01  0.13902891471E+01  0.64791518650E+01  0.00000000000E+00 0.  1.
<mgrwt>
<rscale>  0 0.79088655E+02</rscale>
<asrwt>0</asrwt>
<pdfrwt beam="2">  1        1 0.27082528E-02 0.79088655E+02</pdfrwt>
<pdfrwt beam="1">  1       -1 0.13666348E-01 0.79088655E+02</pdfrwt>
<totfact> 0.11965157E+05</totfact>
</mgrwt>
</event>
<event>
 7    1  0.2911475E-009  0.9202546E+02  0.7818608E-02  0.1298020E+00
          1   -1    0    0  501    0  0.00000000000E+00  0.00000000000E+00  0.11741380945E+03  0.11741380956E+03  0.50400000000E-02 0.  1.
         -1   -1    0    0    0  501 -0.00000000000E+00 -0.00000000000E+00 -0.18031704098E+02  0.18031704802E+02  0.50400000000E-02 0. -1.
         23    2    1    2    0    0  0.00000000000E+00 -0.88817841970E-15  0.99382105353E+02  0.13544551436E+03  0.92025455697E+02 0.  0.
    9000005    2    3    3    0    0  0.43022071819E+02 -0.66710029509E+01  0.28225858033E+02  0.52027216149E+02  0.38381264330E+01 0.  0.
         22    1    3    3    0    0 -0.43022071819E+02  0.66710029509E+01  0.71156247319E+02  0.83418298212E+02  0.00000000000E+00 0.  1.
         22    1    4    4    0    0  0.39904285938E+02 -0.62476281089E+01  0.24899933634E+02  0.47448831263E+02  0.00000000000E+00 0.  1.
         22    1    4    4    0    0  0.31177858809E+01 -0.42337484194E+00  0.33259243995E+01  0.45783848863E+01  0.00000000000E+00 0.  1.
<mgrwt>
<rscale>  0 0.92025456E+02</rscale>
<asrwt>0</asrwt>
<pdfrwt beam="1">  1        1 0.18063663E-01 0.92025456E+02</pdfrwt>
<pdfrwt beam="2">  1       -1 0.27741084E-02 0.92025456E+02</pdfrwt>
<totfact> 0.10466419E+05</totfact>
</mgrwt>
</event>
<event>
 7    1  0.2911475E-009  0.9034364E+02  0.7818608E-02  0.1302022E+00
         -1   -1    0    0    0  501 -0.00000000000E+00  0.00000000000E+00  0.34115493251E+01  0.34115530480E+01  0.50400000000E-02 0.  1.
          1   -1    0    0  501    0  0.00000000000E+00 -0.00000000000E+00 -0.59811309180E+03  0.59811309182E+03  0.50400000000E-02 0. -1.
         23    2    1    2    0    0 -0.71054273576E-14  0.35527136788E-14 -0.59470154247E+03  0.60152464486E+03  0.90343642627E+02 0.  0.
    9000005    2    3    3    0    0 -0.37404608722E+02  0.22836675871E+02 -0.36753091443E+03  0.37016537282E+03  0.47761545133E+01 0.  0.
         22    1    3    3    0    0  0.37404608722E+02 -0.22836675871E+02 -0.22717062804E+03  0.23135927204E+03  0.00000000000E+00 0. -1.
         22    1    4    4    0    0  0.14429601807E+00  0.25358612378E-01 -0.14928245520E+01  0.14999965144E+01  0.00000000000E+00 0. -1.
         22    1    4    4    0    0 -0.37548904740E+02  0.22811317259E+02 -0.36603808988E+03  0.36866537631E+03  0.00000000000E+00 0. -1.
<mgrwt>
<rscale>  0 0.90343643E+02</rscale>
<asrwt>0</asrwt>
<pdfrwt beam="2">  1        1 0.92017316E-01 0.90343643E+02</pdfrwt>
<pdfrwt beam="1">  1       -1 0.52485451E-03 0.90343643E+02</pdfrwt>
<totfact> 0.14503994E+05</totfact>
</mgrwt>
</event>
<event>
 7    1  0.2911475E-009  0.1059096E+03  0.7818608E-02  0.1268338E+00
         -1   -1    0    0    0  501 -0.00000000000E+00  0.00000000000E+00  0.45259940704E+02  0.45259940985E+02  0.50400000000E-02 0.  1.
          1   -1    0    0  501    0  0.00000000000E+00 -0.00000000000E+00 -0.61957860263E+02  0.61957860468E+02  0.50400000000E-02 0. -1.
         23    2    1    2    0    0  0.71054273576E-14  0.35527136788E-14 -0.16697919559E+02  0.10721780145E+03  0.10590956723E+03 0.  0.
    9000005    2    3    3    0    0 -0.47128357214E+02 -0.13296653443E+02 -0.25872803819E+02  0.57397508924E+02  0.15072790274E+02 0.  0.
         22    1    3    3    0    0  0.47128357214E+02  0.13296653443E+02  0.91748842599E+01  0.49820292529E+02  0.00000000000E+00 0.  1.
         22    1    4    4    0    0 -0.47061845044E+02 -0.11563169434E+02 -0.22136320559E+02  0.53277958240E+02  0.00000000000E+00 0. -1.
         22    1    4    4    0    0 -0.66512170024E-01 -0.17334840094E+01 -0.37364832601E+01  0.41195506834E+01  0.00000000000E+00 0. -1.
<mgrwt>
<rscale>  0 0.10590957E+03</rscale>
<asrwt>0</asrwt>
<pdfrwt beam="2">  1        1 0.95319785E-02 0.10590957E+03</pdfrwt>
<pdfrwt beam="1">  1       -1 0.69630679E-02 0.10590957E+03</pdfrwt>
<totfact> 0.63633318E+04</totfact>
</mgrwt>
</event>
<event>
 7    1  0.3038921E-009  0.9392178E+02  0.7818608E-02  0.1293623E+00
         -1   -1    0    0    0  501 -0.00000000000E+00  0.00000000000E+00  0.58729569228E+01  0.58729590854E+01  0.50400000000E-02 0.  1.
          1   -1    0    0  501    0  0.00000000000E+00 -0.00000000000E+00 -0.37550499211E+03  0.37550499214E+03  0.50400000000E-02 0. -1.
         23    2    1    2    0    0 -0.35527136788E-14  0.00000000000E+00 -0.36963203518E+03  0.38137795123E+03  0.93921777279E+02 0.  0.
    9000005    2    3    3    0    0  0.19005362815E+02 -0.26187202552E+02 -0.32157913153E+03  0.32344648359E+03  0.12550558396E+02 0.  0.
         22    1    3    3    0    0 -0.19005362815E+02  0.26187202552E+02 -0.48052903656E+02  0.57931467641E+02  0.00000000000E+00 0.  1.
         22    1    4    4    0    0  0.19270597772E+02 -0.17603739428E+02 -0.24631711409E+03  0.24769612083E+03  0.00000000000E+00 0.  1.
         22    1    4    4    0    0 -0.26523495627E+00 -0.85834631239E+01 -0.75262017440E+02  0.75750362758E+02  0.00000000000E+00 0.  1.
<mgrwt>
<rscale>  0 0.93921777E+02</rscale>
<asrwt>0</asrwt>
<pdfrwt beam="2">  1        1 0.57769980E-01 0.93921777E+02</pdfrwt>
<pdfrwt beam="1">  1       -1 0.90353229E-03 0.93921777E+02</pdfrwt>
<totfact> 0.12333111E+05</totfact>
</mgrwt>
</event>
<event>
 7    1  0.2911475E-009  0.8978627E+02  0.7818608E-02  0.1303370E+00
         -1   -1    0    0    0  501 -0.00000000000E+00  0.00000000000E+00  0.95386328097E+01  0.95386341412E+01  0.50400000000E-02 0.  1.
          1   -1    0    0  501    0  0.00000000000E+00 -0.00000000000E+00 -0.21128745748E+03  0.21128745754E+03  0.50400000000E-02 0. -1.
         23    2    1    2    0    0  0.00000000000E+00  0.00000000000E+00 -0.20174882467E+03  0.22082609168E+03  0.89786271286E+02 0.  0.
    9000005    2    3    3    0    0  0.18069279564E+02  0.18337863076E+02 -0.19068340913E+03  0.19280432323E+03  0.12270633777E+02 0.  0.
         22    1    3    3    0    0 -0.18069279564E+02 -0.18337863076E+02 -0.11065415545E+02  0.28021768454E+02  0.00000000000E+00 0.  1.
         22    1    4    4    0    0  0.14849754198E+02  0.15060360541E+02 -0.11153101924E+03  0.11351871173E+03  0.00000000000E+00 0. -1.
         22    1    4    4    0    0  0.32195253660E+01  0.32775025341E+01 -0.79152389884E+02  0.79285611499E+02  0.00000000000E+00 0. -1.
<mgrwt>
<rscale>  0 0.89786271E+02</rscale>
<asrwt>0</asrwt>
<pdfrwt beam="2">  1        1 0.32505759E-01 0.89786271E+02</pdfrwt>
<pdfrwt beam="1">  1       -1 0.14674822E-02 0.89786271E+02</pdfrwt>
<totfact> 0.12469987E+05</totfact>
</mgrwt>
</event>
<event>
 7    1  0.2911475E-009  0.9057241E+02  0.7818608E-02  0.1301471E+00
          1   -1    0    0  501    0  0.00000000000E+00  0.00000000000E+00  0.55097995767E+02  0.55097995997E+02  0.50400000000E-02 0. -1.
         -1   -1    0    0    0  501 -0.00000000000E+00 -0.00000000000E+00 -0.37221689489E+02  0.37221689830E+02  0.50400000000E-02 0.  1.
         23    2    1    2    0    0 -0.71054273576E-14  0.00000000000E+00  0.17876306278E+02  0.92319685827E+02  0.90572413378E+02 0.  0.
    9000005    2    3    3    0    0  0.39977474542E+02  0.10182708719E+02  0.26518388779E+02  0.50170289419E+02  0.10580499480E+02 0.  0.
         22    1    3    3    0    0 -0.39977474542E+02 -0.10182708719E+02 -0.86420825017E+01  0.42149396409E+02  0.00000000000E+00 0.  1.
         22    1    4    4    0    0  0.16673959726E+01  0.16143398285E+01 -0.67273417257E+00  0.24163761459E+01  0.00000000000E+00 0.  1.
         22    1    4    4    0    0  0.38310078570E+02  0.85683688901E+01  0.27191122952E+02  0.47753913273E+02  0.00000000000E+00 0.  1.
<mgrwt>
<rscale>  0 0.90572413E+02</rscale>
<asrwt>0</asrwt>
<pdfrwt beam="1">  1        1 0.84766147E-02 0.90572413E+02</pdfrwt>
<pdfrwt beam="2">  1       -1 0.57264138E-02 0.90572413E+02</pdfrwt>
<totfact> 0.96916427E+04</totfact>
</mgrwt>
</event>
<event>
 7    1  0.2911475E-009  0.9220182E+02  0.7818608E-02  0.1297606E+00
         -1   -1    0    0    0  501 -0.00000000000E+00  0.00000000000E+00  0.36359563888E+03  0.36359563891E+03  0.50400000000E-02 0.  1.
          1   -1    0    0  501    0  0.00000000000E+00 -0.00000000000E+00 -0.58452115864E+01  0.58452137592E+01  0.50400000000E-02 0. -1.
         23    2    1    2    0    0  0.35527136788E-14 -0.35527136788E-14  0.35775042729E+03  0.36944085267E+03  0.92201818831E+02 0.  0.
    9000005    2    3    3    0    0 -0.23129776170E+02 -0.31032519760E+02  0.27567245733E+03  0.27869507051E+03  0.13327969245E+02 0.  0.
         22    1    3    3    0    0  0.23129776170E+02  0.31032519760E+02  0.82077969958E+02  0.90745782165E+02  0.00000000000E+00 0.  1.
         22    1    4    4    0    0 -0.52951254447E+01 -0.16907774876E+02  0.14190231971E+03  0.14300412422E+03  0.00000000000E+00 0. -1.
         22    1    4    4    0    0 -0.17834650725E+02 -0.14124744884E+02  0.13377013762E+03  0.13569094629E+03  0.00000000000E+00 0. -1.
<mgrwt>
<rscale>  0 0.92201819E+02</rscale>
<asrwt>0</asrwt>
<pdfrwt beam="2">  1        1 0.89926325E-03 0.92201819E+02</pdfrwt>
<pdfrwt beam="1">  1       -1 0.55937805E-01 0.92201819E+02</pdfrwt>
<totfact> 0.54198255E+04</totfact>
</mgrwt>
</event>
<event>
 7    1  0.2911475E-009  0.8869710E+02  0.7818608E-02  0.1306038E+00
         -1   -1    0    0    0  501 -0.00000000000E+00  0.00000000000E+00  0.97644220231E+01  0.97644233238E+01  0.50400000000E-02 0.  1.
          1   -1    0    0  501    0  0.00000000000E+00 -0.00000000000E+00 -0.20142448401E+03  0.20142448407E+03  0.50400000000E-02 0. -1.
         23    2    1    2    0    0  0.00000000000E+00  0.00000000000E+00 -0.19166006199E+03  0.21118890740E+03  0.88697098298E+02 0.  0.
    9000005    2    3    3    0    0 -0.29038392238E+02 -0.31114235508E+02 -0.11261549376E+03  0.12141492652E+03  0.15748367333E+02 0.  0.
         22    1    3    3    0    0  0.29038392238E+02  0.31114235508E+02 -0.79044568228E+02  0.89773980871E+02  0.00000000000E+00 0.  1.
         22    1    4    4    0    0 -0.18723955890E+02 -0.29487150467E+02 -0.85709756288E+02  0.92553989054E+02  0.00000000000E+00 0. -1.
         22    1    4    4    0    0 -0.10314436348E+02 -0.16270850417E+01 -0.26905737469E+02  0.28860937470E+02  0.00000000000E+00 0. -1.
<mgrwt>
<rscale>  0 0.88697098E+02</rscale>
<asrwt>0</asrwt>
<pdfrwt beam="2">  1        1 0.30988379E-01 0.88697098E+02</pdfrwt>
<pdfrwt beam="1">  1       -1 0.15022190E-02 0.88697098E+02</pdfrwt>
<totfact> 0.12764786E+05</totfact>
</mgrwt>
</event>
<event>
 7    1  0.2911475E-009  0.8826055E+02  0.7818608E-02  0.1307120E+00
          1   -1    0    0  501    0  0.00000000000E+00  0.00000000000E+00  0.22809838941E+03  0.22809838947E+03  0.50400000000E-02 0. -1.
         -1   -1    0    0    0  501 -0.00000000000E+00 -0.00000000000E+00 -0.85378988001E+01  0.85379002876E+01  0.50400000000E-02 0.  1.
         23    2    1    2    0    0  0.00000000000E+00  0.00000000000E+00  0.21956049061E+03  0.23663628976E+03  0.88260549463E+02 0.  0.
    9000005    2    3    3    0    0  0.21484484967E+02  0.35751497483E+02  0.14376397224E+03  0.15012117625E+03  0.11337335650E+02 0.  0.
         22    1    3    3    0    0 -0.21484484967E+02 -0.35751497483E+02  0.75796518379E+02  0.86515113506E+02  0.00000000000E+00 0. -1.
         22    1    4    4    0    0  0.22810176313E+01  0.14052439412E+02  0.45776965697E+02  0.47939594109E+02  0.00000000000E+00 0. -1.
         22    1    4    4    0    0  0.19203467336E+02  0.21699058071E+02  0.97987006538E+02  0.10218158214E+03  0.00000000000E+00 0. -1.
<mgrwt>
<rscale>  0 0.88260549E+02</rscale>
<asrwt>0</asrwt>
<pdfrwt beam="1">  1        1 0.35092057E-01 0.88260549E+02</pdfrwt>
<pdfrwt beam="2">  1       -1 0.13135231E-02 0.88260549E+02</pdfrwt>
<totfact> 0.13248895E+05</totfact>
</mgrwt>
</event>
<event>
 7    1  0.2911475E-009  0.9621671E+02  0.7818608E-02  0.1288459E+00
          1   -1    0    0  501    0  0.00000000000E+00  0.00000000000E+00  0.66225777955E+03  0.66225777956E+03  0.50400000000E-02 0. -1.
         -1   -1    0    0    0  501 -0.00000000000E+00 -0.00000000000E+00 -0.34947307182E+01  0.34947343525E+01  0.50400000000E-02 0.  1.
         23    2    1    2    0    0  0.00000000000E+00  0.00000000000E+00  0.65876304883E+03  0.66575251392E+03  0.96216710018E+02 0.  0.
    9000005    2    3    3    0    0 -0.18628992978E+02 -0.25326452094E+02  0.58077399961E+03  0.58166470057E+03  0.68495777889E+01 0.  0.
         22    1    3    3    0    0  0.18628992978E+02  0.25326452094E+02  0.77989049218E+02  0.84087813344E+02  0.00000000000E+00 0.  1.
         22    1    4    4    0    0 -0.58294216279E+01 -0.34984936289E+01  0.10755688227E+03  0.10777153863E+03  0.00000000000E+00 0.  1.
         22    1    4    4    0    0 -0.12799571350E+02 -0.21827958465E+02  0.47321711734E+03  0.47389316194E+03  0.00000000000E+00 0.  1.
<mgrwt>
<rscale>  0 0.96216710E+02</rscale>
<asrwt>0</asrwt>
<pdfrwt beam="1">  1        1 0.10188594E+00 0.96216710E+02</pdfrwt>
<pdfrwt beam="2">  1       -1 0.53765050E-03 0.96216710E+02</pdfrwt>
<totfact> 0.12323416E+05</totfact>
</mgrwt>
</event>
<event>
 7    1  0.2911475E-009  0.9082131E+02  0.7818608E-02  0.1300875E+00
          1   -1    0    0  501    0  0.00000000000E+00  0.00000000000E+00  0.38320490439E+02  0.38320490770E+02  0.50400000000E-02 0. -1.
         -1   -1    0    0    0  501 -0.00000000000E+00 -0.00000000000E+00 -0.53812661765E+02  0.53812662001E+02  0.50400000000E-02 0.  1.
         23    2    1    2    0    0 -0.71054273576E-14  0.00000000000E+00 -0.15492171326E+02  0.92133152771E+02  0.90821310644E+02 0.  0.
    9000005    2    3    3    0    0  0.42714647677E+02 -0.69454373187E+01  0.35350575816E+01  0.44859315761E+02  0.11273036538E+02 0.  0.
         22    1    3    3    0    0 -0.42714647677E+02  0.69454373187E+01 -0.19027228908E+02  0.47273837010E+02  0.00000000000E+00 0.  1.
         22    1    4    4    0    0  0.28167313015E+02  0.82171662139E+00  0.32473505328E+01  0.28365789715E+02  0.00000000000E+00 0. -1.
         22    1    4    4    0    0  0.14547334662E+02 -0.77671539401E+01  0.28770704887E+00  0.16493526046E+02  0.00000000000E+00 0. -1.
<mgrwt>
<rscale>  0 0.90821311E+02</rscale>
<asrwt>0</asrwt>
<pdfrwt beam="1">  1        1 0.58954601E-02 0.90821311E+02</pdfrwt>
<pdfrwt beam="2">  1       -1 0.82788711E-02 0.90821311E+02</pdfrwt>
<totfact> 0.91074111E+04</totfact>
</mgrwt>
</event>
<event>
 7    1  0.2911475E-009  0.8780563E+02  0.7818608E-02  0.1308254E+00
         -1   -1    0    0    0  501 -0.00000000000E+00  0.00000000000E+00  0.51711247422E+01  0.51711271983E+01  0.50400000000E-02 0.  1.
          1   -1    0    0  501    0  0.00000000000E+00 -0.00000000000E+00 -0.37273451709E+03  0.37273451712E+03  0.50400000000E-02 0. -1.
         23    2    1    2    0    0  0.00000000000E+00  0.00000000000E+00 -0.36756339235E+03  0.37790564432E+03  0.87805629754E+02 0.  0.
    9000005    2    3    3    0    0  0.29808654610E+02  0.30202810639E+02 -0.18562116115E+03  0.19108021470E+03  0.15989600468E+02 0.  0.
         22    1    3    3    0    0 -0.29808654610E+02 -0.30202810639E+02 -0.18194223119E+03  0.18682542962E+03  0.00000000000E+00 0. -1.
         22    1    4    4    0    0  0.19657636054E+02  0.27389158308E+02 -0.12111564741E+03  0.12572027957E+03  0.00000000000E+00 0. -1.
         22    1    4    4    0    0  0.10151018555E+02  0.28136523317E+01 -0.64505513746E+02  0.65359935135E+02  0.00000000000E+00 0. -1.
<mgrwt>
<rscale>  0 0.87805630E+02</rscale>
<asrwt>0</asrwt>
<pdfrwt beam="2">  1        1 0.57343751E-01 0.87805630E+02</pdfrwt>
<pdfrwt beam="1">  1       -1 0.79555813E-03 0.87805630E+02</pdfrwt>
<totfact> 0.14729540E+05</totfact>
</mgrwt>
</event>
<event>
 7    1  0.2911475E-009  0.9488775E+02  0.7818608E-02  0.1291429E+00
         -1   -1    0    0    0  501 -0.00000000000E+00  0.00000000000E+00  0.20767149499E+02  0.20767150111E+02  0.50400000000E-02 0.  1.
          1   -1    0    0  501    0  0.00000000000E+00 -0.00000000000E+00 -0.10838854627E+03  0.10838854639E+03  0.50400000000E-02 0. -1.
         23    2    1    2    0    0  0.00000000000E+00 -0.35527136788E-14 -0.87621396772E+02  0.12915569650E+03  0.94887748239E+02 0.  0.
    9000005    2    3    3    0    0 -0.37196624175E+02 -0.19840165486E+02 -0.16205623303E+02  0.46225402175E+02  0.98460430151E+01 0.  0.
         22    1    3    3    0    0  0.37196624175E+02  0.19840165486E+02 -0.71415773469E+02  0.82930294324E+02  0.00000000000E+00 0. -1.
         22    1    4    4    0    0 -0.44502354715E+01 -0.29065706549E+00 -0.44900709613E+01  0.63284922785E+01  0.00000000000E+00 0. -1.
         22    1    4    4    0    0 -0.32746388704E+02 -0.19549508420E+02 -0.11715552342E+02  0.39896909896E+02  0.00000000000E+00 0. -1.
<mgrwt>
<rscale>  0 0.94887748E+02</rscale>
<asrwt>0</asrwt>
<pdfrwt beam="2">  1        1 0.16675161E-01 0.94887748E+02</pdfrwt>
<pdfrwt beam="1">  1       -1 0.31949462E-02 0.94887748E+02</pdfrwt>
<totfact> 0.94952562E+04</totfact>
</mgrwt>
</event>
<event>
 7    1  0.2911475E-009  0.9171843E+02  0.7818608E-02  0.1298743E+00
         -1   -1    0    0    0  501 -0.00000000000E+00  0.00000000000E+00  0.66510572399E+01  0.66510591495E+01  0.50400000000E-02 0.  1.
          1   -1    0    0  501    0  0.00000000000E+00 -0.00000000000E+00 -0.31620047556E+03  0.31620047560E+03  0.50400000000E-02 0. -1.
         23    2    1    2    0    0  0.00000000000E+00  0.00000000000E+00 -0.30954941832E+03  0.32285153475E+03  0.91718433850E+02 0.  0.
    9000005    2    3    3    0    0 -0.42321039162E+02 -0.56629780113E+01 -0.21143399692E+03  0.21584791055E+03  0.79275316944E+01 0.  0.
         22    1    3    3    0    0  0.42321039162E+02  0.56629780113E+01 -0.98115421397E+02  0.10700362420E+03  0.00000000000E+00 0.  1.
         22    1    4    4    0    0 -0.11722627142E+02 -0.48422338713E+00 -0.42635362694E+02  0.44220228532E+02  0.00000000000E+00 0.  1.
         22    1    4    4    0    0 -0.30598412020E+02 -0.51787546241E+01 -0.16879863423E+03  0.17162768202E+03  0.00000000000E+00 0.  1.
<mgrwt>
<rscale>  0 0.91718434E+02</rscale>
<asrwt>0</asrwt>
<pdfrwt beam="2">  1        1 0.48646215E-01 0.91718434E+02</pdfrwt>
<pdfrwt beam="1">  1       -1 0.10232400E-02 0.91718434E+02</pdfrwt>
<totfact> 0.12737566E+05</totfact>
</mgrwt>
</event>
<event>
 7    1  0.2911475E-009  0.9022467E+02  0.7818608E-02  0.1302309E+00
          1   -1    0    0  501    0  0.00000000000E+00  0.00000000000E+00  0.36533263605E+02  0.36533263952E+02  0.50400000000E-02 0. -1.
         -1   -1    0    0    0  501 -0.00000000000E+00 -0.00000000000E+00 -0.55706022481E+02  0.55706022709E+02  0.50400000000E-02 0.  1.
         23    2    1    2    0    0  0.00000000000E+00  0.35527136788E-14 -0.19172758876E+02  0.92239286661E+02  0.90224671353E+02 0.  0.
    9000005    2    3    3    0    0  0.54368336820E+01  0.31402804330E+02  0.20909177556E+02  0.41031309662E+02  0.15188133074E+02 0.  0.
         22    1    3    3    0    0 -0.54368336820E+01 -0.31402804330E+02 -0.40081936431E+02  0.51207976999E+02  0.00000000000E+00 0.  1.
         22    1    4    4    0    0 -0.39983156019E+01  0.65939676001E+01  0.84300782510E+00  0.77574221593E+01  0.00000000000E+00 0.  1.
         22    1    4    4    0    0  0.94351492839E+01  0.24808836729E+02  0.20066169731E+02  0.33273887503E+02  0.00000000000E+00 0.  1.
<mgrwt>
<rscale>  0 0.90224671E+02</rscale>
<asrwt>0</asrwt>
<pdfrwt beam="1">  1        1 0.56205021E-02 0.90224671E+02</pdfrwt>
<pdfrwt beam="2">  1       -1 0.85701574E-02 0.90224671E+02</pdfrwt>
<totfact> 0.92114920E+04</totfact>
</mgrwt>
</event>
<event>
 7    1  0.2911475E-009  0.9094021E+02  0.7818608E-02  0.1300591E+00
         -1   -1    0    0    0  501 -0.00000000000E+00  0.00000000000E+00  0.88915260982E+01  0.88915275266E+01  0.50400000000E-02 0.  1.
          1   -1    0    0  501    0  0.00000000000E+00 -0.00000000000E+00 -0.23252816518E+03  0.23252816523E+03  0.50400000000E-02 0. -1.
         23    2    1    2    0    0 -0.88817841970E-15 -0.71054273576E-14 -0.22363663908E+03  0.24141969276E+03  0.90940209550E+02 0.  0.
    9000005    2    3    3    0    0  0.79016080667E+01 -0.42753046470E+02 -0.78704647025E+02  0.90106967870E+02  0.58809695484E+01 0.  0.
         22    1    3    3    0    0 -0.79016080667E+01  0.42753046470E+02 -0.14493199206E+03  0.15131272489E+03  0.00000000000E+00 0. -1.
         22    1    4    4    0    0  0.42478542134E+00 -0.22632685664E+01 -0.20005494155E+01  0.30504139427E+01  0.00000000000E+00 0. -1.
         22    1    4    4    0    0  0.74768226454E+01 -0.40489777904E+02 -0.76704097610E+02  0.87056553927E+02  0.00000000000E+00 0. -1.
<mgrwt>
<rscale>  0 0.90940210E+02</rscale>
<asrwt>0</asrwt>
<pdfrwt beam="2">  1        1 0.35773559E-01 0.90940210E+02</pdfrwt>
<pdfrwt beam="1">  1       -1 0.13679274E-02 0.90940210E+02</pdfrwt>
<totfact> 0.12278539E+05</totfact>
</mgrwt>
</event>
<event>
 7    1  0.2911475E-009  0.9081559E+02  0.7818608E-02  0.1300889E+00
         -1   -1    0    0    0  501 -0.00000000000E+00  0.00000000000E+00  0.56265980845E+02  0.56265981071E+02  0.50400000000E-02 0. -1.
          1   -1    0    0  501    0  0.00000000000E+00 -0.00000000000E+00 -0.36645015281E+02  0.36645015628E+02  0.50400000000E-02 0.  1.
         23    2    1    2    0    0  0.00000000000E+00  0.00000000000E+00  0.19620965564E+02  0.92910996698E+02  0.90815587967E+02 0.  0.
    9000005    2    3    3    0    0  0.39939825835E+02 -0.94397903501E+01 -0.73528117571E+01  0.43800061128E+02  0.13419470352E+02 0.  0.
         22    1    3    3    0    0 -0.39939825835E+02  0.94397903501E+01  0.26973777321E+02  0.49110935570E+02  0.00000000000E+00 0. -1.
         22    1    4    4    0    0  0.31334229589E+02 -0.89864570625E+01 -0.11054947820E+02  0.34420956201E+02  0.00000000000E+00 0. -1.
         22    1    4    4    0    0  0.86055962458E+01 -0.45333328762E+00  0.37021360626E+01  0.93791049276E+01  0.00000000000E+00 0. -1.
<mgrwt>
<rscale>  0 0.90815588E+02</rscale>
<asrwt>0</asrwt>
<pdfrwt beam="2">  1        1 0.56376947E-02 0.90815588E+02</pdfrwt>
<pdfrwt beam="1">  1       -1 0.86563048E-02 0.90815588E+02</pdfrwt>
<totfact> 0.90470180E+04</totfact>
</mgrwt>
</event>
<event>
 7    1  0.2911475E-009  0.9294557E+02  0.7818608E-02  0.1295871E+00
         -1   -1    0    0    0  501 -0.00000000000E+00  0.00000000000E+00  0.11553073370E+03  0.11553073381E+03  0.50400000000E-02 0.  1.
          1   -1    0    0  501    0  0.00000000000E+00 -0.00000000000E+00 -0.18693898429E+02  0.18693899108E+02  0.50400000000E-02 0. -1.
         23    2    1    2    0    0 -0.35527136788E-14  0.00000000000E+00  0.96836835270E+02  0.13422463292E+03  0.92945572334E+02 0.  0.
    9000005    2    3    3    0    0 -0.24684076918E+02  0.20970807249E+02  0.21637439114E+01  0.34164287937E+02  0.10650745166E+02 0.  0.
         22    1    3    3    0    0  0.24684076918E+02 -0.20970807249E+02  0.94673091358E+02  0.10006034498E+03  0.00000000000E+00 0.  1.
         22    1    4    4    0    0 -0.10158475398E+00  0.15264205353E+01 -0.20300982548E+01  0.25419634216E+01  0.00000000000E+00 0. -1.
         22    1    4    4    0    0 -0.24582492164E+02  0.19444386713E+02  0.41938421662E+01  0.31622324516E+02  0.00000000000E+00 0. -1.
<mgrwt>
<rscale>  0 0.92945572E+02</rscale>
<asrwt>0</asrwt>
<pdfrwt beam="2">  1        1 0.28759844E-02 0.92945572E+02</pdfrwt>
<pdfrwt beam="1">  1       -1 0.17773959E-01 0.92945572E+02</pdfrwt>
<totfact> 0.75299571E+04</totfact>
</mgrwt>
</event>
<event>
 7    1  0.2911475E-009  0.9052838E+02  0.7818608E-02  0.1301577E+00
          1   -1    0    0  501    0  0.00000000000E+00  0.00000000000E+00  0.75573812931E+02  0.75573813099E+02  0.50400000000E-02 0. -1.
         -1   -1    0    0    0  501 -0.00000000000E+00 -0.00000000000E+00 -0.27110539894E+02  0.27110540362E+02  0.50400000000E-02 0.  1.
         23    2    1    2    0    0  0.00000000000E+00  0.17763568394E-14  0.48463273038E+02  0.10268435346E+03  0.90528380149E+02 0.  0.
    9000005    2    3    3    0    0 -0.42152059793E+02 -0.14454815688E+02  0.18176802545E+02  0.48804782785E+02  0.81100450396E+01 0.  0.
         22    1    3    3    0    0  0.42152059793E+02  0.14454815688E+02  0.30286470492E+02  0.53879570676E+02  0.00000000000E+00 0. -1.
         22    1    4    4    0    0 -0.48699389589E+01  0.88259470286E+00  0.25580116011E+01  0.55712388411E+01  0.00000000000E+00 0. -1.
         22    1    4    4    0    0 -0.37282120835E+02 -0.15337410391E+02  0.15618790944E+02  0.43233543944E+02  0.00000000000E+00 0. -1.
<mgrwt>
<rscale>  0 0.90528380E+02</rscale>
<asrwt>0</asrwt>
<pdfrwt beam="1">  1        1 0.11626740E-01 0.90528380E+02</pdfrwt>
<pdfrwt beam="2">  1       -1 0.41708525E-02 0.90528380E+02</pdfrwt>
<totfact> 0.10182523E+05</totfact>
</mgrwt>
</event>
<event>
 7    1  0.2911475E-009  0.9444236E+02  0.7818608E-02  0.1292437E+00
          1   -1    0    0  501    0  0.00000000000E+00  0.00000000000E+00  0.10627839131E+03  0.10627839142E+03  0.50400000000E-02 0. -1.
         -1   -1    0    0    0  501 -0.00000000000E+00 -0.00000000000E+00 -0.20981121199E+02  0.20981121804E+02  0.50400000000E-02 0.  1.
         23    2    1    2    0    0  0.00000000000E+00  0.00000000000E+00  0.85297270107E+02  0.12725951323E+03  0.94442360303E+02 0.  0.
    9000005    2    3    3    0    0 -0.34873978072E+02 -0.14746480899E+02  0.61303812520E+01  0.39503890409E+02  0.94510707160E+01 0.  0.
         22    1    3    3    0    0  0.34873978072E+02  0.14746480899E+02  0.79166888855E+02  0.87755622819E+02  0.00000000000E+00 0. -1.
         22    1    4    4    0    0 -0.77771076237E+01 -0.75106438632E+01  0.33562800375E+01  0.11320679746E+02  0.00000000000E+00 0.  1.
         22    1    4    4    0    0 -0.27096870449E+02 -0.72358370357E+01  0.27741012145E+01  0.28183210663E+02  0.00000000000E+00 0.  1.
<mgrwt>
<rscale>  0 0.94442360E+02</rscale>
<asrwt>0</asrwt>
<pdfrwt beam="1">  1        1 0.16350522E-01 0.94442360E+02</pdfrwt>
<pdfrwt beam="2">  1       -1 0.32278649E-02 0.94442360E+02</pdfrwt>
<totfact> 0.95857771E+04</totfact>
</mgrwt>
</event>
<event>
 7    1  0.2911475E-009  0.9103899E+02  0.7818608E-02  0.1300355E+00
          1   -1    0    0  501    0  0.00000000000E+00  0.00000000000E+00  0.12676018089E+04  0.12676018089E+04  0.50400000000E-02 0. -1.
         -1   -1    0    0    0  501 -0.00000000000E+00 -0.00000000000E+00 -0.16345980560E+01  0.16346058260E+01  0.50400000000E-02 0.  1.
         23    2    1    2    0    0 -0.17763568394E-14  0.35527136788E-14  0.12659672108E+04  0.12692364147E+04  0.91038989228E+02 0.  0.
    9000005    2    3    3    0    0  0.92636271788E+01 -0.24323378877E+02  0.11515574262E+04  0.11519033828E+04  0.10929594886E+02 0.  0.
         22    1    3    3    0    0 -0.92636271788E+01  0.24323378877E+02  0.11440978465E+03  0.11733303189E+03  0.00000000000E+00 0.  1.
         22    1    4    4    0    0  0.44421986776E+01 -0.57855231218E+01  0.16644421857E+03  0.16660397145E+03  0.00000000000E+00 0.  1.
         22    1    4    4    0    0  0.48214285013E+01 -0.18537855755E+02  0.98511320760E+03  0.98529941137E+03  0.00000000000E+00 0.  1.
<mgrwt>
<rscale>  0 0.91038989E+02</rscale>
<asrwt>0</asrwt>
<pdfrwt beam="1">  1        1 0.19501623E+00 0.91038989E+02</pdfrwt>
<pdfrwt beam="2">  1       -1 0.25147649E-03 0.91038989E+02</pdfrwt>
<totfact> 0.12430991E+05</totfact>
</mgrwt>
</event>
<event>
 7    1  0.2911475E-009  0.9165133E+02  0.7818608E-02  0.1298901E+00
         -1   -1    0    0    0  501 -0.00000000000E+00  0.00000000000E+00  0.97152156553E+01  0.97152169626E+01  0.50400000000E-02 0.  1.
          1   -1    0    0  501    0  0.00000000000E+00 -0.00000000000E+00 -0.21615490701E+03  0.21615490707E+03  0.50400000000E-02 0. -1.
         23    2    1    2    0    0 -0.71054273576E-14  0.00000000000E+00 -0.20643969136E+03  0.22587012403E+03  0.91651332578E+02 0.  0.
    9000005    2    3    3    0    0 -0.39420577554E+02 -0.20140645122E+02 -0.80308937306E+02  0.92196661305E+02  0.95431349013E+01 0.  0.
         22    1    3    3    0    0  0.39420577554E+02  0.20140645122E+02 -0.12613075405E+03  0.13367346273E+03  0.00000000000E+00 0. -1.
         22    1    4    4    0    0 -0.26802409567E+02 -0.18479586142E+02 -0.57340809781E+02  0.65938097705E+02  0.00000000000E+00 0. -1.
         22    1    4    4    0    0 -0.12618167987E+02 -0.16610589797E+01 -0.22968127526E+02  0.26258563600E+02  0.00000000000E+00 0. -1.
<mgrwt>
<rscale>  0 0.91651333E+02</rscale>
<asrwt>0</asrwt>
<pdfrwt beam="2">  1        1 0.33254598E-01 0.91651333E+02</pdfrwt>
<pdfrwt beam="1">  1       -1 0.14946488E-02 0.91651333E+02</pdfrwt>
<totfact> 0.11854780E+05</totfact>
</mgrwt>
</event>
<event>
 7    1  0.2911475E-009  0.9287620E+02  0.7818608E-02  0.1296032E+00
         -1   -1    0    0    0  501 -0.00000000000E+00  0.00000000000E+00  0.58447502623E+02  0.58447502840E+02  0.50400000000E-02 0.  1.
          1   -1    0    0  501    0  0.00000000000E+00 -0.00000000000E+00 -0.36896307689E+02  0.36896308033E+02  0.50400000000E-02 0. -1.
         23    2    1    2    0    0  0.00000000000E+00  0.35527136788E-14  0.21551194934E+02  0.95343810874E+02  0.92876198613E+02 0.  0.
    9000005    2    3    3    0    0 -0.29054529903E+02 -0.22358431130E+02 -0.16353503998E+02  0.42610222416E+02  0.14287365428E+02 0.  0.
         22    1    3    3    0    0  0.29054529903E+02  0.22358431130E+02  0.37904698932E+02  0.52733588457E+02  0.00000000000E+00 0.  1.
         22    1    4    4    0    0 -0.23850654308E+02 -0.22055928752E+02 -0.18005775002E+02  0.37141965988E+02  0.00000000000E+00 0.  1.
         22    1    4    4    0    0 -0.52038755952E+01 -0.30250237761E+00  0.16522710035E+01  0.54682564285E+01  0.00000000000E+00 0.  1.
<mgrwt>
<rscale>  0 0.92876199E+02</rscale>
<asrwt>0</asrwt>
<pdfrwt beam="2">  1        1 0.56763551E-02 0.92876199E+02</pdfrwt>
<pdfrwt beam="1">  1       -1 0.89919234E-02 0.92876199E+02</pdfrwt>
<totfact> 0.84969424E+04</totfact>
</mgrwt>
</event>
<event>
 7    1  0.2911475E-009  0.9146724E+02  0.7818608E-02  0.1299337E+00
         -1   -1    0    0    0  501 -0.00000000000E+00  0.00000000000E+00  0.11005860692E+03  0.11005860704E+03  0.50400000000E-02 0.  1.
          1   -1    0    0  501    0  0.00000000000E+00 -0.00000000000E+00 -0.19004093092E+02  0.19004093760E+02  0.50400000000E-02 0. -1.
         23    2    1    2    0    0  0.22204460493E-15  0.17763568394E-14  0.91054513831E+02  0.12906270080E+03  0.91467241395E+02 0.  0.
    9000005    2    3    3    0    0  0.13266684495E+01 -0.99918064048E+01  0.10792547599E+03  0.10941007735E+03  0.14868100517E+02 0.  0.
         22    1    3    3    0    0 -0.13266684495E+01  0.99918064048E+01 -0.16870962158E+02  0.19652623452E+02  0.00000000000E+00 0. -1.
         22    1    4    4    0    0  0.46560889925E+01 -0.64974696836E+01  0.98470664529E+02  0.98794575002E+02  0.00000000000E+00 0. -1.
         22    1    4    4    0    0 -0.33294205430E+01 -0.34943367212E+01  0.94548114599E+01  0.10615502344E+02  0.00000000000E+00 0. -1.
<mgrwt>
<rscale>  0 0.91467241E+02</rscale>
<asrwt>0</asrwt>
<pdfrwt beam="2">  1        1 0.29237067E-02 0.91467241E+02</pdfrwt>
<pdfrwt beam="1">  1       -1 0.16932093E-01 0.91467241E+02</pdfrwt>
<totfact> 0.79245369E+04</totfact>
</mgrwt>
</event>
<event>
 7    1  0.2911475E-009  0.9119037E+02  0.7818608E-02  0.1299994E+00
         -1   -1    0    0    0  501 -0.00000000000E+00  0.00000000000E+00  0.15315242293E+02  0.15315243122E+02  0.50400000000E-02 0.  1.
          1   -1    0    0  501    0  0.00000000000E+00 -0.00000000000E+00 -0.13574196229E+03  0.13574196238E+03  0.50400000000E-02 0. -1.
         23    2    1    2    0    0  0.00000000000E+00  0.00000000000E+00 -0.12042672000E+03  0.15105720551E+03  0.91190374745E+02 0.  0.
    9000005    2    3    3    0    0  0.37733330261E+02  0.14080685787E+02 -0.29561160527E+02  0.51665959299E+02  0.13169632258E+02 0.  0.
         22    1    3    3    0    0 -0.37733330261E+02 -0.14080685787E+02 -0.90865559471E+02  0.99391246208E+02  0.00000000000E+00 0. -1.
         22    1    4    4    0    0  0.15869249043E+02  0.12603604809E+02 -0.16676653633E+02  0.26244898471E+02  0.00000000000E+00 0. -1.
         22    1    4    4    0    0  0.21864081218E+02  0.14770809775E+01 -0.12884506894E+02  0.25421060828E+02  0.00000000000E+00 0. -1.
<mgrwt>
<rscale>  0 0.91190375E+02</rscale>
<asrwt>0</asrwt>
<pdfrwt beam="2">  1        1 0.20883378E-01 0.91190375E+02</pdfrwt>
<pdfrwt beam="1">  1       -1 0.23561913E-02 0.91190375E+02</pdfrwt>
<totfact> 0.11007059E+05</totfact>
</mgrwt>
</event>
<event>
 7    1  0.2911475E-009  0.9160460E+02  0.7818608E-02  0.1299012E+00
         -1   -1    0    0    0  501 -0.00000000000E+00  0.00000000000E+00  0.27146882674E+01  0.27146929460E+01  0.50400000000E-02 0.  1.
          1   -1    0    0  501    0  0.00000000000E+00 -0.00000000000E+00 -0.77277711355E+03  0.77277711356E+03  0.50400000000E-02 0. -1.
         23    2    1    2    0    0  0.00000000000E+00  0.00000000000E+00 -0.77006242528E+03  0.77549180651E+03  0.91604602154E+02 0.  0.
    9000005    2    3    3    0    0  0.38740928958E+02  0.29337830266E+01 -0.58029875875E+03  0.58179173992E+03  0.15017076315E+02 0.  0.
         22    1    3    3    0    0 -0.38740928958E+02 -0.29337830266E+01 -0.18976366654E+03  0.19370006659E+03  0.00000000000E+00 0.  1.
         22    1    4    4    0    0  0.28446833550E+02  0.75798734119E+01 -0.46847637810E+03  0.46940046193E+03  0.00000000000E+00 0. -1.
         22    1    4    4    0    0  0.10294095407E+02 -0.46460903852E+01 -0.11182238064E+03  0.11239127799E+03  0.00000000000E+00 0. -1.
<mgrwt>
<rscale>  0 0.91604602E+02</rscale>
<asrwt>0</asrwt>
<pdfrwt beam="2">  1        1 0.11888861E+00 0.91604602E+02</pdfrwt>
<pdfrwt beam="1">  1       -1 0.41764533E-03 0.91604602E+02</pdfrwt>
<totfact> 0.13992900E+05</totfact>
</mgrwt>
</event>
<event>
 7    1  0.2911475E-009  0.8876106E+02  0.7818608E-02  0.1305880E+00
         -1   -1    0    0    0  501 -0.00000000000E+00  0.00000000000E+00  0.21008042985E+02  0.21008043590E+02  0.50400000000E-02 0.  1.
          1   -1    0    0  501    0  0.00000000000E+00 -0.00000000000E+00 -0.93756067614E+02  0.93756067750E+02  0.50400000000E-02 0. -1.
         23    2    1    2    0    0  0.00000000000E+00  0.00000000000E+00 -0.72748024629E+02  0.11476411134E+03  0.88761062207E+02 0.  0.
    9000005    2    3    3    0    0  0.42924756576E+01 -0.29360313965E+02  0.36926150990E+01  0.32766399265E+02  0.13399557124E+02 0.  0.
         22    1    3    3    0    0 -0.42924756576E+01  0.29360313965E+02 -0.76440639728E+02  0.81997712075E+02  0.00000000000E+00 0. -1.
         22    1    4    4    0    0 -0.40541543625E+01 -0.13973314587E+02  0.45383835629E+01  0.15240951857E+02  0.00000000000E+00 0. -1.
         22    1    4    4    0    0  0.83466300201E+01 -0.15386999378E+02 -0.84576846392E+00  0.17525447408E+02  0.00000000000E+00 0. -1.
<mgrwt>
<rscale>  0 0.88761062E+02</rscale>
<asrwt>0</asrwt>
<pdfrwt beam="2">  1        1 0.14424010E-01 0.88761062E+02</pdfrwt>
<pdfrwt beam="1">  1       -1 0.32320067E-02 0.88761062E+02</pdfrwt>
<totfact> 0.11118998E+05</totfact>
</mgrwt>
</event>
<event>
 7    1  0.2911475E-009  0.8989981E+02  0.7818608E-02  0.1303095E+00
         -1   -1    0    0    0  501 -0.00000000000E+00  0.00000000000E+00  0.76066402224E+02  0.76066402391E+02  0.50400000000E-02 0.  1.
          1   -1    0    0  501    0  0.00000000000E+00 -0.00000000000E+00 -0.26562237242E+02  0.26562237721E+02  0.50400000000E-02 0. -1.
         23    2    1    2    0    0  0.00000000000E+00  0.00000000000E+00  0.49504164982E+02  0.10262864011E+03  0.89899807679E+02 0.  0.
    9000005    2    3    3    0    0 -0.44257714207E+02 -0.56473832668E+01  0.22605062196E+02  0.50530656127E+02  0.71916734592E+01 0.  0.
         22    1    3    3    0    0  0.44257714207E+02  0.56473832668E+01  0.26899102786E+02  0.52097983985E+02  0.00000000000E+00 0.  1.
         22    1    4    4    0    0 -0.20916702815E+02 -0.41257311347E+01  0.14467175412E+02  0.25764884600E+02  0.00000000000E+00 0.  1.
         22    1    4    4    0    0 -0.23341011392E+02 -0.15216521320E+01  0.81378867833E+01  0.24765771527E+02  0.00000000000E+00 0.  1.
<mgrwt>
<rscale>  0 0.89899808E+02</rscale>
<asrwt>0</asrwt>
<pdfrwt beam="2">  1        1 0.40864981E-02 0.89899808E+02</pdfrwt>
<pdfrwt beam="1">  1       -1 0.11702523E-01 0.89899808E+02</pdfrwt>
<totfact> 0.88499639E+04</totfact>
</mgrwt>
</event>
<event>
 7    1  0.2911475E-009  0.8590810E+02  0.7818608E-02  0.1313075E+00
         -1   -1    0    0    0  501 -0.00000000000E+00  0.00000000000E+00  0.54331802723E+02  0.54331802956E+02  0.50400000000E-02 0.  1.
          1   -1    0    0  501    0  0.00000000000E+00 -0.00000000000E+00 -0.33958938796E+02  0.33958939170E+02  0.50400000000E-02 0. -1.
         23    2    1    2    0    0  0.00000000000E+00  0.00000000000E+00  0.20372863926E+02  0.88290742127E+02  0.85908099506E+02 0.  0.
    9000005    2    3    3    0    0  0.89771054453E+01  0.40657956775E+02  0.30895605627E+01  0.43208922660E+02  0.11126892722E+02 0.  0.
         22    1    3    3    0    0 -0.89771054453E+01 -0.40657956775E+02  0.17283303363E+02  0.45081819467E+02  0.00000000000E+00 0.  1.
         22    1    4    4    0    0 -0.10827757995E+01  0.36045528104E+01  0.30016987434E+01  0.48140834788E+01  0.00000000000E+00 0.  1.
         22    1    4    4    0    0  0.10059881245E+02  0.37053403965E+02  0.87861819257E-01  0.38394839181E+02  0.00000000000E+00 0.  1.
<mgrwt>
<rscale>  0 0.85908100E+02</rscale>
<asrwt>0</asrwt>
<pdfrwt beam="2">  1        1 0.52244522E-02 0.85908100E+02</pdfrwt>
<pdfrwt beam="1">  1       -1 0.83587389E-02 0.85908100E+02</pdfrwt>
<totfact> 0.10464036E+05</totfact>
</mgrwt>
</event>
<event>
 7    1  0.2911475E-009  0.9031968E+02  0.7818608E-02  0.1302079E+00
         -1   -1    0    0    0  501 -0.00000000000E+00  0.00000000000E+00  0.54837463753E+01  0.54837486914E+01  0.50400000000E-02 0.  1.
          1   -1    0    0  501    0  0.00000000000E+00 -0.00000000000E+00 -0.37190097662E+03  0.37190097665E+03  0.50400000000E-02 0. -1.
         23    2    1    2    0    0  0.00000000000E+00  0.00000000000E+00 -0.36641723024E+03  0.37738472534E+03  0.90319678387E+02 0.  0.
    9000005    2    3    3    0    0  0.24055241172E+02 -0.61995062076E+01 -0.33992829135E+03  0.34107009484E+03  0.12667984341E+02 0.  0.
         22    1    3    3    0    0 -0.24055241172E+02  0.61995062076E+01 -0.26488938889E+02  0.36314630502E+02  0.00000000000E+00 0.  1.
         22    1    4    4    0    0  0.33044624760E+01 -0.12486732231E+01 -0.13804942209E+02  0.14249739874E+02  0.00000000000E+00 0. -1.
         22    1    4    4    0    0  0.20750778696E+02 -0.49508329844E+01 -0.32612334914E+03  0.32682035497E+03  0.00000000000E+00 0. -1.
<mgrwt>
<rscale>  0 0.90319678E+02</rscale>
<asrwt>0</asrwt>
<pdfrwt beam="2">  1        1 0.57215515E-01 0.90319678E+02</pdfrwt>
<pdfrwt beam="1">  1       -1 0.84365376E-03 0.90319678E+02</pdfrwt>
<totfact> 0.13662656E+05</totfact>
</mgrwt>
</event>
<event>
 7    1  0.5163692E-009  0.9250510E+02  0.7818608E-02  0.1296896E+00
          1   -1    0    0  501    0  0.00000000000E+00  0.00000000000E+00  0.48514847043E+03  0.48514847045E+03  0.50400000000E-02 0. -1.
         -1   -1    0    0    0  501 -0.00000000000E+00 -0.00000000000E+00 -0.44095733110E+01  0.44095761913E+01  0.50400000000E-02 0.  1.
         23    2    1    2    0    0  0.88817841970E-15  0.00000000000E+00  0.48073889712E+03  0.48955804664E+03  0.92505101665E+02 0.  0.
    9000005    2    3    3    0    0  0.76102970809E+01 -0.20814032466E+02  0.45408864910E+03  0.45489717117E+03  0.15613921018E+02 0.  0.
         22    1    3    3    0    0 -0.76102970809E+01  0.20814032466E+02  0.26650248013E+02  0.34660875470E+02  0.00000000000E+00 0.  1.
         22    1    4    4    0    0  0.31082668562E+01  0.17571638976E+01  0.36344409479E+02  0.36519379078E+02  0.00000000000E+00 0. -1.
         22    1    4    4    0    0  0.45020302247E+01 -0.22571196364E+02  0.41774423962E+03  0.41837779210E+03  0.00000000000E+00 0. -1.
<mgrwt>
<rscale>  0 0.92505102E+02</rscale>
<asrwt>0</asrwt>
<pdfrwt beam="1">  1        1 0.74638242E-01 0.92505102E+02</pdfrwt>
<pdfrwt beam="2">  1       -1 0.67839598E-03 0.92505102E+02</pdfrwt>
<totfact> 0.13352981E+05</totfact>
</mgrwt>
</event>
<event>
 7    1  0.2911475E-009  0.1066409E+03  0.7818608E-02  0.1266920E+00
         -1   -1    0    0    0  501 -0.00000000000E+00  0.00000000000E+00  0.15414778312E+03  0.15414778320E+03  0.50400000000E-02 0.  1.
          1   -1    0    0  501    0  0.00000000000E+00 -0.00000000000E+00 -0.18443779969E+02  0.18443780658E+02  0.50400000000E-02 0. -1.
         23    2    1    2    0    0  0.00000000000E+00  0.00000000000E+00  0.13570400315E+03  0.17259156386E+03  0.10664085261E+03 0.  0.
    9000005    2    3    3    0    0 -0.25111155365E+02  0.41640285334E+02  0.35448634427E+02  0.61166151838E+02  0.10963984743E+02 0.  0.
         22    1    3    3    0    0  0.25111155365E+02 -0.41640285334E+02  0.10025536872E+03  0.11142541202E+03  0.00000000000E+00 0.  1.
         22    1    4    4    0    0 -0.15954931688E+02  0.27692120266E+02  0.29379618964E+02  0.43411696355E+02  0.00000000000E+00 0. -1.
         22    1    4    4    0    0 -0.91562236774E+01  0.13948165067E+02  0.60690154638E+01  0.17754455483E+02  0.00000000000E+00 0. -1.
<mgrwt>
<rscale>  0 0.10664085E+03</rscale>
<asrwt>0</asrwt>
<pdfrwt beam="2">  1        1 0.28375047E-02 0.10664085E+03</pdfrwt>
<pdfrwt beam="1">  1       -1 0.23715043E-01 0.10664085E+03</pdfrwt>
<totfact> 0.49394107E+04</totfact>
</mgrwt>
</event>
<event>
 7    1  0.2911475E-009  0.9266691E+02  0.7818608E-02  0.1296519E+00
          1   -1    0    0  501    0  0.00000000000E+00  0.00000000000E+00  0.10580271468E+02  0.10580272668E+02  0.50400000000E-02 0. -1.
         -1   -1    0    0    0  501 -0.00000000000E+00 -0.00000000000E+00 -0.20290489388E+03  0.20290489395E+03  0.50400000000E-02 0.  1.
         23    2    1    2    0    0  0.00000000000E+00  0.00000000000E+00 -0.19232462241E+03  0.21348516661E+03  0.92666908749E+02 0.  0.
    9000005    2    3    3    0    0 -0.14674746748E+02 -0.34313174397E+02 -0.15846781383E+03  0.16309642167E+03  0.97802153788E+01 0.  0.
         22    1    3    3    0    0  0.14674746748E+02  0.34313174397E+02 -0.33856808587E+02  0.50388744944E+02  0.00000000000E+00 0. -1.
         22    1    4    4    0    0 -0.97818674936E+01 -0.25893273808E+02 -0.97385458486E+02  0.10124264953E+03  0.00000000000E+00 0. -1.
         22    1    4    4    0    0 -0.48928792541E+01 -0.84199005890E+01 -0.61082355342E+02  0.61853772136E+02  0.00000000000E+00 0. -1.
<mgrwt>
<rscale>  0 0.92666909E+02</rscale>
<asrwt>0</asrwt>
<pdfrwt beam="1">  1        1 0.16277343E-02 0.92666909E+02</pdfrwt>
<pdfrwt beam="2">  1       -1 0.31216135E-01 0.92666909E+02</pdfrwt>
<totfact> 0.66273969E+04</totfact>
</mgrwt>
</event>
<event>
 7    1  0.2911475E-009  0.8429493E+02  0.7818608E-02  0.1317287E+00
         -1   -1    0    0    0  501 -0.00000000000E+00  0.00000000000E+00  0.11645178718E+02  0.11645179809E+02  0.50400000000E-02 0.  1.
          1   -1    0    0  501    0  0.00000000000E+00 -0.00000000000E+00 -0.15254455157E+03  0.15254455165E+03  0.50400000000E-02 0. -1.
         23    2    1    2    0    0  0.00000000000E+00  0.00000000000E+00 -0.14089937285E+03  0.16418973146E+03  0.84294926583E+02 0.  0.
    9000005    2    3    3    0    0  0.39297333555E+02 -0.59700464592E+01 -0.94298283427E+02  0.10293956073E+03  0.11156389492E+02 0.  0.
         22    1    3    3    0    0 -0.39297333555E+02  0.59700464592E+01 -0.46601089424E+02  0.61250170732E+02  0.00000000000E+00 0. -1.
         22    1    4    4    0    0  0.26916179754E+02 -0.89304673303E+01 -0.69539163065E+02  0.75099461910E+02  0.00000000000E+00 0.  1.
         22    1    4    4    0    0  0.12381153801E+02  0.29604208711E+01 -0.24759120361E+02  0.27840098819E+02  0.00000000000E+00 0.  1.
<mgrwt>
<rscale>  0 0.84294927E+02</rscale>
<asrwt>0</asrwt>
<pdfrwt beam="2">  1        1 0.23468391E-01 0.84294927E+02</pdfrwt>
<pdfrwt beam="1">  1       -1 0.17915662E-02 0.84294927E+02</pdfrwt>
<totfact> 0.13883761E+05</totfact>
</mgrwt>
</event>
<event>
 7    1  0.2911475E-009  0.9108071E+02  0.7818608E-02  0.1300256E+00
          1   -1    0    0  501    0  0.00000000000E+00  0.00000000000E+00  0.33049752087E+01  0.33049790516E+01  0.50400000000E-02 0. -1.
         -1   -1    0    0    0  501 -0.00000000000E+00 -0.00000000000E+00 -0.62751538923E+03  0.62751538925E+03  0.50400000000E-02 0.  1.
         23    2    1    2    0    0  0.00000000000E+00  0.00000000000E+00 -0.62421041403E+03  0.63082036831E+03  0.91080711965E+02 0.  0.
    9000005    2    3    3    0    0 -0.83427011262E+01 -0.82301199133E+01 -0.61685220230E+03  0.61698278125E+03  0.48762007683E+01 0.  0.
         22    1    3    3    0    0  0.83427011262E+01  0.82301199133E+01 -0.73582117237E+01  0.13837587060E+02  0.00000000000E+00 0. -1.
         22    1    4    4    0    0 -0.13686933377E+01 -0.84407731261E+00 -0.20135353130E+03  0.20135995221E+03  0.00000000000E+00 0.  1.
         22    1    4    4    0    0 -0.69740077885E+01 -0.73860426007E+01 -0.41549867101E+03  0.41562282904E+03  0.00000000000E+00 0.  1.
<mgrwt>
<rscale>  0 0.91080712E+02</rscale>
<asrwt>0</asrwt>
<pdfrwt beam="1">  1        1 0.50845852E-03 0.91080712E+02</pdfrwt>
<pdfrwt beam="2">  1       -1 0.96540735E-01 0.91080712E+02</pdfrwt>
<totfact> 0.40356336E+04</totfact>
</mgrwt>
</event>
<event>
 7    1  0.2911475E-009  0.9019556E+02  0.7818608E-02  0.1302379E+00
         -1   -1    0    0    0  501 -0.00000000000E+00  0.00000000000E+00  0.10332566192E+01  0.10332689111E+01  0.50400000000E-02 0.  1.
          1   -1    0    0  501    0  0.00000000000E+00 -0.00000000000E+00 -0.19683373817E+04  0.19683373817E+04  0.50400000000E-02 0. -1.
         23    2    1    2    0    0  0.00000000000E+00  0.00000000000E+00 -0.19673041250E+04  0.19693706506E+04  0.90195559500E+02 0.  0.
    9000005    2    3    3    0    0 -0.66686420925E+01  0.13075407846E+02 -0.19129732915E+04  0.19130920885E+04  0.15462469363E+02 0.  0.
         22    1    3    3    0    0  0.66686420925E+01 -0.13075407846E+02 -0.54330833513E+02  0.56278562063E+02  0.00000000000E+00 0.  1.
         22    1    4    4    0    0 -0.96157638129E+01  0.14970847048E+02 -0.16295550128E+04  0.16296521497E+04  0.00000000000E+00 0.  1.
         22    1    4    4    0    0  0.29471217204E+01 -0.18954392014E+01 -0.28341827869E+03  0.28343993880E+03  0.00000000000E+00 0.  1.
<mgrwt>
<rscale>  0 0.90195560E+02</rscale>
<asrwt>0</asrwt>
<pdfrwt beam="2">  1        1 0.30281814E+00 0.90195560E+02</pdfrwt>
<pdfrwt beam="1">  1       -1 0.15896508E-03 0.90195560E+02</pdfrwt>
<totfact> 0.84025560E+04</totfact>
</mgrwt>
</event>
<event>
 7    1  0.2911475E-009  0.9166692E+02  0.7818608E-02  0.1298864E+00
         -1   -1    0    0    0  501 -0.00000000000E+00  0.00000000000E+00  0.12322740488E+03  0.12322740498E+03  0.50400000000E-02 0.  1.
          1   -1    0    0  501    0  0.00000000000E+00 -0.00000000000E+00 -0.17047391571E+02  0.17047392316E+02  0.50400000000E-02 0. -1.
         23    2    1    2    0    0  0.00000000000E+00  0.00000000000E+00  0.10618001331E+03  0.14027479730E+03  0.91666916228E+02 0.  0.
    9000005    2    3    3    0    0  0.96916415076E+01 -0.22842542833E+02  0.11201032314E+03  0.11478554091E+03  0.37011126967E+01 0.  0.
         22    1    3    3    0    0 -0.96916415076E+01  0.22842542833E+02 -0.58303098317E+01  0.25489256382E+02  0.00000000000E+00 0. -1.
         22    1    4    4    0    0  0.84810315032E+01 -0.16322133841E+02  0.78631508888E+02  0.80754282478E+02  0.00000000000E+00 0.  1.
         22    1    4    4    0    0  0.12106100044E+01 -0.65204089918E+01  0.33378814251E+02  0.34031258437E+02  0.00000000000E+00 0.  1.
<mgrwt>
<rscale>  0 0.91666916E+02</rscale>
<asrwt>0</asrwt>
<pdfrwt beam="2">  1        1 0.26226757E-02 0.91666916E+02</pdfrwt>
<pdfrwt beam="1">  1       -1 0.18958062E-01 0.91666916E+02</pdfrwt>
<totfact> 0.77025548E+04</totfact>
</mgrwt>
</event>
<event>
 7    1  0.2911475E-009  0.9263619E+02  0.7818608E-02  0.1296591E+00
          1   -1    0    0  501    0  0.00000000000E+00  0.00000000000E+00  0.16698080912E+02  0.16698081673E+02  0.50400000000E-02 0. -1.
         -1   -1    0    0    0  501 -0.00000000000E+00 -0.00000000000E+00 -0.12847977326E+03  0.12847977336E+03  0.50400000000E-02 0.  1.
         23    2    1    2    0    0  0.00000000000E+00  0.00000000000E+00 -0.11178169235E+03  0.14517785503E+03  0.92636185412E+02 0.  0.
    9000005    2    3    3    0    0  0.27511020874E+02 -0.15809217852E+02 -0.10871870871E+03  0.11330044128E+03  0.32318311955E+01 0.  0.
         22    1    3    3    0    0 -0.27511020874E+02  0.15809217852E+02 -0.30629836394E+01  0.31877413750E+02  0.00000000000E+00 0. -1.
         22    1    4    4    0    0  0.72900245486E+01 -0.49523334363E+01 -0.25784820137E+02  0.27249348870E+02  0.00000000000E+00 0.  1.
         22    1    4    4    0    0  0.20220996326E+02 -0.10856884415E+02 -0.82933888573E+02  0.86051092413E+02  0.00000000000E+00 0.  1.
<mgrwt>
<rscale>  0 0.92636185E+02</rscale>
<asrwt>0</asrwt>
<pdfrwt beam="1">  1        1 0.25689357E-02 0.92636185E+02</pdfrwt>
<pdfrwt beam="2">  1       -1 0.19766118E-01 0.92636185E+02</pdfrwt>
<totfact> 0.74297547E+04</totfact>
</mgrwt>
</event>
<event>
 7    1  0.2911475E-009  0.1177660E+03  0.7818608E-02  0.1246829E+00
          1   -1    0    0  501    0  0.00000000000E+00  0.00000000000E+00  0.44224700559E+02  0.44224700846E+02  0.50400000000E-02 0. -1.
         -1   -1    0    0    0  501 -0.00000000000E+00 -0.00000000000E+00 -0.78399852499E+02  0.78399852661E+02  0.50400000000E-02 0.  1.
         23    2    1    2    0    0  0.00000000000E+00  0.00000000000E+00 -0.34175151940E+02  0.12262455351E+03  0.11776603973E+03 0.  0.
    9000005    2    3    3    0    0  0.50754485858E+02  0.28113392247E+02 -0.15448178623E+02  0.61656691580E+02  0.14018585363E+02 0.  0.
         22    1    3    3    0    0 -0.50754485858E+02 -0.28113392247E+02 -0.18726973317E+02  0.60967861927E+02  0.00000000000E+00 0.  1.
         22    1    4    4    0    0  0.49403547919E+02  0.23307198286E+02 -0.13297047180E+02  0.56220525635E+02  0.00000000000E+00 0.  1.
         22    1    4    4    0    0  0.13509379384E+01  0.48061939611E+01 -0.21511314426E+01  0.54361659456E+01  0.00000000000E+00 0.  1.
<mgrwt>
<rscale>  0 0.11776604E+03</rscale>
<asrwt>0</asrwt>
<pdfrwt beam="1">  1        1 0.68038001E-02 0.11776604E+03</pdfrwt>
<pdfrwt beam="2">  1       -1 0.12061516E-01 0.11776604E+03</pdfrwt>
<totfact> 0.44086065E+04</totfact>
</mgrwt>
</event>
<event>
 7    1  0.2911475E-009  0.9191852E+02  0.7818608E-02  0.1298271E+00
          1   -1    0    0  501    0  0.00000000000E+00  0.00000000000E+00  0.22588305012E+01  0.22588361239E+01  0.50400000000E-02 0. -1.
         -1   -1    0    0    0  501 -0.00000000000E+00 -0.00000000000E+00 -0.93510818393E+03  0.93510818394E+03  0.50400000000E-02 0.  1.
         23    2    1    2    0    0  0.17763568394E-14  0.00000000000E+00 -0.93284935343E+03  0.93736702007E+03  0.91918518905E+02 0.  0.
    9000005    2    3    3    0    0 -0.13413762144E+02 -0.13515033286E+02 -0.89201539727E+03  0.89231153077E+03  0.12876872793E+02 0.  0.
         22    1    3    3    0    0  0.13413762144E+02  0.13515033286E+02 -0.40833956160E+02  0.45055489291E+02  0.00000000000E+00 0. -1.
         22    1    4    4    0    0  0.20609978408E+01 -0.17264699933E+01 -0.50683511418E+02  0.50754770618E+02  0.00000000000E+00 0.  1.
         22    1    4    4    0    0 -0.15474759984E+02 -0.11788563292E+02 -0.84133188585E+03  0.84155676016E+03  0.00000000000E+00 0.  1.
<mgrwt>
<rscale>  0 0.91918519E+02</rscale>
<asrwt>0</asrwt>
<pdfrwt beam="1">  1        1 0.34751357E-03 0.91918519E+02</pdfrwt>
<pdfrwt beam="2">  1       -1 0.14386249E+00 0.91918519E+02</pdfrwt>
<totfact> 0.27153191E+04</totfact>
</mgrwt>
</event>
<event>
 7    1  0.2911475E-009  0.7865434E+02  0.7818608E-02  0.1332914E+00
         -1   -1    0    0    0  501 -0.00000000000E+00  0.00000000000E+00  0.25590270227E+02  0.25590270723E+02  0.50400000000E-02 0.  1.
          1   -1    0    0  501    0  0.00000000000E+00 -0.00000000000E+00 -0.60438061908E+02  0.60438062118E+02  0.50400000000E-02 0. -1.
         23    2    1    2    0    0  0.00000000000E+00  0.35527136788E-14 -0.34847791682E+02  0.86028332841E+02  0.78654341688E+02 0.  0.
    9000005    2    3    3    0    0  0.29459134052E+02 -0.24499262830E+02 -0.23115090514E+02  0.45957012236E+02  0.10473065736E+02 0.  0.
         22    1    3    3    0    0 -0.29459134052E+02  0.24499262830E+02 -0.11732701167E+02  0.40071320605E+02  0.00000000000E+00 0.  1.
         22    1    4    4    0    0  0.16356741340E+02 -0.16573929428E+02 -0.84996105964E+01  0.24788737447E+02  0.00000000000E+00 0.  1.
         22    1    4    4    0    0  0.13102392712E+02 -0.79253334019E+01 -0.14615479918E+02  0.21168274789E+02  0.00000000000E+00 0.  1.
<mgrwt>
<rscale>  0 0.78654342E+02</rscale>
<asrwt>0</asrwt>
<pdfrwt beam="2">  1        1 0.92981634E-02 0.78654342E+02</pdfrwt>
<pdfrwt beam="1">  1       -1 0.39369647E-02 0.78654342E+02</pdfrwt>
<totfact> 0.14465401E+05</totfact>
</mgrwt>
</event>
<event>
 7    1  0.2911475E-009  0.8690978E+02  0.7818608E-02  0.1310512E+00
          1   -1    0    0  501    0  0.00000000000E+00  0.00000000000E+00  0.19286855621E+02  0.19286856280E+02  0.50400000000E-02 0. -1.
         -1   -1    0    0    0  501 -0.00000000000E+00 -0.00000000000E+00 -0.97907487549E+02  0.97907487679E+02  0.50400000000E-02 0.  1.
         23    2    1    2    0    0  0.00000000000E+00  0.00000000000E+00 -0.78620631928E+02  0.11719434396E+03  0.86909783633E+02 0.  0.
    9000005    2    3    3    0    0 -0.54643103925E+01 -0.39065448463E+02 -0.16545662845E+02  0.43646606139E+02  0.86775178965E+01 0.  0.
         22    1    3    3    0    0  0.54643103925E+01  0.39065448463E+02 -0.62074969083E+02  0.73547737819E+02  0.00000000000E+00 0.  1.
         22    1    4    4    0    0 -0.38575336871E+01 -0.66158515389E+01 -0.13386268172E+01  0.77744439987E+01  0.00000000000E+00 0. -1.
         22    1    4    4    0    0 -0.16067767054E+01 -0.32449596924E+02 -0.15207036028E+02  0.35872162140E+02  0.00000000000E+00 0. -1.
<mgrwt>
<rscale>  0 0.86909784E+02</rscale>
<asrwt>0</asrwt>
<pdfrwt beam="1">  1        1 0.29672087E-02 0.86909784E+02</pdfrwt>
<pdfrwt beam="2">  1       -1 0.15062690E-01 0.86909784E+02</pdfrwt>
<totfact> 0.92396545E+04</totfact>
</mgrwt>
</event>
<event>
 7    1  0.2911475E-009  0.9560257E+02  0.7818608E-02  0.1289825E+00
          1   -1    0    0  501    0  0.00000000000E+00  0.00000000000E+00  0.20226498294E+03  0.20226498300E+03  0.50400000000E-02 0. -1.
         -1   -1    0    0    0  501 -0.00000000000E+00 -0.00000000000E+00 -0.11296878410E+02  0.11296879534E+02  0.50400000000E-02 0.  1.
         23    2    1    2    0    0  0.00000000000E+00  0.00000000000E+00  0.19096810453E+03  0.21356186253E+03  0.95602574140E+02 0.  0.
    9000005    2    3    3    0    0 -0.22725853244E+02  0.38007558928E+02  0.13461701898E+03  0.14189259587E+03  0.71223607719E+01 0.  0.
         22    1    3    3    0    0  0.22725853244E+02 -0.38007558928E+02  0.56351085545E+02  0.71669266659E+02  0.00000000000E+00 0.  1.
         22    1    4    4    0    0 -0.16374569661E+01  0.80521112533E+01  0.24172187008E+02  0.25530616634E+02  0.00000000000E+00 0. -1.
         22    1    4    4    0    0 -0.21088396278E+02  0.29955447675E+02  0.11044483197E+03  0.11636197924E+03  0.00000000000E+00 0. -1.
<mgrwt>
<rscale>  0 0.95602574E+02</rscale>
<asrwt>0</asrwt>
<pdfrwt beam="1">  1        1 0.31117689E-01 0.95602574E+02</pdfrwt>
<pdfrwt beam="2">  1       -1 0.17379814E-02 0.95602574E+02</pdfrwt>
<totfact> 0.10445919E+05</totfact>
</mgrwt>
</event>
<event>
 7    1  0.2911475E-009  0.9338207E+02  0.7818608E-02  0.1294862E+00
          1   -1    0    0  501    0  0.00000000000E+00  0.00000000000E+00  0.83550094534E+01  0.83550109736E+01  0.50400000000E-02 0. -1.
         -1   -1    0    0    0  501 -0.00000000000E+00 -0.00000000000E+00 -0.26092757016E+03  0.26092757021E+03  0.50400000000E-02 0.  1.
         23    2    1    2    0    0  0.00000000000E+00 -0.88817841970E-15 -0.25257256070E+03  0.26928258118E+03  0.93382065228E+02 0.  0.
    9000005    2    3    3    0    0 -0.41295078450E+02  0.59458243773E+01 -0.18325195146E+03  0.18837533059E+03  0.12780889246E+02 0.  0.
         22    1    3    3    0    0  0.41295078450E+02 -0.59458243773E+01 -0.69320609244E+02  0.80907250588E+02  0.00000000000E+00 0. -1.
         22    1    4    4    0    0 -0.37540957575E+02  0.91537548991E+01 -0.16533106037E+03  0.16978655497E+03  0.00000000000E+00 0. -1.
         22    1    4    4    0    0 -0.37541208752E+01 -0.32079305218E+01 -0.17920891088E+02  0.18588775624E+02  0.00000000000E+00 0. -1.
<mgrwt>
<rscale>  0 0.93382065E+02</rscale>
<asrwt>0</asrwt>
<pdfrwt beam="1">  1        1 0.12853864E-02 0.93382065E+02</pdfrwt>
<pdfrwt beam="2">  1       -1 0.40142697E-01 0.93382065E+02</pdfrwt>
<totfact> 0.59948299E+04</totfact>
</mgrwt>
</event>
<event>
 7    1  0.2911475E-009  0.8599016E+02  0.7818608E-02  0.1312863E+00
         -1   -1    0    0    0  501 -0.00000000000E+00  0.00000000000E+00  0.39001040161E+01  0.39001072727E+01  0.50400000000E-02 0.  1.
          1   -1    0    0  501    0  0.00000000000E+00 -0.00000000000E+00 -0.47398124914E+03  0.47398124916E+03  0.50400000000E-02 0. -1.
         23    2    1    2    0    0  0.00000000000E+00  0.00000000000E+00 -0.47008114512E+03  0.47788135644E+03  0.85990161248E+02 0.  0.
    9000005    2    3    3    0    0  0.17470805221E+02  0.37642176467E+02 -0.22587536853E+03  0.23017462701E+03  0.15443908996E+02 0.  0.
         22    1    3    3    0    0 -0.17470805221E+02 -0.37642176467E+02 -0.24420577659E+03  0.24770672943E+03  0.00000000000E+00 0. -1.
         22    1    4    4    0    0  0.19701915825E+01  0.19937424188E+02 -0.12467634774E+03  0.12627578637E+03  0.00000000000E+00 0.  1.
         22    1    4    4    0    0  0.15500613639E+02  0.17704752279E+02 -0.10119902079E+03  0.10389884063E+03  0.00000000000E+00 0.  1.
<mgrwt>
<rscale>  0 0.85990161E+02</rscale>
<asrwt>0</asrwt>
<pdfrwt beam="2">  1        1 0.72920147E-01 0.85990161E+02</pdfrwt>
<pdfrwt beam="1">  1       -1 0.60001663E-03 0.85990161E+02</pdfrwt>
<totfact> 0.16149582E+05</totfact>
</mgrwt>
</event>
<event>
 7    1  0.2911475E-009  0.9245498E+02  0.7818608E-02  0.1297013E+00
          1   -1    0    0  501    0  0.00000000000E+00  0.00000000000E+00  0.19875430498E+02  0.19875431137E+02  0.50400000000E-02 0. -1.
         -1   -1    0    0    0  501 -0.00000000000E+00 -0.00000000000E+00 -0.10751872024E+03  0.10751872036E+03  0.50400000000E-02 0.  1.
         23    2    1    2    0    0  0.00000000000E+00  0.00000000000E+00 -0.87643289745E+02  0.12739415150E+03  0.92454981469E+02 0.  0.
    9000005    2    3    3    0    0 -0.36649228827E+02 -0.26834530489E+02 -0.54653397645E+02  0.71255118900E+02  0.52000091471E+01 0.  0.
         22    1    3    3    0    0  0.36649228827E+02  0.26834530489E+02 -0.32989892101E+02  0.56139032598E+02  0.00000000000E+00 0. -1.
         22    1    4    4    0    0 -0.17825351339E+02 -0.16197061664E+02 -0.27945430230E+02  0.36892208224E+02  0.00000000000E+00 0.  1.
         22    1    4    4    0    0 -0.18823877488E+02 -0.10637468826E+02 -0.26707967415E+02  0.34362910676E+02  0.00000000000E+00 0.  1.
<mgrwt>
<rscale>  0 0.92454981E+02</rscale>
<asrwt>0</asrwt>
<pdfrwt beam="1">  1        1 0.30577587E-02 0.92454981E+02</pdfrwt>
<pdfrwt beam="2">  1       -1 0.16541341E-01 0.92454981E+02</pdfrwt>
<totfact> 0.77427229E+04</totfact>
</mgrwt>
</event>
<event>
 7    1  0.2911475E-009  0.8859893E+02  0.7818608E-02  0.1306280E+00
         -1   -1    0    0    0  501 -0.00000000000E+00  0.00000000000E+00  0.44470664882E+02  0.44470665167E+02  0.50400000000E-02 0.  1.
          1   -1    0    0  501    0  0.00000000000E+00 -0.00000000000E+00 -0.44128926557E+02  0.44128926845E+02  0.50400000000E-02 0. -1.
         23    2    1    2    0    0  0.00000000000E+00  0.35527136788E-14  0.34173832455E+00  0.88599592012E+02  0.88598932949E+02 0.  0.
    9000005    2    3    3    0    0 -0.54573253123E+01 -0.18733852860E+02 -0.39114007241E+02  0.44582600967E+02  0.87728617946E+01 0.  0.
         22    1    3    3    0    0  0.54573253123E+01  0.18733852860E+02  0.39455745565E+02  0.44016991045E+02  0.00000000000E+00 0.  1.
         22    1    4    4    0    0  0.41969108925E+00 -0.69335324227E+01 -0.69696364344E+01  0.98400124235E+01  0.00000000000E+00 0.  1.
         22    1    4    4    0    0 -0.58770164016E+01 -0.11800320437E+02 -0.32144370806E+02  0.34742588544E+02  0.00000000000E+00 0.  1.
<mgrwt>
<rscale>  0 0.88598933E+02</rscale>
<asrwt>0</asrwt>
<pdfrwt beam="2">  1        1 0.67890657E-02 0.88598933E+02</pdfrwt>
<pdfrwt beam="1">  1       -1 0.68416408E-02 0.88598933E+02</pdfrwt>
<totfact> 0.99721525E+04</totfact>
</mgrwt>
</event>
<event>
 7    1  0.2911475E-009  0.8798691E+02  0.7818608E-02  0.1307801E+00
          1   -1    0    0  501    0  0.00000000000E+00  0.00000000000E+00  0.26575489276E+03  0.26575489280E+03  0.50400000000E-02 0. -1.
         -1   -1    0    0    0  501 -0.00000000000E+00 -0.00000000000E+00 -0.72827405494E+01  0.72827422934E+01  0.50400000000E-02 0.  1.
         23    2    1    2    0    0  0.00000000000E+00  0.00000000000E+00  0.25847215221E+03  0.27303763510E+03  0.87986912170E+02 0.  0.
    9000005    2    3    3    0    0 -0.81539894699E+01 -0.32420558820E+02  0.21795965323E+03  0.22051294803E+03  0.14034362668E+01 0.  0.
         22    1    3    3    0    0  0.81539894699E+01  0.32420558820E+02  0.40512498979E+02  0.52524687071E+02  0.00000000000E+00 0.  1.
         22    1    4    4    0    0 -0.10697849782E+00 -0.18822068067E+00  0.21991383181E+01  0.22097693920E+01  0.00000000000E+00 0. -1.
         22    1    4    4    0    0 -0.80470109721E+01 -0.32232338139E+02  0.21576051491E+03  0.21830317863E+03  0.00000000000E+00 0. -1.
<mgrwt>
<rscale>  0 0.87986912E+02</rscale>
<asrwt>0</asrwt>
<pdfrwt beam="1">  1        1 0.40885372E-01 0.87986912E+02</pdfrwt>
<pdfrwt beam="2">  1       -1 0.11204217E-02 0.87986912E+02</pdfrwt>
<totfact> 0.13760272E+05</totfact>
</mgrwt>
</event>
<event>
 7    1  0.2911475E-009  0.9430655E+02  0.7818608E-02  0.1292746E+00
          1   -1    0    0  501    0  0.00000000000E+00  0.00000000000E+00  0.88529229081E+02  0.88529229224E+02  0.50400000000E-02 0. -1.
         -1   -1    0    0    0  501 -0.00000000000E+00 -0.00000000000E+00 -0.25115222843E+02  0.25115223348E+02  0.50400000000E-02 0.  1.
         23    2    1    2    0    0  0.00000000000E+00  0.35527136788E-14  0.63414006238E+02  0.11364445257E+03  0.94306550214E+02 0.  0.
    9000005    2    3    3    0    0 -0.33428200849E+02  0.26796275291E+02  0.11143988339E+02  0.46060136695E+02  0.12722528631E+02 0.  0.
         22    1    3    3    0    0  0.33428200849E+02 -0.26796275291E+02  0.52270017899E+02  0.67584315878E+02  0.00000000000E+00 0. -1.
         22    1    4    4    0    0 -0.29665227776E+02  0.27481785249E+02  0.11916988518E+02  0.42157904061E+02  0.00000000000E+00 0.  1.
         22    1    4    4    0    0 -0.37629730731E+01 -0.68550995782E+00 -0.77300017958E+00  0.39022326338E+01  0.00000000000E+00 0.  1.
<mgrwt>
<rscale>  0 0.94306550E+02</rscale>
<asrwt>0</asrwt>
<pdfrwt beam="1">  1        1 0.13619882E-01 0.94306550E+02</pdfrwt>
<pdfrwt beam="2">  1       -1 0.38638805E-02 0.94306550E+02</pdfrwt>
<totfact> 0.93329095E+04</totfact>
</mgrwt>
</event>
<event>
 7    1  0.2911475E-009  0.8640423E+02  0.7818608E-02  0.1311801E+00
          1   -1    0    0  501    0  0.00000000000E+00  0.00000000000E+00  0.14460262644E+02  0.14460263522E+02  0.50400000000E-02 0. -1.
         -1   -1    0    0    0  501 -0.00000000000E+00 -0.00000000000E+00 -0.12907251996E+03  0.12907252006E+03  0.50400000000E-02 0.  1.
         23    2    1    2    0    0  0.17763568394E-14  0.71054273576E-14 -0.11461225731E+03  0.14353278358E+03  0.86404226952E+02 0.  0.
    9000005    2    3    3    0    0  0.12277399707E+02  0.35056404138E+02 -0.92603000671E+02  0.10035763572E+03  0.10800615698E+02 0.  0.
         22    1    3    3    0    0 -0.12277399707E+02 -0.35056404138E+02 -0.22009256644E+02  0.43175147859E+02  0.00000000000E+00 0. -1.
         22    1    4    4    0    0  0.78688733031E+01  0.16392117218E+02 -0.32150888959E+02  0.36936436412E+02  0.00000000000E+00 0. -1.
         22    1    4    4    0    0  0.44085264036E+01  0.18664286919E+02 -0.60452111712E+02  0.63421199308E+02  0.00000000000E+00 0. -1.
<mgrwt>
<rscale>  0 0.86404227E+02</rscale>
<asrwt>0</asrwt>
<pdfrwt beam="1">  1        1 0.22246559E-02 0.86404227E+02</pdfrwt>
<pdfrwt beam="2">  1       -1 0.19857310E-01 0.86404227E+02</pdfrwt>
<totfact> 0.88868823E+04</totfact>
</mgrwt>
</event>
<event>
 7    1  0.2911475E-009  0.9317666E+02  0.7818608E-02  0.1295336E+00
          1   -1    0    0  501    0  0.00000000000E+00  0.00000000000E+00  0.10160650454E+03  0.10160650467E+03  0.50400000000E-02 0. -1.
         -1   -1    0    0    0  501 -0.00000000000E+00 -0.00000000000E+00 -0.21361551913E+02  0.21361552507E+02  0.50400000000E-02 0.  1.
         23    2    1    2    0    0  0.00000000000E+00  0.00000000000E+00  0.80244952631E+02  0.12296805718E+03  0.93176663725E+02 0.  0.
    9000005    2    3    3    0    0 -0.42438009430E+02 -0.41363269199E+01  0.64494512818E+02  0.77512912263E+02  0.55331310300E+01 0.  0.
         22    1    3    3    0    0  0.42438009430E+02  0.41363269199E+01  0.15750439813E+02  0.45455144913E+02  0.00000000000E+00 0. -1.
         22    1    4    4    0    0 -0.12595988313E+02 -0.32494683463E+01  0.16848400427E+02  0.21285830100E+02  0.00000000000E+00 0. -1.
         22    1    4    4    0    0 -0.29842021118E+02 -0.88685857359E+00  0.47646112391E+02  0.56227082163E+02  0.00000000000E+00 0. -1.
<mgrwt>
<rscale>  0 0.93176664E+02</rscale>
<asrwt>0</asrwt>
<pdfrwt beam="1">  1        1 0.15631770E-01 0.93176664E+02</pdfrwt>
<pdfrwt beam="2">  1       -1 0.32863927E-02 0.93176664E+02</pdfrwt>
<totfact> 0.98703982E+04</totfact>
</mgrwt>
</event>
<event>
 7    1  0.2911475E-009  0.9183653E+02  0.7818608E-02  0.1298464E+00
         -1   -1    0    0    0  501 -0.00000000000E+00  0.00000000000E+00  0.57669657574E+01  0.57669679597E+01  0.50400000000E-02 0.  1.
          1   -1    0    0  501    0  0.00000000000E+00 -0.00000000000E+00 -0.36561454261E+03  0.36561454265E+03  0.50400000000E-02 0. -1.
         23    2    1    2    0    0 -0.35527136788E-14  0.00000000000E+00 -0.35984757686E+03  0.37138151061E+03  0.91836527876E+02 0.  0.
    9000005    2    3    3    0    0 -0.23809131072E+02  0.33843358982E+02 -0.25610227538E+03  0.25968847032E+03  0.11725122366E+02 0.  0.
         22    1    3    3    0    0  0.23809131072E+02 -0.33843358982E+02 -0.10374530148E+03  0.11169304028E+03  0.00000000000E+00 0.  1.
         22    1    4    4    0    0 -0.11414158777E+01  0.10061452178E+02 -0.64413960930E+02  0.65205015243E+02  0.00000000000E+00 0. -1.
         22    1    4    4    0    0 -0.22667715194E+02  0.23781906804E+02 -0.19168831445E+03  0.19448345508E+03  0.00000000000E+00 0. -1.
<mgrwt>
<rscale>  0 0.91836528E+02</rscale>
<asrwt>0</asrwt>
<pdfrwt beam="2">  1        1 0.56248373E-01 0.91836528E+02</pdfrwt>
<pdfrwt beam="1">  1       -1 0.88722596E-03 0.91836528E+02</pdfrwt>
<totfact> 0.13032707E+05</totfact>
</mgrwt>
</event>
<event>
 7    1  0.2911475E-009  0.9108955E+02  0.7818608E-02  0.1300234E+00
          1   -1    0    0  501    0  0.00000000000E+00  0.00000000000E+00  0.24053761390E+02  0.24053761918E+02  0.50400000000E-02 0. -1.
         -1   -1    0    0    0  501 -0.00000000000E+00 -0.00000000000E+00 -0.86237101256E+02  0.86237101404E+02  0.50400000000E-02 0.  1.
         23    2    1    2    0    0 -0.35527136788E-14  0.71054273576E-14 -0.62183339866E+02  0.11029086332E+03  0.91089553601E+02 0.  0.
    9000005    2    3    3    0    0 -0.22159628807E+02  0.28036098121E+02 -0.65010385495E+02  0.74443072125E+02  0.61926422783E+01 0.  0.
         22    1    3    3    0    0  0.22159628807E+02 -0.28036098121E+02  0.28270456288E+01  0.35847791197E+02  0.00000000000E+00 0. -1.
         22    1    4    4    0    0 -0.56776007331E+01  0.10905915421E+02 -0.18559016802E+02  0.22262327954E+02  0.00000000000E+00 0. -1.
         22    1    4    4    0    0 -0.16482028074E+02  0.17130182700E+02 -0.46451368693E+02  0.52180744171E+02  0.00000000000E+00 0. -1.
<mgrwt>
<rscale>  0 0.91089554E+02</rscale>
<asrwt>0</asrwt>
<pdfrwt beam="1">  1        1 0.37005788E-02 0.91089554E+02</pdfrwt>
<pdfrwt beam="2">  1       -1 0.13267246E-01 0.91089554E+02</pdfrwt>
<totfact> 0.83772988E+04</totfact>
</mgrwt>
</event>
<event>
 7    1  0.2911475E-009  0.9212266E+02  0.7818608E-02  0.1297791E+00
         -1   -1    0    0    0  501 -0.00000000000E+00  0.00000000000E+00  0.42924528204E+01  0.42924557793E+01  0.50400000000E-02 0.  1.
          1   -1    0    0  501    0  0.00000000000E+00 -0.00000000000E+00 -0.49427344231E+03  0.49427344233E+03  0.50400000000E-02 0. -1.
         23    2    1    2    0    0  0.00000000000E+00 -0.44408920985E-15 -0.48998098949E+03  0.49856589811E+03  0.92122661175E+02 0.  0.
    9000005    2    3    3    0    0  0.35806902005E+02 -0.27023736557E+01 -0.40066171727E+03  0.40229872071E+03  0.50011948023E+01 0.  0.
         22    1    3    3    0    0 -0.35806902005E+02  0.27023736557E+01 -0.89319272223E+02  0.96267177402E+02  0.00000000000E+00 0.  1.
         22    1    4    4    0    0  0.69437278987E+01 -0.23663419614E+00 -0.57984086307E+02  0.58398849455E+02  0.00000000000E+00 0. -1.
         22    1    4    4    0    0  0.28863174106E+02 -0.24657394596E+01 -0.34267763096E+03  0.34389987126E+03  0.00000000000E+00 0. -1.
<mgrwt>
<rscale>  0 0.92122661E+02</rscale>
<asrwt>0</asrwt>
<pdfrwt beam="2">  1        1 0.76042023E-01 0.92122661E+02</pdfrwt>
<pdfrwt beam="1">  1       -1 0.66037798E-03 0.92122661E+02</pdfrwt>
<totfact> 0.13531809E+05</totfact>
</mgrwt>
</event>
<event>
 7    1  0.2911475E-009  0.8880420E+02  0.7818608E-02  0.1305774E+00
         -1   -1    0    0    0  501 -0.00000000000E+00  0.00000000000E+00  0.32873818868E+02  0.32873819255E+02  0.50400000000E-02 0.  1.
          1   -1    0    0  501    0  0.00000000000E+00 -0.00000000000E+00 -0.59973151305E+02  0.59973151517E+02  0.50400000000E-02 0. -1.
         23    2    1    2    0    0  0.00000000000E+00  0.00000000000E+00 -0.27099332437E+02  0.92846970772E+02  0.88804201269E+02 0.  0.
    9000005    2    3    3    0    0  0.21351625250E+02 -0.48867724131E+01 -0.53208763332E+02  0.58766553711E+02  0.11939970446E+02 0.  0.
         22    1    3    3    0    0 -0.21351625250E+02  0.48867724131E+01  0.26109430895E+02  0.34080417062E+02  0.00000000000E+00 0.  1.
         22    1    4    4    0    0  0.13306845026E+02 -0.90386099693E+00 -0.17828913429E+02  0.22265651648E+02  0.00000000000E+00 0.  1.
         22    1    4    4    0    0  0.80447802233E+01 -0.39829114162E+01 -0.35379849904E+02  0.36500902063E+02  0.00000000000E+00 0.  1.
<mgrwt>
<rscale>  0 0.88804201E+02</rscale>
<asrwt>0</asrwt>
<pdfrwt beam="2">  1        1 0.92266387E-02 0.88804201E+02</pdfrwt>
<pdfrwt beam="1">  1       -1 0.50575107E-02 0.88804201E+02</pdfrwt>
<totfact> 0.10365545E+05</totfact>
</mgrwt>
</event>
<event>
 7    1  0.2911475E-009  0.8916406E+02  0.7818608E-02  0.1304889E+00
         -1   -1    0    0    0  501 -0.00000000000E+00  0.00000000000E+00  0.73545982492E+01  0.73545999761E+01  0.50400000000E-02 0.  1.
          1   -1    0    0  501    0  0.00000000000E+00 -0.00000000000E+00 -0.27024689355E+03  0.27024689360E+03  0.50400000000E-02 0. -1.
         23    2    1    2    0    0  0.71054273576E-14  0.00000000000E+00 -0.26289229530E+03  0.27760149358E+03  0.89164063981E+02 0.  0.
    9000005    2    3    3    0    0 -0.32486077825E+02 -0.75701180490E+01 -0.22160238623E+03  0.22452128511E+03  0.13767277996E+02 0.  0.
         22    1    3    3    0    0  0.32486077825E+02  0.75701180490E+01 -0.41289909069E+02  0.53080208465E+02  0.00000000000E+00 0.  1.
         22    1    4    4    0    0 -0.32931594803E+02 -0.81249107746E+01 -0.22100350532E+03  0.22359126431E+03  0.00000000000E+00 0.  1.
         22    1    4    4    0    0  0.44551697752E+00  0.55479272564E+00 -0.59888091753E+00  0.93002080571E+00  0.00000000000E+00 0.  1.
<mgrwt>
<rscale>  0 0.89164064E+02</rscale>
<asrwt>0</asrwt>
<pdfrwt beam="2">  1        1 0.41576438E-01 0.89164064E+02</pdfrwt>
<pdfrwt beam="1">  1       -1 0.11314770E-02 0.89164064E+02</pdfrwt>
<totfact> 0.13325762E+05</totfact>
</mgrwt>
</event>
<event>
 7    1  0.2911475E-009  0.9005092E+02  0.7818608E-02  0.1302728E+00
          1   -1    0    0  501    0  0.00000000000E+00  0.00000000000E+00  0.86816594314E+01  0.86816608944E+01  0.50400000000E-02 0. -1.
         -1   -1    0    0    0  501 -0.00000000000E+00 -0.00000000000E+00 -0.23351431681E+03  0.23351431686E+03  0.50400000000E-02 0.  1.
         23    2    1    2    0    0  0.35527136788E-14  0.00000000000E+00 -0.22483265738E+03  0.24219597776E+03  0.90050917922E+02 0.  0.
    9000005    2    3    3    0    0 -0.20135684647E+02 -0.10424861391E+02 -0.21622863277E+03  0.21794411658E+03  0.15188574330E+02 0.  0.
         22    1    3    3    0    0  0.20135684647E+02  0.10424861391E+02 -0.86040246074E+01  0.24251861180E+02  0.00000000000E+00 0. -1.
         22    1    4    4    0    0 -0.10243774117E+02 -0.12917709351E+02 -0.11028123781E+03  0.11150674211E+03  0.00000000000E+00 0. -1.
         22    1    4    4    0    0 -0.98919105300E+01  0.24928479600E+01 -0.10594739496E+03  0.10643737446E+03  0.00000000000E+00 0. -1.
<mgrwt>
<rscale>  0 0.90050918E+02</rscale>
<asrwt>0</asrwt>
<pdfrwt beam="1">  1        1 0.13356402E-02 0.90050918E+02</pdfrwt>
<pdfrwt beam="2">  1       -1 0.35925275E-01 0.90050918E+02</pdfrwt>
<totfact> 0.68420244E+04</totfact>
</mgrwt>
</event>
<event>
 7    1  0.2911475E-009  0.9311220E+02  0.7818608E-02  0.1295485E+00
         -1   -1    0    0    0  501 -0.00000000000E+00  0.00000000000E+00  0.15417394625E+02  0.15417395448E+02  0.50400000000E-02 0.  1.
          1   -1    0    0  501    0  0.00000000000E+00 -0.00000000000E+00 -0.14058603098E+03  0.14058603107E+03  0.50400000000E-02 0. -1.
         23    2    1    2    0    0 -0.35527136788E-14  0.71054273576E-14 -0.12516863635E+03  0.15600342651E+03  0.93112198762E+02 0.  0.
    9000005    2    3    3    0    0  0.27424588378E+02 -0.35086099001E+02 -0.81172550508E+02  0.93403123318E+02  0.12329561988E+02 0.  0.
         22    1    3    3    0    0 -0.27424588378E+02  0.35086099001E+02 -0.43996085844E+02  0.62600303197E+02  0.00000000000E+00 0.  1.
         22    1    4    4    0    0  0.15864033230E+01 -0.99237380782E+01 -0.15345507600E+02  0.18343441783E+02  0.00000000000E+00 0. -1.
         22    1    4    4    0    0  0.25838185055E+02 -0.25162360923E+02 -0.65827042908E+02  0.75059681535E+02  0.00000000000E+00 0. -1.
<mgrwt>
<rscale>  0 0.93112199E+02</rscale>
<asrwt>0</asrwt>
<pdfrwt beam="2">  1        1 0.21628619E-01 0.93112199E+02</pdfrwt>
<pdfrwt beam="1">  1       -1 0.23719070E-02 0.93112199E+02</pdfrwt>
<totfact> 0.10468805E+05</totfact>
</mgrwt>
</event>
<event>
 6    1  0.2911475E-009  0.7203710E+03  0.7818608E-02  0.9683016E-01
          1   -1    0    0  501    0  0.00000000000E+00  0.00000000000E+00  0.74218781334E+03  0.74218781336E+03  0.50400000000E-02 0. -1.
         -1   -1    0    0    0  501 -0.00000000000E+00 -0.00000000000E+00 -0.17479887143E+03  0.17479887151E+03  0.50400000000E-02 0.  1.
    9000005    2    1    2    0    0 -0.14962480922E+03  0.12671564486E+03  0.66828423604E+03  0.69647750464E+03  0.57145551784E+01 0.  0.
         22    1    1    2    0    0  0.14962480922E+03 -0.12671564486E+03 -0.10089529413E+03  0.22050918022E+03  0.00000000000E+00 0.  1.
         22    1    3    3    0    0 -0.63756008561E+01  0.60608488004E+01  0.26386507135E+02  0.27814203803E+02  0.00000000000E+00 0. -1.
         22    1    3    3    0    0 -0.14324920836E+03  0.12065479606E+03  0.64189772891E+03  0.66866330083E+03  0.00000000000E+00 0. -1.
<mgrwt>
<rscale>  0 0.72037099E+03</rscale>
<asrwt>0</asrwt>
<pdfrwt beam="1">  1        1 0.11418274E+00 0.72037099E+03</pdfrwt>
<pdfrwt beam="2">  1       -1 0.26892134E-01 0.72037099E+03</pdfrwt>
<totfact> 0.31085107E+02</totfact>
</mgrwt>
</event>
<event>
 7    1  0.2911475E-009  0.9114475E+02  0.7818608E-02  0.1300103E+00
          1   -1    0    0  501    0  0.00000000000E+00  0.00000000000E+00  0.44238017161E+02  0.44238017448E+02  0.50400000000E-02 0. -1.
         -1   -1    0    0    0  501 -0.00000000000E+00 -0.00000000000E+00 -0.46946978358E+02  0.46946978629E+02  0.50400000000E-02 0.  1.
         23    2    1    2    0    0  0.00000000000E+00  0.00000000000E+00 -0.27089611970E+01  0.91184996077E+02  0.91144747730E+02 0.  0.
    9000005    2    3    3    0    0 -0.82591738230E+01  0.35570194480E+02  0.24977480192E+02  0.45359329422E+02  0.10007075559E+02 0.  0.
         22    1    3    3    0    0  0.82591738230E+01 -0.35570194480E+02 -0.27686441389E+02  0.45825666655E+02  0.00000000000E+00 0.  1.
         22    1    4    4    0    0 -0.95325732025E+01  0.19221148922E+02  0.14650165905E+02  0.25979797513E+02  0.00000000000E+00 0.  1.
         22    1    4    4    0    0  0.12733993795E+01  0.16349045558E+02  0.10327314287E+02  0.19379531909E+02  0.00000000000E+00 0.  1.
<mgrwt>
<rscale>  0 0.91144748E+02</rscale>
<asrwt>0</asrwt>
<pdfrwt beam="1">  1        1 0.68058488E-02 0.91144748E+02</pdfrwt>
<pdfrwt beam="2">  1       -1 0.72226121E-02 0.91144748E+02</pdfrwt>
<totfact> 0.92146060E+04</totfact>
</mgrwt>
</event>
<event>
 7    1  0.2911475E-009  0.9122066E+02  0.7818608E-02  0.1299922E+00
         -1   -1    0    0    0  501 -0.00000000000E+00  0.00000000000E+00  0.36696502924E+03  0.36696502927E+03  0.50400000000E-02 0.  1.
          1   -1    0    0  501    0  0.00000000000E+00 -0.00000000000E+00 -0.56689371039E+01  0.56689393443E+01  0.50400000000E-02 0. -1.
         23    2    1    2    0    0  0.00000000000E+00  0.88817841970E-15  0.36129609214E+03  0.37263396862E+03  0.91220657616E+02 0.  0.
    9000005    2    3    3    0    0 -0.44125632494E+02 -0.76343667226E+01  0.18677895129E+03  0.19246297360E+03  0.12258244673E+02 0.  0.
         22    1    3    3    0    0  0.44125632494E+02  0.76343667226E+01  0.17451714084E+03  0.18017099502E+03  0.00000000000E+00 0. -1.
         22    1    4    4    0    0 -0.62130066157E+00 -0.53657805501E+00  0.18133167181E+02  0.18151740483E+02  0.00000000000E+00 0. -1.
         22    1    4    4    0    0 -0.43504331832E+02 -0.70977886676E+01  0.16864578411E+03  0.17431123312E+03  0.00000000000E+00 0. -1.
<mgrwt>
<rscale>  0 0.91220658E+02</rscale>
<asrwt>0</asrwt>
<pdfrwt beam="2">  1        1 0.87214431E-03 0.91220658E+02</pdfrwt>
<pdfrwt beam="1">  1       -1 0.56456161E-01 0.91220658E+02</pdfrwt>
<totfact> 0.55501086E+04</totfact>
</mgrwt>
</event>
<event>
 7    1  0.2911475E-009  0.8940743E+02  0.7818608E-02  0.1304293E+00
         -1   -1    0    0    0  501 -0.00000000000E+00  0.00000000000E+00  0.38533335233E+03  0.38533335236E+03  0.50400000000E-02 0.  1.
          1   -1    0    0  501    0  0.00000000000E+00 -0.00000000000E+00 -0.51862154301E+01  0.51862178791E+01  0.50400000000E-02 0. -1.
         23    2    1    2    0    0  0.00000000000E+00  0.00000000000E+00  0.38014713690E+03  0.39051957024E+03  0.89407432850E+02 0.  0.
    9000005    2    3    3    0    0  0.10420214488E+02 -0.38582724095E+02  0.27061906091E+03  0.27392794576E+03  0.14305099567E+02 0.  0.
         22    1    3    3    0    0 -0.10420214488E+02  0.38582724095E+02  0.10952807599E+03  0.11659162448E+03  0.00000000000E+00 0. -1.
         22    1    4    4    0    0  0.31637690587E+01 -0.10704346511E+01  0.10517127843E+02  0.11034728953E+02  0.00000000000E+00 0.  1.
         22    1    4    4    0    0  0.72564454294E+01 -0.37512289444E+02  0.26010193307E+03  0.26289321681E+03  0.00000000000E+00 0.  1.
<mgrwt>
<rscale>  0 0.89407433E+02</rscale>
<asrwt>0</asrwt>
<pdfrwt beam="2">  1        1 0.79787947E-03 0.89407433E+02</pdfrwt>
<pdfrwt beam="1">  1       -1 0.59282055E-01 0.89407433E+02</pdfrwt>
<totfact> 0.57144479E+04</totfact>
</mgrwt>
</event>
<event>
 7    1  0.2911475E-009  0.9481551E+02  0.7818608E-02  0.1291592E+00
          1   -1    0    0  501    0  0.00000000000E+00  0.00000000000E+00  0.90147511672E+02  0.90147511813E+02  0.50400000000E-02 0. -1.
         -1   -1    0    0    0  501 -0.00000000000E+00 -0.00000000000E+00 -0.24931304873E+02  0.24931305382E+02  0.50400000000E-02 0.  1.
         23    2    1    2    0    0  0.00000000000E+00  0.00000000000E+00  0.65216206799E+02  0.11507881720E+03  0.94815507897E+02 0.  0.
    9000005    2    3    3    0    0  0.41521232270E+02 -0.10847823702E+01  0.54622182407E+01  0.42307060101E+02  0.59044071851E+01 0.  0.
         22    1    3    3    0    0 -0.41521232270E+02  0.10847823702E+01  0.59753988559E+02  0.72771757095E+02  0.00000000000E+00 0. -1.
         22    1    4    4    0    0  0.20324309847E+02 -0.81761371264E+00  0.56382544056E+01  0.21107723129E+02  0.00000000000E+00 0.  1.
         22    1    4    4    0    0  0.21196922423E+02 -0.26716865756E+00 -0.17603616491E+00  0.21199336971E+02  0.00000000000E+00 0.  1.
<mgrwt>
<rscale>  0 0.94815508E+02</rscale>
<asrwt>0</asrwt>
<pdfrwt beam="1">  1        1 0.13868848E-01 0.94815508E+02</pdfrwt>
<pdfrwt beam="2">  1       -1 0.38355854E-02 0.94815508E+02</pdfrwt>
<totfact> 0.92232884E+04</totfact>
</mgrwt>
</event>
<event>
 7    1  0.2911475E-009  0.9167977E+02  0.7818608E-02  0.1298834E+00
         -1   -1    0    0    0  501 -0.00000000000E+00  0.00000000000E+00  0.39875458988E+02  0.39875459307E+02  0.50400000000E-02 0.  1.
          1   -1    0    0  501    0  0.00000000000E+00 -0.00000000000E+00 -0.52696452941E+02  0.52696453182E+02  0.50400000000E-02 0. -1.
         23    2    1    2    0    0 -0.71054273576E-14  0.00000000000E+00 -0.12820993952E+02  0.92571912488E+02  0.91679774737E+02 0.  0.
    9000005    2    3    3    0    0  0.44671970539E+02  0.57285674652E+01  0.12001063837E+01  0.45402084296E+02  0.56131600786E+01 0.  0.
         22    1    3    3    0    0 -0.44671970539E+02 -0.57285674652E+01 -0.14021100336E+02  0.47169828192E+02  0.00000000000E+00 0. -1.
         22    1    4    4    0    0  0.38554840114E+02  0.54656926712E+01 -0.83697438270E+00  0.38949326294E+02  0.00000000000E+00 0.  1.
         22    1    4    4    0    0  0.61171304245E+01  0.26287479404E+00  0.20370807664E+01  0.64527580023E+01  0.00000000000E+00 0.  1.
<mgrwt>
<rscale>  0 0.91679775E+02</rscale>
<asrwt>0</asrwt>
<pdfrwt beam="2">  1        1 0.81071466E-02 0.91679775E+02</pdfrwt>
<pdfrwt beam="1">  1       -1 0.61346861E-02 0.91679775E+02</pdfrwt>
<totfact> 0.93065415E+04</totfact>
</mgrwt>
</event>
<event>
 7    1  0.2911475E-009  0.9524551E+02  0.7818608E-02  0.1290624E+00
          1   -1    0    0  501    0  0.00000000000E+00  0.00000000000E+00  0.81736003547E+01  0.81736019086E+01  0.50400000000E-02 0. -1.
         -1   -1    0    0    0  501 -0.00000000000E+00 -0.00000000000E+00 -0.27746969492E+03  0.27746969497E+03  0.50400000000E-02 0.  1.
         23    2    1    2    0    0  0.00000000000E+00  0.00000000000E+00 -0.26929609457E+03  0.28564329688E+03  0.95245506462E+02 0.  0.
    9000005    2    3    3    0    0 -0.10005923143E+02  0.45550784583E+02 -0.13270587612E+03  0.14131076330E+03  0.13523675263E+02 0.  0.
         22    1    3    3    0    0  0.10005923143E+02 -0.45550784583E+02 -0.13659021845E+03  0.14433253358E+03  0.00000000000E+00 0.  1.
         22    1    4    4    0    0 -0.13117790665E+02  0.34672929281E+02 -0.96381299543E+02  0.10326491833E+03  0.00000000000E+00 0.  1.
         22    1    4    4    0    0  0.31118675215E+01  0.10877855302E+02 -0.36324576581E+02  0.38045844966E+02  0.00000000000E+00 0.  1.
<mgrwt>
<rscale>  0 0.95245506E+02</rscale>
<asrwt>0</asrwt>
<pdfrwt beam="1">  1        1 0.12574773E-02 0.95245506E+02</pdfrwt>
<pdfrwt beam="2">  1       -1 0.42687638E-01 0.95245506E+02</pdfrwt>
<totfact> 0.55673893E+04</totfact>
</mgrwt>
</event>
<event>
 6    1  0.2911475E-009  0.1832567E+03  0.7818608E-02  0.1164688E+00
         -1   -1    0    0    0  501 -0.00000000000E+00  0.00000000000E+00  0.96775704260E+02  0.96775704391E+02  0.50400000000E-02 0.  1.
          1   -1    0    0  501    0  0.00000000000E+00 -0.00000000000E+00 -0.86754766731E+02  0.86754766877E+02  0.50400000000E-02 0. -1.
    9000005    2    1    2    0    0 -0.73816057568E+02  0.35183104505E+02  0.45992989795E+02  0.94195988891E+02  0.84183142774E+01 0.  0.
         22    1    1    2    0    0  0.73816057568E+02 -0.35183104505E+02 -0.35972052266E+02  0.89334482378E+02  0.00000000000E+00 0. -1.
         22    1    3    3    0    0 -0.70305237722E+02  0.34107648634E+02  0.45671938808E+02  0.90510132809E+02  0.00000000000E+00 0. -1.
         22    1    3    3    0    0 -0.35108198459E+01  0.10754558708E+01  0.32105098676E+00  0.36858560819E+01  0.00000000000E+00 0. -1.
<mgrwt>
<rscale>  0 0.18325669E+03</rscale>
<asrwt>0</asrwt>
<pdfrwt beam="2">  1        1 0.13346887E-01 0.18325669E+03</pdfrwt>
<pdfrwt beam="1">  1       -1 0.14888570E-01 0.18325669E+03</pdfrwt>
<totfact> 0.13560254E+04</totfact>
</mgrwt>
</event>
<event>
 7    1  0.2911475E-009  0.9169517E+02  0.7818608E-02  0.1298798E+00
          1   -1    0    0  501    0  0.00000000000E+00  0.00000000000E+00  0.14031137881E+02  0.14031138786E+02  0.50400000000E-02 0. -1.
         -1   -1    0    0    0  501 -0.00000000000E+00 -0.00000000000E+00 -0.14980971470E+03  0.14980971479E+03  0.50400000000E-02 0.  1.
         23    2    1    2    0    0  0.00000000000E+00  0.44408920985E-15 -0.13577857682E+03  0.16384085358E+03  0.91695165500E+02 0.  0.
    9000005    2    3    3    0    0 -0.44443255928E+02 -0.35321525490E+01 -0.83653486224E+02  0.95250007472E+02  0.93262568592E+01 0.  0.
         22    1    3    3    0    0  0.44443255928E+02  0.35321525490E+01 -0.52125090599E+02  0.68590846103E+02  0.00000000000E+00 0. -1.
         22    1    4    4    0    0 -0.37094676185E+02 -0.63909124277E+01 -0.68013286474E+02  0.77734586253E+02  0.00000000000E+00 0. -1.
         22    1    4    4    0    0 -0.73485797430E+01  0.28587598787E+01 -0.15640199750E+02  0.17515421219E+02  0.00000000000E+00 0. -1.
<mgrwt>
<rscale>  0 0.91695165E+02</rscale>
<asrwt>0</asrwt>
<pdfrwt beam="1">  1        1 0.21586368E-02 0.91695165E+02</pdfrwt>
<pdfrwt beam="2">  1       -1 0.23047647E-01 0.91695165E+02</pdfrwt>
<totfact> 0.73716917E+04</totfact>
</mgrwt>
</event>
<event>
 7    1  0.2911475E-009  0.9191926E+02  0.7818608E-02  0.1298269E+00
          1   -1    0    0  501    0  0.00000000000E+00  0.00000000000E+00  0.79862806518E+01  0.79862822421E+01  0.50400000000E-02 0. -1.
         -1   -1    0    0    0  501 -0.00000000000E+00 -0.00000000000E+00 -0.26448951091E+03  0.26448951096E+03  0.50400000000E-02 0.  1.
         23    2    1    2    0    0  0.00000000000E+00  0.00000000000E+00 -0.25650323026E+03  0.27247579320E+03  0.91919262112E+02 0.  0.
    9000005    2    3    3    0    0  0.13221093454E+02  0.32130530534E+02 -0.21647477322E+03  0.21947158886E+03  0.99640640949E+01 0.  0.
         22    1    3    3    0    0 -0.13221093454E+02 -0.32130530534E+02 -0.40028457041E+02  0.53004204339E+02  0.00000000000E+00 0. -1.
         22    1    4    4    0    0  0.12558532578E+02  0.19586188355E+02 -0.12617448504E+03  0.12830173884E+03  0.00000000000E+00 0. -1.
         22    1    4    4    0    0  0.66256087658E+00  0.12544342179E+02 -0.90300288183E+02  0.91169850025E+02  0.00000000000E+00 0. -1.
<mgrwt>
<rscale>  0 0.91919262E+02</rscale>
<asrwt>0</asrwt>
<pdfrwt beam="1">  1        1 0.12286589E-02 0.91919262E+02</pdfrwt>
<pdfrwt beam="2">  1       -1 0.40690687E-01 0.91919262E+02</pdfrwt>
<totfact> 0.62177932E+04</totfact>
</mgrwt>
</event>
<event>
 7    1  0.2911475E-009  0.8928594E+02  0.7818608E-02  0.1304590E+00
          1   -1    0    0  501    0  0.00000000000E+00  0.00000000000E+00  0.46215252333E+02  0.46215252608E+02  0.50400000000E-02 0. -1.
         -1   -1    0    0    0  501 -0.00000000000E+00 -0.00000000000E+00 -0.43124176004E+02  0.43124176299E+02  0.50400000000E-02 0.  1.
         23    2    1    2    0    0  0.00000000000E+00 -0.71054273576E-14  0.30910763286E+01  0.89339428906E+02  0.89285938447E+02 0.  0.
    9000005    2    3    3    0    0 -0.10134417082E+02 -0.41962273591E+02 -0.33840277336E+01  0.45687787618E+02  0.14573382559E+02 0.  0.
         22    1    3    3    0    0  0.10134417082E+02  0.41962273591E+02  0.64751040622E+01  0.43651641288E+02  0.00000000000E+00 0. -1.
         22    1    4    4    0    0 -0.13189061161E+02 -0.32662292790E+02 -0.55580997710E+01  0.35660470800E+02  0.00000000000E+00 0.  1.
         22    1    4    4    0    0  0.30546440788E+01 -0.92999808007E+01  0.21740720374E+01  0.10027316818E+02  0.00000000000E+00 0.  1.
<mgrwt>
<rscale>  0 0.89285938E+02</rscale>
<asrwt>0</asrwt>
<pdfrwt beam="1">  1        1 0.71100389E-02 0.89285938E+02</pdfrwt>
<pdfrwt beam="2">  1       -1 0.66344886E-02 0.89285938E+02</pdfrwt>
<totfact> 0.98258278E+04</totfact>
</mgrwt>
</event>
<event>
 7    1  0.2911475E-009  0.9082274E+02  0.7818608E-02  0.1300871E+00
          1   -1    0    0  501    0  0.00000000000E+00  0.00000000000E+00  0.14212498407E+03  0.14212498416E+03  0.50400000000E-02 0. -1.
         -1   -1    0    0    0  501 -0.00000000000E+00 -0.00000000000E+00 -0.14509710225E+02  0.14509711100E+02  0.50400000000E-02 0.  1.
         23    2    1    2    0    0  0.00000000000E+00  0.88817841970E-15  0.12761527385E+03  0.15663469526E+03  0.90822737466E+02 0.  0.
    9000005    2    3    3    0    0 -0.32203964589E+02 -0.49271467556E+01  0.11792423610E+03  0.12264516271E+03  0.86219699772E+01 0.  0.
         22    1    3    3    0    0  0.32203964589E+02  0.49271467556E+01  0.96910377475E+01  0.33989532551E+02  0.00000000000E+00 0.  1.
         22    1    4    4    0    0 -0.16959734137E+02 -0.54330821111E+01  0.51499187210E+02  0.54491441957E+02  0.00000000000E+00 0. -1.
         22    1    4    4    0    0 -0.15244230453E+02  0.50593535553E+00  0.66425048891E+02  0.68153720756E+02  0.00000000000E+00 0. -1.
<mgrwt>
<rscale>  0 0.90822737E+02</rscale>
<asrwt>0</asrwt>
<pdfrwt beam="1">  1        1 0.21865383E-01 0.90822737E+02</pdfrwt>
<pdfrwt beam="2">  1       -1 0.22322632E-02 0.90822737E+02</pdfrwt>
<totfact> 0.11220565E+05</totfact>
</mgrwt>
</event>
<event>
 7    1  0.2911475E-009  0.8820979E+02  0.7818608E-02  0.1307246E+00
          1   -1    0    0  501    0  0.00000000000E+00  0.00000000000E+00  0.98822695186E+02  0.98822695314E+02  0.50400000000E-02 0. -1.
         -1   -1    0    0    0  501 -0.00000000000E+00 -0.00000000000E+00 -0.19684161824E+02  0.19684162469E+02  0.50400000000E-02 0.  1.
         23    2    1    2    0    0 -0.17763568394E-14  0.71054273576E-14  0.79138533362E+02  0.11850685778E+03  0.88209794688E+02 0.  0.
    9000005    2    3    3    0    0  0.11770304666E+02 -0.22589365700E+02 -0.73164674534E+01  0.28377580183E+02  0.10145779733E+02 0.  0.
         22    1    3    3    0    0 -0.11770304666E+02  0.22589365700E+02  0.86455000815E+02  0.90129277600E+02  0.00000000000E+00 0. -1.
         22    1    4    4    0    0  0.12860018010E+02 -0.19330964911E+02 -0.85279859017E+01  0.24734445843E+02  0.00000000000E+00 0.  1.
         22    1    4    4    0    0 -0.10897133435E+01 -0.32584007890E+01  0.12115184483E+01  0.36431343406E+01  0.00000000000E+00 0.  1.
<mgrwt>
<rscale>  0 0.88209795E+02</rscale>
<asrwt>0</asrwt>
<pdfrwt beam="1">  1        1 0.15203492E-01 0.88209795E+02</pdfrwt>
<pdfrwt beam="2">  1       -1 0.30283326E-02 0.88209795E+02</pdfrwt>
<totfact> 0.11405832E+05</totfact>
</mgrwt>
</event>
<event>
 7    1  0.2911475E-009  0.9146797E+02  0.7818608E-02  0.1299335E+00
         -1   -1    0    0    0  501 -0.00000000000E+00  0.00000000000E+00  0.11124910968E+03  0.11124910979E+03  0.50400000000E-02 0.  1.
          1   -1    0    0  501    0  0.00000000000E+00 -0.00000000000E+00 -0.18801025846E+02  0.18801026522E+02  0.50400000000E-02 0. -1.
         23    2    1    2    0    0 -0.71054273576E-14  0.00000000000E+00  0.92448083833E+02  0.13005013632E+03  0.91467971177E+02 0.  0.
    9000005    2    3    3    0    0 -0.37518289535E+02  0.16827614544E+02  0.74349815114E+02  0.85124219614E+02  0.52389976646E+01 0.  0.
         22    1    3    3    0    0  0.37518289535E+02 -0.16827614544E+02  0.18098268720E+02  0.44925916702E+02  0.00000000000E+00 0. -1.
         22    1    4    4    0    0 -0.37674659387E+01  0.35454600521E+01  0.87408519610E+01  0.10157095037E+02  0.00000000000E+00 0. -1.
         22    1    4    4    0    0 -0.33750823596E+02  0.13282154492E+02  0.65608963153E+02  0.74967124577E+02  0.00000000000E+00 0. -1.
<mgrwt>
<rscale>  0 0.91467971E+02</rscale>
<asrwt>0</asrwt>
<pdfrwt beam="2">  1        1 0.28924656E-02 0.91467971E+02</pdfrwt>
<pdfrwt beam="1">  1       -1 0.17115248E-01 0.91467971E+02</pdfrwt>
<totfact> 0.79076907E+04</totfact>
</mgrwt>
</event>
<event>
 7    1  0.2911475E-009  0.9131274E+02  0.7818608E-02  0.1299703E+00
         -1   -1    0    0    0  501 -0.00000000000E+00  0.00000000000E+00  0.26514417617E+02  0.26514418096E+02  0.50400000000E-02 0.  1.
          1   -1    0    0  501    0  0.00000000000E+00 -0.00000000000E+00 -0.78617765865E+02  0.78617766026E+02  0.50400000000E-02 0. -1.
         23    2    1    2    0    0  0.00000000000E+00  0.71054273576E-14 -0.52103348247E+02  0.10513218412E+03  0.91312744126E+02 0.  0.
    9000005    2    3    3    0    0  0.10806500155E+02  0.41702843102E+02 -0.39419591545E+02  0.60223551852E+02  0.14733106655E+02 0.  0.
         22    1    3    3    0    0 -0.10806500155E+02 -0.41702843102E+02 -0.12683756703E+02  0.44908632271E+02  0.00000000000E+00 0.  1.
         22    1    4    4    0    0  0.13295347107E+02  0.40292188304E+02 -0.35221008970E+02  0.55142961163E+02  0.00000000000E+00 0. -1.
         22    1    4    4    0    0 -0.24888469514E+01  0.14106547980E+01 -0.41985825748E+01  0.50805906885E+01  0.00000000000E+00 0. -1.
<mgrwt>
<rscale>  0 0.91312744E+02</rscale>
<asrwt>0</asrwt>
<pdfrwt beam="2">  1        1 0.12095041E-01 0.91312744E+02</pdfrwt>
<pdfrwt beam="1">  1       -1 0.40791413E-02 0.91312744E+02</pdfrwt>
<totfact> 0.10005730E+05</totfact>
</mgrwt>
</event>
<event>
 7    1  0.2911475E-009  0.9151906E+02  0.7818608E-02  0.1299214E+00
          1   -1    0    0  501    0  0.00000000000E+00  0.00000000000E+00  0.43022391086E+02  0.43022391382E+02  0.50400000000E-02 0. -1.
         -1   -1    0    0    0  501 -0.00000000000E+00 -0.00000000000E+00 -0.48670804034E+02  0.48670804295E+02  0.50400000000E-02 0.  1.
         23    2    1    2    0    0 -0.17763568394E-14  0.71054273576E-14 -0.56484129476E+01  0.91693195677E+02  0.91519055746E+02 0.  0.
    9000005    2    3    3    0    0 -0.13818848141E+02 -0.42391550672E+02  0.30361155513E+00  0.46710635412E+02  0.13920745249E+02 0.  0.
         22    1    3    3    0    0  0.13818848141E+02  0.42391550672E+02 -0.59520245027E+01  0.44982560265E+02  0.00000000000E+00 0.  1.
         22    1    4    4    0    0  0.18865640924E+01 -0.10320013700E+02  0.29623297064E+01  0.10901247825E+02  0.00000000000E+00 0.  1.
         22    1    4    4    0    0 -0.15705412234E+02 -0.32071536972E+02 -0.26587181513E+01  0.35809387587E+02  0.00000000000E+00 0.  1.
<mgrwt>
<rscale>  0 0.91519056E+02</rscale>
<asrwt>0</asrwt>
<pdfrwt beam="1">  1        1 0.66188295E-02 0.91519056E+02</pdfrwt>
<pdfrwt beam="2">  1       -1 0.74878160E-02 0.91519056E+02</pdfrwt>
<totfact> 0.90706224E+04</totfact>
</mgrwt>
</event>
<event>
 7    1  0.2911475E-009  0.9069845E+02  0.7818608E-02  0.1301169E+00
          1   -1    0    0  501    0  0.00000000000E+00  0.00000000000E+00  0.25558591750E+02  0.25558592247E+02  0.50400000000E-02 0. -1.
         -1   -1    0    0    0  501 -0.00000000000E+00 -0.00000000000E+00 -0.80464219021E+02  0.80464219179E+02  0.50400000000E-02 0.  1.
         23    2    1    2    0    0  0.00000000000E+00  0.00000000000E+00 -0.54905627271E+02  0.10602281143E+03  0.90698448921E+02 0.  0.
    9000005    2    3    3    0    0  0.21765562205E+02  0.36318809837E+02 -0.45162687244E+02  0.62574905533E+02  0.91189274204E+01 0.  0.
         22    1    3    3    0    0 -0.21765562205E+02 -0.36318809837E+02 -0.97429400268E+01  0.43447905893E+02  0.00000000000E+00 0. -1.
         22    1    4    4    0    0  0.18606819310E+02  0.34204487651E+02 -0.37691278596E+02  0.54192187468E+02  0.00000000000E+00 0.  1.
         22    1    4    4    0    0  0.31587428947E+01  0.21143221860E+01 -0.74714086480E+01  0.83827180655E+01  0.00000000000E+00 0.  1.
<mgrwt>
<rscale>  0 0.90698449E+02</rscale>
<asrwt>0</asrwt>
<pdfrwt beam="1">  1        1 0.39320911E-02 0.90698449E+02</pdfrwt>
<pdfrwt beam="2">  1       -1 0.12379111E-01 0.90698449E+02</pdfrwt>
<totfact> 0.85713903E+04</totfact>
</mgrwt>
</event>
<event>
 7    1  0.2911475E-009  0.9194144E+02  0.7818608E-02  0.1298217E+00
          1   -1    0    0  501    0  0.00000000000E+00  0.00000000000E+00  0.18480464603E+03  0.18480464610E+03  0.50400000000E-02 0. -1.
         -1   -1    0    0    0  501 -0.00000000000E+00 -0.00000000000E+00 -0.11435357137E+02  0.11435358248E+02  0.50400000000E-02 0.  1.
         23    2    1    2    0    0  0.00000000000E+00  0.22204460493E-15  0.17336928889E+03  0.19624000435E+03  0.91941443184E+02 0.  0.
    9000005    2    3    3    0    0 -0.40061150440E+02 -0.10841483651E+01  0.41821258418E+02  0.58722894597E+02  0.96586511410E+01 0.  0.
         22    1    3    3    0    0  0.40061150440E+02  0.10841483651E+01  0.13154803047E+03  0.13751710975E+03  0.00000000000E+00 0. -1.
         22    1    4    4    0    0 -0.53214533327E+01  0.20249015775E+00  0.16001730839E+01  0.55605235126E+01  0.00000000000E+00 0.  1.
         22    1    4    4    0    0 -0.34739697107E+02 -0.12866385229E+01  0.40221085334E+02  0.53162371084E+02  0.00000000000E+00 0.  1.
<mgrwt>
<rscale>  0 0.91941443E+02</rscale>
<asrwt>0</asrwt>
<pdfrwt beam="1">  1        1 0.28431482E-01 0.91941443E+02</pdfrwt>
<pdfrwt beam="2">  1       -1 0.17592859E-02 0.91941443E+02</pdfrwt>
<totfact> 0.11402379E+05</totfact>
</mgrwt>
</event>
<event>
 7    1  0.2911475E-009  0.9173746E+02  0.7818608E-02  0.1298698E+00
         -1   -1    0    0    0  501 -0.00000000000E+00  0.00000000000E+00  0.34424143603E+02  0.34424143972E+02  0.50400000000E-02 0.  1.
          1   -1    0    0  501    0  0.00000000000E+00 -0.00000000000E+00 -0.61118161843E+02  0.61118162051E+02  0.50400000000E-02 0. -1.
         23    2    1    2    0    0  0.00000000000E+00 -0.35527136788E-14 -0.26694018240E+02  0.95542306024E+02  0.91737460345E+02 0.  0.
    9000005    2    3    3    0    0 -0.34201047180E+01  0.25567909873E+02 -0.51753185515E+02  0.59578755086E+02  0.14346453050E+02 0.  0.
         22    1    3    3    0    0  0.34201047180E+01 -0.25567909873E+02  0.25059167275E+02  0.35963550938E+02  0.00000000000E+00 0.  1.
         22    1    4    4    0    0  0.78826479139E-01  0.25625628830E+02 -0.48217730081E+02  0.54604290680E+02  0.00000000000E+00 0. -1.
         22    1    4    4    0    0 -0.34989311972E+01 -0.57718956565E-01 -0.35354554340E+01  0.49744644060E+01  0.00000000000E+00 0. -1.
<mgrwt>
<rscale>  0 0.91737460E+02</rscale>
<asrwt>0</asrwt>
<pdfrwt beam="2">  1        1 0.94027942E-02 0.91737460E+02</pdfrwt>
<pdfrwt beam="1">  1       -1 0.52960222E-02 0.91737460E+02</pdfrwt>
<totfact> 0.95010702E+04</totfact>
</mgrwt>
</event>
<event>
 7    1  0.2911475E-009  0.9127039E+02  0.7818608E-02  0.1299804E+00
          1   -1    0    0  501    0  0.00000000000E+00  0.00000000000E+00  0.14621044099E+03  0.14621044107E+03  0.50400000000E-02 0. -1.
         -1   -1    0    0    0  501 -0.00000000000E+00 -0.00000000000E+00 -0.14243654121E+02  0.14243655012E+02  0.50400000000E-02 0.  1.
         23    2    1    2    0    0  0.00000000000E+00  0.00000000000E+00  0.13196678687E+03  0.16045409609E+03  0.91270390133E+02 0.  0.
    9000005    2    3    3    0    0 -0.29797877017E+02 -0.32793895993E+02  0.54632342728E+02  0.71325148268E+02  0.11799610769E+02 0.  0.
         22    1    3    3    0    0  0.29797877017E+02  0.32793895993E+02  0.77334444137E+02  0.89128947818E+02  0.00000000000E+00 0.  1.
         22    1    4    4    0    0 -0.32829143138E+01 -0.10468699345E+02  0.10280089825E+02  0.15035007123E+02  0.00000000000E+00 0.  1.
         22    1    4    4    0    0 -0.26514962703E+02 -0.22325196648E+02  0.44352252903E+02  0.56290141145E+02  0.00000000000E+00 0.  1.
<mgrwt>
<rscale>  0 0.91270390E+02</rscale>
<asrwt>0</asrwt>
<pdfrwt beam="1">  1        1 0.22493914E-01 0.91270390E+02</pdfrwt>
<pdfrwt beam="2">  1       -1 0.21913315E-02 0.91270390E+02</pdfrwt>
<totfact> 0.11129907E+05</totfact>
</mgrwt>
</event>
<event>
 7    1  0.2911475E-009  0.9714338E+02  0.7818608E-02  0.1286420E+00
         -1   -1    0    0    0  501 -0.00000000000E+00  0.00000000000E+00  0.43313073099E+01  0.43313102422E+01  0.50400000000E-02 0.  1.
          1   -1    0    0  501    0  0.00000000000E+00 -0.00000000000E+00 -0.54468731558E+03  0.54468731560E+03  0.50400000000E-02 0. -1.
         23    2    1    2    0    0  0.00000000000E+00  0.17763568394E-14 -0.54035600827E+03  0.54901862585E+03  0.97143377807E+02 0.  0.
    9000005    2    3    3    0    0  0.14707957749E+02 -0.95066485326E+01 -0.52584858970E+03  0.52627735101E+03  0.12017092484E+02 0.  0.
         22    1    3    3    0    0 -0.14707957749E+02  0.95066485326E+01 -0.14507418570E+02  0.22741274833E+02  0.00000000000E+00 0.  1.
         22    1    4    4    0    0  0.37429701679E+01  0.27918244047E+01 -0.13786286727E+03  0.13794192358E+03  0.00000000000E+00 0.  1.
         22    1    4    4    0    0  0.10964987581E+02 -0.12298472937E+02 -0.38798572243E+03  0.38833542743E+03  0.00000000000E+00 0.  1.
<mgrwt>
<rscale>  0 0.97143378E+02</rscale>
<asrwt>0</asrwt>
<pdfrwt beam="2">  1        1 0.83797995E-01 0.97143378E+02</pdfrwt>
<pdfrwt beam="1">  1       -1 0.66635563E-03 0.97143378E+02</pdfrwt>
<totfact> 0.11875088E+05</totfact>
</mgrwt>
</event>
<event>
 7    1  0.2911475E-009  0.9231830E+02  0.7818608E-02  0.1297333E+00
         -1   -1    0    0    0  501 -0.00000000000E+00  0.00000000000E+00  0.23351130060E+02  0.23351130604E+02  0.50400000000E-02 0.  1.
          1   -1    0    0  501    0  0.00000000000E+00 -0.00000000000E+00 -0.91244717600E+02  0.91244717739E+02  0.50400000000E-02 0. -1.
         23    2    1    2    0    0  0.00000000000E+00  0.00000000000E+00 -0.67893587540E+02  0.11459584834E+03  0.92318303864E+02 0.  0.
    9000005    2    3    3    0    0 -0.20403037670E+02  0.26015816716E+02  0.25171314797E+01  0.36809114137E+02  0.15983374709E+02 0.  0.
         22    1    3    3    0    0  0.20403037670E+02 -0.26015816716E+02 -0.70410719019E+02  0.77786734206E+02  0.00000000000E+00 0. -1.
         22    1    4    4    0    0 -0.10625789683E+02  0.20492294117E+01  0.12556511325E+01  0.10894191450E+02  0.00000000000E+00 0. -1.
         22    1    4    4    0    0 -0.97772479869E+01  0.23966587305E+02  0.12614803473E+01  0.25914922687E+02  0.00000000000E+00 0. -1.
<mgrwt>
<rscale>  0 0.92318304E+02</rscale>
<asrwt>0</asrwt>
<pdfrwt beam="2">  1        1 0.14037649E-01 0.92318304E+02</pdfrwt>
<pdfrwt beam="1">  1       -1 0.35924816E-02 0.92318304E+02</pdfrwt>
<totfact> 0.99443456E+04</totfact>
</mgrwt>
</event>
<event>
 7    1  0.2911475E-009  0.9071755E+02  0.7818608E-02  0.1301123E+00
          1   -1    0    0  501    0  0.00000000000E+00  0.00000000000E+00  0.69229157918E+02  0.69229158101E+02  0.50400000000E-02 0. -1.
         -1   -1    0    0    0  501 -0.00000000000E+00 -0.00000000000E+00 -0.29718956989E+02  0.29718957416E+02  0.50400000000E-02 0.  1.
         23    2    1    2    0    0  0.00000000000E+00  0.00000000000E+00  0.39510200929E+02  0.98948115517E+02  0.90717548396E+02 0.  0.
    9000005    2    3    3    0    0  0.15052263606E+02  0.39783157313E+01  0.65766718662E+02  0.68422677614E+02  0.10677260537E+02 0.  0.
         22    1    3    3    0    0 -0.15052263606E+02 -0.39783157313E+01 -0.26256517733E+02  0.30525437903E+02  0.00000000000E+00 0.  1.
         22    1    4    4    0    0  0.45157715955E+01  0.63954545052E+01  0.33118961713E+02  0.34031744833E+02  0.00000000000E+00 0.  1.
         22    1    4    4    0    0  0.10536492011E+02 -0.24171387740E+01  0.32647756948E+02  0.34390932780E+02  0.00000000000E+00 0.  1.
<mgrwt>
<rscale>  0 0.90717548E+02</rscale>
<asrwt>0</asrwt>
<pdfrwt beam="1">  1        1 0.10650640E-01 0.90717548E+02</pdfrwt>
<pdfrwt beam="2">  1       -1 0.45721474E-02 0.90717548E+02</pdfrwt>
<totfact> 0.99879588E+04</totfact>
</mgrwt>
</event>
<event>
 7    1  0.2911475E-009  0.8943638E+02  0.7818608E-02  0.1304222E+00
          1   -1    0    0  501    0  0.00000000000E+00  0.00000000000E+00  0.41919807837E+03  0.41919807840E+03  0.50400000000E-02 0. -1.
         -1   -1    0    0    0  501 -0.00000000000E+00 -0.00000000000E+00 -0.47703367717E+01  0.47703394342E+01  0.50400000000E-02 0.  1.
         23    2    1    2    0    0  0.00000000000E+00  0.00000000000E+00  0.41442774159E+03  0.42396841783E+03  0.89436381382E+02 0.  0.
    9000005    2    3    3    0    0  0.25689961674E+02 -0.33400223606E+02  0.16655423325E+03  0.17253885472E+03  0.15930935514E+02 0.  0.
         22    1    3    3    0    0 -0.25689961674E+02  0.33400223606E+02  0.24787350834E+03  0.25142956311E+03  0.00000000000E+00 0. -1.
         22    1    4    4    0    0  0.33699684786E+01 -0.12626639996E+02  0.72413197181E+02  0.73583013333E+02  0.00000000000E+00 0. -1.
         22    1    4    4    0    0  0.22319993196E+02 -0.20773583610E+02  0.94141036071E+02  0.98955841388E+02  0.00000000000E+00 0. -1.
<mgrwt>
<rscale>  0 0.89436381E+02</rscale>
<asrwt>0</asrwt>
<pdfrwt beam="1">  1        1 0.64492033E-01 0.89436381E+02</pdfrwt>
<pdfrwt beam="2">  1       -1 0.73389793E-03 0.89436381E+02</pdfrwt>
<totfact> 0.14303053E+05</totfact>
</mgrwt>
</event>
<event>
 7    1  0.2911475E-009  0.9082182E+02  0.7818608E-02  0.1300874E+00
          1   -1    0    0  501    0  0.00000000000E+00  0.00000000000E+00  0.48107700814E+02  0.48107701078E+02  0.50400000000E-02 0. -1.
         -1   -1    0    0    0  501 -0.00000000000E+00 -0.00000000000E+00 -0.42865292498E+02  0.42865292795E+02  0.50400000000E-02 0.  1.
         23    2    1    2    0    0  0.00000000000E+00  0.00000000000E+00  0.52424083157E+01  0.90972993873E+02  0.90821818795E+02 0.  0.
    9000005    2    3    3    0    0  0.40527180925E+02 -0.36016542537E+01 -0.16505684858E+02  0.44838366273E+02  0.90893976844E+01 0.  0.
         22    1    3    3    0    0 -0.40527180925E+02  0.36016542537E+01  0.21748093173E+02  0.46134627600E+02  0.00000000000E+00 0. -1.
         22    1    4    4    0    0  0.18676351218E+02 -0.27943958279E+01 -0.12397352815E+02  0.22590022127E+02  0.00000000000E+00 0. -1.
         22    1    4    4    0    0  0.21850829707E+02 -0.80725842579E+00 -0.41083320425E+01  0.22248344146E+02  0.00000000000E+00 0. -1.
<mgrwt>
<rscale>  0 0.90821819E+02</rscale>
<asrwt>0</asrwt>
<pdfrwt beam="1">  1        1 0.74011848E-02 0.90821819E+02</pdfrwt>
<pdfrwt beam="2">  1       -1 0.65946604E-02 0.90821819E+02</pdfrwt>
<totfact> 0.94245923E+04</totfact>
</mgrwt>
</event>
<event>
 7    1  0.2911475E-009  0.9149000E+02  0.7818608E-02  0.1299283E+00
         -1   -1    0    0    0  501 -0.00000000000E+00  0.00000000000E+00  0.15657504377E+02  0.15657505188E+02  0.50400000000E-02 0.  1.
          1   -1    0    0  501    0  0.00000000000E+00 -0.00000000000E+00 -0.13364869470E+03  0.13364869480E+03  0.50400000000E-02 0. -1.
         23    2    1    2    0    0 -0.71054273576E-14 -0.17763568394E-14 -0.11799119033E+03  0.14930619999E+03  0.91490001420E+02 0.  0.
    9000005    2    3    3    0    0 -0.37894462247E+02 -0.12773739588E+02 -0.92620463805E+02  0.10194764789E+03  0.14683797317E+02 0.  0.
         22    1    3    3    0    0  0.37894462247E+02  0.12773739588E+02 -0.25370726521E+02  0.47358552092E+02  0.00000000000E+00 0.  1.
         22    1    4    4    0    0 -0.30226769922E+01  0.14285437157E+01 -0.18629521488E+02  0.18927133545E+02  0.00000000000E+00 0.  1.
         22    1    4    4    0    0 -0.34871785255E+02 -0.14202283303E+02 -0.73990942317E+02  0.83020514350E+02  0.00000000000E+00 0.  1.
<mgrwt>
<rscale>  0 0.91490001E+02</rscale>
<asrwt>0</asrwt>
<pdfrwt beam="2">  1        1 0.20561337E-01 0.91490001E+02</pdfrwt>
<pdfrwt beam="1">  1       -1 0.24088470E-02 0.91490001E+02</pdfrwt>
<totfact> 0.10879340E+05</totfact>
</mgrwt>
</event>
<event>
 7    1  0.2911475E-009  0.9323415E+02  0.7818608E-02  0.1295203E+00
         -1   -1    0    0    0  501 -0.00000000000E+00  0.00000000000E+00  0.45758022323E+02  0.45758022601E+02  0.50400000000E-02 0.  1.
          1   -1    0    0  501    0  0.00000000000E+00 -0.00000000000E+00 -0.47492249798E+02  0.47492250066E+02  0.50400000000E-02 0. -1.
         23    2    1    2    0    0  0.00000000000E+00 -0.17763568394E-14 -0.17342274754E+01  0.93250272666E+02  0.93234145073E+02 0.  0.
    9000005    2    3    3    0    0 -0.25503467150E+02 -0.13532582644E+02 -0.36665979018E+02  0.47931569072E+02  0.10930858459E+02 0.  0.
         22    1    3    3    0    0  0.25503467150E+02  0.13532582644E+02  0.34931751542E+02  0.45318703595E+02  0.00000000000E+00 0.  1.
         22    1    4    4    0    0 -0.16883449788E+02 -0.11218971297E+02 -0.31947503516E+02  0.37835950822E+02  0.00000000000E+00 0.  1.
         22    1    4    4    0    0 -0.86200173615E+01 -0.23136113474E+01 -0.47184755022E+01  0.10095618250E+02  0.00000000000E+00 0.  1.
<mgrwt>
<rscale>  0 0.93234145E+02</rscale>
<asrwt>0</asrwt>
<pdfrwt beam="2">  1        1 0.73065000E-02 0.93234145E+02</pdfrwt>
<pdfrwt beam="1">  1       -1 0.70396958E-02 0.93234145E+02</pdfrwt>
<totfact> 0.87389057E+04</totfact>
</mgrwt>
</event>
<event>
 7    1  0.2911475E-009  0.9062848E+02  0.7818608E-02  0.1301337E+00
         -1   -1    0    0    0  501 -0.00000000000E+00  0.00000000000E+00  0.40689439085E+02  0.40689439397E+02  0.50400000000E-02 0.  1.
          1   -1    0    0  501    0  0.00000000000E+00 -0.00000000000E+00 -0.50464700735E+02  0.50464700986E+02  0.50400000000E-02 0. -1.
         23    2    1    2    0    0  0.00000000000E+00  0.00000000000E+00 -0.97752616495E+01  0.91154140383E+02  0.90628481002E+02 0.  0.
    9000005    2    3    3    0    0  0.39053742175E+02  0.19659778770E+02  0.39661346733E+01  0.45322626639E+02  0.11256490664E+02 0.  0.
         22    1    3    3    0    0 -0.39053742175E+02 -0.19659778770E+02 -0.13741396323E+02  0.45831513744E+02  0.00000000000E+00 0.  1.
         22    1    4    4    0    0  0.36298427606E+02  0.17942981781E+02  0.39029160753E+00  0.40492947156E+02  0.00000000000E+00 0. -1.
         22    1    4    4    0    0  0.27553145687E+01  0.17167969897E+01  0.35758430658E+01  0.48296794829E+01  0.00000000000E+00 0. -1.
<mgrwt>
<rscale>  0 0.90628481E+02</rscale>
<asrwt>0</asrwt>
<pdfrwt beam="2">  1        1 0.77638002E-02 0.90628481E+02</pdfrwt>
<pdfrwt beam="1">  1       -1 0.62599137E-02 0.90628481E+02</pdfrwt>
<totfact> 0.95488625E+04</totfact>
</mgrwt>
</event>
<event>
 7    1  0.2911475E-009  0.9066984E+02  0.7818608E-02  0.1301238E+00
         -1   -1    0    0    0  501 -0.00000000000E+00  0.00000000000E+00  0.56936157260E+01  0.56936179568E+01  0.50400000000E-02 0.  1.
          1   -1    0    0  501    0  0.00000000000E+00 -0.00000000000E+00 -0.36097531157E+03  0.36097531160E+03  0.50400000000E-02 0. -1.
         23    2    1    2    0    0  0.35527136788E-14  0.00000000000E+00 -0.35528169584E+03  0.36666892956E+03  0.90669843411E+02 0.  0.
    9000005    2    3    3    0    0  0.23389054463E+02 -0.27977305674E+02 -0.28422832465E+03  0.28680429997E+03  0.11882274503E+02 0.  0.
         22    1    3    3    0    0 -0.23389054463E+02  0.27977305674E+02 -0.71053371187E+02  0.79864629584E+02  0.00000000000E+00 0.  1.
         22    1    4    4    0    0  0.11224974278E+02 -0.21004202390E+02 -0.15523623227E+03  0.15705242556E+03  0.00000000000E+00 0.  1.
         22    1    4    4    0    0  0.12164080185E+02 -0.69731032839E+01 -0.12899209238E+03  0.12975187441E+03  0.00000000000E+00 0.  1.
<mgrwt>
<rscale>  0 0.90669843E+02</rscale>
<asrwt>0</asrwt>
<pdfrwt beam="2">  1        1 0.55534646E-01 0.90669843E+02</pdfrwt>
<pdfrwt beam="1">  1       -1 0.87594134E-03 0.90669843E+02</pdfrwt>
<totfact> 0.13453316E+05</totfact>
</mgrwt>
</event>
<event>
 7    1  0.2911475E-009  0.1198688E+03  0.7818608E-02  0.1243314E+00
          1   -1    0    0  501    0  0.00000000000E+00  0.00000000000E+00  0.12382883540E+02  0.12382884566E+02  0.50400000000E-02 0. -1.
         -1   -1    0    0    0  501 -0.00000000000E+00 -0.00000000000E+00 -0.29008872457E+03  0.29008872461E+03  0.50400000000E-02 0.  1.
         23    2    1    2    0    0  0.00000000000E+00  0.00000000000E+00 -0.27770584103E+03  0.30247160918E+03  0.11986884590E+03 0.  0.
    9000005    2    3    3    0    0  0.52822561185E+02  0.50417911418E+01 -0.69037050854E+02  0.87161816970E+02  0.39275079597E+01 0.  0.
         22    1    3    3    0    0 -0.52822561185E+02 -0.50417911418E+01 -0.20866879017E+03  0.21530979221E+03  0.00000000000E+00 0.  1.
         22    1    4    4    0    0  0.51595602248E+02  0.55047852672E+01 -0.67559333305E+02  0.85186104200E+02  0.00000000000E+00 0. -1.
         22    1    4    4    0    0  0.12269589369E+01 -0.46299412541E+00 -0.14777175491E+01  0.19757127696E+01  0.00000000000E+00 0. -1.
<mgrwt>
<rscale>  0 0.11986885E+03</rscale>
<asrwt>0</asrwt>
<pdfrwt beam="1">  1        1 0.19050593E-02 0.11986885E+03</pdfrwt>
<pdfrwt beam="2">  1       -1 0.44629030E-01 0.11986885E+03</pdfrwt>
<totfact> 0.29828483E+04</totfact>
</mgrwt>
</event>
<event>
 6    1  0.2911475E-009  0.1303545E+03  0.7818608E-02  0.1226931E+00
          1   -1    0    0  501    0  0.00000000000E+00  0.00000000000E+00  0.41788285154E+03  0.41788285157E+03  0.50400000000E-02 0. -1.
         -1   -1    0    0    0  501 -0.00000000000E+00 -0.00000000000E+00 -0.10165697319E+02  0.10165698569E+02  0.50400000000E-02 0.  1.
    9000005    2    1    2    0    0  0.29349117203E+02 -0.29263974204E+01  0.39467355515E+03  0.39579843449E+03  0.43876108386E+01 0.  0.
         22    1    1    2    0    0 -0.29349117203E+02  0.29263974204E+01  0.13043599068E+02  0.32250115645E+02  0.00000000000E+00 0.  1.
         22    1    3    3    0    0  0.20980739912E+01 -0.11810043290E+01  0.24020575501E+02  0.24140934802E+02  0.00000000000E+00 0. -1.
         22    1    3    3    0    0  0.27251043212E+02 -0.17453930914E+01  0.37065297965E+03  0.37165749969E+03  0.00000000000E+00 0. -1.
<mgrwt>
<rscale>  0 0.13035445E+03</rscale>
<asrwt>0</asrwt>
<pdfrwt beam="1">  1        1 0.64289657E-01 0.13035445E+03</pdfrwt>
<pdfrwt beam="2">  1       -1 0.15639538E-02 0.13035445E+03</pdfrwt>
<totfact> 0.51694851E+04</totfact>
</mgrwt>
</event>
<event>
 7    1  0.2911475E-009  0.8941712E+02  0.7818608E-02  0.1304269E+00
         -1   -1    0    0    0  501 -0.00000000000E+00  0.00000000000E+00  0.51429832982E+02  0.51429833229E+02  0.50400000000E-02 0.  1.
          1   -1    0    0  501    0  0.00000000000E+00 -0.00000000000E+00 -0.38865673594E+02  0.38865673921E+02  0.50400000000E-02 0. -1.
         23    2    1    2    0    0  0.35527136788E-14 -0.71054273576E-14  0.12564159388E+02  0.90295507149E+02  0.89417115309E+02 0.  0.
    9000005    2    3    3    0    0 -0.18739998447E+02  0.40165840566E+02  0.86631597100E+01  0.45801686357E+02  0.76329448298E+01 0.  0.
         22    1    3    3    0    0  0.18739998447E+02 -0.40165840566E+02  0.39009996778E+01  0.44493820792E+02  0.00000000000E+00 0.  1.
         22    1    4    4    0    0 -0.71828897074E+01  0.24116222257E+02  0.39653327873E+01  0.25473710853E+02  0.00000000000E+00 0. -1.
         22    1    4    4    0    0 -0.11557108740E+02  0.16049618309E+02  0.46978269228E+01  0.20327975504E+02  0.00000000000E+00 0. -1.
<mgrwt>
<rscale>  0 0.89417115E+02</rscale>
<asrwt>0</asrwt>
<pdfrwt beam="2">  1        1 0.59793345E-02 0.89417115E+02</pdfrwt>
<pdfrwt beam="1">  1       -1 0.79122820E-02 0.89417115E+02</pdfrwt>
<totfact> 0.95370579E+04</totfact>
</mgrwt>
</event>
<event>
 7    1  0.2911475E-009  0.9441510E+02  0.7818608E-02  0.1292499E+00
          1   -1    0    0  501    0  0.00000000000E+00  0.00000000000E+00  0.99670286054E+01  0.99670298797E+01  0.50400000000E-02 0. -1.
         -1   -1    0    0    0  501 -0.00000000000E+00 -0.00000000000E+00 -0.22359245455E+03  0.22359245460E+03  0.50400000000E-02 0.  1.
         23    2    1    2    0    0  0.00000000000E+00  0.00000000000E+00 -0.21362542594E+03  0.23355948448E+03  0.94415095104E+02 0.  0.
    9000005    2    3    3    0    0 -0.41064120191E+02  0.39097263313E+01 -0.16056957842E+03  0.16635479058E+03  0.13776026511E+02 0.  0.
         22    1    3    3    0    0  0.41064120191E+02 -0.39097263313E+01 -0.53055847520E+02  0.67204693906E+02  0.00000000000E+00 0. -1.
         22    1    4    4    0    0 -0.67089073924E+01  0.29316189938E+01 -0.13879226080E+02  0.15691932478E+02  0.00000000000E+00 0. -1.
         22    1    4    4    0    0 -0.34355212798E+02  0.97810733756E+00 -0.14669035234E+03  0.15066285810E+03  0.00000000000E+00 0. -1.
<mgrwt>
<rscale>  0 0.94415095E+02</rscale>
<asrwt>0</asrwt>
<pdfrwt beam="1">  1        1 0.15333893E-02 0.94415095E+02</pdfrwt>
<pdfrwt beam="2">  1       -1 0.34398836E-01 0.94415095E+02</pdfrwt>
<totfact> 0.61300687E+04</totfact>
</mgrwt>
</event>
<event>
 7    1  0.2911475E-009  0.9207048E+02  0.7818608E-02  0.1297914E+00
         -1   -1    0    0    0  501 -0.00000000000E+00  0.00000000000E+00  0.11826932981E+02  0.11826934054E+02  0.50400000000E-02 0.  1.
          1   -1    0    0  501    0  0.00000000000E+00 -0.00000000000E+00 -0.17918790803E+03  0.17918790810E+03  0.50400000000E-02 0. -1.
         23    2    1    2    0    0  0.00000000000E+00  0.17763568394E-14 -0.16736097505E+03  0.19101484215E+03  0.92070483620E+02 0.  0.
    9000005    2    3    3    0    0  0.25138102916E+02 -0.14427708606E+02 -0.15760032965E+03  0.16043129768E+03  0.77623691587E+01 0.  0.
         22    1    3    3    0    0 -0.25138102916E+02  0.14427708606E+02 -0.97606453915E+01  0.30583544470E+02  0.00000000000E+00 0.  1.
         22    1    4    4    0    0  0.68588777487E+01 -0.37606546900E+01 -0.63521564765E+02  0.64001374344E+02  0.00000000000E+00 0.  1.
         22    1    4    4    0    0  0.18279225168E+02 -0.10667053916E+02 -0.94078764890E+02  0.96429923339E+02  0.00000000000E+00 0.  1.
<mgrwt>
<rscale>  0 0.92070484E+02</rscale>
<asrwt>0</asrwt>
<pdfrwt beam="2">  1        1 0.27567369E-01 0.92070484E+02</pdfrwt>
<pdfrwt beam="1">  1       -1 0.18195284E-02 0.92070484E+02</pdfrwt>
<totfact> 0.11292274E+05</totfact>
</mgrwt>
</event>
<event>
 7    1  0.2911475E-009  0.8234705E+02  0.7818608E-02  0.1322520E+00
          1   -1    0    0  501    0  0.00000000000E+00  0.00000000000E+00  0.16029732013E+03  0.16029732021E+03  0.50400000000E-02 0. -1.
         -1   -1    0    0    0  501 -0.00000000000E+00 -0.00000000000E+00 -0.10575717747E+02  0.10575718948E+02  0.50400000000E-02 0.  1.
         23    2    1    2    0    0  0.00000000000E+00  0.00000000000E+00  0.14972160239E+03  0.17087303916E+03  0.82347053930E+02 0.  0.
    9000005    2    3    3    0    0  0.37385246504E+01 -0.40228848969E+02  0.89955203133E+02  0.98731793429E+02  0.48674025086E+01 0.  0.
         22    1    3    3    0    0 -0.37385246504E+01  0.40228848969E+02  0.59766399254E+02  0.72141245732E+02  0.00000000000E+00 0. -1.
         22    1    4    4    0    0  0.70890103181E-01 -0.22141791332E+02  0.52439584843E+02  0.56922526360E+02  0.00000000000E+00 0. -1.
         22    1    4    4    0    0  0.36676345473E+01 -0.18087057638E+02  0.37515618290E+02  0.41809267069E+02  0.00000000000E+00 0. -1.
<mgrwt>
<rscale>  0 0.82347054E+02</rscale>
<asrwt>0</asrwt>
<pdfrwt beam="1">  1        1 0.24661125E-01 0.82347054E+02</pdfrwt>
<pdfrwt beam="2">  1       -1 0.16270337E-02 0.82347054E+02</pdfrwt>
<totfact> 0.14909460E+05</totfact>
</mgrwt>
</event>
<event>
 7    1  0.3001629E-009  0.9178423E+02  0.7818608E-02  0.1298588E+00
         -1   -1    0    0    0  501 -0.00000000000E+00  0.00000000000E+00  0.27167650087E+01  0.27167696836E+01  0.50400000000E-02 0.  1.
          1   -1    0    0  501    0  0.00000000000E+00 -0.00000000000E+00 -0.77521771710E+03  0.77521771712E+03  0.50400000000E-02 0. -1.
         23    2    1    2    0    0 -0.22204460493E-15  0.00000000000E+00 -0.77250095209E+03  0.77793448680E+03  0.91784229423E+02 0.  0.
    9000005    2    3    3    0    0  0.40935504227E+00  0.33493228917E+02 -0.65022293732E+03  0.65115169282E+03  0.93110085765E+01 0.  0.
         22    1    3    3    0    0 -0.40935504227E+00 -0.33493228917E+02 -0.12227801477E+03  0.12678279399E+03  0.00000000000E+00 0.  1.
         22    1    4    4    0    0  0.35771043771E+01  0.10020544938E+02 -0.15677719055E+03  0.15713782000E+03  0.00000000000E+00 0.  1.
         22    1    4    4    0    0 -0.31677493348E+01  0.23472683979E+02 -0.49344574677E+03  0.49401387281E+03  0.00000000000E+00 0.  1.
<mgrwt>
<rscale>  0 0.91784229E+02</rscale>
<asrwt>0</asrwt>
<pdfrwt beam="2">  1        1 0.11926409E+00 0.91784229E+02</pdfrwt>
<pdfrwt beam="1">  1       -1 0.41796483E-03 0.91784229E+02</pdfrwt>
<totfact> 0.13917655E+05</totfact>
</mgrwt>
</event>
<event>
 7    1  0.2911475E-009  0.9238970E+02  0.7818608E-02  0.1297166E+00
         -1   -1    0    0    0  501 -0.00000000000E+00  0.00000000000E+00  0.52807416358E+02  0.52807416599E+02  0.50400000000E-02 0.  1.
          1   -1    0    0  501    0  0.00000000000E+00 -0.00000000000E+00 -0.40410315511E+02  0.40410315826E+02  0.50400000000E-02 0. -1.
         23    2    1    2    0    0  0.71054273576E-14  0.35527136788E-14  0.12397100847E+02  0.93217732424E+02  0.92389704669E+02 0.  0.
    9000005    2    3    3    0    0  0.32679058702E+02  0.30065276641E+02  0.16236119538E+02  0.48646667801E+02  0.11447487646E+02 0.  0.
         22    1    3    3    0    0 -0.32679058702E+02 -0.30065276641E+02 -0.38390186914E+01  0.44571064623E+02  0.00000000000E+00 0. -1.
         22    1    4    4    0    0  0.30932076215E+02  0.29520919352E+02  0.17725974252E+02  0.46287019579E+02  0.00000000000E+00 0. -1.
         22    1    4    4    0    0  0.17469824863E+01  0.54435728911E+00 -0.14898547134E+01  0.23596482223E+01  0.00000000000E+00 0. -1.
<mgrwt>
<rscale>  0 0.92389705E+02</rscale>
<asrwt>0</asrwt>
<pdfrwt beam="2">  1        1 0.62169717E-02 0.92389705E+02</pdfrwt>
<pdfrwt beam="1">  1       -1 0.81242179E-02 0.92389705E+02</pdfrwt>
<totfact> 0.87472087E+04</totfact>
</mgrwt>
</event>
<event>
 7    1  0.2911475E-009  0.8869448E+02  0.7818608E-02  0.1306044E+00
         -1   -1    0    0    0  501 -0.00000000000E+00  0.00000000000E+00  0.29504763526E+03  0.29504763530E+03  0.50400000000E-02 0.  1.
          1   -1    0    0  501    0  0.00000000000E+00 -0.00000000000E+00 -0.66656268624E+01  0.66656287678E+01  0.50400000000E-02 0. -1.
         23    2    1    2    0    0  0.00000000000E+00  0.00000000000E+00  0.28838200839E+03  0.30171326407E+03  0.88694480937E+02 0.  0.
    9000005    2    3    3    0    0  0.33097305764E+02  0.10095516883E+02  0.23835039958E+03  0.24088142216E+03  0.39491073706E+01 0.  0.
         22    1    3    3    0    0 -0.33097305764E+02 -0.10095516883E+02  0.50031608810E+02  0.60831841909E+02  0.00000000000E+00 0. -1.
         22    1    4    4    0    0  0.52362620670E+01  0.13107121590E+00  0.36107901403E+02  0.36485835112E+02  0.00000000000E+00 0. -1.
         22    1    4    4    0    0  0.27861043697E+02  0.99644456671E+01  0.20224249818E+03  0.20439558705E+03  0.00000000000E+00 0. -1.
<mgrwt>
<rscale>  0 0.88694481E+02</rscale>
<asrwt>0</asrwt>
<pdfrwt beam="2">  1        1 0.10254809E-02 0.88694481E+02</pdfrwt>
<pdfrwt beam="1">  1       -1 0.45391956E-01 0.88694481E+02</pdfrwt>
<totfact> 0.65539206E+04</totfact>
</mgrwt>
</event>
<event>
 7    1  0.2911475E-009  0.9350229E+02  0.7818608E-02  0.1294585E+00
         -1   -1    0    0    0  501 -0.00000000000E+00  0.00000000000E+00  0.32367314022E+02  0.32367314415E+02  0.50400000000E-02 0.  1.
          1   -1    0    0  501    0  0.00000000000E+00 -0.00000000000E+00 -0.67527058861E+02  0.67527059049E+02  0.50400000000E-02 0. -1.
         23    2    1    2    0    0  0.00000000000E+00  0.00000000000E+00 -0.35159744839E+02  0.99894373464E+02  0.93502289772E+02 0.  0.
    9000005    2    3    3    0    0  0.39865538561E+02 -0.90171945635E+01  0.56541467232E+01  0.42133273171E+02  0.85248091111E+01 0.  0.
         22    1    3    3    0    0 -0.39865538561E+02  0.90171945635E+01 -0.40813891562E+02  0.57761100292E+02  0.00000000000E+00 0. -1.
         22    1    4    4    0    0  0.71310738801E+01  0.16420762004E+01  0.13102755115E+01  0.74340736375E+01  0.00000000000E+00 0. -1.
         22    1    4    4    0    0  0.32734464681E+02 -0.10659270764E+02  0.43438712117E+01  0.34699199534E+02  0.00000000000E+00 0. -1.
<mgrwt>
<rscale>  0 0.93502290E+02</rscale>
<asrwt>0</asrwt>
<pdfrwt beam="2">  1        1 0.10388778E-01 0.93502290E+02</pdfrwt>
<pdfrwt beam="1">  1       -1 0.49795868E-02 0.93502290E+02</pdfrwt>
<totfact> 0.91512459E+04</totfact>
</mgrwt>
</event>
<event>
 7    1  0.2911475E-009  0.9020658E+02  0.7818608E-02  0.1302352E+00
         -1   -1    0    0    0  501 -0.00000000000E+00  0.00000000000E+00  0.10790766617E+03  0.10790766628E+03  0.50400000000E-02 0.  1.
          1   -1    0    0  501    0  0.00000000000E+00 -0.00000000000E+00 -0.18852291966E+02  0.18852292639E+02  0.50400000000E-02 0. -1.
         23    2    1    2    0    0  0.00000000000E+00 -0.88817841970E-15  0.89055374200E+02  0.12675995892E+03  0.90206582422E+02 0.  0.
    9000005    2    3    3    0    0  0.22946100837E+02 -0.78586997523E+01  0.97163842701E+02  0.10118594933E+03  0.14474159990E+02 0.  0.
         22    1    3    3    0    0 -0.22946100837E+02  0.78586997523E+01 -0.81084685005E+01  0.25574009596E+02  0.00000000000E+00 0. -1.
         22    1    4    4    0    0  0.22912181800E+02 -0.30042498137E+01  0.85108879226E+02  0.88190220064E+02  0.00000000000E+00 0.  1.
         22    1    4    4    0    0  0.33919036916E-01 -0.48544499386E+01  0.12054963474E+02  0.12995729263E+02  0.00000000000E+00 0.  1.
<mgrwt>
<rscale>  0 0.90206582E+02</rscale>
<asrwt>0</asrwt>
<pdfrwt beam="2">  1        1 0.29003527E-02 0.90206582E+02</pdfrwt>
<pdfrwt beam="1">  1       -1 0.16601179E-01 0.90206582E+02</pdfrwt>
<totfact> 0.82447971E+04</totfact>
</mgrwt>
</event>
<event>
 7    1  0.2911475E-009  0.9151341E+02  0.7818608E-02  0.1299228E+00
         -1   -1    0    0    0  501 -0.00000000000E+00  0.00000000000E+00  0.20321225690E+02  0.20321226315E+02  0.50400000000E-02 0.  1.
          1   -1    0    0  501    0  0.00000000000E+00 -0.00000000000E+00 -0.10302902610E+03  0.10302902622E+03  0.50400000000E-02 0. -1.
         23    2    1    2    0    0  0.00000000000E+00  0.00000000000E+00 -0.82707800411E+02  0.12335025254E+03  0.91513411872E+02 0.  0.
    9000005    2    3    3    0    0  0.10654557975E+02  0.22682989208E+02  0.10211923836E+02  0.27110381595E+02  0.16284338342E+01 0.  0.
         22    1    3    3    0    0 -0.10654557975E+02 -0.22682989208E+02 -0.92919724247E+02  0.96239870944E+02  0.00000000000E+00 0. -1.
         22    1    4    4    0    0  0.52371853080E+01  0.12216213501E+02  0.46835423570E+01  0.14092535303E+02  0.00000000000E+00 0.  1.
         22    1    4    4    0    0  0.54173726667E+01  0.10466775707E+02  0.55283814792E+01  0.13017846292E+02  0.00000000000E+00 0.  1.
<mgrwt>
<rscale>  0 0.91513412E+02</rscale>
<asrwt>0</asrwt>
<pdfrwt beam="2">  1        1 0.15850619E-01 0.91513412E+02</pdfrwt>
<pdfrwt beam="1">  1       -1 0.31263425E-02 0.91513412E+02</pdfrwt>
<totfact> 0.10392365E+05</totfact>
</mgrwt>
</event>
<event>
 7    1  0.2911475E-009  0.9193978E+02  0.7818608E-02  0.1298221E+00
         -1   -1    0    0    0  501 -0.00000000000E+00  0.00000000000E+00  0.56883640557E+01  0.56883662884E+01  0.50400000000E-02 0.  1.
          1   -1    0    0  501    0  0.00000000000E+00 -0.00000000000E+00 -0.37150054862E+03  0.37150054866E+03  0.50400000000E-02 0. -1.
         23    2    1    2    0    0  0.00000000000E+00  0.55511151231E-15 -0.36581218457E+03  0.37718891495E+03  0.91939780182E+02 0.  0.
    9000005    2    3    3    0    0 -0.23787706504E+02  0.84519223560E+00 -0.34364010793E+03  0.34465938508E+03  0.11618890548E+02 0.  0.
         22    1    3    3    0    0  0.23787706504E+02 -0.84519223560E+00 -0.22172076639E+02  0.32529529863E+02  0.00000000000E+00 0.  1.
         22    1    4    4    0    0 -0.14458768225E+02 -0.50644367092E+01 -0.18300780308E+03  0.18364792536E+03  0.00000000000E+00 0. -1.
         22    1    4    4    0    0 -0.93289382791E+01  0.59096289448E+01 -0.16063230485E+03  0.16101145973E+03  0.00000000000E+00 0. -1.
<mgrwt>
<rscale>  0 0.91939780E+02</rscale>
<asrwt>0</asrwt>
<pdfrwt beam="2">  1        1 0.57153912E-01 0.91939780E+02</pdfrwt>
<pdfrwt beam="1">  1       -1 0.87513340E-03 0.91939780E+02</pdfrwt>
<totfact> 0.13029781E+05</totfact>
</mgrwt>
</event>
<event>
 7    1  0.2911475E-009  0.9087528E+02  0.7818608E-02  0.1300746E+00
          1   -1    0    0  501    0  0.00000000000E+00  0.00000000000E+00  0.21604418859E+03  0.21604418865E+03  0.50400000000E-02 0. -1.
         -1   -1    0    0    0  501 -0.00000000000E+00 -0.00000000000E+00 -0.95562808497E+01  0.95562821788E+01  0.50400000000E-02 0.  1.
         23    2    1    2    0    0  0.71054273576E-14  0.00000000000E+00  0.20648790774E+03  0.22560047083E+03  0.90875279338E+02 0.  0.
    9000005    2    3    3    0    0 -0.44239936024E+02  0.48182327578E+01  0.11966752802E+03  0.12803938411E+03  0.96632973255E+01 0.  0.
         22    1    3    3    0    0  0.44239936024E+02 -0.48182327578E+01  0.86820379722E+02  0.97561086717E+02  0.00000000000E+00 0. -1.
         22    1    4    4    0    0 -0.45153483651E+01  0.77896681387E+00  0.59135505153E+01  0.74809919030E+01  0.00000000000E+00 0. -1.
         22    1    4    4    0    0 -0.39724587659E+02  0.40392659440E+01  0.11375397750E+03  0.12055839221E+03  0.00000000000E+00 0. -1.
<mgrwt>
<rscale>  0 0.90875279E+02</rscale>
<asrwt>0</asrwt>
<pdfrwt beam="1">  1        1 0.33237566E-01 0.90875279E+02</pdfrwt>
<pdfrwt beam="2">  1       -1 0.14701972E-02 0.90875279E+02</pdfrwt>
<totfact> 0.12126800E+05</totfact>
</mgrwt>
</event>
<event>
 7    1  0.2911475E-009  0.9127767E+02  0.7818608E-02  0.1299787E+00
          1   -1    0    0  501    0  0.00000000000E+00  0.00000000000E+00  0.22024733190E+03  0.22024733196E+03  0.50400000000E-02 0. -1.
         -1   -1    0    0    0  501 -0.00000000000E+00 -0.00000000000E+00 -0.94571101726E+01  0.94571115156E+01  0.50400000000E-02 0.  1.
         23    2    1    2    0    0 -0.71054273576E-14  0.44408920985E-15  0.21079022173E+03  0.22970444348E+03  0.91277674026E+02 0.  0.
    9000005    2    3    3    0    0 -0.41499781379E+02 -0.29095343568E+01  0.67258882176E+02  0.80265684518E+02  0.13715889868E+02 0.  0.
         22    1    3    3    0    0  0.41499781379E+02  0.29095343568E+01  0.14353133955E+03  0.14943875896E+03  0.00000000000E+00 0. -1.
         22    1    4    4    0    0 -0.27895370672E+02  0.37286555406E+01  0.49401288705E+02  0.56855447433E+02  0.00000000000E+00 0.  1.
         22    1    4    4    0    0 -0.13604410707E+02 -0.66381898975E+01  0.17857593471E+02  0.23410237085E+02  0.00000000000E+00 0.  1.
<mgrwt>
<rscale>  0 0.91277674E+02</rscale>
<asrwt>0</asrwt>
<pdfrwt beam="1">  1        1 0.33884202E-01 0.91277674E+02</pdfrwt>
<pdfrwt beam="2">  1       -1 0.14549403E-02 0.91277674E+02</pdfrwt>
<totfact> 0.12029295E+05</totfact>
</mgrwt>
</event>
<event>
 7    1  0.2911475E-009  0.9232301E+02  0.7818608E-02  0.1297322E+00
          1   -1    0    0  501    0  0.00000000000E+00  0.00000000000E+00  0.35442105247E+03  0.35442105251E+03  0.50400000000E-02 0. -1.
         -1   -1    0    0    0  501 -0.00000000000E+00 -0.00000000000E+00 -0.60122957159E+01  0.60122978283E+01  0.50400000000E-02 0.  1.
         23    2    1    2    0    0  0.35527136788E-14  0.35527136788E-14  0.34840875676E+03  0.36043335034E+03  0.92323010405E+02 0.  0.
    9000005    2    3    3    0    0  0.29918233460E+02  0.21259851307E+02  0.28241823107E+03  0.28492287788E+03  0.85969253302E+01 0.  0.
         22    1    3    3    0    0 -0.29918233460E+02 -0.21259851307E+02  0.65990525687E+02  0.75510472461E+02  0.00000000000E+00 0.  1.
         22    1    4    4    0    0  0.21495610482E+02  0.11955432570E+02  0.20863137024E+03  0.21007627731E+03  0.00000000000E+00 0.  1.
         22    1    4    4    0    0  0.84226229782E+01  0.93044187366E+01  0.73786860828E+02  0.74846600569E+02  0.00000000000E+00 0.  1.
<mgrwt>
<rscale>  0 0.92323010E+02</rscale>
<asrwt>0</asrwt>
<pdfrwt beam="1">  1        1 0.54526313E-01 0.92323010E+02</pdfrwt>
<pdfrwt beam="2">  1       -1 0.92496878E-03 0.92323010E+02</pdfrwt>
<totfact> 0.12780576E+05</totfact>
</mgrwt>
</event>
<event>
 7    1  0.2911475E-009  0.9026324E+02  0.7818608E-02  0.1302215E+00
         -1   -1    0    0    0  501 -0.00000000000E+00  0.00000000000E+00  0.13954289582E+02  0.13954290492E+02  0.50400000000E-02 0.  1.
          1   -1    0    0  501    0  0.00000000000E+00 -0.00000000000E+00 -0.14596680364E+03  0.14596680373E+03  0.50400000000E-02 0. -1.
         23    2    1    2    0    0  0.35527136788E-14  0.00000000000E+00 -0.13201251406E+03  0.15992109422E+03  0.90263240071E+02 0.  0.
    9000005    2    3    3    0    0 -0.31868857109E+02 -0.23474537699E+02 -0.31230124435E+02  0.51644743930E+02  0.11188428388E+02 0.  0.
         22    1    3    3    0    0  0.31868857109E+02  0.23474537699E+02 -0.10078238962E+03  0.10827635029E+03  0.00000000000E+00 0. -1.
         22    1    4    4    0    0  0.85111951328E+00 -0.29966330794E+00 -0.14166248672E+01  0.16795917773E+01  0.00000000000E+00 0.  1.
         22    1    4    4    0    0 -0.32719976622E+02 -0.23174874391E+02 -0.29813499568E+02  0.49965152153E+02  0.00000000000E+00 0.  1.
<mgrwt>
<rscale>  0 0.90263240E+02</rscale>
<asrwt>0</asrwt>
<pdfrwt beam="2">  1        1 0.22456430E-01 0.90263240E+02</pdfrwt>
<pdfrwt beam="1">  1       -1 0.21468140E-02 0.90263240E+02</pdfrwt>
<totfact> 0.11464487E+05</totfact>
</mgrwt>
</event>
<event>
 7    1  0.2911475E-009  0.8997141E+02  0.7818608E-02  0.1302921E+00
         -1   -1    0    0    0  501 -0.00000000000E+00  0.00000000000E+00  0.87789257198E+03  0.87789257200E+03  0.50400000000E-02 0.  1.
          1   -1    0    0  501    0  0.00000000000E+00 -0.00000000000E+00 -0.23051921719E+01  0.23051976815E+01  0.50400000000E-02 0. -1.
         23    2    1    2    0    0  0.35527136788E-14  0.17763568394E-14  0.87558737981E+03  0.88019776968E+03  0.89971406921E+02 0.  0.
    9000005    2    3    3    0    0  0.26872648928E+02  0.11032149722E+02  0.77251379769E+03  0.77310897046E+03  0.87215244719E+01 0.  0.
         22    1    3    3    0    0 -0.26872648928E+02 -0.11032149722E+02  0.10307358212E+03  0.10708879922E+03  0.00000000000E+00 0. -1.
         22    1    4    4    0    0  0.26584339213E+01  0.45310285430E+01  0.12860778452E+03  0.12871503304E+03  0.00000000000E+00 0.  1.
         22    1    4    4    0    0  0.24214215006E+02  0.65011211793E+01  0.64390601317E+03  0.64439393741E+03  0.00000000000E+00 0.  1.
<mgrwt>
<rscale>  0 0.89971407E+02</rscale>
<asrwt>0</asrwt>
<pdfrwt beam="2">  1        1 0.35464469E-03 0.89971407E+02</pdfrwt>
<pdfrwt beam="1">  1       -1 0.13506066E+00 0.89971407E+02</pdfrwt>
<totfact> 0.30781826E+04</totfact>
</mgrwt>
</event>
<event>
 7    1  0.2911475E-009  0.1007676E+03  0.7818608E-02  0.1278690E+00
         -1   -1    0    0    0  501 -0.00000000000E+00  0.00000000000E+00  0.23366647909E+02  0.23366648453E+02  0.50400000000E-02 0.  1.
          1   -1    0    0  501    0  0.00000000000E+00 -0.00000000000E+00 -0.10863882282E+03  0.10863882293E+03  0.50400000000E-02 0. -1.
         23    2    1    2    0    0  0.71054273576E-14  0.00000000000E+00 -0.85272174906E+02  0.13200547138E+03  0.10076755759E+03 0.  0.
    9000005    2    3    3    0    0  0.49342529320E+02  0.44305657356E+01 -0.39380501043E+02  0.64475027566E+02  0.12324374415E+02 0.  0.
         22    1    3    3    0    0 -0.49342529320E+02 -0.44305657356E+01 -0.45891673863E+02  0.67530443819E+02  0.00000000000E+00 0. -1.
         22    1    4    4    0    0  0.12150801418E+02  0.33892691397E+01 -0.42696646105E+01  0.13317625775E+02  0.00000000000E+00 0. -1.
         22    1    4    4    0    0  0.37191727902E+02  0.10412965959E+01 -0.35110836432E+02  0.51157401790E+02  0.00000000000E+00 0. -1.
<mgrwt>
<rscale>  0 0.10076756E+03</rscale>
<asrwt>0</asrwt>
<pdfrwt beam="2">  1        1 0.16713665E-01 0.10076756E+03</pdfrwt>
<pdfrwt beam="1">  1       -1 0.35948690E-02 0.10076756E+03</pdfrwt>
<totfact> 0.80535989E+04</totfact>
</mgrwt>
</event>
<event>
 7    1  0.2911475E-009  0.8536617E+02  0.7818608E-02  0.1314478E+00
         -1   -1    0    0    0  501 -0.00000000000E+00  0.00000000000E+00  0.56335157223E+02  0.56335157449E+02  0.50400000000E-02 0.  1.
          1   -1    0    0  501    0  0.00000000000E+00 -0.00000000000E+00 -0.32339409904E+02  0.32339410297E+02  0.50400000000E-02 0. -1.
         23    2    1    2    0    0  0.00000000000E+00  0.00000000000E+00  0.23995747319E+02  0.88674567745E+02  0.85366170556E+02 0.  0.
    9000005    2    3    3    0    0  0.38761525495E+02  0.25868579504E+01  0.30245216202E+02  0.49327349876E+02  0.30441172687E+01 0.  0.
         22    1    3    3    0    0 -0.38761525495E+02 -0.25868579504E+01 -0.62494688825E+01  0.39347217869E+02  0.00000000000E+00 0. -1.
         22    1    4    4    0    0  0.12593011620E+02  0.19249719454E+01  0.87342263313E+01  0.15445911053E+02  0.00000000000E+00 0.  1.
         22    1    4    4    0    0  0.26168513875E+02  0.66188600499E+00  0.21510989870E+02  0.33881438823E+02  0.00000000000E+00 0.  1.
<mgrwt>
<rscale>  0 0.85366171E+02</rscale>
<asrwt>0</asrwt>
<pdfrwt beam="2">  1        1 0.49752939E-02 0.85366171E+02</pdfrwt>
<pdfrwt beam="1">  1       -1 0.86669472E-02 0.85366171E+02</pdfrwt>
<totfact> 0.10576055E+05</totfact>
</mgrwt>
</event>
<event>
 7    1  0.2911475E-009  0.9309664E+02  0.7818608E-02  0.1295521E+00
          1   -1    0    0  501    0  0.00000000000E+00  0.00000000000E+00  0.21172556455E+02  0.21172557055E+02  0.50400000000E-02 0. -1.
         -1   -1    0    0    0  501 -0.00000000000E+00 -0.00000000000E+00 -0.10233748303E+03  0.10233748316E+03  0.50400000000E-02 0.  1.
         23    2    1    2    0    0 -0.48572257327E-15  0.00000000000E+00 -0.81164926580E+02  0.12351004021E+03  0.93096641866E+02 0.  0.
    9000005    2    3    3    0    0 -0.11896595032E+00 -0.38934464289E+02 -0.72449682081E+02  0.83611893025E+02  0.15036141768E+02 0.  0.
         22    1    3    3    0    0  0.11896595032E+00  0.38934464289E+02 -0.87152444992E+01  0.39898147188E+02  0.00000000000E+00 0. -1.
         22    1    4    4    0    0 -0.43738787935E+01 -0.27241382528E+01 -0.69970797448E+01  0.86896990670E+01  0.00000000000E+00 0. -1.
         22    1    4    4    0    0  0.42549128432E+01 -0.36210326036E+02 -0.65452602336E+02  0.74922193958E+02  0.00000000000E+00 0. -1.
<mgrwt>
<rscale>  0 0.93096642E+02</rscale>
<asrwt>0</asrwt>
<pdfrwt beam="1">  1        1 0.32573165E-02 0.93096642E+02</pdfrwt>
<pdfrwt beam="2">  1       -1 0.15744228E-01 0.93096642E+02</pdfrwt>
<totfact> 0.76779230E+04</totfact>
</mgrwt>
</event>
<event>
 7    1  0.2911475E-009  0.8863114E+02  0.7818608E-02  0.1306201E+00
          1   -1    0    0  501    0  0.00000000000E+00  0.00000000000E+00  0.56442574670E+02  0.56442574895E+02  0.50400000000E-02 0. -1.
         -1   -1    0    0    0  501 -0.00000000000E+00 -0.00000000000E+00 -0.34794121392E+02  0.34794121757E+02  0.50400000000E-02 0.  1.
         23    2    1    2    0    0  0.00000000000E+00 -0.17763568394E-14  0.21648453279E+02  0.91236696652E+02  0.88631141743E+02 0.  0.
    9000005    2    3    3    0    0 -0.88193984945E+01  0.15935113637E+02 -0.29218844355E+02  0.37207152836E+02  0.14103961154E+02 0.  0.
         22    1    3    3    0    0  0.88193984945E+01 -0.15935113637E+02  0.50867297634E+02  0.54029543816E+02  0.00000000000E+00 0. -1.
         22    1    4    4    0    0  0.35615418783E+01  0.62529317001E+01 -0.74567119703E+01  0.10362735585E+02  0.00000000000E+00 0.  1.
         22    1    4    4    0    0 -0.12380940373E+02  0.96821819373E+01 -0.21762132385E+02  0.26844417251E+02  0.00000000000E+00 0.  1.
<mgrwt>
<rscale>  0 0.88631142E+02</rscale>
<asrwt>0</asrwt>
<pdfrwt beam="1">  1        1 0.86834730E-02 0.88631142E+02</pdfrwt>
<pdfrwt beam="2">  1       -1 0.53529418E-02 0.88631142E+02</pdfrwt>
<totfact> 0.10328430E+05</totfact>
</mgrwt>
</event>
<event>
 7    1  0.2911475E-009  0.9227476E+02  0.7818608E-02  0.1297435E+00
         -1   -1    0    0    0  501 -0.00000000000E+00  0.00000000000E+00  0.63218436553E+01  0.63218456643E+01  0.50400000000E-02 0.  1.
          1   -1    0    0  501    0  0.00000000000E+00 -0.00000000000E+00 -0.33671469171E+03  0.33671469175E+03  0.50400000000E-02 0. -1.
         23    2    1    2    0    0  0.00000000000E+00  0.00000000000E+00 -0.33039284805E+03  0.34303653741E+03  0.92274763364E+02 0.  0.
    9000005    2    3    3    0    0  0.30015779128E+02  0.16580214168E+02 -0.27787473890E+03  0.28031491205E+03  0.13646571055E+02 0.  0.
         22    1    3    3    0    0 -0.30015779128E+02 -0.16580214168E+02 -0.52518109151E+02  0.62721625357E+02  0.00000000000E+00 0.  1.
         22    1    4    4    0    0  0.18511822738E+02  0.63275345821E+01 -0.19823871346E+03  0.19920168872E+03  0.00000000000E+00 0. -1.
         22    1    4    4    0    0  0.11503956390E+02  0.10252679586E+02 -0.79636025439E+02  0.81113223330E+02  0.00000000000E+00 0. -1.
<mgrwt>
<rscale>  0 0.92274763E+02</rscale>
<asrwt>0</asrwt>
<pdfrwt beam="2">  1        1 0.51802247E-01 0.92274763E+02</pdfrwt>
<pdfrwt beam="1">  1       -1 0.97259175E-03 0.92274763E+02</pdfrwt>
<totfact> 0.12680692E+05</totfact>
</mgrwt>
</event>
<event>
 7    1  0.2911475E-009  0.9285673E+02  0.7818608E-02  0.1296078E+00
          1   -1    0    0  501    0  0.00000000000E+00  0.00000000000E+00  0.64465268927E+01  0.64465288629E+01  0.50400000000E-02 0. -1.
         -1   -1    0    0    0  501 -0.00000000000E+00 -0.00000000000E+00 -0.33438045078E+03  0.33438045082E+03  0.50400000000E-02 0.  1.
         23    2    1    2    0    0 -0.22204460493E-15  0.00000000000E+00 -0.32793392389E+03  0.34082697968E+03  0.92856726425E+02 0.  0.
    9000005    2    3    3    0    0 -0.10804005587E+01  0.10283123379E+02 -0.33004153077E+03  0.33027463878E+03  0.68567553185E+01 0.  0.
         22    1    3    3    0    0  0.10804005587E+01 -0.10283123379E+02  0.21076068832E+01  0.10552340905E+02  0.00000000000E+00 0. -1.
         22    1    4    4    0    0 -0.10265694363E+01  0.80248516751E+01 -0.14933123086E+03  0.14955022100E+03  0.00000000000E+00 0.  1.
         22    1    4    4    0    0 -0.53831122431E-01  0.22582717040E+01 -0.18071029991E+03  0.18072441778E+03  0.00000000000E+00 0.  1.
<mgrwt>
<rscale>  0 0.92856726E+02</rscale>
<asrwt>0</asrwt>
<pdfrwt beam="1">  1        1 0.99177378E-03 0.92856726E+02</pdfrwt>
<pdfrwt beam="2">  1       -1 0.51443133E-01 0.92856726E+02</pdfrwt>
<totfact> 0.55231353E+04</totfact>
</mgrwt>
</event>
<event>
 7    1  0.2911475E-009  0.9129430E+02  0.7818608E-02  0.1299747E+00
         -1   -1    0    0    0  501 -0.00000000000E+00  0.00000000000E+00  0.74512061757E+02  0.74512061927E+02  0.50400000000E-02 0.  1.
          1   -1    0    0  501    0  0.00000000000E+00 -0.00000000000E+00 -0.27964091201E+02  0.27964091655E+02  0.50400000000E-02 0. -1.
         23    2    1    2    0    0  0.00000000000E+00  0.00000000000E+00  0.46547970556E+02  0.10247615358E+03  0.91294296044E+02 0.  0.
    9000005    2    3    3    0    0 -0.17891436280E+02 -0.31453438463E+01  0.70182173406E+02  0.72667224980E+02  0.49991441390E+01 0.  0.
         22    1    3    3    0    0  0.17891436280E+02  0.31453438463E+01 -0.23634202850E+02  0.29808928603E+02  0.00000000000E+00 0.  1.
         22    1    4    4    0    0 -0.54246565405E+01  0.21596918653E+00  0.13891713234E+02  0.14914866337E+02  0.00000000000E+00 0. -1.
         22    1    4    4    0    0 -0.12466779739E+02 -0.33613130328E+01  0.56290460173E+02  0.57752358643E+02  0.00000000000E+00 0. -1.
<mgrwt>
<rscale>  0 0.91294296E+02</rscale>
<asrwt>0</asrwt>
<pdfrwt beam="2">  1        1 0.43021680E-02 0.91294296E+02</pdfrwt>
<pdfrwt beam="1">  1       -1 0.11463394E-01 0.91294296E+02</pdfrwt>
<totfact> 0.85379525E+04</totfact>
</mgrwt>
</event>
<event>
 7    1  0.2911475E-009  0.9009633E+02  0.7818608E-02  0.1302619E+00
          1   -1    0    0  501    0  0.00000000000E+00  0.00000000000E+00  0.18795979029E+04  0.18795979029E+04  0.50400000000E-02 0. -1.
         -1   -1    0    0    0  501 -0.00000000000E+00 -0.00000000000E+00 -0.10796596323E+01  0.10796713959E+01  0.50400000000E-02 0.  1.
         23    2    1    2    0    0 -0.17763568394E-14 -0.88817841970E-15  0.18785182432E+04  0.18806775743E+04  0.90096327314E+02 0.  0.
    9000005    2    3    3    0    0  0.14678346254E+02 -0.50303718983E+01  0.18203370008E+04  0.18204628297E+04  0.14743113991E+02 0.  0.
         22    1    3    3    0    0 -0.14678346254E+02  0.50303718983E+01  0.58181242413E+02  0.60214744531E+02  0.00000000000E+00 0.  1.
         22    1    4    4    0    0  0.15966738701E+02 -0.76627791042E+01  0.13420796442E+04  0.13421964931E+04  0.00000000000E+00 0.  1.
         22    1    4    4    0    0 -0.12883924468E+01  0.26324072060E+01  0.47825735667E+03  0.47826633661E+03  0.00000000000E+00 0.  1.
<mgrwt>
<rscale>  0 0.90096327E+02</rscale>
<asrwt>0</asrwt>
<pdfrwt beam="1">  1        1 0.28916595E+00 0.90096327E+02</pdfrwt>
<pdfrwt beam="2">  1       -1 0.16610408E-03 0.90096327E+02</pdfrwt>
<totfact> 0.89857850E+04</totfact>
</mgrwt>
</event>
<event>
 7    1  0.2911475E-009  0.9500866E+02  0.7818608E-02  0.1291157E+00
          1   -1    0    0  501    0  0.00000000000E+00  0.00000000000E+00  0.26455650482E+02  0.26455650962E+02  0.50400000000E-02 0. -1.
         -1   -1    0    0    0  501 -0.00000000000E+00 -0.00000000000E+00 -0.85299794295E+02  0.85299794444E+02  0.50400000000E-02 0.  1.
         23    2    1    2    0    0 -0.88817841970E-15 -0.71054273576E-14 -0.58844143813E+02  0.11175544541E+03  0.95008664430E+02 0.  0.
    9000005    2    3    3    0    0 -0.77474040169E+01 -0.42888950449E+02 -0.79441349348E+01  0.44745780108E+02  0.62921552695E+01 0.  0.
         22    1    3    3    0    0  0.77474040169E+01  0.42888950449E+02 -0.50900008878E+02  0.67009665298E+02  0.00000000000E+00 0.  1.
         22    1    4    4    0    0 -0.38133882875E+01 -0.79317882396E+01 -0.25010049249E+01  0.91493289668E+01  0.00000000000E+00 0.  1.
         22    1    4    4    0    0 -0.39340157293E+01 -0.34957162210E+02 -0.54431300100E+01  0.35596451141E+02  0.00000000000E+00 0.  1.
<mgrwt>
<rscale>  0 0.95008664E+02</rscale>
<asrwt>0</asrwt>
<pdfrwt beam="1">  1        1 0.40701001E-02 0.95008664E+02</pdfrwt>
<pdfrwt beam="2">  1       -1 0.13123045E-01 0.95008664E+02</pdfrwt>
<totfact> 0.75326414E+04</totfact>
</mgrwt>
</event>
<event>
 7    1  0.2911475E-009  0.9097640E+02  0.7818608E-02  0.1300504E+00
         -1   -1    0    0    0  501 -0.00000000000E+00  0.00000000000E+00  0.41819524733E+02  0.41819525037E+02  0.50400000000E-02 0.  1.
          1   -1    0    0  501    0  0.00000000000E+00 -0.00000000000E+00 -0.49478708843E+02  0.49478709100E+02  0.50400000000E-02 0. -1.
         23    2    1    2    0    0 -0.35527136788E-14  0.00000000000E+00 -0.76591841098E+01  0.91298234136E+02  0.90976395044E+02 0.  0.
    9000005    2    3    3    0    0 -0.25458124568E+02  0.36579197618E+02 -0.90005750984E+01  0.46711766070E+02  0.10715639617E+02 0.  0.
         22    1    3    3    0    0  0.25458124568E+02 -0.36579197618E+02  0.13413909886E+01  0.44586468066E+02  0.00000000000E+00 0. -1.
         22    1    4    4    0    0  0.34943003780E+00  0.29529755539E+00  0.97956652318E+00  0.10811348532E+01  0.00000000000E+00 0. -1.
         22    1    4    4    0    0 -0.25807554606E+02  0.36283900062E+02 -0.99801416216E+01  0.45630631217E+02  0.00000000000E+00 0. -1.
<mgrwt>
<rscale>  0 0.90976395E+02</rscale>
<asrwt>0</asrwt>
<pdfrwt beam="2">  1        1 0.76121091E-02 0.90976395E+02</pdfrwt>
<pdfrwt beam="1">  1       -1 0.64337731E-02 0.90976395E+02</pdfrwt>
<totfact> 0.94194653E+04</totfact>
</mgrwt>
</event>
<event>
 7    1  0.2911475E-009  0.9123397E+02  0.7818608E-02  0.1299891E+00
         -1   -1    0    0    0  501 -0.00000000000E+00  0.00000000000E+00  0.42132252640E+02  0.42132252941E+02  0.50400000000E-02 0.  1.
          1   -1    0    0  501    0  0.00000000000E+00 -0.00000000000E+00 -0.49389937189E+02  0.49389937447E+02  0.50400000000E-02 0. -1.
         23    2    1    2    0    0 -0.71054273576E-14  0.17763568394E-14 -0.72576845496E+01  0.91522190388E+02  0.91233970364E+02 0.  0.
    9000005    2    3    3    0    0 -0.34608775027E+02  0.11400126209E+02  0.23094403684E+02  0.44098784283E+02  0.91444577333E+01 0.  0.
         22    1    3    3    0    0  0.34608775027E+02 -0.11400126209E+02 -0.30352088233E+02  0.47423406105E+02  0.00000000000E+00 0. -1.
         22    1    4    4    0    0 -0.11769855540E+02  0.23849903839E+00  0.44977907405E+01  0.12602241974E+02  0.00000000000E+00 0. -1.
         22    1    4    4    0    0 -0.22838919487E+02  0.11161627171E+02  0.18596612943E+02  0.31496542309E+02  0.00000000000E+00 0. -1.
<mgrwt>
<rscale>  0 0.91233970E+02</rscale>
<asrwt>0</asrwt>
<pdfrwt beam="2">  1        1 0.75984519E-02 0.91233970E+02</pdfrwt>
<pdfrwt beam="1">  1       -1 0.64818851E-02 0.91233970E+02</pdfrwt>
<totfact> 0.93427307E+04</totfact>
</mgrwt>
</event>
<event>
 7    1  0.2911475E-009  0.8977135E+02  0.7818608E-02  0.1303406E+00
          1   -1    0    0  501    0  0.00000000000E+00  0.00000000000E+00  0.78942761166E+01  0.78942777254E+01  0.50400000000E-02 0. -1.
         -1   -1    0    0    0  501 -0.00000000000E+00 -0.00000000000E+00 -0.25521324441E+03  0.25521324446E+03  0.50400000000E-02 0.  1.
         23    2    1    2    0    0  0.00000000000E+00  0.00000000000E+00 -0.24731896830E+03  0.26310752219E+03  0.89771354857E+02 0.  0.
    9000005    2    3    3    0    0  0.10564073780E+02  0.14042508580E+02 -0.24411552842E+03  0.24524544703E+03  0.15625183844E+02 0.  0.
         22    1    3    3    0    0 -0.10564073780E+02 -0.14042508580E+02 -0.32034398789E+01  0.17862075163E+02  0.00000000000E+00 0. -1.
         22    1    4    4    0    0 -0.18751540975E+01  0.40409771381E+01 -0.17142539836E+02  0.17711927370E+02  0.00000000000E+00 0.  1.
         22    1    4    4    0    0  0.12439227878E+02  0.10001531442E+02 -0.22697298858E+03  0.22753351966E+03  0.00000000000E+00 0.  1.
<mgrwt>
<rscale>  0 0.89771355E+02</rscale>
<asrwt>0</asrwt>
<pdfrwt beam="1">  1        1 0.12145043E-02 0.89771355E+02</pdfrwt>
<pdfrwt beam="2">  1       -1 0.39263570E-01 0.89771355E+02</pdfrwt>
<totfact> 0.66969861E+04</totfact>
</mgrwt>
</event>
<event>
 7    1  0.2911475E-009  0.9274625E+02  0.7818608E-02  0.1296334E+00
         -1   -1    0    0    0  501 -0.00000000000E+00  0.00000000000E+00  0.53760207675E+01  0.53760231300E+01  0.50400000000E-02 0.  1.
          1   -1    0    0  501    0  0.00000000000E+00 -0.00000000000E+00 -0.40001078209E+03  0.40001078212E+03  0.50400000000E-02 0. -1.
         23    2    1    2    0    0  0.00000000000E+00  0.00000000000E+00 -0.39463476132E+03  0.40538680525E+03  0.92746250750E+02 0.  0.
    9000005    2    3    3    0    0  0.43676405721E+02  0.37618589184E+01 -0.25186526987E+03  0.25603852877E+03  0.14065349174E+02 0.  0.
         22    1    3    3    0    0 -0.43676405721E+02 -0.37618589184E+01 -0.14276949145E+03  0.14934827648E+03  0.00000000000E+00 0. -1.
         22    1    4    4    0    0  0.60397841018E+01 -0.34795185846E+01 -0.58305304979E+02  0.58720478798E+02  0.00000000000E+00 0. -1.
         22    1    4    4    0    0  0.37636621620E+02  0.72413775030E+01 -0.19355996489E+03  0.19731804997E+03  0.00000000000E+00 0. -1.
<mgrwt>
<rscale>  0 0.92746251E+02</rscale>
<asrwt>0</asrwt>
<pdfrwt beam="2">  1        1 0.61540097E-01 0.92746251E+02</pdfrwt>
<pdfrwt beam="1">  1       -1 0.82708062E-03 0.92746251E+02</pdfrwt>
<totfact> 0.12890790E+05</totfact>
</mgrwt>
</event>
<event>
 7    1  0.2911475E-009  0.9022200E+02  0.7818608E-02  0.1302315E+00
          1   -1    0    0  501    0  0.00000000000E+00  0.00000000000E+00  0.80145185181E+02  0.80145185340E+02  0.50400000000E-02 0. -1.
         -1   -1    0    0    0  501 -0.00000000000E+00 -0.00000000000E+00 -0.25391445265E+02  0.25391445765E+02  0.50400000000E-02 0.  1.
         23    2    1    2    0    0  0.00000000000E+00  0.00000000000E+00  0.54753739916E+02  0.10553663110E+03  0.90221995489E+02 0.  0.
    9000005    2    3    3    0    0 -0.29500287760E+02  0.12850929468E+02 -0.65890259553E+01  0.36266520011E+02  0.15376340416E+02 0.  0.
         22    1    3    3    0    0  0.29500287760E+02 -0.12850929468E+02  0.61342765872E+02  0.69270111093E+02  0.00000000000E+00 0. -1.
         22    1    4    4    0    0 -0.14698369564E+02  0.10035185557E+02 -0.10547205507E+02  0.20687932739E+02  0.00000000000E+00 0. -1.
         22    1    4    4    0    0 -0.14801918196E+02  0.28157439114E+01  0.39581795516E+01  0.15578587273E+02  0.00000000000E+00 0. -1.
<mgrwt>
<rscale>  0 0.90221995E+02</rscale>
<asrwt>0</asrwt>
<pdfrwt beam="1">  1        1 0.12330029E-01 0.90221995E+02</pdfrwt>
<pdfrwt beam="2">  1       -1 0.39063763E-02 0.90221995E+02</pdfrwt>
<totfact> 0.10372301E+05</totfact>
</mgrwt>
</event>
<event>
 6    1  0.2911475E-009  0.1548376E+03  0.7818608E-02  0.1194652E+00
          1   -1    0    0  501    0  0.00000000000E+00  0.00000000000E+00  0.53098461352E+03  0.53098461354E+03  0.50400000000E-02 0. -1.
         -1   -1    0    0    0  501 -0.00000000000E+00 -0.00000000000E+00 -0.11287837243E+02  0.11287838368E+02  0.50400000000E-02 0.  1.
    9000005    2    1    2    0    0 -0.73476000628E+02  0.22440153087E+02  0.27649941154E+03  0.28722884514E+03  0.12091392018E+02 0.  0.
         22    1    1    2    0    0  0.73476000628E+02 -0.22440153087E+02  0.24319736474E+03  0.25504360677E+03  0.00000000000E+00 0. -1.
         22    1    3    3    0    0 -0.13345486119E+02  0.19447335633E+01  0.65474941732E+02  0.66849472573E+02  0.00000000000E+00 0. -1.
         22    1    3    3    0    0 -0.60130514509E+02  0.20495419523E+02  0.21102446981E+03  0.22037937257E+03  0.00000000000E+00 0. -1.
<mgrwt>
<rscale>  0 0.15483757E+03</rscale>
<asrwt>0</asrwt>
<pdfrwt beam="1">  1        1 0.81689921E-01 0.15483757E+03</pdfrwt>
<pdfrwt beam="2">  1       -1 0.17365908E-02 0.15483757E+03</pdfrwt>
<totfact> 0.33220868E+04</totfact>
</mgrwt>
</event>
<event>
 7    1  0.2911475E-009  0.9082179E+02  0.7818608E-02  0.1300874E+00
         -1   -1    0    0    0  501 -0.00000000000E+00  0.00000000000E+00  0.42314697649E+01  0.42314727664E+01  0.50400000000E-02 0.  1.
          1   -1    0    0  501    0  0.00000000000E+00 -0.00000000000E+00 -0.48733628509E+03  0.48733628511E+03  0.50400000000E-02 0. -1.
         23    2    1    2    0    0  0.00000000000E+00  0.00000000000E+00 -0.48310481532E+03  0.49156775788E+03  0.90821792535E+02 0.  0.
    9000005    2    3    3    0    0 -0.63212002073E+01  0.42281369358E+02 -0.31619808821E+03  0.31927287310E+03  0.11236758479E+02 0.  0.
         22    1    3    3    0    0  0.63212002073E+01 -0.42281369358E+02 -0.16690672711E+03  0.17229488478E+03  0.00000000000E+00 0.  1.
         22    1    4    4    0    0 -0.79173509618E+01  0.41747436185E+02 -0.30175042430E+03  0.30472750358E+03  0.00000000000E+00 0. -1.
         22    1    4    4    0    0  0.15961507545E+01  0.53393317368E+00 -0.14447663916E+02  0.14545369521E+02  0.00000000000E+00 0. -1.
<mgrwt>
<rscale>  0 0.90821793E+02</rscale>
<asrwt>0</asrwt>
<pdfrwt beam="2">  1        1 0.74974769E-01 0.90821793E+02</pdfrwt>
<pdfrwt beam="1">  1       -1 0.65099597E-03 0.90821793E+02</pdfrwt>
<totfact> 0.14027501E+05</totfact>
</mgrwt>
</event>
<event>
 7    1  0.2911475E-009  0.8931897E+02  0.7818608E-02  0.1304509E+00
          1   -1    0    0  501    0  0.00000000000E+00  0.00000000000E+00  0.50254874493E+02  0.50254874746E+02  0.50400000000E-02 0. -1.
         -1   -1    0    0    0  501 -0.00000000000E+00 -0.00000000000E+00 -0.39687086122E+02  0.39687086442E+02  0.50400000000E-02 0.  1.
         23    2    1    2    0    0  0.00000000000E+00  0.00000000000E+00  0.10567788371E+02  0.89941961188E+02  0.89318969045E+02 0.  0.
    9000005    2    3    3    0    0 -0.27884232089E+02 -0.32685973054E+02  0.16797292772E+02  0.46528714837E+02  0.60719870071E+01 0.  0.
         22    1    3    3    0    0  0.27884232089E+02  0.32685973054E+02 -0.62295044012E+01  0.43413246351E+02  0.00000000000E+00 0.  1.
         22    1    4    4    0    0 -0.12166827389E+02 -0.11593950873E+02  0.91488606475E+01  0.19135125730E+02  0.00000000000E+00 0. -1.
         22    1    4    4    0    0 -0.15717404699E+02 -0.21092022181E+02  0.76484321250E+01  0.27393589106E+02  0.00000000000E+00 0. -1.
<mgrwt>
<rscale>  0 0.89318969E+02</rscale>
<asrwt>0</asrwt>
<pdfrwt beam="1">  1        1 0.77315191E-02 0.89318969E+02</pdfrwt>
<pdfrwt beam="2">  1       -1 0.61057056E-02 0.89318969E+02</pdfrwt>
<totfact> 0.99378187E+04</totfact>
</mgrwt>
</event>
<event>
 7    1  0.2911475E-009  0.9926768E+02  0.7818608E-02  0.1281843E+00
          1   -1    0    0  501    0  0.00000000000E+00  0.00000000000E+00  0.23582936116E+03  0.23582936121E+03  0.50400000000E-02 0. -1.
         -1   -1    0    0    0  501 -0.00000000000E+00 -0.00000000000E+00 -0.10446187453E+02  0.10446188669E+02  0.50400000000E-02 0.  1.
         23    2    1    2    0    0 -0.17763568394E-14 -0.71054273576E-14  0.22538317370E+03  0.24627554988E+03  0.99267675906E+02 0.  0.
    9000005    2    3    3    0    0  0.10639393062E+02  0.42011440979E+02  0.57612811525E+02  0.72998164502E+02  0.11460284066E+02 0.  0.
         22    1    3    3    0    0 -0.10639393062E+02 -0.42011440979E+02  0.16777036218E+03  0.17327738538E+03  0.00000000000E+00 0. -1.
         22    1    4    4    0    0  0.13257978678E+01  0.27218275162E+02  0.37400889024E+02  0.46275465882E+02  0.00000000000E+00 0.  1.
         22    1    4    4    0    0  0.93135951940E+01  0.14793165818E+02  0.20211922501E+02  0.26722698620E+02  0.00000000000E+00 0.  1.
<mgrwt>
<rscale>  0 0.99267676E+02</rscale>
<asrwt>0</asrwt>
<pdfrwt beam="1">  1        1 0.36281439E-01 0.99267676E+02</pdfrwt>
<pdfrwt beam="2">  1       -1 0.16071059E-02 0.99267676E+02</pdfrwt>
<totfact> 0.97292086E+04</totfact>
</mgrwt>
</event>
<event>
 7    1  0.2911475E-009  0.9250217E+02  0.7818608E-02  0.1296903E+00
          1   -1    0    0  501    0  0.00000000000E+00  0.00000000000E+00  0.18490308122E+03  0.18490308129E+03  0.50400000000E-02 0. -1.
         -1   -1    0    0    0  501 -0.00000000000E+00 -0.00000000000E+00 -0.11569101572E+02  0.11569102669E+02  0.50400000000E-02 0.  1.
         23    2    1    2    0    0  0.00000000000E+00  0.00000000000E+00  0.17333397965E+03  0.19647218396E+03  0.92502165210E+02 0.  0.
    9000005    2    3    3    0    0  0.42123525611E+02 -0.14562389496E+01  0.12655897050E+03  0.13350859509E+03  0.55551695164E+01 0.  0.
         22    1    3    3    0    0 -0.42123525611E+02  0.14562389496E+01  0.46775009151E+02  0.62963588866E+02  0.00000000000E+00 0.  1.
         22    1    4    4    0    0  0.23477237115E+02 -0.24229016273E+01  0.63542687205E+02  0.67784395049E+02  0.00000000000E+00 0.  1.
         22    1    4    4    0    0  0.18646288496E+02  0.96666267772E+00  0.63016283292E+02  0.65724200043E+02  0.00000000000E+00 0.  1.
<mgrwt>
<rscale>  0 0.92502165E+02</rscale>
<asrwt>0</asrwt>
<pdfrwt beam="1">  1        1 0.28446628E-01 0.92502165E+02</pdfrwt>
<pdfrwt beam="2">  1       -1 0.17798619E-02 0.92502165E+02</pdfrwt>
<totfact> 0.11218468E+05</totfact>
</mgrwt>
</event>
<event>
 7    1  0.2911475E-009  0.9269471E+02  0.7818608E-02  0.1296454E+00
         -1   -1    0    0    0  501 -0.00000000000E+00  0.00000000000E+00  0.24278019038E+03  0.24278019043E+03  0.50400000000E-02 0.  1.
          1   -1    0    0  501    0  0.00000000000E+00 -0.00000000000E+00 -0.88478265259E+01  0.88478279614E+01  0.50400000000E-02 0. -1.
         23    2    1    2    0    0  0.00000000000E+00  0.00000000000E+00  0.23393236385E+03  0.25162801839E+03  0.92694707413E+02 0.  0.
    9000005    2    3    3    0    0 -0.19012808945E+02 -0.27946528265E+02  0.34697593585E+02  0.49546378876E+02  0.10412747623E+02 0.  0.
         22    1    3    3    0    0  0.19012808945E+02  0.27946528265E+02  0.19923477027E+03  0.20208163952E+03  0.00000000000E+00 0.  1.
         22    1    4    4    0    0 -0.80621650208E+01 -0.16509673595E+02  0.24832964756E+02  0.30890839510E+02  0.00000000000E+00 0.  1.
         22    1    4    4    0    0 -0.10950643925E+02 -0.11436854670E+02  0.98646288285E+01  0.18655539366E+02  0.00000000000E+00 0.  1.
<mgrwt>
<rscale>  0 0.92694707E+02</rscale>
<asrwt>0</asrwt>
<pdfrwt beam="2">  1        1 0.13612044E-02 0.92694707E+02</pdfrwt>
<pdfrwt beam="1">  1       -1 0.37350794E-01 0.92694707E+02</pdfrwt>
<totfact> 0.62641430E+04</totfact>
</mgrwt>
</event>
<event>
 7    1  0.2911475E-009  0.8633349E+02  0.7818608E-02  0.1311982E+00
         -1   -1    0    0    0  501 -0.00000000000E+00  0.00000000000E+00  0.20872621432E+03  0.20872621439E+03  0.50400000000E-02 0.  1.
          1   -1    0    0  501    0  0.00000000000E+00 -0.00000000000E+00 -0.89273293121E+01  0.89273307347E+01  0.50400000000E-02 0. -1.
         23    2    1    2    0    0  0.00000000000E+00  0.00000000000E+00  0.19979888501E+03  0.21765354512E+03  0.86333488584E+02 0.  0.
    9000005    2    3    3    0    0  0.98463637945E+01 -0.30868447784E+02  0.17174135211E+03  0.17479287433E+03  0.27649486005E+01 0.  0.
         22    1    3    3    0    0 -0.98463637945E+01  0.30868447784E+02  0.28057532898E+02  0.42860670794E+02  0.00000000000E+00 0. -1.
         22    1    4    4    0    0  0.47908405873E+01 -0.19443860846E+02  0.10572313276E+03  0.10760295851E+03  0.00000000000E+00 0.  1.
         22    1    4    4    0    0  0.50555232072E+01 -0.11424586937E+02  0.66018219351E+02  0.67189915820E+02  0.00000000000E+00 0.  1.
<mgrwt>
<rscale>  0 0.86333489E+02</rscale>
<asrwt>0</asrwt>
<pdfrwt beam="2">  1        1 0.13734354E-02 0.86333489E+02</pdfrwt>
<pdfrwt beam="1">  1       -1 0.32111724E-01 0.86333489E+02</pdfrwt>
<totfact> 0.79026602E+04</totfact>
</mgrwt>
</event>
<event>
 7    1  0.2911475E-009  0.1233197E+03  0.7818608E-02  0.1237719E+00
          1   -1    0    0  501    0  0.00000000000E+00  0.00000000000E+00  0.10990600447E+04  0.10990600447E+04  0.50400000000E-02 0.  1.
         -1   -1    0    0    0  501 -0.00000000000E+00 -0.00000000000E+00 -0.34592630097E+01  0.34592666812E+01  0.50400000000E-02 0. -1.
         23    2    1    2    0    0  0.35527136788E-14  0.00000000000E+00  0.10956007817E+04  0.11025193114E+04  0.12331974357E+03 0.  0.
    9000005    2    3    3    0    0 -0.28673473714E+02 -0.33066933262E+02  0.93497447583E+03  0.93603687897E+03  0.84957738599E+01 0.  0.
         22    1    3    3    0    0  0.28673473714E+02  0.33066933262E+02  0.16062630586E+03  0.16648243242E+03  0.00000000000E+00 0. -1.
         22    1    4    4    0    0 -0.21341988971E+02 -0.21885123432E+02  0.57203217834E+03  0.57284836752E+03  0.00000000000E+00 0. -1.
         22    1    4    4    0    0 -0.73314847429E+01 -0.11181809829E+02  0.36294229749E+03  0.36318851145E+03  0.00000000000E+00 0. -1.
<mgrwt>
<rscale>  0 0.12331974E+03</rscale>
<asrwt>0</asrwt>
<pdfrwt beam="1">  1        1 0.16908621E+00 0.12331974E+03</pdfrwt>
<pdfrwt beam="2">  1       -1 0.53219443E-03 0.12331974E+03</pdfrwt>
<totfact> 0.58757023E+04</totfact>
</mgrwt>
</event>
<event>
 7    1  0.2911475E-009  0.9003042E+02  0.7818608E-02  0.1302778E+00
          1   -1    0    0  501    0  0.00000000000E+00  0.00000000000E+00  0.43621375854E+03  0.43621375857E+03  0.50400000000E-02 0. -1.
         -1   -1    0    0    0  501 -0.00000000000E+00 -0.00000000000E+00 -0.46453570715E+01  0.46453598056E+01  0.50400000000E-02 0.  1.
         23    2    1    2    0    0  0.00000000000E+00 -0.44408920985E-15  0.43156840147E+03  0.44085911838E+03  0.90030423236E+02 0.  0.
    9000005    2    3    3    0    0 -0.43613729650E+02  0.37342140976E+01  0.20028845198E+03  0.20547322923E+03  0.13699714174E+02 0.  0.
         22    1    3    3    0    0  0.43613729650E+02 -0.37342140976E+01  0.23127994950E+03  0.23538588914E+03  0.00000000000E+00 0.  1.
         22    1    4    4    0    0 -0.35451500204E+02 -0.25512671204E+01  0.15788132422E+03  0.16183272342E+03  0.00000000000E+00 0.  1.
         22    1    4    4    0    0 -0.81622294455E+01  0.62854812180E+01  0.42407127756E+02  0.43640505819E+02  0.00000000000E+00 0.  1.
<mgrwt>
<rscale>  0 0.90030423E+02</rscale>
<asrwt>0</asrwt>
<pdfrwt beam="1">  1        1 0.67109799E-01 0.90030423E+02</pdfrwt>
<pdfrwt beam="2">  1       -1 0.71467064E-03 0.90030423E+02</pdfrwt>
<totfact> 0.14139882E+05</totfact>
</mgrwt>
</event>
<event>
 7    1  0.2911475E-009  0.9127353E+02  0.7818608E-02  0.1299797E+00
          1   -1    0    0  501    0  0.00000000000E+00  0.00000000000E+00  0.11342133708E+03  0.11342133719E+03  0.50400000000E-02 0. -1.
         -1   -1    0    0    0  501 -0.00000000000E+00 -0.00000000000E+00 -0.18362630992E+02  0.18362631683E+02  0.50400000000E-02 0.  1.
         23    2    1    2    0    0  0.00000000000E+00  0.00000000000E+00  0.95058706083E+02  0.13178396887E+03  0.91273527647E+02 0.  0.
    9000005    2    3    3    0    0 -0.13432865907E+02  0.19529182490E+02 -0.70223540020E+01  0.26987147910E+02  0.10824132363E+02 0.  0.
         22    1    3    3    0    0  0.13432865907E+02 -0.19529182490E+02  0.10208106009E+03  0.10479682096E+03  0.00000000000E+00 0. -1.
         22    1    4    4    0    0 -0.12330258685E+02  0.18160553874E+02 -0.95255419718E+01  0.23928580110E+02  0.00000000000E+00 0.  1.
         22    1    4    4    0    0 -0.11026072221E+01  0.13686286164E+01  0.25031879698E+01  0.30585678001E+01  0.00000000000E+00 0.  1.
<mgrwt>
<rscale>  0 0.91273528E+02</rscale>
<asrwt>0</asrwt>
<pdfrwt beam="1">  1        1 0.17449436E-01 0.91273528E+02</pdfrwt>
<pdfrwt beam="2">  1       -1 0.28250202E-02 0.91273528E+02</pdfrwt>
<totfact> 0.10638891E+05</totfact>
</mgrwt>
</event>
<event>
 7    1  0.2911475E-009  0.9283594E+02  0.7818608E-02  0.1296126E+00
          1   -1    0    0  501    0  0.00000000000E+00  0.00000000000E+00  0.43597688677E+03  0.43597688680E+03  0.50400000000E-02 0. -1.
         -1   -1    0    0    0  501 -0.00000000000E+00 -0.00000000000E+00 -0.49420682106E+01  0.49420707805E+01  0.50400000000E-02 0.  1.
         23    2    1    2    0    0  0.00000000000E+00  0.00000000000E+00  0.43103481856E+03  0.44091895758E+03  0.92835943161E+02 0.  0.
    9000005    2    3    3    0    0 -0.33222839663E+02  0.31230038831E+02  0.21506318817E+03  0.22018650067E+03  0.12282010036E+02 0.  0.
         22    1    3    3    0    0  0.33222839663E+02 -0.31230038831E+02  0.21597163040E+03  0.22073245692E+03  0.00000000000E+00 0. -1.
         22    1    4    4    0    0 -0.47869801920E+01  0.16784000106E+01  0.43254516339E+02  0.43550951651E+02  0.00000000000E+00 0.  1.
         22    1    4    4    0    0 -0.28435859471E+02  0.29551638820E+02  0.17180867183E+03  0.17663554902E+03  0.00000000000E+00 0.  1.
<mgrwt>
<rscale>  0 0.92835943E+02</rscale>
<asrwt>0</asrwt>
<pdfrwt beam="1">  1        1 0.67073384E-01 0.92835943E+02</pdfrwt>
<pdfrwt beam="2">  1       -1 0.76031820E-03 0.92835943E+02</pdfrwt>
<totfact> 0.13032850E+05</totfact>
</mgrwt>
</event>
<event>
 7    1  0.2911475E-009  0.8983444E+02  0.7818608E-02  0.1303253E+00
          1   -1    0    0  501    0  0.00000000000E+00  0.00000000000E+00  0.17934170716E+04  0.17934170716E+04  0.50400000000E-02 0. -1.
         -1   -1    0    0    0  501 -0.00000000000E+00 -0.00000000000E+00 -0.11249735200E+01  0.11249848098E+01  0.50400000000E-02 0.  1.
         23    2    1    2    0    0  0.00000000000E+00  0.17763568394E-14  0.17922920981E+04  0.17945420564E+04  0.89834444448E+02 0.  0.
    9000005    2    3    3    0    0 -0.85884745291E+01  0.11839977737E+02  0.17444647219E+04  0.17445280096E+04  0.26197965795E+01 0.  0.
         22    1    3    3    0    0  0.85884745291E+01 -0.11839977737E+02  0.47827376209E+02  0.50014046852E+02  0.00000000000E+00 0.  1.
         22    1    4    4    0    0 -0.71333231080E+01  0.78313828551E+01  0.12565938755E+04  0.12566385252E+04  0.00000000000E+00 0. -1.
         22    1    4    4    0    0 -0.14551514210E+01  0.40085948818E+01  0.48787084636E+03  0.48788948444E+03  0.00000000000E+00 0. -1.
<mgrwt>
<rscale>  0 0.89834444E+02</rscale>
<asrwt>0</asrwt>
<pdfrwt beam="1">  1        1 0.27591139E+00 0.89834444E+02</pdfrwt>
<pdfrwt beam="2">  1       -1 0.17307305E-03 0.89834444E+02</pdfrwt>
<totfact> 0.96093394E+04</totfact>
</mgrwt>
</event>
<event>
 7    1  0.2911475E-009  0.9181517E+02  0.7818608E-02  0.1298515E+00
         -1   -1    0    0    0  501 -0.00000000000E+00  0.00000000000E+00  0.25820591748E+03  0.25820591753E+03  0.50400000000E-02 0.  1.
          1   -1    0    0  501    0  0.00000000000E+00 -0.00000000000E+00 -0.81621140978E+01  0.81621156539E+01  0.50400000000E-02 0. -1.
         23    2    1    2    0    0 -0.35527136788E-14  0.00000000000E+00  0.25004380338E+03  0.26636803318E+03  0.91815170272E+02 0.  0.
    9000005    2    3    3    0    0 -0.25572574890E+02  0.34055399025E+02  0.17399511502E+03  0.17920651765E+03  0.51912547991E+01 0.  0.
         22    1    3    3    0    0  0.25572574890E+02 -0.34055399025E+02  0.76048688358E+02  0.87161515534E+02  0.00000000000E+00 0. -1.
         22    1    4    4    0    0 -0.22485228368E+02  0.27575451621E+02  0.14990504190E+03  0.15406983032E+03  0.00000000000E+00 0.  1.
         22    1    4    4    0    0 -0.30873465222E+01  0.64799474031E+01  0.24090073120E+02  0.25136687328E+02  0.00000000000E+00 0.  1.
<mgrwt>
<rscale>  0 0.91815170E+02</rscale>
<asrwt>0</asrwt>
<pdfrwt beam="2">  1        1 0.12557102E-02 0.91815170E+02</pdfrwt>
<pdfrwt beam="1">  1       -1 0.39723981E-01 0.91815170E+02</pdfrwt>
<totfact> 0.62892873E+04</totfact>
</mgrwt>
</event>
<event>
 7    1  0.2911475E-009  0.9182237E+02  0.7818608E-02  0.1298498E+00
          1   -1    0    0  501    0  0.00000000000E+00  0.00000000000E+00  0.74034969069E+02  0.74034969241E+02  0.50400000000E-02 0. -1.
         -1   -1    0    0    0  501 -0.00000000000E+00 -0.00000000000E+00 -0.28470827977E+02  0.28470828423E+02  0.50400000000E-02 0.  1.
         23    2    1    2    0    0  0.00000000000E+00  0.00000000000E+00  0.45564141093E+02  0.10250579766E+03  0.91822369830E+02 0.  0.
    9000005    2    3    3    0    0  0.19984054230E+02 -0.57608086907E+01 -0.22622730193E+02  0.31217658707E+02  0.54959033435E+01 0.  0.
         22    1    3    3    0    0 -0.19984054230E+02  0.57608086907E+01  0.68186871285E+02  0.71288138957E+02  0.00000000000E+00 0. -1.
         22    1    4    4    0    0  0.19144279131E+02 -0.63774876292E+01 -0.20068475137E+02  0.28459084072E+02  0.00000000000E+00 0. -1.
         22    1    4    4    0    0  0.83977509963E+00  0.61667893851E+00 -0.25542550551E+01  0.27585746351E+01  0.00000000000E+00 0. -1.
<mgrwt>
<rscale>  0 0.91822370E+02</rscale>
<asrwt>0</asrwt>
<pdfrwt beam="1">  1        1 0.11389995E-01 0.91822370E+02</pdfrwt>
<pdfrwt beam="2">  1       -1 0.43801275E-02 0.91822370E+02</pdfrwt>
<totfact> 0.97611204E+04</totfact>
</mgrwt>
</event>
<event>
 7    1  0.2911475E-009  0.9117698E+02  0.7818608E-02  0.1300026E+00
          1   -1    0    0  501    0  0.00000000000E+00  0.00000000000E+00  0.23521664767E+03  0.23521664772E+03  0.50400000000E-02 0. -1.
         -1   -1    0    0    0  501 -0.00000000000E+00 -0.00000000000E+00 -0.88357279891E+01  0.88357294265E+01  0.50400000000E-02 0.  1.
         23    2    1    2    0    0  0.00000000000E+00  0.88817841970E-15  0.22638091968E+03  0.24405237715E+03  0.91176981729E+02 0.  0.
    9000005    2    3    3    0    0 -0.40712175565E+02 -0.68262351887E+01  0.16103663740E+03  0.16676101960E+03  0.13128607876E+02 0.  0.
         22    1    3    3    0    0  0.40712175565E+02  0.68262351887E+01  0.65344282275E+02  0.77291357551E+02  0.00000000000E+00 0.  1.
         22    1    4    4    0    0 -0.38777499246E+02 -0.49704623030E+01  0.13385045946E+03  0.13944298276E+03  0.00000000000E+00 0. -1.
         22    1    4    4    0    0 -0.19346763187E+01 -0.18557728857E+01  0.27186177947E+02  0.27318036841E+02  0.00000000000E+00 0. -1.
<mgrwt>
<rscale>  0 0.91176982E+02</rscale>
<asrwt>0</asrwt>
<pdfrwt beam="1">  1        1 0.36187173E-01 0.91176982E+02</pdfrwt>
<pdfrwt beam="2">  1       -1 0.13593430E-02 0.91176982E+02</pdfrwt>
<totfact> 0.12220831E+05</totfact>
</mgrwt>
</event>
<event>
 7    1  0.2911475E-009  0.1070236E+03  0.7818608E-02  0.1266183E+00
          1   -1    0    0  501    0  0.00000000000E+00  0.00000000000E+00  0.68513238878E+02  0.68513239064E+02  0.50400000000E-02 0. -1.
         -1   -1    0    0    0  501 -0.00000000000E+00 -0.00000000000E+00 -0.41795045899E+02  0.41795046203E+02  0.50400000000E-02 0.  1.
         23    2    1    2    0    0 -0.71054273576E-14  0.17763568394E-14  0.26718192979E+02  0.11030828527E+03  0.10702362338E+03 0.  0.
    9000005    2    3    3    0    0 -0.50325952767E+02  0.13497860628E+02  0.74085805740E+01  0.54740714736E+02  0.15058719078E+02 0.  0.
         22    1    3    3    0    0  0.50325952767E+02 -0.13497860628E+02  0.19309612405E+02  0.55567570530E+02  0.00000000000E+00 0.  1.
         22    1    4    4    0    0 -0.70938324815E+01  0.61757109260E+01  0.54034639250E+01  0.10847086572E+02  0.00000000000E+00 0. -1.
         22    1    4    4    0    0 -0.43232120285E+02  0.73221497024E+01  0.20051166490E+01  0.43893628164E+02  0.00000000000E+00 0. -1.
<mgrwt>
<rscale>  0 0.10702362E+03</rscale>
<asrwt>0</asrwt>
<pdfrwt beam="1">  1        1 0.10540498E-01 0.10702362E+03</pdfrwt>
<pdfrwt beam="2">  1       -1 0.64300071E-02 0.10702362E+03</pdfrwt>
<totfact> 0.62845933E+04</totfact>
</mgrwt>
</event>
<event>
 7    1  0.2911475E-009  0.9100838E+02  0.7818608E-02  0.1300428E+00
         -1   -1    0    0    0  501 -0.00000000000E+00  0.00000000000E+00  0.18883573087E+02  0.18883573760E+02  0.50400000000E-02 0.  1.
          1   -1    0    0  501    0  0.00000000000E+00 -0.00000000000E+00 -0.10965251221E+03  0.10965251232E+03  0.50400000000E-02 0. -1.
         23    2    1    2    0    0  0.00000000000E+00  0.35527136788E-14 -0.90768939119E+02  0.12853608608E+03  0.91008379375E+02 0.  0.
    9000005    2    3    3    0    0 -0.18227625377E+02 -0.19472609435E+02 -0.96637783706E+02  0.10122542549E+03  0.14010591758E+02 0.  0.
         22    1    3    3    0    0  0.18227625377E+02  0.19472609435E+02  0.58688445869E+01  0.27310660590E+02  0.00000000000E+00 0.  1.
         22    1    4    4    0    0 -0.78835606729E+01 -0.54710860169E+01 -0.15412747077E+02  0.18155882891E+02  0.00000000000E+00 0. -1.
         22    1    4    4    0    0 -0.10344064704E+02 -0.14001523418E+02 -0.81225036628E+02  0.83069542601E+02  0.00000000000E+00 0. -1.
<mgrwt>
<rscale>  0 0.91008379E+02</rscale>
<asrwt>0</asrwt>
<pdfrwt beam="2">  1        1 0.16869617E-01 0.91008379E+02</pdfrwt>
<pdfrwt beam="1">  1       -1 0.29051652E-02 0.91008379E+02</pdfrwt>
<totfact> 0.10661773E+05</totfact>
</mgrwt>
</event>
<event>
 7    1  0.2911475E-009  0.8972987E+02  0.7818608E-02  0.1303507E+00
         -1   -1    0    0    0  501 -0.00000000000E+00  0.00000000000E+00  0.78686296258E+01  0.78686312399E+01  0.50400000000E-02 0. -1.
          1   -1    0    0  501    0  0.00000000000E+00 -0.00000000000E+00 -0.25580847572E+03  0.25580847577E+03  0.50400000000E-02 0.  1.
         23    2    1    2    0    0  0.71054273576E-14 -0.88817841970E-15 -0.24793984609E+03  0.26367710701E+03  0.89729869495E+02 0.  0.
    9000005    2    3    3    0    0  0.32093612031E+02 -0.57066756905E+01 -0.21440796165E+03  0.21691223392E+03  0.41925081187E+01 0.  0.
         22    1    3    3    0    0 -0.32093612031E+02  0.57066756905E+01 -0.33531884438E+02  0.46764873084E+02  0.00000000000E+00 0. -1.
         22    1    4    4    0    0  0.34758146347E+01 -0.53494055096E+00 -0.15815945769E+02  0.16202209397E+02  0.00000000000E+00 0.  1.
         22    1    4    4    0    0  0.28617797396E+02 -0.51717351396E+01 -0.19859201588E+03  0.20071002452E+03  0.00000000000E+00 0.  1.
<mgrwt>
<rscale>  0 0.89729869E+02</rscale>
<asrwt>0</asrwt>
<pdfrwt beam="2">  1        1 0.39355144E-01 0.89729869E+02</pdfrwt>
<pdfrwt beam="1">  1       -1 0.12105587E-02 0.89729869E+02</pdfrwt>
<totfact> 0.12963816E+05</totfact>
</mgrwt>
</event>
<event>
 7    1  0.2911475E-009  0.9257904E+02  0.7818608E-02  0.1296724E+00
          1   -1    0    0  501    0  0.00000000000E+00  0.00000000000E+00  0.49592792176E+02  0.49592792432E+02  0.50400000000E-02 0. -1.
         -1   -1    0    0    0  501 -0.00000000000E+00 -0.00000000000E+00 -0.43206269099E+02  0.43206269393E+02  0.50400000000E-02 0.  1.
         23    2    1    2    0    0  0.71054273576E-14 -0.35527136788E-14  0.63865230766E+01  0.92799061825E+02  0.92579037576E+02 0.  0.
    9000005    2    3    3    0    0  0.33004973897E+02 -0.30284275481E+02  0.10567155631E+02  0.47810804113E+02  0.12951546953E+02 0.  0.
         22    1    3    3    0    0 -0.33004973897E+02  0.30284275481E+02 -0.41806325544E+01  0.44988257711E+02  0.00000000000E+00 0.  1.
         22    1    4    4    0    0  0.19867263181E+02 -0.25244725521E+02  0.10305204819E+02  0.33737242912E+02  0.00000000000E+00 0.  1.
         22    1    4    4    0    0  0.13137710716E+02 -0.50395499596E+01  0.26195081178E+00  0.14073561201E+02  0.00000000000E+00 0.  1.
<mgrwt>
<rscale>  0 0.92579038E+02</rscale>
<asrwt>0</asrwt>
<pdfrwt beam="1">  1        1 0.76296604E-02 0.92579038E+02</pdfrwt>
<pdfrwt beam="2">  1       -1 0.66471183E-02 0.92579038E+02</pdfrwt>
<totfact> 0.89728055E+04</totfact>
</mgrwt>
</event>
<event>
 7    1  0.2947296E-009  0.8891724E+02  0.7818608E-02  0.1305495E+00
          1   -1    0    0  501    0  0.00000000000E+00  0.00000000000E+00  0.17995753289E+02  0.17995753995E+02  0.50400000000E-02 0. -1.
         -1   -1    0    0    0  501 -0.00000000000E+00 -0.00000000000E+00 -0.10983530326E+03  0.10983530338E+03  0.50400000000E-02 0.  1.
         23    2    1    2    0    0  0.00000000000E+00  0.00000000000E+00 -0.91839549971E+02  0.12783105737E+03  0.88917244050E+02 0.  0.
    9000005    2    3    3    0    0 -0.21847037795E+02  0.16577792761E+02 -0.95460213839E+02  0.10016834817E+03  0.12997279576E+02 0.  0.
         22    1    3    3    0    0  0.21847037795E+02 -0.16577792761E+02  0.36206638685E+01  0.27662709196E+02  0.00000000000E+00 0. -1.
         22    1    4    4    0    0 -0.22175139047E+02  0.17357844047E+02 -0.95207847158E+02  0.99285274347E+02  0.00000000000E+00 0.  1.
         22    1    4    4    0    0  0.32810125247E+00 -0.78005128654E+00 -0.25236668153E+00  0.88307382673E+00  0.00000000000E+00 0.  1.
<mgrwt>
<rscale>  0 0.88917244E+02</rscale>
<asrwt>0</asrwt>
<pdfrwt beam="1">  1        1 0.27685776E-02 0.88917244E+02</pdfrwt>
<pdfrwt beam="2">  1       -1 0.16897739E-01 0.88917244E+02</pdfrwt>
<totfact> 0.85270537E+04</totfact>
</mgrwt>
</event>
<event>
 7    1  0.2911475E-009  0.9177681E+02  0.7818608E-02  0.1298605E+00
          1   -1    0    0  501    0  0.00000000000E+00  0.00000000000E+00  0.74302202871E+03  0.74302202873E+03  0.50400000000E-02 0. -1.
         -1   -1    0    0    0  501 -0.00000000000E+00 -0.00000000000E+00 -0.28340264296E+01  0.28340309111E+01  0.50400000000E-02 0.  1.
         23    2    1    2    0    0  0.00000000000E+00  0.00000000000E+00  0.74018800228E+03  0.74585605964E+03  0.91776810683E+02 0.  0.
    9000005    2    3    3    0    0 -0.29505864629E+02  0.29891433004E+01  0.65388617954E+03  0.65460072756E+03  0.74461868101E+01 0.  0.
         22    1    3    3    0    0  0.29505864629E+02 -0.29891433004E+01  0.86301822743E+02  0.91255332085E+02  0.00000000000E+00 0.  1.
         22    1    4    4    0    0 -0.19366197230E+01 -0.25432128393E+00  0.10027724785E+03  0.10029626919E+03  0.00000000000E+00 0.  1.
         22    1    4    4    0    0 -0.27569244906E+02  0.32434645843E+01  0.55360893169E+03  0.55430445837E+03  0.00000000000E+00 0.  1.
<mgrwt>
<rscale>  0 0.91776811E+02</rscale>
<asrwt>0</asrwt>
<pdfrwt beam="1">  1        1 0.11431117E+00 0.91776811E+02</pdfrwt>
<pdfrwt beam="2">  1       -1 0.43600408E-03 0.91776811E+02</pdfrwt>
<totfact> 0.13952304E+05</totfact>
</mgrwt>
</event>
<event>
 7    1  0.2911475E-009  0.9115270E+02  0.7818608E-02  0.1300084E+00
          1   -1    0    0  501    0  0.00000000000E+00  0.00000000000E+00  0.24825136411E+03  0.24825136416E+03  0.50400000000E-02 0. -1.
         -1   -1    0    0    0  501 -0.00000000000E+00 -0.00000000000E+00 -0.83673389457E+01  0.83673404636E+01  0.50400000000E-02 0.  1.
         23    2    1    2    0    0  0.00000000000E+00  0.00000000000E+00  0.23988402517E+03  0.25661870463E+03  0.91152696254E+02 0.  0.
    9000005    2    3    3    0    0 -0.38027866209E+02 -0.11278068615E+02  0.59661886656E+02  0.72083253698E+02  0.79461502845E+01 0.  0.
         22    1    3    3    0    0  0.38027866209E+02  0.11278068615E+02  0.18022213851E+03  0.18453545093E+03  0.00000000000E+00 0. -1.
         22    1    4    4    0    0 -0.13853624410E+02 -0.18182400410E+01  0.26614739701E+02  0.30059495596E+02  0.00000000000E+00 0. -1.
         22    1    4    4    0    0 -0.24174241799E+02 -0.94598285736E+01  0.33047146955E+02  0.42023758102E+02  0.00000000000E+00 0. -1.
<mgrwt>
<rscale>  0 0.91152696E+02</rscale>
<asrwt>0</asrwt>
<pdfrwt beam="1">  1        1 0.38192511E-01 0.91152696E+02</pdfrwt>
<pdfrwt beam="2">  1       -1 0.12872833E-02 0.91152696E+02</pdfrwt>
<totfact> 0.12358852E+05</totfact>
</mgrwt>
</event>
<event>
 7    1  0.2911475E-009  0.8937549E+02  0.7818608E-02  0.1304371E+00
         -1   -1    0    0    0  501 -0.00000000000E+00  0.00000000000E+00  0.80695196476E+01  0.80695212216E+01  0.50400000000E-02 0.  1.
          1   -1    0    0  501    0  0.00000000000E+00 -0.00000000000E+00 -0.24747375516E+03  0.24747375521E+03  0.50400000000E-02 0. -1.
         23    2    1    2    0    0  0.33306690739E-15  0.00000000000E+00 -0.23940423551E+03  0.25554327643E+03  0.89375489642E+02 0.  0.
    9000005    2    3    3    0    0  0.62083394863E+00  0.41604227913E+02 -0.76169613441E+02  0.87089012439E+02  0.71686024300E+01 0.  0.
         22    1    3    3    0    0 -0.62083394863E+00 -0.41604227913E+02 -0.16323462207E+03  0.16845426399E+03  0.00000000000E+00 0. -1.
         22    1    4    4    0    0 -0.29937341608E+01  0.12488198881E+02 -0.21466897329E+02  0.25014900289E+02  0.00000000000E+00 0. -1.
         22    1    4    4    0    0  0.36145681094E+01  0.29116029032E+02 -0.54702716112E+02  0.62074112150E+02  0.00000000000E+00 0. -1.
<mgrwt>
<rscale>  0 0.89375490E+02</rscale>
<asrwt>0</asrwt>
<pdfrwt beam="2">  1        1 0.38072880E-01 0.89375490E+02</pdfrwt>
<pdfrwt beam="1">  1       -1 0.12414649E-02 0.89375490E+02</pdfrwt>
<totfact> 0.13017340E+05</totfact>
</mgrwt>
</event>
<event>
 7    1  0.2911475E-009  0.7336799E+02  0.7818608E-02  0.1349001E+00
         -1   -1    0    0    0  501 -0.00000000000E+00  0.00000000000E+00  0.33827087149E+01  0.33827124696E+01  0.50400000000E-02 0.  1.
          1   -1    0    0  501    0  0.00000000000E+00 -0.00000000000E+00 -0.39782162096E+03  0.39782162099E+03  0.50400000000E-02 0. -1.
         23    2    1    2    0    0  0.00000000000E+00  0.00000000000E+00 -0.39443891224E+03  0.40120433346E+03  0.73367988218E+02 0.  0.
    9000005    2    3    3    0    0  0.98391236199E+01  0.32928586617E+02 -0.25571874793E+03  0.25829042876E+03  0.11864542746E+02 0.  0.
         22    1    3    3    0    0 -0.98391236199E+01 -0.32928586617E+02 -0.13872016431E+03  0.14291390470E+03  0.00000000000E+00 0.  1.
         22    1    4    4    0    0 -0.15461660095E+01  0.86316324385E+01 -0.88398674931E+02  0.88832547174E+02  0.00000000000E+00 0. -1.
         22    1    4    4    0    0  0.11385289629E+02  0.24296954178E+02 -0.16732007300E+03  0.16945788158E+03  0.00000000000E+00 0. -1.
<mgrwt>
<rscale>  0 0.73367988E+02</rscale>
<asrwt>0</asrwt>
<pdfrwt beam="2">  1        1 0.61203290E-01 0.73367988E+02</pdfrwt>
<pdfrwt beam="1">  1       -1 0.52041733E-03 0.73367988E+02</pdfrwt>
<totfact> 0.23846511E+05</totfact>
</mgrwt>
</event>
<event>
 7    1  0.2911475E-009  0.8867074E+02  0.7818608E-02  0.1306103E+00
         -1   -1    0    0    0  501 -0.00000000000E+00  0.00000000000E+00  0.31240409936E+02  0.31240410343E+02  0.50400000000E-02 0.  1.
          1   -1    0    0  501    0  0.00000000000E+00 -0.00000000000E+00 -0.62919314215E+02  0.62919314417E+02  0.50400000000E-02 0. -1.
         23    2    1    2    0    0  0.00000000000E+00  0.00000000000E+00 -0.31678904279E+02  0.94159724759E+02  0.88670743712E+02 0.  0.
    9000005    2    3    3    0    0  0.25962487240E+02  0.33625753263E+02 -0.28287770628E+02  0.51542336130E+02  0.71883531133E+01 0.  0.
         22    1    3    3    0    0 -0.25962487240E+02 -0.33625753263E+02 -0.33911336511E+01  0.42617388629E+02  0.00000000000E+00 0.  1.
         22    1    4    4    0    0  0.53042370013E+01  0.61598601384E+01 -0.90182538033E+01  0.12141157636E+02  0.00000000000E+00 0.  1.
         22    1    4    4    0    0  0.20658250238E+02  0.27465893124E+02 -0.19269516824E+02  0.39401178493E+02  0.00000000000E+00 0.  1.
<mgrwt>
<rscale>  0 0.88670744E+02</rscale>
<asrwt>0</asrwt>
<pdfrwt beam="2">  1        1 0.96798945E-02 0.88670744E+02</pdfrwt>
<pdfrwt beam="1">  1       -1 0.48062170E-02 0.88670744E+02</pdfrwt>
<totfact> 0.10483204E+05</totfact>
</mgrwt>
</event>
<event>
 7    1  0.2911475E-009  0.9242957E+02  0.7818608E-02  0.1297073E+00
          1   -1    0    0  501    0  0.00000000000E+00  0.00000000000E+00  0.49675125574E+03  0.49675125577E+03  0.50400000000E-02 0. -1.
         -1   -1    0    0    0  501 -0.00000000000E+00 -0.00000000000E+00 -0.42995471671E+01  0.42995501211E+01  0.50400000000E-02 0.  1.
         23    2    1    2    0    0  0.00000000000E+00  0.00000000000E+00  0.49245170858E+03  0.50105080589E+03  0.92429566716E+02 0.  0.
    9000005    2    3    3    0    0 -0.44846547646E+02  0.51159605638E+01  0.28654613518E+03  0.29025590310E+03  0.10120069529E+02 0.  0.
         22    1    3    3    0    0  0.44846547646E+02 -0.51159605638E+01  0.20590557339E+03  0.21079490279E+03  0.00000000000E+00 0. -1.
         22    1    4    4    0    0 -0.16624469752E+02  0.28083675767E+01  0.78390292769E+02  0.80182902937E+02  0.00000000000E+00 0. -1.
         22    1    4    4    0    0 -0.28222077894E+02  0.23075929871E+01  0.20815584241E+03  0.21007300016E+03  0.00000000000E+00 0. -1.
<mgrwt>
<rscale>  0 0.92429567E+02</rscale>
<asrwt>0</asrwt>
<pdfrwt beam="1">  1        1 0.76423234E-01 0.92429567E+02</pdfrwt>
<pdfrwt beam="2">  1       -1 0.66146934E-03 0.92429567E+02</pdfrwt>
<totfact> 0.13420972E+05</totfact>
</mgrwt>
</event>
<event>
 7    1  0.2911475E-009  0.9114439E+02  0.7818608E-02  0.1300104E+00
          1   -1    0    0  501    0  0.00000000000E+00  0.00000000000E+00  0.11290159889E+03  0.11290159900E+03  0.50400000000E-02 0. -1.
         -1   -1    0    0    0  501 -0.00000000000E+00 -0.00000000000E+00 -0.18394999216E+02  0.18394999907E+02  0.50400000000E-02 0.  1.
         23    2    1    2    0    0  0.00000000000E+00  0.00000000000E+00  0.94506599669E+02  0.13129659890E+03  0.91144388214E+02 0.  0.
    9000005    2    3    3    0    0  0.26509412226E+02 -0.20953431694E+01  0.10042938517E+03  0.10405290628E+03  0.58143358644E+01 0.  0.
         22    1    3    3    0    0 -0.26509412226E+02  0.20953431694E+01 -0.59227854980E+01  0.27243692621E+02  0.00000000000E+00 0.  1.
         22    1    4    4    0    0  0.97494030702E+01 -0.33335873661E+00  0.26818806295E+02  0.28537875873E+02  0.00000000000E+00 0.  1.
         22    1    4    4    0    0  0.16760009156E+02 -0.17619844328E+01  0.73610578872E+02  0.75515030410E+02  0.00000000000E+00 0.  1.
<mgrwt>
<rscale>  0 0.91144388E+02</rscale>
<asrwt>0</asrwt>
<pdfrwt beam="1">  1        1 0.17369477E-01 0.91144388E+02</pdfrwt>
<pdfrwt beam="2">  1       -1 0.28299999E-02 0.91144388E+02</pdfrwt>
<totfact> 0.10671531E+05</totfact>
</mgrwt>
</event>
<event>
 7    1  0.2911475E-009  0.8801991E+02  0.7818608E-02  0.1307719E+00
          1   -1    0    0  501    0  0.00000000000E+00  0.00000000000E+00  0.32957675976E+03  0.32957675980E+03  0.50400000000E-02 0. -1.
         -1   -1    0    0    0  501 -0.00000000000E+00 -0.00000000000E+00 -0.58768573373E+01  0.58768594984E+01  0.50400000000E-02 0.  1.
         23    2    1    2    0    0  0.00000000000E+00  0.00000000000E+00  0.32369990242E+03  0.33545361929E+03  0.88019906106E+02 0.  0.
    9000005    2    3    3    0    0 -0.29724020821E+02  0.23451495375E+02  0.24605625658E+03  0.24907060136E+03  0.76806905660E+01 0.  0.
         22    1    3    3    0    0  0.29724020821E+02 -0.23451495375E+02  0.77643645838E+02  0.86383017938E+02  0.00000000000E+00 0. -1.
         22    1    4    4    0    0 -0.17998615971E+01  0.25016479415E+01  0.10543934848E+02  0.10985094732E+02  0.00000000000E+00 0. -1.
         22    1    4    4    0    0 -0.27924159224E+02  0.20949847434E+02  0.23551232173E+03  0.23808550662E+03  0.00000000000E+00 0. -1.
<mgrwt>
<rscale>  0 0.88019906E+02</rscale>
<asrwt>0</asrwt>
<pdfrwt beam="1">  1        1 0.50704142E-01 0.88019906E+02</pdfrwt>
<pdfrwt beam="2">  1       -1 0.90413162E-03 0.88019906E+02</pdfrwt>
<totfact> 0.14319131E+05</totfact>
</mgrwt>
</event>
<event>
 7    1  0.2911475E-009  0.9115126E+02  0.7818608E-02  0.1300087E+00
          1   -1    0    0  501    0  0.00000000000E+00  0.00000000000E+00  0.38016924108E+02  0.38016924442E+02  0.50400000000E-02 0. -1.
         -1   -1    0    0    0  501 -0.00000000000E+00 -0.00000000000E+00 -0.54637187246E+02  0.54637187479E+02  0.50400000000E-02 0.  1.
         23    2    1    2    0    0 -0.35527136788E-14  0.00000000000E+00 -0.16620263138E+02  0.92654111921E+02  0.91151255115E+02 0.  0.
    9000005    2    3    3    0    0 -0.26048398649E+02 -0.35696764541E+02 -0.53096131144E+01  0.47039324024E+02  0.15222612862E+02 0.  0.
         22    1    3    3    0    0  0.26048398649E+02  0.35696764541E+02 -0.11310650024E+02  0.45614787897E+02  0.00000000000E+00 0. -1.
         22    1    4    4    0    0 -0.26983784639E+02 -0.29850315094E+02 -0.20744222716E+01  0.40292296688E+02  0.00000000000E+00 0. -1.
         22    1    4    4    0    0  0.93538598930E+00 -0.58464494475E+01 -0.32351908428E+01  0.67470273366E+01  0.00000000000E+00 0. -1.
<mgrwt>
<rscale>  0 0.91151255E+02</rscale>
<asrwt>0</asrwt>
<pdfrwt beam="1">  1        1 0.58487576E-02 0.91151255E+02</pdfrwt>
<pdfrwt beam="2">  1       -1 0.84057211E-02 0.91151255E+02</pdfrwt>
<totfact> 0.90034951E+04</totfact>
</mgrwt>
</event>
<event>
 7    1  0.2911475E-009  0.9079065E+02  0.7818608E-02  0.1300948E+00
         -1   -1    0    0    0  501 -0.00000000000E+00  0.00000000000E+00  0.11864570435E+03  0.11864570446E+03  0.50400000000E-02 0.  1.
          1   -1    0    0  501    0  0.00000000000E+00 -0.00000000000E+00 -0.17368817482E+02  0.17368818213E+02  0.50400000000E-02 0. -1.
         23    2    1    2    0    0  0.00000000000E+00 -0.27755575616E-15  0.10127688687E+03  0.13601452267E+03  0.90790652404E+02 0.  0.
    9000005    2    3    3    0    0  0.26083551527E+02  0.38078281417E+00 -0.20893065551E+01  0.29407456307E+02  0.13414045950E+02 0.  0.
         22    1    3    3    0    0 -0.26083551527E+02 -0.38078281417E+00  0.10336619343E+03  0.10660706637E+03  0.00000000000E+00 0.  1.
         22    1    4    4    0    0  0.75161431504E+01 -0.57706954748E+01  0.12717516635E+01  0.95608935991E+01  0.00000000000E+00 0. -1.
         22    1    4    4    0    0  0.18567408377E+02  0.61514782890E+01 -0.33610582185E+01  0.19846562708E+02  0.00000000000E+00 0. -1.
<mgrwt>
<rscale>  0 0.90790652E+02</rscale>
<asrwt>0</asrwt>
<pdfrwt beam="2">  1        1 0.26721259E-02 0.90790652E+02</pdfrwt>
<pdfrwt beam="1">  1       -1 0.18253185E-01 0.90790652E+02</pdfrwt>
<totfact> 0.79580569E+04</totfact>
</mgrwt>
</event>
<event>
 7    1  0.2911475E-009  0.8975226E+02  0.7818608E-02  0.1303453E+00
         -1   -1    0    0    0  501 -0.00000000000E+00  0.00000000000E+00  0.10226482955E+02  0.10226484197E+02  0.50400000000E-02 0.  1.
          1   -1    0    0  501    0  0.00000000000E+00 -0.00000000000E+00 -0.19692665965E+03  0.19692665971E+03  0.50400000000E-02 0. -1.
         23    2    1    2    0    0  0.17763568394E-14  0.00000000000E+00 -0.18670017669E+03  0.20715314391E+03  0.89752264898E+02 0.  0.
    9000005    2    3    3    0    0  0.15440175554E+02  0.91659225147E+01 -0.18773474970E+03  0.18916749691E+03  0.14751016465E+02 0.  0.
         22    1    3    3    0    0 -0.15440175554E+02 -0.91659225147E+01  0.10345730040E+01  0.17985646999E+02  0.00000000000E+00 0.  1.
         22    1    4    4    0    0  0.16704596864E+02  0.11442609417E+02 -0.15278223367E+03  0.15411809690E+03  0.00000000000E+00 0. -1.
         22    1    4    4    0    0 -0.12644213098E+01 -0.22766869022E+01 -0.34952516030E+02  0.35049400014E+02  0.00000000000E+00 0. -1.
<mgrwt>
<rscale>  0 0.89752265E+02</rscale>
<asrwt>0</asrwt>
<pdfrwt beam="2">  1        1 0.30296407E-01 0.89752265E+02</pdfrwt>
<pdfrwt beam="1">  1       -1 0.15733053E-02 0.89752265E+02</pdfrwt>
<totfact> 0.12313735E+05</totfact>
</mgrwt>
</event>
<event>
 7    1  0.2911475E-009  0.9367397E+02  0.7818608E-02  0.1294191E+00
         -1   -1    0    0    0  501 -0.00000000000E+00  0.00000000000E+00  0.64338582902E+02  0.64338583100E+02  0.50400000000E-02 0.  1.
          1   -1    0    0  501    0  0.00000000000E+00 -0.00000000000E+00 -0.34096227125E+02  0.34096227497E+02  0.50400000000E-02 0. -1.
         23    2    1    2    0    0  0.00000000000E+00  0.35527136788E-14  0.30242355778E+02  0.98434810597E+02  0.93673965723E+02 0.  0.
    9000005    2    3    3    0    0  0.34061970853E+02 -0.26792946855E+02  0.30191976026E+02  0.55097962562E+02  0.15689174693E+02 0.  0.
         22    1    3    3    0    0 -0.34061970853E+02  0.26792946855E+02  0.50379751576E-01  0.43336848036E+02  0.00000000000E+00 0. -1.
         22    1    4    4    0    0  0.25033475783E+02 -0.25537730644E+02  0.18470593645E+02  0.40249390379E+02  0.00000000000E+00 0. -1.
         22    1    4    4    0    0  0.90284950694E+01 -0.12552162108E+01  0.11721382381E+02  0.14848572183E+02  0.00000000000E+00 0. -1.
<mgrwt>
<rscale>  0 0.93673966E+02</rscale>
<asrwt>0</asrwt>
<pdfrwt beam="2">  1        1 0.52455735E-02 0.93673966E+02</pdfrwt>
<pdfrwt beam="1">  1       -1 0.98982434E-02 0.93673966E+02</pdfrwt>
<totfact> 0.81886014E+04</totfact>
</mgrwt>
</event>
<event>
 7    1  0.3719991E-009  0.9155233E+02  0.7818608E-02  0.1299135E+00
         -1   -1    0    0    0  501 -0.00000000000E+00  0.00000000000E+00  0.14460522718E+02  0.14460523597E+02  0.50400000000E-02 0.  1.
          1   -1    0    0  501    0  0.00000000000E+00 -0.00000000000E+00 -0.14490882051E+03  0.14490882059E+03  0.50400000000E-02 0. -1.
         23    2    1    2    0    0  0.00000000000E+00  0.00000000000E+00 -0.13044829779E+03  0.15936934419E+03  0.91552331877E+02 0.  0.
    9000005    2    3    3    0    0 -0.79222986873E+01 -0.33764357139E+02 -0.11601254434E+03  0.12180359374E+03  0.13206451990E+02 0.  0.
         22    1    3    3    0    0  0.79222986873E+01  0.33764357139E+02 -0.14435753451E+02  0.37565750454E+02  0.00000000000E+00 0.  1.
         22    1    4    4    0    0 -0.74685348796E+00 -0.45098396934E+01 -0.49894960464E+01  0.67669428097E+01  0.00000000000E+00 0.  1.
         22    1    4    4    0    0 -0.71754451994E+01 -0.29254517445E+02 -0.11102304829E+03  0.11503665093E+03  0.00000000000E+00 0.  1.
<mgrwt>
<rscale>  0 0.91552332E+02</rscale>
<asrwt>0</asrwt>
<pdfrwt beam="2">  1        1 0.22293664E-01 0.91552332E+02</pdfrwt>
<pdfrwt beam="1">  1       -1 0.22246960E-02 0.91552332E+02</pdfrwt>
<totfact> 0.11019484E+05</totfact>
</mgrwt>
</event>
<event>
 7    1  0.2911475E-009  0.9031987E+02  0.7818608E-02  0.1302079E+00
          1   -1    0    0  501    0  0.00000000000E+00  0.00000000000E+00  0.28336541353E+03  0.28336541357E+03  0.50400000000E-02 0. -1.
         -1   -1    0    0    0  501 -0.00000000000E+00 -0.00000000000E+00 -0.71971369119E+01  0.71971386766E+01  0.50400000000E-02 0.  1.
         23    2    1    2    0    0 -0.88817841970E-15  0.00000000000E+00  0.27616827662E+03  0.29056255225E+03  0.90319874671E+02 0.  0.
    9000005    2    3    3    0    0  0.64024620514E+01  0.17773389329E+02  0.26952261907E+03  0.27053632812E+03  0.13804990172E+02 0.  0.
         22    1    3    3    0    0 -0.64024620514E+01 -0.17773389329E+02  0.66456575422E+01  0.20026224126E+02  0.00000000000E+00 0.  1.
         22    1    4    4    0    0  0.93192413704E+01  0.81028144524E+01  0.18511986536E+03  0.18553131383E+03  0.00000000000E+00 0. -1.
         22    1    4    4    0    0 -0.29167793190E+01  0.96705748768E+01  0.84402753718E+02  0.85005014295E+02  0.00000000000E+00 0. -1.
<mgrwt>
<rscale>  0 0.90319875E+02</rscale>
<asrwt>0</asrwt>
<pdfrwt beam="1">  1        1 0.43594667E-01 0.90319875E+02</pdfrwt>
<pdfrwt beam="2">  1       -1 0.11072523E-02 0.90319875E+02</pdfrwt>
<totfact> 0.12995448E+05</totfact>
</mgrwt>
</event>
<event>
 7    1  0.2911475E-009  0.9210974E+02  0.7818608E-02  0.1297822E+00
          1   -1    0    0  501    0  0.00000000000E+00  0.00000000000E+00  0.60679737981E+02  0.60679738190E+02  0.50400000000E-02 0. -1.
         -1   -1    0    0    0  501 -0.00000000000E+00 -0.00000000000E+00 -0.34954846806E+02  0.34954847170E+02  0.50400000000E-02 0.  1.
         23    2    1    2    0    0  0.00000000000E+00  0.00000000000E+00  0.25724891175E+02  0.95634585360E+02  0.92109738307E+02 0.  0.
    9000005    2    3    3    0    0  0.22688118184E+02  0.37456600046E+02  0.24015996138E+02  0.51809159909E+02  0.13772196127E+02 0.  0.
         22    1    3    3    0    0 -0.22688118184E+02 -0.37456600046E+02  0.17088950362E+01  0.43825425451E+02  0.00000000000E+00 0.  1.
         22    1    4    4    0    0  0.11402678442E+02  0.28829736131E+02  0.20525303486E+02  0.37181485234E+02  0.00000000000E+00 0.  1.
         22    1    4    4    0    0  0.11285439742E+02  0.86268639157E+01  0.34906926523E+01  0.14627674674E+02  0.00000000000E+00 0.  1.
<mgrwt>
<rscale>  0 0.92109738E+02</rscale>
<asrwt>0</asrwt>
<pdfrwt beam="1">  1        1 0.93353442E-02 0.92109738E+02</pdfrwt>
<pdfrwt beam="2">  1       -1 0.53776689E-02 0.92109738E+02</pdfrwt>
<totfact> 0.93844630E+04</totfact>
</mgrwt>
</event>
<event>
 7    1  0.2911475E-009  0.9203744E+02  0.7818608E-02  0.1297991E+00
         -1   -1    0    0    0  501 -0.00000000000E+00  0.00000000000E+00  0.17986944133E+03  0.17986944140E+03  0.50400000000E-02 0.  1.
          1   -1    0    0  501    0  0.00000000000E+00 -0.00000000000E+00 -0.11773665145E+02  0.11773666224E+02  0.50400000000E-02 0. -1.
         23    2    1    2    0    0  0.00000000000E+00  0.00000000000E+00  0.16809577618E+03  0.19164310762E+03  0.92037441991E+02 0.  0.
    9000005    2    3    3    0    0 -0.39120730175E+02 -0.17268298380E+02  0.11497331685E+03  0.12344764337E+03  0.13850321607E+02 0.  0.
         22    1    3    3    0    0  0.39120730175E+02  0.17268298380E+02  0.53122459331E+02  0.68195464246E+02  0.00000000000E+00 0. -1.
         22    1    4    4    0    0 -0.29154638247E+02 -0.67407302478E+01  0.68115255400E+02  0.74398376285E+02  0.00000000000E+00 0.  1.
         22    1    4    4    0    0 -0.99660919281E+01 -0.10527568132E+02  0.46858061450E+02  0.49049267089E+02  0.00000000000E+00 0.  1.
<mgrwt>
<rscale>  0 0.92037442E+02</rscale>
<asrwt>0</asrwt>
<pdfrwt beam="2">  1        1 0.18113333E-02 0.92037442E+02</pdfrwt>
<pdfrwt beam="1">  1       -1 0.27672220E-01 0.92037442E+02</pdfrwt>
<totfact> 0.69754971E+04</totfact>
</mgrwt>
</event>
<event>
 7    1  0.2911475E-009  0.9696310E+02  0.7818608E-02  0.1286815E+00
         -1   -1    0    0    0  501 -0.00000000000E+00  0.00000000000E+00  0.24293270806E+03  0.24293270812E+03  0.50400000000E-02 0.  1.
          1   -1    0    0  501    0  0.00000000000E+00 -0.00000000000E+00 -0.96753573056E+01  0.96753586183E+01  0.50400000000E-02 0. -1.
         23    2    1    2    0    0 -0.44408920985E-15  0.00000000000E+00  0.23325735076E+03  0.25260806674E+03  0.96963104821E+02 0.  0.
    9000005    2    3    3    0    0  0.23917117746E+01 -0.34842008072E+02  0.20276980144E+03  0.20624885541E+03  0.14258757581E+02 0.  0.
         22    1    3    3    0    0 -0.23917117746E+01  0.34842008072E+02  0.30487549316E+02  0.46359211328E+02  0.00000000000E+00 0. -1.
         22    1    4    4    0    0  0.83462281174E+01 -0.22547661483E+02  0.12609439137E+03  0.12836608624E+03  0.00000000000E+00 0.  1.
         22    1    4    4    0    0 -0.59545163428E+01 -0.12294346588E+02  0.76675410071E+02  0.77882769163E+02  0.00000000000E+00 0.  1.
<mgrwt>
<rscale>  0 0.96963105E+02</rscale>
<asrwt>0</asrwt>
<pdfrwt beam="2">  1        1 0.14885167E-02 0.96963105E+02</pdfrwt>
<pdfrwt beam="1">  1       -1 0.37374261E-01 0.96963105E+02</pdfrwt>
<totfact> 0.55664130E+04</totfact>
</mgrwt>
</event>
<event>
 7    1  0.2911475E-009  0.1017396E+03  0.7818608E-02  0.1276680E+00
          1   -1    0    0  501    0  0.00000000000E+00  0.00000000000E+00  0.20399383112E+02  0.20399383735E+02  0.50400000000E-02 0. -1.
         -1   -1    0    0    0  501 -0.00000000000E+00 -0.00000000000E+00 -0.12685369691E+03  0.12685369701E+03  0.50400000000E-02 0.  1.
         23    2    1    2    0    0  0.00000000000E+00  0.00000000000E+00 -0.10645431380E+03  0.14725308074E+03  0.10173961305E+03 0.  0.
    9000005    2    3    3    0    0 -0.15272908433E+02  0.47006125704E+02 -0.41849677605E+02  0.65910615800E+02  0.12246475975E+02 0.  0.
         22    1    3    3    0    0  0.15272908433E+02 -0.47006125704E+02 -0.64604636191E+02  0.81342464944E+02  0.00000000000E+00 0.  1.
         22    1    4    4    0    0 -0.13510736346E+02  0.46779615617E+02 -0.41735081043E+02  0.64130253574E+02  0.00000000000E+00 0.  1.
         22    1    4    4    0    0 -0.17621720867E+01  0.22651008722E+00 -0.11459656237E+00  0.17803622258E+01  0.00000000000E+00 0.  1.
<mgrwt>
<rscale>  0 0.10173961E+03</rscale>
<asrwt>0</asrwt>
<pdfrwt beam="1">  1        1 0.31383668E-02 0.10173961E+03</pdfrwt>
<pdfrwt beam="2">  1       -1 0.19515953E-01 0.10173961E+03</pdfrwt>
<totfact> 0.58409330E+04</totfact>
</mgrwt>
</event>
<event>
 7    1  0.2911475E-009  0.9192795E+02  0.7818608E-02  0.1298249E+00
         -1   -1    0    0    0  501 -0.00000000000E+00  0.00000000000E+00  0.25948871628E+03  0.25948871633E+03  0.50400000000E-02 0.  1.
          1   -1    0    0  501    0  0.00000000000E+00 -0.00000000000E+00 -0.81417288609E+01  0.81417304208E+01  0.50400000000E-02 0. -1.
         23    2    1    2    0    0  0.00000000000E+00  0.35527136788E-14  0.25134698742E+03  0.26763044675E+03  0.91927949736E+02 0.  0.
    9000005    2    3    3    0    0 -0.28209656505E+02 -0.28484459862E+02  0.18798209402E+03  0.19264872305E+03  0.13004370271E+02 0.  0.
         22    1    3    3    0    0  0.28209656505E+02  0.28484459862E+02  0.63364893397E+02  0.74981723700E+02  0.00000000000E+00 0. -1.
         22    1    4    4    0    0 -0.21607482392E+02 -0.23808442972E+02  0.16872748947E+03  0.17176347387E+03  0.00000000000E+00 0.  1.
         22    1    4    4    0    0 -0.66021741128E+01 -0.46760168894E+01  0.19254604550E+02  0.20885249180E+02  0.00000000000E+00 0.  1.
<mgrwt>
<rscale>  0 0.91927950E+02</rscale>
<asrwt>0</asrwt>
<pdfrwt beam="2">  1        1 0.12525738E-02 0.91927950E+02</pdfrwt>
<pdfrwt beam="1">  1       -1 0.39921342E-01 0.91927950E+02</pdfrwt>
<totfact> 0.62582773E+04</totfact>
</mgrwt>
</event>
<event>
 7    1  0.2911475E-009  0.9063184E+02  0.7818608E-02  0.1301329E+00
         -1   -1    0    0    0  501 -0.00000000000E+00  0.00000000000E+00  0.71090095758E+02  0.71090095937E+02  0.50400000000E-02 0.  1.
          1   -1    0    0  501    0  0.00000000000E+00 -0.00000000000E+00 -0.28886337525E+02  0.28886337964E+02  0.50400000000E-02 0. -1.
         23    2    1    2    0    0  0.44408920985E-15 -0.35527136788E-14  0.42203758233E+02  0.99976433901E+02  0.90631838371E+02 0.  0.
    9000005    2    3    3    0    0 -0.35230449869E+01  0.22164351444E+02  0.64232426887E+02  0.68529135709E+02  0.81711355639E+01 0.  0.
         22    1    3    3    0    0  0.35230449869E+01 -0.22164351444E+02 -0.22028668654E+02  0.31447298192E+02  0.00000000000E+00 0. -1.
         22    1    4    4    0    0 -0.57011525960E+00  0.77183770086E+00  0.23724137318E+00  0.98845754327E+00  0.00000000000E+00 0. -1.
         22    1    4    4    0    0 -0.29529297273E+01  0.21392513743E+02  0.63995185514E+02  0.67540678166E+02  0.00000000000E+00 0. -1.
<mgrwt>
<rscale>  0 0.90631838E+02</rscale>
<asrwt>0</asrwt>
<pdfrwt beam="2">  1        1 0.44440520E-02 0.90631838E+02</pdfrwt>
<pdfrwt beam="1">  1       -1 0.10936938E-01 0.90631838E+02</pdfrwt>
<totfact> 0.87652183E+04</totfact>
</mgrwt>
</event>
<event>
 7    1  0.2911475E-009  0.9145738E+02  0.7818608E-02  0.1299360E+00
         -1   -1    0    0    0  501 -0.00000000000E+00  0.00000000000E+00  0.35236748301E+02  0.35236748661E+02  0.50400000000E-02 0.  1.
          1   -1    0    0  501    0  0.00000000000E+00 -0.00000000000E+00 -0.59344667938E+02  0.59344668152E+02  0.50400000000E-02 0. -1.
         23    2    1    2    0    0 -0.35527136788E-14  0.00000000000E+00 -0.24107919637E+02  0.94581416813E+02  0.91457381425E+02 0.  0.
    9000005    2    3    3    0    0  0.26029793046E+02 -0.17742149577E+02  0.21725885355E+02  0.38966026158E+02  0.73486803185E+01 0.  0.
         22    1    3    3    0    0 -0.26029793046E+02  0.17742149577E+02 -0.45833804992E+02  0.55615390655E+02  0.00000000000E+00 0. -1.
         22    1    4    4    0    0  0.10234451443E+02 -0.40364484491E+01  0.10602803521E+02  0.15279278613E+02  0.00000000000E+00 0. -1.
         22    1    4    4    0    0  0.15795341603E+02 -0.13705701128E+02  0.11123081834E+02  0.23686747545E+02  0.00000000000E+00 0. -1.
<mgrwt>
<rscale>  0 0.91457381E+02</rscale>
<asrwt>0</asrwt>
<pdfrwt beam="2">  1        1 0.91299489E-02 0.91457381E+02</pdfrwt>
<pdfrwt beam="1">  1       -1 0.54210383E-02 0.91457381E+02</pdfrwt>
<totfact> 0.95393551E+04</totfact>
</mgrwt>
</event>
<event>
 7    1  0.2911475E-009  0.9256477E+02  0.7818608E-02  0.1296757E+00
         -1   -1    0    0    0  501 -0.00000000000E+00  0.00000000000E+00  0.17539774837E+02  0.17539775561E+02  0.50400000000E-02 0.  1.
          1   -1    0    0  501    0  0.00000000000E+00 -0.00000000000E+00 -0.12212581093E+03  0.12212581103E+03  0.50400000000E-02 0. -1.
         23    2    1    2    0    0  0.00000000000E+00  0.17763568394E-14 -0.10458603609E+03  0.13966558659E+03  0.92564772636E+02 0.  0.
    9000005    2    3    3    0    0  0.44168710926E+02 -0.10202929797E+02 -0.47694925528E+02  0.66922385794E+02  0.12199385145E+02 0.  0.
         22    1    3    3    0    0 -0.44168710926E+02  0.10202929797E+02 -0.56891110564E+02  0.72743200799E+02  0.00000000000E+00 0.  1.
         22    1    4    4    0    0  0.84243832237E+01 -0.81597919520E+00 -0.31215086140E+01  0.90210792467E+01  0.00000000000E+00 0. -1.
         22    1    4    4    0    0  0.35744327703E+02 -0.93869506023E+01 -0.44573416914E+02  0.57901306548E+02  0.00000000000E+00 0. -1.
<mgrwt>
<rscale>  0 0.92564773E+02</rscale>
<asrwt>0</asrwt>
<pdfrwt beam="2">  1        1 0.18788586E-01 0.92564773E+02</pdfrwt>
<pdfrwt beam="1">  1       -1 0.26984270E-02 0.92564773E+02</pdfrwt>
<totfact> 0.10372454E+05</totfact>
</mgrwt>
</event>
<event>
 7    1  0.2911475E-009  0.9170451E+02  0.7818608E-02  0.1298776E+00
         -1   -1    0    0    0  501 -0.00000000000E+00  0.00000000000E+00  0.78977495805E+02  0.78977495965E+02  0.50400000000E-02 0.  1.
          1   -1    0    0  501    0  0.00000000000E+00 -0.00000000000E+00 -0.26620609832E+02  0.26620610309E+02  0.50400000000E-02 0. -1.
         23    2    1    2    0    0  0.00000000000E+00  0.00000000000E+00  0.52356885973E+02  0.10559810627E+03  0.91704506650E+02 0.  0.
    9000005    2    3    3    0    0 -0.35041188027E+02 -0.95834466159E+01  0.58017630278E+02  0.68831663239E+02  0.72128450585E+01 0.  0.
         22    1    3    3    0    0  0.35041188027E+02  0.95834466159E+01 -0.56607443050E+01  0.36766443035E+02  0.00000000000E+00 0. -1.
         22    1    4    4    0    0 -0.10479420621E+02 -0.18090704524E+01  0.11550012665E+02  0.15700120541E+02  0.00000000000E+00 0.  1.
         22    1    4    4    0    0 -0.24561767406E+02 -0.77743761635E+01  0.46467617613E+02  0.53131542698E+02  0.00000000000E+00 0.  1.
<mgrwt>
<rscale>  0 0.91704507E+02</rscale>
<asrwt>0</asrwt>
<pdfrwt beam="2">  1        1 0.40954786E-02 0.91704507E+02</pdfrwt>
<pdfrwt beam="1">  1       -1 0.12150384E-01 0.91704507E+02</pdfrwt>
<totfact> 0.83589653E+04</totfact>
</mgrwt>
</event>
<event>
 7    1  0.2911475E-009  0.9353862E+02  0.7818608E-02  0.1294502E+00
          1   -1    0    0  501    0  0.00000000000E+00  0.00000000000E+00  0.97106760410E+02  0.97106760540E+02  0.50400000000E-02 0. -1.
         -1   -1    0    0    0  501 -0.00000000000E+00 -0.00000000000E+00 -0.22525399085E+02  0.22525399649E+02  0.50400000000E-02 0.  1.
         23    2    1    2    0    0  0.00000000000E+00  0.00000000000E+00  0.74581361325E+02  0.11963216019E+03  0.93538624613E+02 0.  0.
    9000005    2    3    3    0    0 -0.28948350161E+02  0.91762988774E+01 -0.56580216421E+01  0.33838395748E+02  0.13813485431E+02 0.  0.
         22    1    3    3    0    0  0.28948350161E+02 -0.91762988774E+01  0.80239382967E+02  0.85793764441E+02  0.00000000000E+00 0. -1.
         22    1    4    4    0    0  0.48983904693E+00  0.58051963409E+00  0.20761123552E+01  0.22106984979E+01  0.00000000000E+00 0. -1.
         22    1    4    4    0    0 -0.29438189208E+02  0.85957792433E+01 -0.77341339972E+01  0.31627697250E+02  0.00000000000E+00 0. -1.
<mgrwt>
<rscale>  0 0.93538625E+02</rscale>
<asrwt>0</asrwt>
<pdfrwt beam="1">  1        1 0.14939502E-01 0.93538625E+02</pdfrwt>
<pdfrwt beam="2">  1       -1 0.34654460E-02 0.93538625E+02</pdfrwt>
<totfact> 0.96922144E+04</totfact>
</mgrwt>
</event>
<event>
 6    1  0.9678718E-009  0.8040181E+03  0.7818608E-02  0.9554219E-01
         -1   -1    0    0    0  501 -0.00000000000E+00  0.00000000000E+00  0.13938090858E+03  0.13938090867E+03  0.50400000000E-02 0.  1.
          1   -1    0    0  501    0  0.00000000000E+00 -0.00000000000E+00 -0.11594935709E+04  0.11594935709E+04  0.50400000000E-02 0. -1.
    9000005    2    1    2    0    0  0.46109264819E+02  0.30990747923E+03 -0.10366460006E+03  0.33034685437E+03  0.14628222641E+02 0.  0.
         22    1    1    2    0    0 -0.46109264819E+02 -0.30990747923E+03 -0.91644806225E+03  0.96852762521E+03  0.00000000000E+00 0. -1.
         22    1    3    3    0    0  0.21080272648E+02  0.97710707948E+02 -0.35296554300E+02  0.10600758033E+03  0.00000000000E+00 0.  1.
         22    1    3    3    0    0  0.25028992171E+02  0.21219677129E+03 -0.68368045759E+02  0.22433927403E+03  0.00000000000E+00 0.  1.
<mgrwt>
<rscale>  0 0.80401808E+03</rscale>
<asrwt>0</asrwt>
<pdfrwt beam="2">  1        1 0.17838362E+00 0.80401808E+03</pdfrwt>
<pdfrwt beam="1">  1       -1 0.21443218E-01 0.80401808E+03</pdfrwt>
<totfact> 0.21040995E+02</totfact>
</mgrwt>
</event>
<event>
 7    1  0.2911475E-009  0.9175526E+02  0.7818608E-02  0.1298656E+00
          1   -1    0    0  501    0  0.00000000000E+00  0.00000000000E+00  0.25079208278E+03  0.25079208283E+03  0.50400000000E-02 0. -1.
         -1   -1    0    0    0  501 -0.00000000000E+00 -0.00000000000E+00 -0.83924369849E+01  0.83924384982E+01  0.50400000000E-02 0.  1.
         23    2    1    2    0    0  0.00000000000E+00  0.00000000000E+00  0.24239964580E+03  0.25918452133E+03  0.91755260421E+02 0.  0.
    9000005    2    3    3    0    0  0.18108145885E+02  0.31806930145E+02  0.19648987671E+03  0.20047087173E+03  0.15514928529E+02 0.  0.
         22    1    3    3    0    0 -0.18108145885E+02 -0.31806930145E+02  0.45909769086E+02  0.58713649607E+02  0.00000000000E+00 0.  1.
         22    1    4    4    0    0  0.18630126262E+02  0.31911130768E+02  0.16973050050E+03  0.17370620217E+03  0.00000000000E+00 0.  1.
         22    1    4    4    0    0 -0.52198037715E+00 -0.10420062288E+00  0.26759376208E+02  0.26764669553E+02  0.00000000000E+00 0.  1.
<mgrwt>
<rscale>  0 0.91755260E+02</rscale>
<asrwt>0</asrwt>
<pdfrwt beam="1">  1        1 0.38583391E-01 0.91755260E+02</pdfrwt>
<pdfrwt beam="2">  1       -1 0.12911445E-02 0.91755260E+02</pdfrwt>
<totfact> 0.12167110E+05</totfact>
</mgrwt>
</event>
<event>
 6    1  0.2911475E-009  0.1296484E+03  0.7818608E-02  0.1227978E+00
          1   -1    0    0  501    0  0.00000000000E+00  0.00000000000E+00  0.14458054573E+03  0.14458054582E+03  0.50400000000E-02 0. -1.
         -1   -1    0    0    0  501 -0.00000000000E+00 -0.00000000000E+00 -0.29064622477E+02  0.29064622914E+02  0.50400000000E-02 0.  1.
    9000005    2    1    2    0    0 -0.48686106817E+02  0.68098098627E+01  0.26372192622E+01  0.50526070610E+02  0.11367426205E+02 0.  0.
         22    1    1    2    0    0  0.48686106817E+02 -0.68098098627E+01  0.11287870399E+03  0.12311909812E+03  0.00000000000E+00 0. -1.
         22    1    3    3    0    0 -0.41610619669E+02  0.26470815835E+01  0.49750112348E+01  0.41990492340E+02  0.00000000000E+00 0. -1.
         22    1    3    3    0    0 -0.70754871476E+01  0.41627282791E+01 -0.23377919726E+01  0.85355782704E+01  0.00000000000E+00 0. -1.
<mgrwt>
<rscale>  0 0.12964843E+03</rscale>
<asrwt>0</asrwt>
<pdfrwt beam="1">  1        1 0.22243161E-01 0.12964843E+03</pdfrwt>
<pdfrwt beam="2">  1       -1 0.44714805E-02 0.12964843E+03</pdfrwt>
<totfact> 0.42140625E+04</totfact>
</mgrwt>
</event>
<event>
 7    1  0.2911475E-009  0.8990077E+02  0.7818608E-02  0.1303092E+00
          1   -1    0    0  501    0  0.00000000000E+00  0.00000000000E+00  0.12508028829E+03  0.12508028840E+03  0.50400000000E-02 0. -1.
         -1   -1    0    0    0  501 -0.00000000000E+00 -0.00000000000E+00 -0.16153919321E+02  0.16153920107E+02  0.50400000000E-02 0.  1.
         23    2    1    2    0    0  0.00000000000E+00  0.00000000000E+00  0.10892636897E+03  0.14123420850E+03  0.89900766368E+02 0.  0.
    9000005    2    3    3    0    0 -0.22442679529E+02 -0.98259773542E+01 -0.84616375970E+00  0.28760955513E+02  0.15041704475E+02 0.  0.
         22    1    3    3    0    0  0.22442679529E+02  0.98259773542E+01  0.10977253273E+03  0.11247325299E+03  0.00000000000E+00 0. -1.
         22    1    4    4    0    0 -0.93931300836E+01 -0.61652595231E+01 -0.76529199176E+01  0.13594429044E+02  0.00000000000E+00 0.  1.
         22    1    4    4    0    0 -0.13049549445E+02 -0.36607178311E+01  0.68067561579E+01  0.15166526470E+02  0.00000000000E+00 0.  1.
<mgrwt>
<rscale>  0 0.89900766E+02</rscale>
<asrwt>0</asrwt>
<pdfrwt beam="1">  1        1 0.19243121E-01 0.89900766E+02</pdfrwt>
<pdfrwt beam="2">  1       -1 0.24852184E-02 0.89900766E+02</pdfrwt>
<totfact> 0.11274102E+05</totfact>
</mgrwt>
</event>
<event>
 7    1  0.3555103E-009  0.1023707E+03  0.7818608E-02  0.1275388E+00
          1   -1    0    0  501    0  0.00000000000E+00  0.00000000000E+00  0.22318991395E+02  0.22318991964E+02  0.50400000000E-02 0. -1.
         -1   -1    0    0    0  501 -0.00000000000E+00 -0.00000000000E+00 -0.11738611591E+03  0.11738611602E+03  0.50400000000E-02 0.  1.
         23    2    1    2    0    0  0.00000000000E+00 -0.88817841970E-15 -0.95067124519E+02  0.13970510799E+03  0.10237069421E+03 0.  0.
    9000005    2    3    3    0    0 -0.20807570836E+02  0.49194769720E+01  0.13242491615E+02  0.29305247457E+02  0.15042529262E+02 0.  0.
         22    1    3    3    0    0  0.20807570836E+02 -0.49194769720E+01 -0.10830961613E+03  0.11039986053E+03  0.00000000000E+00 0.  1.
         22    1    4    4    0    0 -0.58350347301E+01 -0.47528595813E+01  0.73811532198E+01  0.10541286798E+02  0.00000000000E+00 0. -1.
         22    1    4    4    0    0 -0.14972536106E+02  0.96723365533E+01  0.58613383948E+01  0.18763960659E+02  0.00000000000E+00 0. -1.
<mgrwt>
<rscale>  0 0.10237069E+03</rscale>
<asrwt>0</asrwt>
<pdfrwt beam="1">  1        1 0.34336911E-02 0.10237069E+03</pdfrwt>
<pdfrwt beam="2">  1       -1 0.18059402E-01 0.10237069E+03</pdfrwt>
<totfact> 0.58436015E+04</totfact>
</mgrwt>
</event>
<event>
 7    1  0.2911475E-009  0.8967846E+02  0.7818608E-02  0.1303632E+00
         -1   -1    0    0    0  501 -0.00000000000E+00  0.00000000000E+00  0.25097310734E+03  0.25097310739E+03  0.50400000000E-02 0.  1.
          1   -1    0    0  501    0  0.00000000000E+00 -0.00000000000E+00 -0.80110428122E+01  0.80110443976E+01  0.50400000000E-02 0. -1.
         23    2    1    2    0    0  0.00000000000E+00  0.00000000000E+00  0.24296206453E+03  0.25898415179E+03  0.89678459386E+02 0.  0.
    9000005    2    3    3    0    0 -0.41276099974E+02 -0.51357078169E+01  0.16459524237E+03  0.17026295511E+03  0.12953306536E+02 0.  0.
         22    1    3    3    0    0  0.41276099974E+02  0.51357078169E+01  0.78366822162E+02  0.88721196676E+02  0.00000000000E+00 0.  1.
         22    1    4    4    0    0 -0.18609997423E+02  0.41131904908E+01  0.74926138787E+02  0.77312202230E+02  0.00000000000E+00 0. -1.
         22    1    4    4    0    0 -0.22666102552E+02 -0.92488983076E+01  0.89669103579E+02  0.92950752883E+02  0.00000000000E+00 0. -1.
<mgrwt>
<rscale>  0 0.89678459E+02</rscale>
<asrwt>0</asrwt>
<pdfrwt beam="2">  1        1 0.12324681E-02 0.89678459E+02</pdfrwt>
<pdfrwt beam="1">  1       -1 0.38611251E-01 0.89678459E+02</pdfrwt>
<totfact> 0.67536430E+04</totfact>
</mgrwt>
</event>
<event>
 7    1  0.2911475E-009  0.9413429E+02  0.7818608E-02  0.1293138E+00
          1   -1    0    0  501    0  0.00000000000E+00  0.00000000000E+00  0.85072053470E+03  0.85072053472E+03  0.50400000000E-02 0. -1.
         -1   -1    0    0    0  501 -0.00000000000E+00 -0.00000000000E+00 -0.26040444542E+01  0.26040493315E+01  0.50400000000E-02 0.  1.
         23    2    1    2    0    0  0.35527136788E-14 -0.35527136788E-14  0.84811649025E+03  0.85332458405E+03  0.94134290836E+02 0.  0.
    9000005    2    3    3    0    0 -0.27012053995E+02  0.22011297884E+02  0.70525790587E+03  0.70627791314E+03  0.15020935322E+02 0.  0.
         22    1    3    3    0    0  0.27012053995E+02 -0.22011297884E+02  0.14285858438E+03  0.14704667091E+03  0.00000000000E+00 0.  1.
         22    1    4    4    0    0 -0.50443399678E+00  0.70850185468E+01  0.96977345439E+02  0.97237119815E+02  0.00000000000E+00 0. -1.
         22    1    4    4    0    0 -0.26507619999E+02  0.14926279337E+02  0.60828056043E+03  0.60904079333E+03  0.00000000000E+00 0. -1.
<mgrwt>
<rscale>  0 0.94134291E+02</rscale>
<asrwt>0</asrwt>
<pdfrwt beam="1">  1        1 0.13087998E+00 0.94134291E+02</pdfrwt>
<pdfrwt beam="2">  1       -1 0.40062292E-03 0.94134291E+02</pdfrwt>
<totfact> 0.12898762E+05</totfact>
</mgrwt>
</event>
<event>
 7    1  0.2911475E-009  0.1138568E+03  0.7818608E-02  0.1253590E+00
         -1   -1    0    0    0  501 -0.00000000000E+00  0.00000000000E+00  0.25922867652E+03  0.25922867657E+03  0.50400000000E-02 0.  1.
          1   -1    0    0  501    0  0.00000000000E+00 -0.00000000000E+00 -0.12501863913E+02  0.12501864929E+02  0.50400000000E-02 0. -1.
         23    2    1    2    0    0 -0.35527136788E-14  0.00000000000E+00  0.24672681261E+03  0.27173054150E+03  0.11385678339E+03 0.  0.
    9000005    2    3    3    0    0 -0.21083093936E+02 -0.52431431452E+01  0.24884949425E+03  0.24990181782E+03  0.72705131667E+01 0.  0.
         22    1    3    3    0    0  0.21083093936E+02  0.52431431452E+01 -0.21226816442E+01  0.21828723676E+02  0.00000000000E+00 0. -1.
         22    1    4    4    0    0 -0.31044480684E+01 -0.34558290806E+01  0.38910424457E+02  0.39186751382E+02  0.00000000000E+00 0.  1.
         22    1    4    4    0    0 -0.17978645868E+02 -0.17873140646E+01  0.20993906979E+03  0.21071506644E+03  0.00000000000E+00 0.  1.
<mgrwt>
<rscale>  0 0.11385678E+03</rscale>
<asrwt>0</asrwt>
<pdfrwt beam="2">  1        1 0.19233636E-02 0.11385678E+03</pdfrwt>
<pdfrwt beam="1">  1       -1 0.39881338E-01 0.11385678E+03</pdfrwt>
<totfact> 0.35657413E+04</totfact>
</mgrwt>
</event>
<event>
 7    1  0.2911475E-009  0.8675492E+02  0.7818608E-02  0.1310906E+00
          1   -1    0    0  501    0  0.00000000000E+00  0.00000000000E+00  0.55398246515E+02  0.55398246744E+02  0.50400000000E-02 0. -1.
         -1   -1    0    0    0  501 -0.00000000000E+00 -0.00000000000E+00 -0.33965045135E+02  0.33965045509E+02  0.50400000000E-02 0.  1.
         23    2    1    2    0    0 -0.17763568394E-14  0.35527136788E-14  0.21433201380E+02  0.89363292254E+02  0.86754918483E+02 0.  0.
    9000005    2    3    3    0    0  0.11790331790E+02 -0.25811685758E+02  0.42877116006E+02  0.53795096912E+02  0.15818038104E+02 0.  0.
         22    1    3    3    0    0 -0.11790331790E+02  0.25811685758E+02 -0.21443914626E+02  0.35568195341E+02  0.00000000000E+00 0.  1.
         22    1    4    4    0    0  0.15484292010E+01 -0.14606540245E+02  0.31718863487E+02  0.34954755783E+02  0.00000000000E+00 0. -1.
         22    1    4    4    0    0  0.10241902589E+02 -0.11205145513E+02  0.11158252518E+02  0.18840341129E+02  0.00000000000E+00 0. -1.
<mgrwt>
<rscale>  0 0.86754918E+02</rscale>
<asrwt>0</asrwt>
<pdfrwt beam="1">  1        1 0.85228072E-02 0.86754918E+02</pdfrwt>
<pdfrwt beam="2">  1       -1 0.52253916E-02 0.86754918E+02</pdfrwt>
<totfact> 0.10927552E+05</totfact>
</mgrwt>
</event>
<event>
 7    1  0.2911475E-009  0.8053147E+02  0.7818608E-02  0.1327550E+00
          1   -1    0    0  501    0  0.00000000000E+00  0.00000000000E+00  0.36073682064E+02  0.36073682417E+02  0.50400000000E-02 0. -1.
         -1   -1    0    0    0  501 -0.00000000000E+00 -0.00000000000E+00 -0.44944941662E+02  0.44944941945E+02  0.50400000000E-02 0.  1.
         23    2    1    2    0    0  0.71054273576E-14  0.00000000000E+00 -0.88712595978E+01  0.81018624361E+02  0.80531473640E+02 0.  0.
    9000005    2    3    3    0    0 -0.34820849069E+02  0.12228049162E+02  0.11545426775E+02  0.38842116698E+02  0.36601139300E+01 0.  0.
         22    1    3    3    0    0  0.34820849069E+02 -0.12228049162E+02 -0.20416686373E+02  0.42176507663E+02  0.00000000000E+00 0. -1.
         22    1    4    4    0    0 -0.11967294090E+02  0.60200542531E+01  0.37685636365E+01  0.13916150795E+02  0.00000000000E+00 0. -1.
         22    1    4    4    0    0 -0.22853554979E+02  0.62079949092E+01  0.77768631382E+01  0.24925965904E+02  0.00000000000E+00 0. -1.
<mgrwt>
<rscale>  0 0.80531474E+02</rscale>
<asrwt>0</asrwt>
<pdfrwt beam="1">  1        1 0.55497973E-02 0.80531474E+02</pdfrwt>
<pdfrwt beam="2">  1       -1 0.69146065E-02 0.80531474E+02</pdfrwt>
<totfact> 0.12646021E+05</totfact>
</mgrwt>
</event>
<event>
 7    1  0.2911475E-009  0.9103691E+02  0.7818608E-02  0.1300360E+00
          1   -1    0    0  501    0  0.00000000000E+00  0.00000000000E+00  0.52346920264E+02  0.52346920506E+02  0.50400000000E-02 0. -1.
         -1   -1    0    0    0  501 -0.00000000000E+00 -0.00000000000E+00 -0.39580735821E+02  0.39580736142E+02  0.50400000000E-02 0.  1.
         23    2    1    2    0    0  0.17763568394E-14  0.00000000000E+00  0.12766184443E+02  0.91927656648E+02  0.91036907854E+02 0.  0.
    9000005    2    3    3    0    0  0.12762626743E+02  0.53113368465E+01  0.50158104197E+02  0.52062250550E+02  0.18835008047E+01 0.  0.
         22    1    3    3    0    0 -0.12762626743E+02 -0.53113368465E+01 -0.37391919754E+02  0.39865406098E+02  0.00000000000E+00 0.  1.
         22    1    4    4    0    0  0.30903426831E+01  0.21795058088E+01  0.14096088555E+02  0.14594525550E+02  0.00000000000E+00 0.  1.
         22    1    4    4    0    0  0.96722840595E+01  0.31318310377E+01  0.36062015642E+02  0.37467725001E+02  0.00000000000E+00 0.  1.
<mgrwt>
<rscale>  0 0.91036908E+02</rscale>
<asrwt>0</asrwt>
<pdfrwt beam="1">  1        1 0.80533724E-02 0.91036908E+02</pdfrwt>
<pdfrwt beam="2">  1       -1 0.60893440E-02 0.91036908E+02</pdfrwt>
<totfact> 0.94817443E+04</totfact>
</mgrwt>
</event>
<event>
 7    1  0.2911475E-009  0.1125109E+03  0.7818608E-02  0.1255990E+00
         -1   -1    0    0    0  501 -0.00000000000E+00  0.00000000000E+00  0.77508358045E+02  0.77508358209E+02  0.50400000000E-02 0.  1.
          1   -1    0    0  501    0  0.00000000000E+00 -0.00000000000E+00 -0.40830114430E+02  0.40830114741E+02  0.50400000000E-02 0. -1.
         23    2    1    2    0    0  0.35527136788E-14  0.00000000000E+00  0.36678243616E+02  0.11833847295E+03  0.11251089114E+03 0.  0.
    9000005    2    3    3    0    0  0.23846417141E+02  0.36991757963E+02  0.54219187325E+02  0.70959928503E+02  0.12591640532E+02 0.  0.
         22    1    3    3    0    0 -0.23846417141E+02 -0.36991757963E+02 -0.17540943710E+02  0.47378544447E+02  0.00000000000E+00 0. -1.
         22    1    4    4    0    0  0.72671598757E+01  0.55472036834E+01  0.55636600211E+01  0.10702214453E+02  0.00000000000E+00 0. -1.
         22    1    4    4    0    0  0.16579257265E+02  0.31444554280E+02  0.48655527304E+02  0.60257714050E+02  0.00000000000E+00 0. -1.
<mgrwt>
<rscale>  0 0.11251089E+03</rscale>
<asrwt>0</asrwt>
<pdfrwt beam="2">  1        1 0.62815561E-02 0.11251089E+03</pdfrwt>
<pdfrwt beam="1">  1       -1 0.11924363E-01 0.11251089E+03</pdfrwt>
<totfact> 0.49666407E+04</totfact>
</mgrwt>
</event>
<event>
 7    1  0.2911475E-009  0.9203664E+02  0.7818608E-02  0.1297993E+00
         -1   -1    0    0    0  501 -0.00000000000E+00  0.00000000000E+00  0.20075225117E+02  0.20075225750E+02  0.50400000000E-02 0.  1.
          1   -1    0    0  501    0  0.00000000000E+00 -0.00000000000E+00 -0.10548751544E+03  0.10548751556E+03  0.50400000000E-02 0. -1.
         23    2    1    2    0    0 -0.35527136788E-14 -0.71054273576E-14 -0.85412290323E+02  0.12556274131E+03  0.92036637635E+02 0.  0.
    9000005    2    3    3    0    0  0.29843785944E+02  0.33564789336E+02 -0.52851173718E+02  0.70087765356E+02  0.10089680204E+02 0.  0.
         22    1    3    3    0    0 -0.29843785944E+02 -0.33564789336E+02 -0.32561116605E+02  0.55474975955E+02  0.00000000000E+00 0. -1.
         22    1    4    4    0    0  0.30243923312E+02  0.32368678942E+02 -0.49101070992E+02  0.66131244100E+02  0.00000000000E+00 0.  1.
         22    1    4    4    0    0 -0.40013736811E+00  0.11961103938E+01 -0.37501027264E+01  0.39565212556E+01  0.00000000000E+00 0.  1.
<mgrwt>
<rscale>  0 0.92036638E+02</rscale>
<asrwt>0</asrwt>
<pdfrwt beam="2">  1        1 0.16228848E-01 0.92036638E+02</pdfrwt>
<pdfrwt beam="1">  1       -1 0.30884963E-02 0.92036638E+02</pdfrwt>
<totfact> 0.10272735E+05</totfact>
</mgrwt>
</event>
<event>
 7    1  0.2911475E-009  0.8981930E+02  0.7818608E-02  0.1303290E+00
          1   -1    0    0  501    0  0.00000000000E+00  0.00000000000E+00  0.89286477815E+01  0.89286492040E+01  0.50400000000E-02 0. -1.
         -1   -1    0    0    0  501 -0.00000000000E+00 -0.00000000000E+00 -0.22588824087E+03  0.22588824092E+03  0.50400000000E-02 0.  1.
         23    2    1    2    0    0 -0.35527136788E-14 -0.35527136788E-14 -0.21695959309E+03  0.23481689013E+03  0.89819301140E+02 0.  0.
    9000005    2    3    3    0    0 -0.25133882070E+02 -0.30854227000E+02 -0.15980222995E+03  0.16517021388E+03  0.12678781667E+02 0.  0.
         22    1    3    3    0    0  0.25133882070E+02  0.30854227000E+02 -0.57157363138E+02  0.69646676249E+02  0.00000000000E+00 0. -1.
         22    1    4    4    0    0 -0.20260426187E+02 -0.25564459150E+02 -0.10645887102E+03  0.11134414066E+03  0.00000000000E+00 0.  1.
         22    1    4    4    0    0 -0.48734558832E+01 -0.52897678504E+01 -0.53343358931E+02  0.53826073219E+02  0.00000000000E+00 0.  1.
<mgrwt>
<rscale>  0 0.89819301E+02</rscale>
<asrwt>0</asrwt>
<pdfrwt beam="1">  1        1 0.13736384E-02 0.89819301E+02</pdfrwt>
<pdfrwt beam="2">  1       -1 0.34752033E-01 0.89819301E+02</pdfrwt>
<totfact> 0.69609463E+04</totfact>
</mgrwt>
</event>
<event>
 7    1  0.3492665E-009  0.9247591E+02  0.7818608E-02  0.1296964E+00
         -1   -1    0    0    0  501 -0.00000000000E+00  0.00000000000E+00  0.49914230675E+02  0.49914230930E+02  0.50400000000E-02 0.  1.
          1   -1    0    0  501    0  0.00000000000E+00 -0.00000000000E+00 -0.42832444911E+02  0.42832445208E+02  0.50400000000E-02 0. -1.
         23    2    1    2    0    0  0.44408920985E-15  0.00000000000E+00  0.70817857643E+01  0.92746676138E+02  0.92475911701E+02 0.  0.
    9000005    2    3    3    0    0 -0.22472498194E+01 -0.42600914172E+02  0.19103863924E+02  0.48424916433E+02  0.12654125597E+02 0.  0.
         22    1    3    3    0    0  0.22472498194E+01  0.42600914172E+02 -0.12022078159E+02  0.44321759705E+02  0.00000000000E+00 0. -1.
         22    1    4    4    0    0  0.21915614759E+01 -0.28722097625E+02  0.17645990350E+02  0.33780805336E+02  0.00000000000E+00 0.  1.
         22    1    4    4    0    0 -0.44388112954E+01 -0.13878816547E+02  0.14578735736E+01  0.14644111097E+02  0.00000000000E+00 0.  1.
<mgrwt>
<rscale>  0 0.92475912E+02</rscale>
<asrwt>0</asrwt>
<pdfrwt beam="2">  1        1 0.65896070E-02 0.92475912E+02</pdfrwt>
<pdfrwt beam="1">  1       -1 0.76791124E-02 0.92475912E+02</pdfrwt>
<totfact> 0.88023405E+04</totfact>
</mgrwt>
</event>
<event>
 7    1  0.2911475E-009  0.9099014E+02  0.7818608E-02  0.1300471E+00
          1   -1    0    0  501    0  0.00000000000E+00  0.00000000000E+00  0.16372310735E+03  0.16372310743E+03  0.50400000000E-02 0. -1.
         -1   -1    0    0    0  501 -0.00000000000E+00 -0.00000000000E+00 -0.12642084190E+02  0.12642085194E+02  0.50400000000E-02 0.  1.
         23    2    1    2    0    0  0.00000000000E+00  0.00000000000E+00  0.15108102316E+03  0.17636519262E+03  0.90990140177E+02 0.  0.
    9000005    2    3    3    0    0 -0.43086024768E+02  0.83472501879E+01  0.59848600998E+02  0.75125689613E+02  0.11658991477E+02 0.  0.
         22    1    3    3    0    0  0.43086024768E+02 -0.83472501879E+01  0.91232422163E+02  0.10123950301E+03  0.00000000000E+00 0. -1.
         22    1    4    4    0    0 -0.41739910111E+02  0.83075723301E+01  0.60208932331E+02  0.73731617279E+02  0.00000000000E+00 0. -1.
         22    1    4    4    0    0 -0.13461146571E+01  0.39677857847E-01 -0.36033133265E+00  0.13940723337E+01  0.00000000000E+00 0. -1.
<mgrwt>
<rscale>  0 0.90990140E+02</rscale>
<asrwt>0</asrwt>
<pdfrwt beam="1">  1        1 0.25188170E-01 0.90990140E+02</pdfrwt>
<pdfrwt beam="2">  1       -1 0.19449361E-02 0.90990140E+02</pdfrwt>
<totfact> 0.11459906E+05</totfact>
</mgrwt>
</event>
<event>
 7    1  0.2911475E-009  0.9218623E+02  0.7818608E-02  0.1297642E+00
          1   -1    0    0  501    0  0.00000000000E+00  0.00000000000E+00  0.23923256964E+03  0.23923256969E+03  0.50400000000E-02 0. -1.
         -1   -1    0    0    0  501 -0.00000000000E+00 -0.00000000000E+00 -0.88807939548E+01  0.88807953849E+01  0.50400000000E-02 0.  1.
         23    2    1    2    0    0  0.00000000000E+00  0.00000000000E+00  0.23035177569E+03  0.24811336508E+03  0.92186231993E+02 0.  0.
    9000005    2    3    3    0    0  0.13147889542E+02 -0.33356463988E+02  0.40352227160E+02  0.54760451655E+02  0.92132588999E+01 0.  0.
         22    1    3    3    0    0 -0.13147889542E+02  0.33356463988E+02  0.18999954853E+03  0.19335291342E+03  0.00000000000E+00 0. -1.
         22    1    4    4    0    0  0.65079099846E+01 -0.22436028921E+02  0.31484798415E+02  0.39204857063E+02  0.00000000000E+00 0. -1.
         22    1    4    4    0    0  0.66399795569E+01 -0.10920435067E+02  0.88674287448E+01  0.15555594592E+02  0.00000000000E+00 0. -1.
<mgrwt>
<rscale>  0 0.92186232E+02</rscale>
<asrwt>0</asrwt>
<pdfrwt beam="1">  1        1 0.36805006E-01 0.92186232E+02</pdfrwt>
<pdfrwt beam="2">  1       -1 0.13662763E-02 0.92186232E+02</pdfrwt>
<totfact> 0.11905234E+05</totfact>
</mgrwt>
</event>
<event>
 7    1  0.2911475E-009  0.1212770E+03  0.7818608E-02  0.1241005E+00
          1   -1    0    0  501    0  0.00000000000E+00  0.00000000000E+00  0.61490630990E+01  0.61490651645E+01  0.50400000000E-02 0. -1.
         -1   -1    0    0    0  501 -0.00000000000E+00 -0.00000000000E+00 -0.59798170461E+03  0.59798170463E+03  0.50400000000E-02 0.  1.
         23    2    1    2    0    0  0.00000000000E+00  0.00000000000E+00 -0.59183264151E+03  0.60413076980E+03  0.12127700300E+03 0.  0.
    9000005    2    3    3    0    0  0.11143171201E+02 -0.85760971314E+01 -0.58962967180E+03  0.58989796326E+03  0.10896673017E+02 0.  0.
         22    1    3    3    0    0 -0.11143171201E+02  0.85760971314E+01 -0.22029697128E+01  0.14232806539E+02  0.00000000000E+00 0. -1.
         22    1    4    4    0    0  0.80524500966E+01 -0.10167072045E+02 -0.34517169293E+03  0.34541527023E+03  0.00000000000E+00 0. -1.
         22    1    4    4    0    0  0.30907211046E+01  0.15909749134E+01 -0.24445797887E+03  0.24448269303E+03  0.00000000000E+00 0. -1.
<mgrwt>
<rscale>  0 0.12127700E+03</rscale>
<asrwt>0</asrwt>
<pdfrwt beam="1">  1        1 0.94601035E-03 0.12127700E+03</pdfrwt>
<pdfrwt beam="2">  1       -1 0.91997139E-01 0.12127700E+03</pdfrwt>
<totfact> 0.19568543E+04</totfact>
</mgrwt>
</event>
<event>
 7    1  0.2911475E-009  0.9693235E+02  0.7818608E-02  0.1286882E+00
          1   -1    0    0  501    0  0.00000000000E+00  0.00000000000E+00  0.12717581492E+03  0.12717581502E+03  0.50400000000E-02 0. -1.
         -1   -1    0    0    0  501 -0.00000000000E+00 -0.00000000000E+00 -0.18470256496E+02  0.18470257184E+02  0.50400000000E-02 0.  1.
         23    2    1    2    0    0  0.00000000000E+00  0.00000000000E+00  0.10870555842E+03  0.14564607220E+03  0.96932347110E+02 0.  0.
    9000005    2    3    3    0    0  0.39079450480E+02  0.18980965143E+02  0.84533175514E+02  0.95929027008E+02  0.13001537315E+02 0.  0.
         22    1    3    3    0    0 -0.39079450480E+02 -0.18980965143E+02  0.24172382910E+02  0.49717045197E+02  0.00000000000E+00 0.  1.
         22    1    4    4    0    0  0.19121108336E+02  0.24235079744E+01  0.32322383807E+02  0.37632787165E+02  0.00000000000E+00 0. -1.
         22    1    4    4    0    0  0.19958342144E+02  0.16557457168E+02  0.52210791708E+02  0.58296239842E+02  0.00000000000E+00 0. -1.
<mgrwt>
<rscale>  0 0.96932347E+02</rscale>
<asrwt>0</asrwt>
<pdfrwt beam="1">  1        1 0.19565510E-01 0.96932347E+02</pdfrwt>
<pdfrwt beam="2">  1       -1 0.28415780E-02 0.96932347E+02</pdfrwt>
<totfact> 0.92146741E+04</totfact>
</mgrwt>
</event>
<event>
 7    1  0.2911475E-009  0.9544974E+02  0.7818608E-02  0.1290166E+00
         -1   -1    0    0    0  501 -0.00000000000E+00  0.00000000000E+00  0.76573294379E+02  0.76573294544E+02  0.50400000000E-02 0.  1.
          1   -1    0    0  501    0  0.00000000000E+00 -0.00000000000E+00 -0.29744875667E+02  0.29744876094E+02  0.50400000000E-02 0. -1.
         23    2    1    2    0    0  0.00000000000E+00  0.00000000000E+00  0.46828418711E+02  0.10631817064E+03  0.95449738653E+02 0.  0.
    9000005    2    3    3    0    0  0.33259816267E+02  0.60905007181E+01  0.60192285293E+02  0.69960193424E+02  0.11314056653E+02 0.  0.
         22    1    3    3    0    0 -0.33259816267E+02 -0.60905007181E+01 -0.13363866582E+02  0.36357977215E+02  0.00000000000E+00 0. -1.
         22    1    4    4    0    0  0.21573034994E+02 -0.87456778087E+00  0.42207749520E+02  0.47409438166E+02  0.00000000000E+00 0.  1.
         22    1    4    4    0    0  0.11686781273E+02  0.69650684989E+01  0.17984535773E+02  0.22550755258E+02  0.00000000000E+00 0.  1.
<mgrwt>
<rscale>  0 0.95449739E+02</rscale>
<asrwt>0</asrwt>
<pdfrwt beam="2">  1        1 0.45761348E-02 0.95449739E+02</pdfrwt>
<pdfrwt beam="1">  1       -1 0.11780507E-01 0.95449739E+02</pdfrwt>
<totfact> 0.75840742E+04</totfact>
</mgrwt>
</event>
<event>
 7    1  0.2911475E-009  0.9185181E+02  0.7818608E-02  0.1298428E+00
          1   -1    0    0  501    0  0.00000000000E+00  0.00000000000E+00  0.28261466099E+03  0.28261466103E+03  0.50400000000E-02 0. -1.
         -1   -1    0    0    0  501 -0.00000000000E+00 -0.00000000000E+00 -0.74631240473E+01  0.74631257491E+01  0.50400000000E-02 0.  1.
         23    2    1    2    0    0  0.17763568394E-14  0.00000000000E+00  0.27515153694E+03  0.29007778678E+03  0.91851805118E+02 0.  0.
    9000005    2    3    3    0    0  0.14211197115E+02  0.16173231920E+02  0.26564124684E+03  0.26654106713E+03  0.39162342106E+01 0.  0.
         22    1    3    3    0    0 -0.14211197115E+02 -0.16173231920E+02  0.95102901017E+01  0.23536719652E+02  0.00000000000E+00 0.  1.
         22    1    4    4    0    0  0.14210959234E+02  0.14904761964E+02  0.24727804167E+03  0.24813410322E+03  0.00000000000E+00 0. -1.
         22    1    4    4    0    0  0.23788088836E-03  0.12684699557E+01  0.18363205168E+02  0.18406963904E+02  0.00000000000E+00 0. -1.
<mgrwt>
<rscale>  0 0.91851805E+02</rscale>
<asrwt>0</asrwt>
<pdfrwt beam="1">  1        1 0.43479181E-01 0.91851805E+02</pdfrwt>
<pdfrwt beam="2">  1       -1 0.11481730E-02 0.91851805E+02</pdfrwt>
<totfact> 0.12419143E+05</totfact>
</mgrwt>
</event>
<event>
 7    1  0.3627300E-009  0.9003936E+02  0.7818608E-02  0.1302756E+00
         -1   -1    0    0    0  501 -0.00000000000E+00  0.00000000000E+00  0.88727567491E+02  0.88727567634E+02  0.50400000000E-02 0.  1.
          1   -1    0    0  501    0  0.00000000000E+00 -0.00000000000E+00 -0.22842637211E+02  0.22842637767E+02  0.50400000000E-02 0. -1.
         23    2    1    2    0    0  0.71054273576E-14  0.88817841970E-15  0.65884930279E+02  0.11157020540E+03  0.90039361922E+02 0.  0.
    9000005    2    3    3    0    0  0.40454733346E+02 -0.61902633257E+01  0.52906625990E+02  0.68636055912E+02  0.15391305577E+02 0.  0.
         22    1    3    3    0    0 -0.40454733346E+02  0.61902633257E+01  0.12978304289E+02  0.42934149489E+02  0.00000000000E+00 0. -1.
         22    1    4    4    0    0  0.37139466217E+02 -0.72488488436E+01  0.39158665182E+02  0.54454447195E+02  0.00000000000E+00 0.  1.
         22    1    4    4    0    0  0.33152671295E+01  0.10585855179E+01  0.13747960808E+02  0.14181608718E+02  0.00000000000E+00 0.  1.
<mgrwt>
<rscale>  0 0.90039362E+02</rscale>
<asrwt>0</asrwt>
<pdfrwt beam="2">  1        1 0.35142520E-02 0.90039362E+02</pdfrwt>
<pdfrwt beam="1">  1       -1 0.13650395E-01 0.90039362E+02</pdfrwt>
<totfact> 0.85872175E+04</totfact>
</mgrwt>
</event>
<event>
 7    1  0.2911475E-009  0.9245098E+02  0.7818608E-02  0.1297023E+00
         -1   -1    0    0    0  501 -0.00000000000E+00  0.00000000000E+00  0.33643136955E+02  0.33643137332E+02  0.50400000000E-02 0.  1.
          1   -1    0    0  501    0  0.00000000000E+00 -0.00000000000E+00 -0.63513578361E+02  0.63513578561E+02  0.50400000000E-02 0. -1.
         23    2    1    2    0    0 -0.17763568394E-14  0.00000000000E+00 -0.29870441407E+02  0.97156715894E+02  0.92450982544E+02 0.  0.
    9000005    2    3    3    0    0  0.10660157575E+02 -0.32622554518E+02 -0.46105945391E+02  0.59190130421E+02  0.14136594925E+02 0.  0.
         22    1    3    3    0    0 -0.10660157575E+02  0.32622554518E+02  0.16235503984E+02  0.37966585472E+02  0.00000000000E+00 0.  1.
         22    1    4    4    0    0  0.81512511245E+01 -0.30853053655E+02 -0.46163187603E+02  0.56119459232E+02  0.00000000000E+00 0. -1.
         22    1    4    4    0    0  0.25089064510E+01 -0.17695008628E+01  0.57242212566E-01  0.30706711895E+01  0.00000000000E+00 0. -1.
<mgrwt>
<rscale>  0 0.92450983E+02</rscale>
<asrwt>0</asrwt>
<pdfrwt beam="2">  1        1 0.97713198E-02 0.92450983E+02</pdfrwt>
<pdfrwt beam="1">  1       -1 0.51758673E-02 0.92450983E+02</pdfrwt>
<totfact> 0.93537295E+04</totfact>
</mgrwt>
</event>
<event>
 7    1  0.2911475E-009  0.8771377E+02  0.7818608E-02  0.1308484E+00
          1   -1    0    0  501    0  0.00000000000E+00  0.00000000000E+00  0.57498750775E+02  0.57498750996E+02  0.50400000000E-02 0. -1.
         -1   -1    0    0    0  501 -0.00000000000E+00 -0.00000000000E+00 -0.33451622923E+02  0.33451623303E+02  0.50400000000E-02 0.  1.
         23    2    1    2    0    0  0.17763568394E-14  0.35527136788E-14  0.24047127852E+02  0.90950374299E+02  0.87713774444E+02 0.  0.
    9000005    2    3    3    0    0  0.11728226791E+02  0.21788609428E+02  0.48534500824E+02  0.56137643301E+02  0.13547782867E+02 0.  0.
         22    1    3    3    0    0 -0.11728226791E+02 -0.21788609428E+02 -0.24487372973E+02  0.34812730998E+02  0.00000000000E+00 0.  1.
         22    1    4    4    0    0  0.80142489997E+01  0.21489872868E+02  0.46602192047E+02  0.51940419006E+02  0.00000000000E+00 0.  1.
         22    1    4    4    0    0  0.37139777914E+01  0.29873655926E+00  0.19323087772E+01  0.41972242944E+01  0.00000000000E+00 0.  1.
<mgrwt>
<rscale>  0 0.87713774E+02</rscale>
<asrwt>0</asrwt>
<pdfrwt beam="1">  1        1 0.88459616E-02 0.87713774E+02</pdfrwt>
<pdfrwt beam="2">  1       -1 0.51464037E-02 0.87713774E+02</pdfrwt>
<totfact> 0.10658672E+05</totfact>
</mgrwt>
</event>
<event>
 7    1  0.2911475E-009  0.9246408E+02  0.7818608E-02  0.1296992E+00
          1   -1    0    0  501    0  0.00000000000E+00  0.00000000000E+00  0.18539335118E+02  0.18539335804E+02  0.50400000000E-02 0. -1.
         -1   -1    0    0    0  501 -0.00000000000E+00 -0.00000000000E+00 -0.11529008957E+03  0.11529008968E+03  0.50400000000E-02 0.  1.
         23    2    1    2    0    0  0.00000000000E+00 -0.71054273576E-14 -0.96750754451E+02  0.13382942548E+03  0.92464082964E+02 0.  0.
    9000005    2    3    3    0    0  0.23709143698E+02 -0.38275020364E+02 -0.37008727062E+02  0.59021601592E+02  0.93168072329E+01 0.  0.
         22    1    3    3    0    0 -0.23709143698E+02  0.38275020364E+02 -0.59742027389E+02  0.74807823891E+02  0.00000000000E+00 0.  1.
         22    1    4    4    0    0  0.90213933960E+01 -0.99823382213E+01 -0.66826304058E+01  0.15022987862E+02  0.00000000000E+00 0. -1.
         22    1    4    4    0    0  0.14687750302E+02 -0.28292682142E+02 -0.30326096656E+02  0.43998613730E+02  0.00000000000E+00 0. -1.
<mgrwt>
<rscale>  0 0.92464083E+02</rscale>
<asrwt>0</asrwt>
<pdfrwt beam="1">  1        1 0.28522055E-02 0.92464083E+02</pdfrwt>
<pdfrwt beam="2">  1       -1 0.17736936E-01 0.92464083E+02</pdfrwt>
<totfact> 0.76350173E+04</totfact>
</mgrwt>
</event>
<event>
 7    1  0.2911475E-009  0.9075304E+02  0.7818608E-02  0.1301038E+00
          1   -1    0    0  501    0  0.00000000000E+00  0.00000000000E+00  0.31292524824E+03  0.31292524828E+03  0.50400000000E-02 0. -1.
         -1   -1    0    0    0  501 -0.00000000000E+00 -0.00000000000E+00 -0.65799358165E+01  0.65799377467E+01  0.50400000000E-02 0.  1.
         23    2    1    2    0    0 -0.71054273576E-14  0.00000000000E+00  0.30634531242E+03  0.31950518602E+03  0.90753035510E+02 0.  0.
    9000005    2    3    3    0    0 -0.30607679443E+02  0.32473489903E+02  0.17536221383E+03  0.18112914148E+03  0.80313303055E+01 0.  0.
         22    1    3    3    0    0  0.30607679443E+02 -0.32473489903E+02  0.13098309859E+03  0.13837604455E+03  0.00000000000E+00 0.  1.
         22    1    4    4    0    0 -0.24061043104E+02  0.23099545187E+02  0.14190220164E+03  0.14576953596E+03  0.00000000000E+00 0.  1.
         22    1    4    4    0    0 -0.65466363395E+01  0.93739447166E+01  0.33460012184E+02  0.35359605517E+02  0.00000000000E+00 0.  1.
<mgrwt>
<rscale>  0 0.90753036E+02</rscale>
<asrwt>0</asrwt>
<pdfrwt beam="1">  1        1 0.48142336E-01 0.90753036E+02</pdfrwt>
<pdfrwt beam="2">  1       -1 0.10122982E-02 0.90753036E+02</pdfrwt>
<totfact> 0.13076114E+05</totfact>
</mgrwt>
</event>
<event>
 7    1  0.2911475E-009  0.9084693E+02  0.7818608E-02  0.1300814E+00
          1   -1    0    0  501    0  0.00000000000E+00  0.00000000000E+00  0.17269067903E+02  0.17269068639E+02  0.50400000000E-02 0. -1.
         -1   -1    0    0    0  501 -0.00000000000E+00 -0.00000000000E+00 -0.11947901019E+03  0.11947901029E+03  0.50400000000E-02 0.  1.
         23    2    1    2    0    0  0.00000000000E+00 -0.88817841970E-15 -0.10220994228E+03  0.13674807893E+03  0.90846930548E+02 0.  0.
    9000005    2    3    3    0    0 -0.31312196667E+02  0.48681613225E+01 -0.56846811880E+01  0.35154384815E+02  0.14119579197E+02 0.  0.
         22    1    3    3    0    0  0.31312196667E+02 -0.48681613225E+01 -0.96525261096E+02  0.10159369412E+03  0.00000000000E+00 0.  1.
         22    1    4    4    0    0 -0.23212200052E+01  0.51913883529E+01 -0.58774007180E+00  0.57169934175E+01  0.00000000000E+00 0. -1.
         22    1    4    4    0    0 -0.28990976662E+02 -0.32322703045E+00 -0.50969411162E+01  0.29437391397E+02  0.00000000000E+00 0. -1.
<mgrwt>
<rscale>  0 0.90846931E+02</rscale>
<asrwt>0</asrwt>
<pdfrwt beam="1">  1        1 0.26567798E-02 0.90846931E+02</pdfrwt>
<pdfrwt beam="2">  1       -1 0.18381386E-01 0.90846931E+02</pdfrwt>
<totfact> 0.79340332E+04</totfact>
</mgrwt>
</event>
<event>
 7    1  0.2911475E-009  0.9306102E+02  0.7818608E-02  0.1295604E+00
          1   -1    0    0  501    0  0.00000000000E+00  0.00000000000E+00  0.35591564269E+02  0.35591564626E+02  0.50400000000E-02 0. -1.
         -1   -1    0    0    0  501 -0.00000000000E+00 -0.00000000000E+00 -0.60831503790E+02  0.60831503999E+02  0.50400000000E-02 0.  1.
         23    2    1    2    0    0  0.00000000000E+00  0.00000000000E+00 -0.25239939521E+02  0.96423068625E+02  0.93061020927E+02 0.  0.
    9000005    2    3    3    0    0  0.33604160502E+02 -0.19294462530E+02 -0.38744574152E+02  0.55387827138E+02  0.80717706513E+01 0.  0.
         22    1    3    3    0    0 -0.33604160502E+02  0.19294462530E+02  0.13504634632E+02  0.41035241487E+02  0.00000000000E+00 0. -1.
         22    1    4    4    0    0  0.18602253972E+02 -0.65470828130E+01 -0.21983361038E+02  0.29532631253E+02  0.00000000000E+00 0.  1.
         22    1    4    4    0    0  0.15001906530E+02 -0.12747379717E+02 -0.16761213114E+02  0.25855195885E+02  0.00000000000E+00 0.  1.
<mgrwt>
<rscale>  0 0.93061021E+02</rscale>
<asrwt>0</asrwt>
<pdfrwt beam="1">  1        1 0.54756253E-02 0.93061021E+02</pdfrwt>
<pdfrwt beam="2">  1       -1 0.93586929E-02 0.93061021E+02</pdfrwt>
<totfact> 0.84011313E+04</totfact>
</mgrwt>
</event>
<event>
 7    1  0.2911475E-009  0.9042530E+02  0.7818608E-02  0.1301825E+00
         -1   -1    0    0    0  501 -0.00000000000E+00  0.00000000000E+00  0.11397593814E+02  0.11397594929E+02  0.50400000000E-02 0.  1.
          1   -1    0    0  501    0  0.00000000000E+00 -0.00000000000E+00 -0.17935219204E+03  0.17935219211E+03  0.50400000000E-02 0. -1.
         23    2    1    2    0    0  0.00000000000E+00  0.35527136788E-14 -0.16795459823E+03  0.19074978704E+03  0.90425296188E+02 0.  0.
    9000005    2    3    3    0    0  0.16383918323E+02 -0.24831265427E+02 -0.15477503972E+02  0.35397642560E+02  0.11332053976E+02 0.  0.
         22    1    3    3    0    0 -0.16383918323E+02  0.24831265427E+02 -0.15247709426E+03  0.15535214448E+03  0.00000000000E+00 0. -1.
         22    1    4    4    0    0  0.13045609500E+02 -0.15484882486E+02 -0.47779195116E+01  0.20803798395E+02  0.00000000000E+00 0. -1.
         22    1    4    4    0    0  0.33383088230E+01 -0.93463829411E+01 -0.10699584460E+02  0.14593844165E+02  0.00000000000E+00 0. -1.
<mgrwt>
<rscale>  0 0.90425296E+02</rscale>
<asrwt>0</asrwt>
<pdfrwt beam="2">  1        1 0.27592643E-01 0.90425296E+02</pdfrwt>
<pdfrwt beam="1">  1       -1 0.17534762E-02 0.90425296E+02</pdfrwt>
<totfact> 0.11855148E+05</totfact>
</mgrwt>
</event>
<event>
 7    1  0.2911475E-009  0.9033265E+02  0.7818608E-02  0.1302048E+00
         -1   -1    0    0    0  501 -0.00000000000E+00  0.00000000000E+00  0.50223384366E+01  0.50223409654E+01  0.50400000000E-02 0.  1.
          1   -1    0    0  501    0  0.00000000000E+00 -0.00000000000E+00 -0.40618456817E+03  0.40618456820E+03  0.50400000000E-02 0. -1.
         23    2    1    2    0    0  0.00000000000E+00  0.00000000000E+00 -0.40116222973E+03  0.41120690916E+03  0.90332649588E+02 0.  0.
    9000005    2    3    3    0    0 -0.36005263572E+02  0.12457590384E+02 -0.31093872898E+03  0.31326891525E+03  0.17174175392E+01 0.  0.
         22    1    3    3    0    0  0.36005263572E+02 -0.12457590384E+02 -0.90223500755E+02  0.97937993912E+02  0.00000000000E+00 0.  1.
         22    1    4    4    0    0 -0.28160674797E+02  0.10446602914E+02 -0.24674953969E+03  0.24857089623E+03  0.00000000000E+00 0. -1.
         22    1    4    4    0    0 -0.78445887750E+01  0.20109874707E+01 -0.64189189287E+02  0.64698019019E+02  0.00000000000E+00 0. -1.
<mgrwt>
<rscale>  0 0.90332650E+02</rscale>
<asrwt>0</asrwt>
<pdfrwt beam="2">  1        1 0.62489908E-01 0.90332650E+02</pdfrwt>
<pdfrwt beam="1">  1       -1 0.77266797E-03 0.90332650E+02</pdfrwt>
<totfact> 0.13860684E+05</totfact>
</mgrwt>
</event>
<event>
 7    1  0.2911475E-009  0.9162180E+02  0.7818608E-02  0.1298971E+00
          1   -1    0    0  501    0  0.00000000000E+00  0.00000000000E+00  0.17843969249E+03  0.17843969256E+03  0.50400000000E-02 0. -1.
         -1   -1    0    0    0  501 -0.00000000000E+00 -0.00000000000E+00 -0.11761051139E+02  0.11761052219E+02  0.50400000000E-02 0.  1.
         23    2    1    2    0    0  0.00000000000E+00  0.00000000000E+00  0.16667864135E+03  0.19020074478E+03  0.91621797802E+02 0.  0.
    9000005    2    3    3    0    0 -0.39888023331E+02 -0.14069589140E+02  0.55056744808E+02  0.70833850159E+02  0.14042130738E+02 0.  0.
         22    1    3    3    0    0  0.39888023331E+02  0.14069589140E+02  0.11162189654E+03  0.11936689462E+03  0.00000000000E+00 0. -1.
         22    1    4    4    0    0 -0.10026651554E+02 -0.79657646922E+01  0.24668558741E+02  0.27794332855E+02  0.00000000000E+00 0. -1.
         22    1    4    4    0    0 -0.29861371776E+02 -0.61038244480E+01  0.30388186067E+02  0.43039517304E+02  0.00000000000E+00 0. -1.
<mgrwt>
<rscale>  0 0.91621798E+02</rscale>
<asrwt>0</asrwt>
<pdfrwt beam="1">  1        1 0.27452258E-01 0.91621798E+02</pdfrwt>
<pdfrwt beam="2">  1       -1 0.18093927E-02 0.91621798E+02</pdfrwt>
<totfact> 0.11432589E+05</totfact>
</mgrwt>
</event>
<event>
 7    1  0.2911475E-009  0.8907835E+02  0.7818608E-02  0.1305099E+00
         -1   -1    0    0    0  501 -0.00000000000E+00  0.00000000000E+00  0.16353123900E+01  0.16353201566E+01  0.50400000000E-02 0.  1.
          1   -1    0    0  501    0  0.00000000000E+00 -0.00000000000E+00 -0.12130608336E+04  0.12130608336E+04  0.50400000000E-02 0. -1.
         23    2    1    2    0    0  0.17763568394E-14  0.00000000000E+00 -0.12114255212E+04  0.12146961538E+04  0.89078350556E+02 0.  0.
    9000005    2    3    3    0    0 -0.13153688206E+02 -0.12303850639E+02 -0.11597811187E+04  0.11600011032E+04  0.13634944184E+02 0.  0.
         22    1    3    3    0    0  0.13153688206E+02  0.12303850639E+02 -0.51644402471E+02  0.54695050604E+02  0.00000000000E+00 0.  1.
         22    1    4    4    0    0 -0.13816143822E+02 -0.84467936376E+01 -0.10823621004E+04  0.10824832334E+04  0.00000000000E+00 0. -1.
         22    1    4    4    0    0  0.66245561598E+00 -0.38570570016E+01 -0.77419018305E+02  0.77517869755E+02  0.00000000000E+00 0. -1.
<mgrwt>
<rscale>  0 0.89078351E+02</rscale>
<asrwt>0</asrwt>
<pdfrwt beam="2">  1        1 0.18662403E+00 0.89078351E+02</pdfrwt>
<pdfrwt beam="1">  1       -1 0.25158809E-03 0.89078351E+02</pdfrwt>
<totfact> 0.13468314E+05</totfact>
</mgrwt>
</event>
<event>
 7    1  0.2911475E-009  0.9262024E+02  0.7818608E-02  0.1296628E+00
          1   -1    0    0  501    0  0.00000000000E+00  0.00000000000E+00  0.60131264264E+02  0.60131264475E+02  0.50400000000E-02 0. -1.
         -1   -1    0    0    0  501 -0.00000000000E+00 -0.00000000000E+00 -0.35665760912E+02  0.35665761268E+02  0.50400000000E-02 0.  1.
         23    2    1    2    0    0  0.00000000000E+00 -0.35527136788E-14  0.24465503352E+02  0.95797025743E+02  0.92620242318E+02 0.  0.
    9000005    2    3    3    0    0 -0.32995822735E+02  0.30761012470E+02  0.15955866226E+02  0.49890837379E+02  0.14125925852E+02 0.  0.
         22    1    3    3    0    0  0.32995822735E+02 -0.30761012470E+02  0.85096371263E+01  0.45906188365E+02  0.00000000000E+00 0.  1.
         22    1    4    4    0    0 -0.14479059267E+02  0.16675859485E+02  0.14823635157E+02  0.26598263215E+02  0.00000000000E+00 0.  1.
         22    1    4    4    0    0 -0.18516763469E+02  0.14085152986E+02  0.11322310689E+01  0.23292574164E+02  0.00000000000E+00 0.  1.
<mgrwt>
<rscale>  0 0.92620242E+02</rscale>
<asrwt>0</asrwt>
<pdfrwt beam="1">  1        1 0.92509637E-02 0.92620242E+02</pdfrwt>
<pdfrwt beam="2">  1       -1 0.54870402E-02 0.92620242E+02</pdfrwt>
<totfact> 0.92285017E+04</totfact>
</mgrwt>
</event>
<event>
 7    1  0.2911475E-009  0.9199229E+02  0.7818608E-02  0.1298098E+00
         -1   -1    0    0    0  501 -0.00000000000E+00  0.00000000000E+00  0.32351278849E+02  0.32351279242E+02  0.50400000000E-02 0.  1.
          1   -1    0    0  501    0  0.00000000000E+00 -0.00000000000E+00 -0.65396037829E+02  0.65396038023E+02  0.50400000000E-02 0. -1.
         23    2    1    2    0    0  0.00000000000E+00  0.00000000000E+00 -0.33044758980E+02  0.97747317265E+02  0.91992292810E+02 0.  0.
    9000005    2    3    3    0    0 -0.23979135564E+02 -0.32952723019E+02 -0.38994870320E+02  0.56561340019E+02  0.42076569264E+01 0.  0.
         22    1    3    3    0    0  0.23979135564E+02  0.32952723019E+02  0.59501113403E+01  0.41185977246E+02  0.00000000000E+00 0.  1.
         22    1    4    4    0    0 -0.17105275141E+02 -0.22518861792E+02 -0.24415700686E+02  0.37360621169E+02  0.00000000000E+00 0. -1.
         22    1    4    4    0    0 -0.68738604224E+01 -0.10433861226E+02 -0.14579169633E+02  0.19200718851E+02  0.00000000000E+00 0. -1.
<mgrwt>
<rscale>  0 0.91992293E+02</rscale>
<asrwt>0</asrwt>
<pdfrwt beam="2">  1        1 0.10060929E-01 0.91992293E+02</pdfrwt>
<pdfrwt beam="1">  1       -1 0.49771199E-02 0.91992293E+02</pdfrwt>
<totfact> 0.95263368E+04</totfact>
</mgrwt>
</event>
<event>
 7    1  0.2911475E-009  0.9292942E+02  0.7818608E-02  0.1295909E+00
          1   -1    0    0  501    0  0.00000000000E+00  0.00000000000E+00  0.79761697958E+02  0.79761698117E+02  0.50400000000E-02 0. -1.
         -1   -1    0    0    0  501 -0.00000000000E+00 -0.00000000000E+00 -0.27067742012E+02  0.27067742481E+02  0.50400000000E-02 0.  1.
         23    2    1    2    0    0  0.00000000000E+00  0.00000000000E+00  0.52693955946E+02  0.10682944060E+03  0.92929416147E+02 0.  0.
    9000005    2    3    3    0    0  0.17342291669E+02 -0.42061644132E+02  0.16751215805E+02  0.48848257821E+02  0.59675852517E+01 0.  0.
         22    1    3    3    0    0 -0.17342291669E+02  0.42061644132E+02  0.35942740141E+02  0.57981182778E+02  0.00000000000E+00 0. -1.
         22    1    4    4    0    0  0.33430276778E+01 -0.34322747028E+01  0.14870969952E+01  0.50167520532E+01  0.00000000000E+00 0. -1.
         22    1    4    4    0    0  0.13999263991E+02 -0.38629369430E+02  0.15264118810E+02  0.43831505768E+02  0.00000000000E+00 0. -1.
<mgrwt>
<rscale>  0 0.92929416E+02</rscale>
<asrwt>0</asrwt>
<pdfrwt beam="1">  1        1 0.12271030E-01 0.92929416E+02</pdfrwt>
<pdfrwt beam="2">  1       -1 0.41642681E-02 0.92929416E+02</pdfrwt>
<totfact> 0.95557883E+04</totfact>
</mgrwt>
</event>
<event>
 7    1  0.2911475E-009  0.8966890E+02  0.7818608E-02  0.1303655E+00
          1   -1    0    0  501    0  0.00000000000E+00  0.00000000000E+00  0.42468749014E+02  0.42468749313E+02  0.50400000000E-02 0. -1.
         -1   -1    0    0    0  501 -0.00000000000E+00 -0.00000000000E+00 -0.47331926291E+02  0.47331926559E+02  0.50400000000E-02 0.  1.
         23    2    1    2    0    0  0.00000000000E+00  0.00000000000E+00 -0.48631772767E+01  0.89800675872E+02  0.89668895910E+02 0.  0.
    9000005    2    3    3    0    0  0.20272920779E+02  0.56332483760E+01  0.35725144354E+02  0.44082663481E+02  0.14975662802E+02 0.  0.
         22    1    3    3    0    0 -0.20272920779E+02 -0.56332483760E+01 -0.40588321630E+02  0.45718012390E+02  0.00000000000E+00 0.  1.
         22    1    4    4    0    0  0.90881840494E+01  0.92718136851E+01  0.24976339721E+02  0.28149230259E+02  0.00000000000E+00 0. -1.
         22    1    4    4    0    0  0.11184736729E+02 -0.36385653092E+01  0.10748804633E+02  0.15933433222E+02  0.00000000000E+00 0. -1.
<mgrwt>
<rscale>  0 0.89668896E+02</rscale>
<asrwt>0</asrwt>
<pdfrwt beam="1">  1        1 0.65336538E-02 0.89668896E+02</pdfrwt>
<pdfrwt beam="2">  1       -1 0.72818348E-02 0.89668896E+02</pdfrwt>
<totfact> 0.95879694E+04</totfact>
</mgrwt>
</event>
<event>
 7    1  0.2911475E-009  0.9096573E+02  0.7818608E-02  0.1300530E+00
          1   -1    0    0  501    0  0.00000000000E+00  0.00000000000E+00  0.23860398546E+02  0.23860399078E+02  0.50400000000E-02 0. -1.
         -1   -1    0    0    0  501 -0.00000000000E+00 -0.00000000000E+00 -0.86699770708E+02  0.86699770854E+02  0.50400000000E-02 0.  1.
         23    2    1    2    0    0  0.00000000000E+00 -0.71054273576E-14 -0.62839372162E+02  0.11056016993E+03  0.90965732459E+02 0.  0.
    9000005    2    3    3    0    0 -0.17475874667E+02 -0.39058011238E+02 -0.18801168837E+02  0.49157419267E+02  0.15232645277E+02 0.  0.
         22    1    3    3    0    0  0.17475874667E+02  0.39058011238E+02 -0.44038203325E+02  0.61402750666E+02  0.00000000000E+00 0. -1.
         22    1    4    4    0    0 -0.14847686402E+02 -0.36774610228E+02 -0.11863667822E+02  0.41395318130E+02  0.00000000000E+00 0.  1.
         22    1    4    4    0    0 -0.26281882646E+01 -0.22834010099E+01 -0.69375010147E+01  0.77621011366E+01  0.00000000000E+00 0.  1.
<mgrwt>
<rscale>  0 0.90965732E+02</rscale>
<asrwt>0</asrwt>
<pdfrwt beam="1">  1        1 0.36708307E-02 0.90965732E+02</pdfrwt>
<pdfrwt beam="2">  1       -1 0.13338426E-01 0.90965732E+02</pdfrwt>
<totfact> 0.83987438E+04</totfact>
</mgrwt>
</event>
<event>
 7    1  0.2911475E-009  0.9053957E+02  0.7818608E-02  0.1301550E+00
          1   -1    0    0  501    0  0.00000000000E+00  0.00000000000E+00  0.33126112939E+03  0.33126112943E+03  0.50400000000E-02 0. -1.
         -1   -1    0    0    0  501 -0.00000000000E+00 -0.00000000000E+00 -0.61865188573E+01  0.61865209103E+01  0.50400000000E-02 0.  1.
         23    2    1    2    0    0  0.71054273576E-14  0.00000000000E+00  0.32507461053E+03  0.33744765034E+03  0.90539573149E+02 0.  0.
    9000005    2    3    3    0    0 -0.41456028196E+02  0.14819318599E+02  0.13836375639E+03  0.14561658525E+03  0.11020269537E+02 0.  0.
         22    1    3    3    0    0  0.41456028196E+02 -0.14819318599E+02  0.18671085414E+03  0.19183106509E+03  0.00000000000E+00 0. -1.
         22    1    4    4    0    0 -0.20351783617E+02  0.85602172425E+01  0.86527626586E+02  0.89300070426E+02  0.00000000000E+00 0.  1.
         22    1    4    4    0    0 -0.21104244579E+02  0.62591013561E+01  0.51836129804E+02  0.56316514826E+02  0.00000000000E+00 0.  1.
<mgrwt>
<rscale>  0 0.90539573E+02</rscale>
<asrwt>0</asrwt>
<pdfrwt beam="1">  1        1 0.50963257E-01 0.90539573E+02</pdfrwt>
<pdfrwt beam="2">  1       -1 0.95177217E-03 0.90539573E+02</pdfrwt>
<totfact> 0.13298188E+05</totfact>
</mgrwt>
</event>
<event>
 7    1  0.2911475E-009  0.7957769E+02  0.7818608E-02  0.1330254E+00
          1   -1    0    0  501    0  0.00000000000E+00  0.00000000000E+00  0.17162081352E+03  0.17162081360E+03  0.50400000000E-02 0. -1.
         -1   -1    0    0    0  501 -0.00000000000E+00 -0.00000000000E+00 -0.92247100455E+01  0.92247114224E+01  0.50400000000E-02 0.  1.
         23    2    1    2    0    0  0.17763568394E-14 -0.44408920985E-15  0.16239610348E+03  0.18084552502E+03  0.79577694707E+02 0.  0.
    9000005    2    3    3    0    0  0.12706452911E+02 -0.32445877511E+01  0.16650640640E+03  0.16710231268E+03  0.51786324500E+01 0.  0.
         22    1    3    3    0    0 -0.12706452911E+02  0.32445877511E+01 -0.41103029267E+01  0.13743212340E+02  0.00000000000E+00 0.  1.
         22    1    4    4    0    0  0.70368106060E+01 -0.38069442379E+01  0.11599751118E+03  0.11627309288E+03  0.00000000000E+00 0.  1.
         22    1    4    4    0    0  0.56696423053E+01  0.56235648673E+00  0.50508895223E+02  0.50829219799E+02  0.00000000000E+00 0.  1.
<mgrwt>
<rscale>  0 0.79577695E+02</rscale>
<asrwt>0</asrwt>
<pdfrwt beam="1">  1        1 0.26403203E-01 0.79577695E+02</pdfrwt>
<pdfrwt beam="2">  1       -1 0.14191862E-02 0.79577695E+02</pdfrwt>
<totfact> 0.16530445E+05</totfact>
</mgrwt>
</event>
<event>
 7    1  0.2911475E-009  0.9273230E+02  0.7818608E-02  0.1296367E+00
         -1   -1    0    0    0  501 -0.00000000000E+00  0.00000000000E+00  0.23421869566E+01  0.23421923792E+01  0.50400000000E-02 0.  1.
          1   -1    0    0  501    0  0.00000000000E+00 -0.00000000000E+00 -0.91786755687E+03  0.91786755689E+03  0.50400000000E-02 0. -1.
         23    2    1    2    0    0  0.00000000000E+00  0.00000000000E+00 -0.91552536992E+03  0.92020974927E+03  0.92732301188E+02 0.  0.
    9000005    2    3    3    0    0 -0.30483235169E+02  0.24825450070E+02 -0.69392247206E+03  0.69514670268E+03  0.12450318383E+02 0.  0.
         22    1    3    3    0    0  0.30483235169E+02 -0.24825450070E+02 -0.22160289786E+03  0.22506304658E+03  0.00000000000E+00 0.  1.
         22    1    4    4    0    0 -0.46570863340E+01  0.70595916327E+00 -0.41203112750E+02  0.41471476122E+02  0.00000000000E+00 0.  1.
         22    1    4    4    0    0 -0.25826148835E+02  0.24119490906E+02 -0.65271935931E+03  0.65367522656E+03  0.00000000000E+00 0.  1.
<mgrwt>
<rscale>  0 0.92732301E+02</rscale>
<asrwt>0</asrwt>
<pdfrwt beam="2">  1        1 0.14121011E+00 0.92732301E+02</pdfrwt>
<pdfrwt beam="1">  1       -1 0.36033761E-03 0.92732301E+02</pdfrwt>
<totfact> 0.13261233E+05</totfact>
</mgrwt>
</event>
<event>
 7    1  0.2911475E-009  0.9958215E+02  0.7818608E-02  0.1281177E+00
          1   -1    0    0  501    0  0.00000000000E+00  0.00000000000E+00  0.32400319481E+02  0.32400319873E+02  0.50400000000E-02 0. -1.
         -1   -1    0    0    0  501 -0.00000000000E+00 -0.00000000000E+00 -0.76516257558E+02  0.76516257724E+02  0.50400000000E-02 0.  1.
         23    2    1    2    0    0  0.00000000000E+00  0.00000000000E+00 -0.44115938078E+02  0.10891657760E+03  0.99582151427E+02 0.  0.
    9000005    2    3    3    0    0  0.43588820011E+02  0.30284100705E+01 -0.46714199332E+02  0.65145497429E+02  0.12351636270E+02 0.  0.
         22    1    3    3    0    0 -0.43588820011E+02 -0.30284100705E+01  0.25982612542E+01  0.43771080168E+02  0.00000000000E+00 0. -1.
         22    1    4    4    0    0  0.19477919062E+02  0.74527390808E+01 -0.20154854507E+02  0.29002600073E+02  0.00000000000E+00 0. -1.
         22    1    4    4    0    0  0.24110900949E+02 -0.44243290103E+01 -0.26559344825E+02  0.36142897356E+02  0.00000000000E+00 0. -1.
<mgrwt>
<rscale>  0 0.99582151E+02</rscale>
<asrwt>0</asrwt>
<pdfrwt beam="1">  1        1 0.49846646E-02 0.99582151E+02</pdfrwt>
<pdfrwt beam="2">  1       -1 0.11771732E-01 0.99582151E+02</pdfrwt>
<totfact> 0.68050273E+04</totfact>
</mgrwt>
</event>
<event>
 7    1  0.2911475E-009  0.9034409E+02  0.7818608E-02  0.1302021E+00
          1   -1    0    0  501    0  0.00000000000E+00  0.00000000000E+00  0.40793292077E+03  0.40793292080E+03  0.50400000000E-02 0. -1.
         -1   -1    0    0    0  501 -0.00000000000E+00 -0.00000000000E+00 -0.50020805778E+01  0.50020831169E+01  0.50400000000E-02 0.  1.
         23    2    1    2    0    0 -0.35527136788E-14 -0.71054273576E-14  0.40293084020E+03  0.41293500392E+03  0.90344094897E+02 0.  0.
    9000005    2    3    3    0    0 -0.18389690027E+02 -0.40425757739E+02  0.18922894426E+03  0.19466699684E+03  0.10734231483E+02 0.  0.
         22    1    3    3    0    0  0.18389690027E+02  0.40425757739E+02  0.21370189594E+03  0.21826800708E+03  0.00000000000E+00 0.  1.
         22    1    4    4    0    0 -0.61971506997E+00 -0.66351148238E+01  0.44087038254E+02  0.44587842934E+02  0.00000000000E+00 0.  1.
         22    1    4    4    0    0 -0.17769974957E+02 -0.33790642915E+02  0.14514190600E+03  0.15007915391E+03  0.00000000000E+00 0.  1.
<mgrwt>
<rscale>  0 0.90344095E+02</rscale>
<asrwt>0</asrwt>
<pdfrwt beam="1">  1        1 0.62758928E-01 0.90344095E+02</pdfrwt>
<pdfrwt beam="2">  1       -1 0.76955085E-03 0.90344095E+02</pdfrwt>
<totfact> 0.13865604E+05</totfact>
</mgrwt>
</event>
<event>
 7    1  0.2911475E-009  0.9164250E+02  0.7818608E-02  0.1298922E+00
         -1   -1    0    0    0  501 -0.00000000000E+00  0.00000000000E+00  0.24589179497E+03  0.24589179502E+03  0.50400000000E-02 0.  1.
          1   -1    0    0  501    0  0.00000000000E+00 -0.00000000000E+00 -0.85386607397E+01  0.85386622272E+01  0.50400000000E-02 0. -1.
         23    2    1    2    0    0  0.88817841970E-15  0.00000000000E+00  0.23735313423E+03  0.25443045725E+03  0.91642496948E+02 0.  0.
    9000005    2    3    3    0    0 -0.40923158709E+01  0.24470715286E+02  0.22536847022E+03  0.22687696151E+03  0.81636598023E+01 0.  0.
         22    1    3    3    0    0  0.40923158709E+01 -0.24470715286E+02  0.11984664014E+02  0.27553495737E+02  0.00000000000E+00 0. -1.
         22    1    4    4    0    0  0.49752971492E+00  0.18626793888E+02  0.16754748954E+03  0.16858044441E+03  0.00000000000E+00 0.  1.
         22    1    4    4    0    0 -0.45898455858E+01  0.58439213984E+01  0.57820980673E+02  0.58296517099E+02  0.00000000000E+00 0.  1.
<mgrwt>
<rscale>  0 0.91642497E+02</rscale>
<asrwt>0</asrwt>
<pdfrwt beam="2">  1        1 0.13136403E-02 0.91642497E+02</pdfrwt>
<pdfrwt beam="1">  1       -1 0.37829506E-01 0.91642497E+02</pdfrwt>
<totfact> 0.64266011E+04</totfact>
</mgrwt>
</event>
<event>
 7    1  0.2911475E-009  0.8251508E+02  0.7818608E-02  0.1322062E+00
          1   -1    0    0  501    0  0.00000000000E+00  0.00000000000E+00  0.42731776996E+01  0.42731806719E+01  0.50400000000E-02 0. -1.
         -1   -1    0    0    0  501 -0.00000000000E+00 -0.00000000000E+00 -0.39834145570E+03  0.39834145574E+03  0.50400000000E-02 0.  1.
         23    2    1    2    0    0  0.00000000000E+00  0.00000000000E+00 -0.39406827800E+03  0.40261463641E+03  0.82515075716E+02 0.  0.
    9000005    2    3    3    0    0  0.18622791946E+02  0.35745351037E+02 -0.15617003477E+03  0.16132619360E+03  0.35387115469E+01 0.  0.
         22    1    3    3    0    0 -0.18622791946E+02 -0.35745351037E+02 -0.23789824323E+03  0.24128844281E+03  0.00000000000E+00 0.  1.
         22    1    4    4    0    0  0.13641693577E+02  0.22982795109E+02 -0.10633258583E+03  0.10963997211E+03  0.00000000000E+00 0. -1.
         22    1    4    4    0    0  0.49810983693E+01  0.12762555929E+02 -0.49837448943E+02  0.51686221490E+02  0.00000000000E+00 0. -1.
<mgrwt>
<rscale>  0 0.82515076E+02</rscale>
<asrwt>0</asrwt>
<pdfrwt beam="1">  1        1 0.65741250E-03 0.82515076E+02</pdfrwt>
<pdfrwt beam="2">  1       -1 0.61283272E-01 0.82515076E+02</pdfrwt>
<totfact> 0.69289852E+04</totfact>
</mgrwt>
</event>
<event>
 7    1  0.2911475E-009  0.9210877E+02  0.7818608E-02  0.1297824E+00
          1   -1    0    0  501    0  0.00000000000E+00  0.00000000000E+00  0.26466752499E+02  0.26466752979E+02  0.50400000000E-02 0. -1.
         -1   -1    0    0    0  501 -0.00000000000E+00 -0.00000000000E+00 -0.80138514851E+02  0.80138515010E+02  0.50400000000E-02 0.  1.
         23    2    1    2    0    0  0.00000000000E+00  0.00000000000E+00 -0.53671762352E+02  0.10660526799E+03  0.92108767709E+02 0.  0.
    9000005    2    3    3    0    0 -0.18667549401E+02 -0.87118041871E+01 -0.74432485875E+02  0.77358378000E+02  0.44441827584E+01 0.  0.
         22    1    3    3    0    0  0.18667549401E+02  0.87118041871E+01  0.20760723523E+02  0.29246889989E+02  0.00000000000E+00 0. -1.
         22    1    4    4    0    0 -0.17313126045E+01 -0.12097710831E+01 -0.13763435550E+02  0.13924551969E+02  0.00000000000E+00 0. -1.
         22    1    4    4    0    0 -0.16936236797E+02 -0.75020331041E+01 -0.60669050325E+02  0.63433826031E+02  0.00000000000E+00 0. -1.
<mgrwt>
<rscale>  0 0.92108768E+02</rscale>
<asrwt>0</asrwt>
<pdfrwt beam="1">  1        1 0.40718082E-02 0.92108768E+02</pdfrwt>
<pdfrwt beam="2">  1       -1 0.12329002E-01 0.92108768E+02</pdfrwt>
<totfact> 0.82448765E+04</totfact>
</mgrwt>
</event>
<event>
 7    1  0.2911475E-009  0.9129558E+02  0.7818608E-02  0.1299744E+00
          1   -1    0    0  501    0  0.00000000000E+00  0.00000000000E+00  0.11742064170E+03  0.11742064180E+03  0.50400000000E-02 0. -1.
         -1   -1    0    0    0  501 -0.00000000000E+00 -0.00000000000E+00 -0.17745777150E+02  0.17745777866E+02  0.50400000000E-02 0.  1.
         23    2    1    2    0    0  0.17763568394E-14  0.00000000000E+00  0.99674864547E+02  0.13516641967E+03  0.91295577024E+02 0.  0.
    9000005    2    3    3    0    0  0.15983540361E+02 -0.17612617672E+02 -0.75445102510E+01  0.25340775144E+02  0.44223733686E+01 0.  0.
         22    1    3    3    0    0 -0.15983540361E+02  0.17612617672E+02  0.10721937480E+03  0.10982564453E+03  0.00000000000E+00 0. -1.
         22    1    4    4    0    0  0.94616719591E+01 -0.71727947713E+01 -0.33600962352E+01  0.12339467890E+02  0.00000000000E+00 0.  1.
         22    1    4    4    0    0  0.65218684023E+01 -0.10439822901E+02 -0.41844140158E+01  0.13001307254E+02  0.00000000000E+00 0.  1.
<mgrwt>
<rscale>  0 0.91295577E+02</rscale>
<asrwt>0</asrwt>
<pdfrwt beam="1">  1        1 0.18064714E-01 0.91295577E+02</pdfrwt>
<pdfrwt beam="2">  1       -1 0.27301196E-02 0.91295577E+02</pdfrwt>
<totfact> 0.10695512E+05</totfact>
</mgrwt>
</event>
<event>
 7    1  0.2911475E-009  0.9180153E+02  0.7818608E-02  0.1298547E+00
          1   -1    0    0  501    0  0.00000000000E+00  0.00000000000E+00  0.18030916468E+03  0.18030916475E+03  0.50400000000E-02 0. -1.
         -1   -1    0    0    0  501 -0.00000000000E+00 -0.00000000000E+00 -0.11684819426E+02  0.11684820513E+02  0.50400000000E-02 0.  1.
         23    2    1    2    0    0  0.35527136788E-14  0.00000000000E+00  0.16862434525E+03  0.19199398526E+03  0.91801528117E+02 0.  0.
    9000005    2    3    3    0    0  0.24915373355E+02 -0.34470001898E+02  0.12034713912E+03  0.12765390838E+03  0.17690595471E+01 0.  0.
         22    1    3    3    0    0 -0.24915373355E+02  0.34470001898E+02  0.48277206133E+02  0.64340076875E+02  0.00000000000E+00 0.  1.
         22    1    4    4    0    0  0.51421869140E+01 -0.69583535017E+01  0.22423500133E+02  0.24034852359E+02  0.00000000000E+00 0. -1.
         22    1    4    4    0    0  0.19773186441E+02 -0.27511648397E+02  0.97923638984E+02  0.10361905602E+03  0.00000000000E+00 0. -1.
<mgrwt>
<rscale>  0 0.91801528E+02</rscale>
<asrwt>0</asrwt>
<pdfrwt beam="1">  1        1 0.27739869E-01 0.91801528E+02</pdfrwt>
<pdfrwt beam="2">  1       -1 0.17976648E-02 0.91801528E+02</pdfrwt>
<totfact> 0.11395168E+05</totfact>
</mgrwt>
</event>
<event>
 7    1  0.2911475E-009  0.9176292E+02  0.7818608E-02  0.1298638E+00
          1   -1    0    0  501    0  0.00000000000E+00  0.00000000000E+00  0.64394507726E+01  0.64394527449E+01  0.50400000000E-02 0. -1.
         -1   -1    0    0    0  501 -0.00000000000E+00 -0.00000000000E+00 -0.32690797912E+03  0.32690797916E+03  0.50400000000E-02 0.  1.
         23    2    1    2    0    0  0.00000000000E+00  0.00000000000E+00 -0.32046852835E+03  0.33334743190E+03  0.91762915688E+02 0.  0.
    9000005    2    3    3    0    0 -0.19136801386E+02  0.40944908447E+02 -0.13420881616E+03  0.14168266446E+03  0.43895761087E+01 0.  0.
         22    1    3    3    0    0  0.19136801386E+02 -0.40944908447E+02 -0.18625971219E+03  0.19166476744E+03  0.00000000000E+00 0.  1.
         22    1    4    4    0    0 -0.15242662161E+02  0.28135014177E+02 -0.96581148185E+02  0.10174397258E+03  0.00000000000E+00 0. -1.
         22    1    4    4    0    0 -0.38941392249E+01  0.12809894271E+02 -0.37627667976E+02  0.39938691877E+02  0.00000000000E+00 0. -1.
<mgrwt>
<rscale>  0 0.91762916E+02</rscale>
<asrwt>0</asrwt>
<pdfrwt beam="1">  1        1 0.99068515E-03 0.91762916E+02</pdfrwt>
<pdfrwt beam="2">  1       -1 0.50293522E-01 0.91762916E+02</pdfrwt>
<totfact> 0.57526128E+04</totfact>
</mgrwt>
</event>
<event>
 7    1  0.2911475E-009  0.1150297E+03  0.7818608E-02  0.1251529E+00
          1   -1    0    0  501    0  0.00000000000E+00  0.00000000000E+00  0.28462732249E+03  0.28462732253E+03  0.50400000000E-02 0.  1.
         -1   -1    0    0    0  501 -0.00000000000E+00 -0.00000000000E+00 -0.11622071765E+02  0.11622072858E+02  0.50400000000E-02 0. -1.
         23    2    1    2    0    0  0.00000000000E+00  0.00000000000E+00  0.27300525072E+03  0.29624939539E+03  0.11502972375E+03 0.  0.
    9000005    2    3    3    0    0  0.46655331264E+02 -0.32119550625E+02  0.14497530601E+03  0.15624920892E+03  0.13696366986E+02 0.  0.
         22    1    3    3    0    0 -0.46655331264E+02  0.32119550625E+02  0.12802994472E+03  0.14000018647E+03  0.00000000000E+00 0.  1.
         22    1    4    4    0    0 -0.42635638131E+00 -0.23136090748E+01  0.37358167017E+01  0.44148491643E+01  0.00000000000E+00 0.  1.
         22    1    4    4    0    0  0.47081687645E+02 -0.29805941550E+02  0.14123948931E+03  0.15183435976E+03  0.00000000000E+00 0.  1.
<mgrwt>
<rscale>  0 0.11502972E+03</rscale>
<asrwt>0</asrwt>
<pdfrwt beam="1">  1        1 0.43788821E-01 0.11502972E+03</pdfrwt>
<pdfrwt beam="2">  1       -1 0.17880111E-02 0.11502972E+03</pdfrwt>
<totfact> 0.67719563E+04</totfact>
</mgrwt>
</event>
<event>
 7    1  0.2911475E-009  0.8841546E+02  0.7818608E-02  0.1306735E+00
          1   -1    0    0  501    0  0.00000000000E+00  0.00000000000E+00  0.69652566134E+03  0.69652566135E+03  0.50400000000E-02 0. -1.
         -1   -1    0    0    0  501 -0.00000000000E+00 -0.00000000000E+00 -0.28058147923E+01  0.28058193189E+01  0.50400000000E-02 0.  1.
         23    2    1    2    0    0  0.00000000000E+00  0.00000000000E+00  0.69371984654E+03  0.69933148067E+03  0.88415464552E+02 0.  0.
    9000005    2    3    3    0    0 -0.82508753692E+00 -0.14686663423E+02  0.67624794980E+03  0.67649190914E+03  0.10659956463E+02 0.  0.
         22    1    3    3    0    0  0.82508753692E+00  0.14686663423E+02  0.17471896741E+02  0.22839571530E+02  0.00000000000E+00 0.  1.
         22    1    4    4    0    0  0.42632221357E+01 -0.99623219359E+01  0.34122900252E+03  0.34140101798E+03  0.00000000000E+00 0.  1.
         22    1    4    4    0    0 -0.50883096726E+01 -0.47243414872E+01  0.33501894729E+03  0.33509089116E+03  0.00000000000E+00 0.  1.
<mgrwt>
<rscale>  0 0.88415465E+02</rscale>
<asrwt>0</asrwt>
<pdfrwt beam="1">  1        1 0.10715781E+00 0.88415465E+02</pdfrwt>
<pdfrwt beam="2">  1       -1 0.43166411E-03 0.88415465E+02</pdfrwt>
<totfact> 0.15420868E+05</totfact>
</mgrwt>
</event>
<event>
 7    1  0.2911475E-009  0.8505344E+02  0.7818608E-02  0.1315293E+00
         -1   -1    0    0    0  501 -0.00000000000E+00  0.00000000000E+00  0.15107056313E+02  0.15107057154E+02  0.50400000000E-02 0.  1.
          1   -1    0    0  501    0  0.00000000000E+00 -0.00000000000E+00 -0.11971372466E+03  0.11971372476E+03  0.50400000000E-02 0. -1.
         23    2    1    2    0    0  0.00000000000E+00  0.71054273576E-14 -0.10460666834E+03  0.13482078192E+03  0.85053443050E+02 0.  0.
    9000005    2    3    3    0    0  0.28879097154E+02 -0.29245290650E+02 -0.68477360938E+02  0.80097696009E+02  0.60993989273E+01 0.  0.
         22    1    3    3    0    0 -0.28879097154E+02  0.29245290650E+02 -0.36129307407E+02  0.54723085908E+02  0.00000000000E+00 0. -1.
         22    1    4    4    0    0  0.19318452387E+02 -0.20892241134E+02 -0.41967431538E+02  0.50704572300E+02  0.00000000000E+00 0.  1.
         22    1    4    4    0    0  0.95606447673E+01 -0.83530495162E+01 -0.26509929400E+02  0.29393123709E+02  0.00000000000E+00 0.  1.
<mgrwt>
<rscale>  0 0.85053443E+02</rscale>
<asrwt>0</asrwt>
<pdfrwt beam="2">  1        1 0.18417496E-01 0.85053443E+02</pdfrwt>
<pdfrwt beam="1">  1       -1 0.23241627E-02 0.85053443E+02</pdfrwt>
<totfact> 0.12992024E+05</totfact>
</mgrwt>
</event>
<event>
 7    1  0.2911475E-009  0.9135063E+02  0.7818608E-02  0.1299614E+00
         -1   -1    0    0    0  501 -0.00000000000E+00  0.00000000000E+00  0.39865755927E+03  0.39865755930E+03  0.50400000000E-02 0.  1.
          1   -1    0    0  501    0  0.00000000000E+00 -0.00000000000E+00 -0.52331478143E+01  0.52331502413E+01  0.50400000000E-02 0. -1.
         23    2    1    2    0    0 -0.17763568394E-14 -0.17763568394E-14  0.39342441146E+03  0.40389070954E+03  0.91350630682E+02 0.  0.
    9000005    2    3    3    0    0 -0.12188065711E+02  0.10260058366E+02  0.38568891962E+03  0.38618038551E+03  0.11204003372E+02 0.  0.
         22    1    3    3    0    0  0.12188065711E+02 -0.10260058366E+02  0.77354918364E+01  0.17710324034E+02  0.00000000000E+00 0. -1.
         22    1    4    4    0    0 -0.29359839825E+00 -0.11551662542E+01  0.10558899516E+03  0.10559572201E+03  0.00000000000E+00 0. -1.
         22    1    4    4    0    0 -0.11894467312E+02  0.11415224620E+02  0.28009992446E+03  0.28058466350E+03  0.00000000000E+00 0. -1.
<mgrwt>
<rscale>  0 0.91350631E+02</rscale>
<asrwt>0</asrwt>
<pdfrwt beam="2">  1        1 0.80509954E-03 0.91350631E+02</pdfrwt>
<pdfrwt beam="1">  1       -1 0.61331956E-01 0.91350631E+02</pdfrwt>
<totfact> 0.53114423E+04</totfact>
</mgrwt>
</event>
<event>
 7    1  0.2911475E-009  0.8992728E+02  0.7818608E-02  0.1303028E+00
          1   -1    0    0  501    0  0.00000000000E+00  0.00000000000E+00  0.93647409432E+02  0.93647409567E+02  0.50400000000E-02 0. -1.
         -1   -1    0    0    0  501 -0.00000000000E+00 -0.00000000000E+00 -0.21588731668E+02  0.21588732257E+02  0.50400000000E-02 0.  1.
         23    2    1    2    0    0  0.00000000000E+00  0.35527136788E-14  0.72058677763E+02  0.11523614182E+03  0.89927278072E+02 0.  0.
    9000005    2    3    3    0    0  0.32403632427E+02 -0.29543994123E+02  0.42200068279E+02  0.62185415688E+02  0.12780343435E+02 0.  0.
         22    1    3    3    0    0 -0.32403632427E+02  0.29543994123E+02  0.29858609485E+02  0.53050726136E+02  0.00000000000E+00 0. -1.
         22    1    4    4    0    0 -0.32819844449E+00 -0.30148052848E+01  0.84524409095E+00  0.31482062666E+01  0.00000000000E+00 0. -1.
         22    1    4    4    0    0  0.32731830872E+02 -0.26529188838E+02  0.41354824188E+02  0.59037209421E+02  0.00000000000E+00 0. -1.
<mgrwt>
<rscale>  0 0.89927278E+02</rscale>
<asrwt>0</asrwt>
<pdfrwt beam="1">  1        1 0.14407294E-01 0.89927278E+02</pdfrwt>
<pdfrwt beam="2">  1       -1 0.33213434E-02 0.89927278E+02</pdfrwt>
<totfact> 0.10728911E+05</totfact>
</mgrwt>
</event>
<event>
 7    1  0.2911475E-009  0.9147742E+02  0.7818608E-02  0.1299313E+00
          1   -1    0    0  501    0  0.00000000000E+00  0.00000000000E+00  0.66208558629E+03  0.66208558631E+03  0.50400000000E-02 0. -1.
         -1   -1    0    0    0  501 -0.00000000000E+00 -0.00000000000E+00 -0.31597550886E+01  0.31597591081E+01  0.50400000000E-02 0.  1.
         23    2    1    2    0    0  0.00000000000E+00 -0.17763568394E-14  0.65892583121E+03  0.66524534542E+03  0.91477421121E+02 0.  0.
    9000005    2    3    3    0    0 -0.39346661447E+02 -0.12907075717E+02  0.46779618572E+03  0.46968130539E+03  0.72460255797E+01 0.  0.
         22    1    3    3    0    0  0.39346661447E+02  0.12907075717E+02  0.19112964549E+03  0.19556404004E+03  0.00000000000E+00 0.  1.
         22    1    4    4    0    0 -0.33300096134E+02 -0.13424036442E+02  0.39036492071E+03  0.39201259224E+03  0.00000000000E+00 0. -1.
         22    1    4    4    0    0 -0.60465653125E+01  0.51696072553E+00  0.77431265010E+02  0.77668713145E+02  0.00000000000E+00 0. -1.
<mgrwt>
<rscale>  0 0.91477421E+02</rscale>
<asrwt>0</asrwt>
<pdfrwt beam="1">  1        1 0.10185954E+00 0.91477421E+02</pdfrwt>
<pdfrwt beam="2">  1       -1 0.48611546E-03 0.91477421E+02</pdfrwt>
<totfact> 0.14090685E+05</totfact>
</mgrwt>
</event>
<event>
 7    1  0.2911475E-009  0.9124590E+02  0.7818608E-02  0.1299862E+00
          1   -1    0    0  501    0  0.00000000000E+00  0.00000000000E+00  0.11222207898E+03  0.11222207909E+03  0.50400000000E-02 0. -1.
         -1   -1    0    0    0  501 -0.00000000000E+00 -0.00000000000E+00 -0.18547630098E+02  0.18547630783E+02  0.50400000000E-02 0.  1.
         23    2    1    2    0    0  0.00000000000E+00  0.35527136788E-14  0.93674448884E+02  0.13076970988E+03  0.91245902088E+02 0.  0.
    9000005    2    3    3    0    0  0.21137116129E+02  0.26420185623E+02  0.34360819668E+01  0.34396649584E+02  0.51496559815E+01 0.  0.
         22    1    3    3    0    0 -0.21137116129E+02 -0.26420185623E+02  0.90238366917E+02  0.96373060294E+02  0.00000000000E+00 0. -1.
         22    1    4    4    0    0  0.80347371613E+01  0.13873147801E+02  0.25544358213E+01  0.16234111417E+02  0.00000000000E+00 0.  1.
         22    1    4    4    0    0  0.13102378968E+02  0.12547037822E+02  0.88164614553E+00  0.18162538166E+02  0.00000000000E+00 0.  1.
<mgrwt>
<rscale>  0 0.91245902E+02</rscale>
<asrwt>0</asrwt>
<pdfrwt beam="1">  1        1 0.17264935E-01 0.91245902E+02</pdfrwt>
<pdfrwt beam="2">  1       -1 0.28534817E-02 0.91245902E+02</pdfrwt>
<totfact> 0.10628302E+05</totfact>
</mgrwt>
</event>
<event>
 7    1  0.2911475E-009  0.9141716E+02  0.7818608E-02  0.1299456E+00
         -1   -1    0    0    0  501 -0.00000000000E+00  0.00000000000E+00  0.15880348118E+02  0.15880348918E+02  0.50400000000E-02 0.  1.
          1   -1    0    0  501    0  0.00000000000E+00 -0.00000000000E+00 -0.13156349698E+03  0.13156349707E+03  0.50400000000E-02 0. -1.
         23    2    1    2    0    0  0.00000000000E+00  0.00000000000E+00 -0.11568314886E+03  0.14744384599E+03  0.91417158077E+02 0.  0.
    9000005    2    3    3    0    0 -0.92591037486E+01  0.30001607576E+02 -0.60950111922E+01  0.33446532968E+02  0.97823282914E+01 0.  0.
         22    1    3    3    0    0  0.92591037486E+01 -0.30001607576E+02 -0.10958813767E+03  0.11399731302E+03  0.00000000000E+00 0. -1.
         22    1    4    4    0    0 -0.87060219344E+01  0.14839802094E+02 -0.61597872504E+01  0.18274504729E+02  0.00000000000E+00 0.  1.
         22    1    4    4    0    0 -0.55308181425E+00  0.15161805482E+02  0.64776058194E-01  0.15172028239E+02  0.00000000000E+00 0.  1.
<mgrwt>
<rscale>  0 0.91417158E+02</rscale>
<asrwt>0</asrwt>
<pdfrwt beam="2">  1        1 0.20240537E-01 0.91417158E+02</pdfrwt>
<pdfrwt beam="1">  1       -1 0.24431306E-02 0.91417158E+02</pdfrwt>
<totfact> 0.10872207E+05</totfact>
</mgrwt>
</event>
<event>
 7    1  0.2911475E-009  0.9382339E+02  0.7818608E-02  0.1293848E+00
         -1   -1    0    0    0  501 -0.00000000000E+00  0.00000000000E+00  0.12348386971E+02  0.12348388000E+02  0.50400000000E-02 0.  1.
          1   -1    0    0  501    0  0.00000000000E+00 -0.00000000000E+00 -0.17821818650E+03  0.17821818657E+03  0.50400000000E-02 0. -1.
         23    2    1    2    0    0  0.00000000000E+00  0.00000000000E+00 -0.16586979952E+03  0.19056657457E+03  0.93823392328E+02 0.  0.
    9000005    2    3    3    0    0  0.24437820044E+02  0.32506575830E+02 -0.40219883019E+02  0.58499220393E+02  0.12273356340E+02 0.  0.
         22    1    3    3    0    0 -0.24437820044E+02 -0.32506575830E+02 -0.12564991650E+03  0.13206735417E+03  0.00000000000E+00 0. -1.
         22    1    4    4    0    0  0.11878920280E+02  0.18443913420E+02 -0.29651672251E+02  0.36885069562E+02  0.00000000000E+00 0.  1.
         22    1    4    4    0    0  0.12558899764E+02  0.14062662410E+02 -0.10568210768E+02  0.21614150832E+02  0.00000000000E+00 0.  1.
<mgrwt>
<rscale>  0 0.93823392E+02</rscale>
<asrwt>0</asrwt>
<pdfrwt beam="2">  1        1 0.27418181E-01 0.93823392E+02</pdfrwt>
<pdfrwt beam="1">  1       -1 0.18997521E-02 0.93823392E+02</pdfrwt>
<totfact> 0.10721415E+05</totfact>
</mgrwt>
</event>
<event>
 7    1  0.2911475E-009  0.9172823E+02  0.7818608E-02  0.1298720E+00
         -1   -1    0    0    0  501 -0.00000000000E+00  0.00000000000E+00  0.10932503013E+02  0.10932504174E+02  0.50400000000E-02 0.  1.
          1   -1    0    0  501    0  0.00000000000E+00 -0.00000000000E+00 -0.19240943316E+03  0.19240943322E+03  0.50400000000E-02 0. -1.
         23    2    1    2    0    0  0.00000000000E+00  0.00000000000E+00 -0.18147693015E+03  0.20334193740E+03  0.91728225372E+02 0.  0.
    9000005    2    3    3    0    0  0.37348722409E+02  0.20299308738E+02 -0.12476059854E+03  0.13246365249E+03  0.13206940678E+02 0.  0.
         22    1    3    3    0    0 -0.37348722409E+02 -0.20299308738E+02 -0.56716331605E+02  0.70878284908E+02  0.00000000000E+00 0. -1.
         22    1    4    4    0    0  0.19806748647E+02  0.10068338016E+02 -0.45391368677E+02  0.50537659945E+02  0.00000000000E+00 0.  1.
         22    1    4    4    0    0  0.17541973762E+02  0.10230970722E+02 -0.79369229864E+02  0.81925992546E+02  0.00000000000E+00 0.  1.
<mgrwt>
<rscale>  0 0.91728225E+02</rscale>
<asrwt>0</asrwt>
<pdfrwt beam="2">  1        1 0.29601449E-01 0.91728225E+02</pdfrwt>
<pdfrwt beam="1">  1       -1 0.16819238E-02 0.91728225E+02</pdfrwt>
<totfact> 0.11563423E+05</totfact>
</mgrwt>
</event>
<event>
 7    1  0.2911475E-009  0.1165558E+03  0.7818608E-02  0.1248890E+00
          1   -1    0    0  501    0  0.00000000000E+00  0.00000000000E+00  0.27253117851E+03  0.27253117856E+03  0.50400000000E-02 0. -1.
         -1   -1    0    0    0  501 -0.00000000000E+00 -0.00000000000E+00 -0.12462107912E+02  0.12462108931E+02  0.50400000000E-02 0.  1.
         23    2    1    2    0    0  0.00000000000E+00 -0.35527136788E-14  0.26006907060E+03  0.28499328749E+03  0.11655579107E+03 0.  0.
    9000005    2    3    3    0    0 -0.32670974223E+02  0.26813928939E+02  0.35789581040E+02  0.56766056908E+02  0.12454387338E+02 0.  0.
         22    1    3    3    0    0  0.32670974223E+02 -0.26813928939E+02  0.22427948956E+03  0.22822723058E+03  0.00000000000E+00 0. -1.
         22    1    4    4    0    0 -0.13090794529E+02  0.18495830442E+02  0.16288446371E+02  0.27906596537E+02  0.00000000000E+00 0. -1.
         22    1    4    4    0    0 -0.19580179695E+02  0.83180984977E+01  0.19501134669E+02  0.28859460370E+02  0.00000000000E+00 0. -1.
<mgrwt>
<rscale>  0 0.11655579E+03</rscale>
<asrwt>0</asrwt>
<pdfrwt beam="1">  1        1 0.41927872E-01 0.11655579E+03</pdfrwt>
<pdfrwt beam="2">  1       -1 0.19172475E-02 0.11655579E+03</pdfrwt>
<totfact> 0.64741032E+04</totfact>
</mgrwt>
</event>
<event>
 7    1  0.2911475E-009  0.9095971E+02  0.7818608E-02  0.1300544E+00
          1   -1    0    0  501    0  0.00000000000E+00  0.00000000000E+00  0.34540131417E+03  0.34540131421E+03  0.50400000000E-02 0. -1.
         -1   -1    0    0    0  501 -0.00000000000E+00 -0.00000000000E+00 -0.59884455720E+01  0.59884476929E+01  0.50400000000E-02 0.  1.
         23    2    1    2    0    0  0.00000000000E+00  0.00000000000E+00  0.33941286860E+03  0.35138976190E+03  0.90959713050E+02 0.  0.
    9000005    2    3    3    0    0 -0.10897448073E+02  0.34959363765E+02  0.27244858817E+03  0.27506724659E+03  0.96356350982E+01 0.  0.
         22    1    3    3    0    0  0.10897448073E+02 -0.34959363765E+02  0.66964280432E+02  0.76322515309E+02  0.00000000000E+00 0.  1.
         22    1    4    4    0    0 -0.60225715753E+01  0.30096761340E+02  0.23435172661E+03  0.23635316409E+03  0.00000000000E+00 0. -1.
         22    1    4    4    0    0 -0.48748764979E+01  0.48626024248E+01  0.38096861558E+02  0.38714082499E+02  0.00000000000E+00 0. -1.
<mgrwt>
<rscale>  0 0.90959713E+02</rscale>
<asrwt>0</asrwt>
<pdfrwt beam="1">  1        1 0.53138672E-01 0.90959713E+02</pdfrwt>
<pdfrwt beam="2">  1       -1 0.92129935E-03 0.90959713E+02</pdfrwt>
<totfact> 0.13235706E+05</totfact>
</mgrwt>
</event>
<event>
 7    1  0.2911475E-009  0.8986389E+02  0.7818608E-02  0.1303182E+00
         -1   -1    0    0    0  501 -0.00000000000E+00  0.00000000000E+00  0.93163892080E+01  0.93163905713E+01  0.50400000000E-02 0.  1.
          1   -1    0    0  501    0  0.00000000000E+00 -0.00000000000E+00 -0.21670191891E+03  0.21670191897E+03  0.50400000000E-02 0. -1.
         23    2    1    2    0    0  0.00000000000E+00  0.00000000000E+00 -0.20738552970E+03  0.22601830954E+03  0.89863887727E+02 0.  0.
    9000005    2    3    3    0    0 -0.64808808323E+01  0.35761661789E+02 -0.37697517363E+02  0.52481800984E+02  0.35125986032E+01 0.  0.
         22    1    3    3    0    0  0.64808808323E+01 -0.35761661789E+02 -0.16968801234E+03  0.17353650856E+03  0.00000000000E+00 0. -1.
         22    1    4    4    0    0  0.71178549748E-01  0.10771558474E+01 -0.20403375627E+01  0.23083129067E+01  0.00000000000E+00 0.  1.
         22    1    4    4    0    0 -0.65520593820E+01  0.34684505941E+02 -0.35657179801E+02  0.50173488077E+02  0.00000000000E+00 0.  1.
<mgrwt>
<rscale>  0 0.89863888E+02</rscale>
<asrwt>0</asrwt>
<pdfrwt beam="2">  1        1 0.33338753E-01 0.89863888E+02</pdfrwt>
<pdfrwt beam="1">  1       -1 0.14332909E-02 0.89863888E+02</pdfrwt>
<totfact> 0.12502530E+05</totfact>
</mgrwt>
</event>
<event>
 7    1  0.2911475E-009  0.8317105E+02  0.7818608E-02  0.1320286E+00
          1   -1    0    0  501    0  0.00000000000E+00  0.00000000000E+00  0.40323416445E+03  0.40323416449E+03  0.50400000000E-02 0. -1.
         -1   -1    0    0    0  501 -0.00000000000E+00 -0.00000000000E+00 -0.42887120014E+01  0.42887149629E+01  0.50400000000E-02 0.  1.
         23    2    1    2    0    0  0.00000000000E+00  0.00000000000E+00  0.39894545245E+03  0.40752287945E+03  0.83171048096E+02 0.  0.
    9000005    2    3    3    0    0 -0.30471948819E+02 -0.74479202476E+01  0.33217983499E+03  0.33375527914E+03  0.80704643960E+01 0.  0.
         22    1    3    3    0    0  0.30471948819E+02  0.74479202476E+01  0.66765617462E+02  0.73767600313E+02  0.00000000000E+00 0.  1.
         22    1    4    4    0    0 -0.66088225283E+00  0.83510697033E+00  0.24630577216E+02  0.24653590063E+02  0.00000000000E+00 0. -1.
         22    1    4    4    0    0 -0.29811066566E+02 -0.82830272180E+01  0.30754925777E+03  0.30910168907E+03  0.00000000000E+00 0. -1.
<mgrwt>
<rscale>  0 0.83171048E+02</rscale>
<asrwt>0</asrwt>
<pdfrwt beam="1">  1        1 0.62036037E-01 0.83171048E+02</pdfrwt>
<pdfrwt beam="2">  1       -1 0.65980196E-03 0.83171048E+02</pdfrwt>
<totfact> 0.17218950E+05</totfact>
</mgrwt>
</event>
<event>
 7    1  0.2911475E-009  0.9107080E+02  0.7818608E-02  0.1300279E+00
         -1   -1    0    0    0  501 -0.00000000000E+00  0.00000000000E+00  0.65179785977E+02  0.65179786172E+02  0.50400000000E-02 0.  1.
          1   -1    0    0  501    0  0.00000000000E+00 -0.00000000000E+00 -0.31811592923E+02  0.31811593322E+02  0.50400000000E-02 0. -1.
         23    2    1    2    0    0  0.00000000000E+00 -0.35527136788E-14  0.33368193054E+02  0.96991379494E+02  0.91070804259E+02 0.  0.
    9000005    2    3    3    0    0  0.15639470359E+02  0.31922938275E+02 -0.12914544741E+02  0.38632499801E+02  0.78751224575E+01 0.  0.
         22    1    3    3    0    0 -0.15639470359E+02 -0.31922938275E+02  0.46282737795E+02  0.58358879693E+02  0.00000000000E+00 0.  1.
         22    1    4    4    0    0  0.21639768036E+01  0.14015007422E+01 -0.27157684709E+01  0.37446492926E+01  0.00000000000E+00 0. -1.
         22    1    4    4    0    0  0.13475493556E+02  0.30521437533E+02 -0.10198776270E+02  0.34887850508E+02  0.00000000000E+00 0. -1.
<mgrwt>
<rscale>  0 0.91070804E+02</rscale>
<asrwt>0</asrwt>
<pdfrwt beam="2">  1        1 0.48940913E-02 0.91070804E+02</pdfrwt>
<pdfrwt beam="1">  1       -1 0.10027659E-01 0.91070804E+02</pdfrwt>
<totfact> 0.87793648E+04</totfact>
</mgrwt>
</event>
<event>
 7    1  0.2945634E-009  0.9153917E+02  0.7818608E-02  0.1299167E+00
         -1   -1    0    0    0  501 -0.00000000000E+00  0.00000000000E+00  0.73682721925E+01  0.73682739162E+01  0.50400000000E-02 0.  1.
          1   -1    0    0  501    0  0.00000000000E+00 -0.00000000000E+00 -0.28430746092E+03  0.28430746096E+03  0.50400000000E-02 0. -1.
         23    2    1    2    0    0  0.00000000000E+00 -0.22204460493E-15 -0.27693918873E+03  0.29167573488E+03  0.91539172299E+02 0.  0.
    9000005    2    3    3    0    0  0.44877144786E+02 -0.10215649783E+01 -0.14235786333E+03  0.14980560108E+03  0.12686809829E+02 0.  0.
         22    1    3    3    0    0 -0.44877144786E+02  0.10215649783E+01 -0.13458132539E+03  0.14187013380E+03  0.00000000000E+00 0. -1.
         22    1    4    4    0    0  0.44223196141E+02  0.12722068158E+01 -0.13599939571E+03  0.14301449304E+03  0.00000000000E+00 0. -1.
         22    1    4    4    0    0  0.65394864531E+00 -0.22937717941E+01 -0.63584676271E+01  0.67911080421E+01  0.00000000000E+00 0. -1.
<mgrwt>
<rscale>  0 0.91539172E+02</rscale>
<asrwt>0</asrwt>
<pdfrwt beam="2">  1        1 0.43739601E-01 0.91539172E+02</pdfrwt>
<pdfrwt beam="1">  1       -1 0.11335807E-02 0.91539172E+02</pdfrwt>
<totfact> 0.12547203E+05</totfact>
</mgrwt>
</event>
<event>
 7    1  0.2911475E-009  0.9088913E+02  0.7818608E-02  0.1300713E+00
          1   -1    0    0  501    0  0.00000000000E+00  0.00000000000E+00  0.38240149389E+01  0.38240182603E+01  0.50400000000E-02 0. -1.
         -1   -1    0    0    0  501 -0.00000000000E+00 -0.00000000000E+00 -0.54006258271E+03  0.54006258273E+03  0.50400000000E-02 0.  1.
         23    2    1    2    0    0  0.35527136788E-14 -0.35527136788E-14 -0.53623856777E+03  0.54388660099E+03  0.90889125727E+02 0.  0.
    9000005    2    3    3    0    0 -0.23425479034E+02  0.19262969046E+02 -0.46863029734E+03  0.46978738862E+03  0.12884869900E+02 0.  0.
         22    1    3    3    0    0  0.23425479034E+02 -0.19262969046E+02 -0.67608270425E+02  0.74099212373E+02  0.00000000000E+00 0. -1.
         22    1    4    4    0    0  0.86326452891E-01 -0.47921667885E+00 -0.70963189565E+00  0.86062669554E+00  0.00000000000E+00 0. -1.
         22    1    4    4    0    0 -0.23511805486E+02  0.19742185724E+02 -0.46792066545E+03  0.46892676192E+03  0.00000000000E+00 0. -1.
<mgrwt>
<rscale>  0 0.90889126E+02</rscale>
<asrwt>0</asrwt>
<pdfrwt beam="1">  1        1 0.58831067E-03 0.90889126E+02</pdfrwt>
<pdfrwt beam="2">  1       -1 0.83086491E-01 0.90889126E+02</pdfrwt>
<totfact> 0.45153610E+04</totfact>
</mgrwt>
</event>
<event>
 7    1  0.2911475E-009  0.9076872E+02  0.7818608E-02  0.1301001E+00
         -1   -1    0    0    0  501 -0.00000000000E+00  0.00000000000E+00  0.31123694466E+02  0.31123694874E+02  0.50400000000E-02 0.  1.
          1   -1    0    0  501    0  0.00000000000E+00 -0.00000000000E+00 -0.66179166217E+02  0.66179166408E+02  0.50400000000E-02 0. -1.
         23    2    1    2    0    0  0.00000000000E+00  0.27755575616E-16 -0.35055471751E+02  0.97302861282E+02  0.90768721011E+02 0.  0.
    9000005    2    3    3    0    0  0.29913287082E+02  0.16847539841E+00  0.18860382605E+02  0.35644508410E+02  0.44703265787E+01 0.  0.
         22    1    3    3    0    0 -0.29913287082E+02 -0.16847539841E+00 -0.53915854356E+02  0.61658352873E+02  0.00000000000E+00 0. -1.
         22    1    4    4    0    0  0.16578276867E+02  0.30950100273E+00  0.13037539229E+02  0.21092948677E+02  0.00000000000E+00 0.  1.
         22    1    4    4    0    0  0.13335010215E+02 -0.14102560432E+00  0.58228433763E+01  0.14551559732E+02  0.00000000000E+00 0.  1.
<mgrwt>
<rscale>  0 0.90768721E+02</rscale>
<asrwt>0</asrwt>
<pdfrwt beam="2">  1        1 0.10181410E-01 0.90768721E+02</pdfrwt>
<pdfrwt beam="1">  1       -1 0.47882607E-02 0.90768721E+02</pdfrwt>
<totfact> 0.99038926E+04</totfact>
</mgrwt>
</event>
<event>
 7    1  0.2911475E-009  0.8933782E+02  0.7818608E-02  0.1304463E+00
         -1   -1    0    0    0  501 -0.00000000000E+00  0.00000000000E+00  0.80162612234E+02  0.80162612393E+02  0.50400000000E-02 0.  1.
          1   -1    0    0  501    0  0.00000000000E+00 -0.00000000000E+00 -0.24890801743E+02  0.24890802253E+02  0.50400000000E-02 0. -1.
         23    2    1    2    0    0  0.00000000000E+00 -0.71054273576E-14  0.55271810491E+02  0.10505341465E+03  0.89337824541E+02 0.  0.
    9000005    2    3    3    0    0  0.86198481666E+00  0.43620187130E+02  0.36816696388E+02  0.57681957209E+02  0.82628875997E+01 0.  0.
         22    1    3    3    0    0 -0.86198481666E+00 -0.43620187130E+02  0.18455114103E+02  0.47371457436E+02  0.00000000000E+00 0. -1.
         22    1    4    4    0    0  0.20257710209E+01  0.39389900763E+02  0.35591922362E+02  0.53126763196E+02  0.00000000000E+00 0. -1.
         22    1    4    4    0    0 -0.11637862042E+01  0.42302863676E+01  0.12247740261E+01  0.45551940130E+01  0.00000000000E+00 0. -1.
<mgrwt>
<rscale>  0 0.89337825E+02</rscale>
<asrwt>0</asrwt>
<pdfrwt beam="2">  1        1 0.38293542E-02 0.89337825E+02</pdfrwt>
<pdfrwt beam="1">  1       -1 0.12332710E-01 0.89337825E+02</pdfrwt>
<totfact> 0.89147554E+04</totfact>
</mgrwt>
</event>
<event>
 7    1  0.2911475E-009  0.9133745E+02  0.7818608E-02  0.1299645E+00
         -1   -1    0    0    0  501 -0.00000000000E+00  0.00000000000E+00  0.29634262564E+02  0.29634262993E+02  0.50400000000E-02 0.  1.
          1   -1    0    0  501    0  0.00000000000E+00 -0.00000000000E+00 -0.70379085848E+02  0.70379086029E+02  0.50400000000E-02 0. -1.
         23    2    1    2    0    0  0.00000000000E+00  0.00000000000E+00 -0.40744823284E+02  0.10001334902E+03  0.91337447732E+02 0.  0.
    9000005    2    3    3    0    0 -0.19633390993E+02 -0.33776145260E+02  0.49135891710E+01  0.39921846641E+02  0.65812195073E+01 0.  0.
         22    1    3    3    0    0  0.19633390993E+02  0.33776145260E+02 -0.45658412455E+02  0.60091502381E+02  0.00000000000E+00 0. -1.
         22    1    4    4    0    0 -0.18815928441E+02 -0.27740465400E+02  0.44429779492E+01  0.33812906363E+02  0.00000000000E+00 0.  1.
         22    1    4    4    0    0 -0.81746255253E+00 -0.60356798596E+01  0.47061122176E+00  0.61089402775E+01  0.00000000000E+00 0.  1.
<mgrwt>
<rscale>  0 0.91337448E+02</rscale>
<asrwt>0</asrwt>
<pdfrwt beam="2">  1        1 0.10827552E-01 0.91337448E+02</pdfrwt>
<pdfrwt beam="1">  1       -1 0.45591174E-02 0.91337448E+02</pdfrwt>
<totfact> 0.98270695E+04</totfact>
</mgrwt>
</event>
<event>
 7    1  0.2911475E-009  0.8998396E+02  0.7818608E-02  0.1302891E+00
          1   -1    0    0  501    0  0.00000000000E+00  0.00000000000E+00  0.95039383698E+01  0.95039397062E+01  0.50400000000E-02 0. -1.
         -1   -1    0    0    0  501 -0.00000000000E+00 -0.00000000000E+00 -0.21299360262E+03  0.21299360268E+03  0.50400000000E-02 0.  1.
         23    2    1    2    0    0  0.00000000000E+00  0.00000000000E+00 -0.20348966425E+03  0.22249754238E+03  0.89983959187E+02 0.  0.
    9000005    2    3    3    0    0 -0.34263322180E+02 -0.87562833312E+01 -0.17034677877E+03  0.17403004191E+03  0.42169543716E+01 0.  0.
         22    1    3    3    0    0  0.34263322180E+02  0.87562833312E+01 -0.33142885475E+02  0.48467500474E+02  0.00000000000E+00 0. -1.
         22    1    4    4    0    0 -0.25896441478E+02 -0.47153348710E+01 -0.12527627753E+03  0.12801174078E+03  0.00000000000E+00 0.  1.
         22    1    4    4    0    0 -0.83668807021E+01 -0.40409484602E+01 -0.45070501239E+02  0.46018301132E+02  0.00000000000E+00 0.  1.
<mgrwt>
<rscale>  0 0.89983959E+02</rscale>
<asrwt>0</asrwt>
<pdfrwt beam="1">  1        1 0.14621446E-02 0.89983959E+02</pdfrwt>
<pdfrwt beam="2">  1       -1 0.32768243E-01 0.89983959E+02</pdfrwt>
<totfact> 0.70535393E+04</totfact>
</mgrwt>
</event>
<event>
 7    1  0.2911475E-009  0.9123894E+02  0.7818608E-02  0.1299879E+00
          1   -1    0    0  501    0  0.00000000000E+00  0.00000000000E+00  0.25837288135E+01  0.25837337292E+01  0.50400000000E-02 0. -1.
         -1   -1    0    0    0  501 -0.00000000000E+00 -0.00000000000E+00 -0.80547702211E+03  0.80547702213E+03  0.50400000000E-02 0.  1.
         23    2    1    2    0    0  0.00000000000E+00 -0.35527136788E-14 -0.80289329330E+03  0.80806075585E+03  0.91238943069E+02 0.  0.
    9000005    2    3    3    0    0  0.39699207907E+01  0.29972358097E+02 -0.70216094910E+03  0.70288895503E+03  0.10429867897E+02 0.  0.
         22    1    3    3    0    0 -0.39699207907E+01 -0.29972358097E+02 -0.10073234420E+03  0.10517180082E+03  0.00000000000E+00 0. -1.
         22    1    4    4    0    0  0.29817357558E+01  0.17367685435E+02 -0.29056275613E+03  0.29109662055E+03  0.00000000000E+00 0. -1.
         22    1    4    4    0    0  0.98818503484E+00  0.12604672662E+02 -0.41159819297E+03  0.41179233449E+03  0.00000000000E+00 0. -1.
<mgrwt>
<rscale>  0 0.91238943E+02</rscale>
<asrwt>0</asrwt>
<pdfrwt beam="1">  1        1 0.39749776E-03 0.91238943E+02</pdfrwt>
<pdfrwt beam="2">  1       -1 0.12391934E+00 0.91238943E+02</pdfrwt>
<totfact> 0.32378407E+04</totfact>
</mgrwt>
</event>
<event>
 7    1  0.2911475E-009  0.9213804E+02  0.7818608E-02  0.1297755E+00
         -1   -1    0    0    0  501 -0.00000000000E+00  0.00000000000E+00  0.18140695233E+01  0.18140765245E+01  0.50400000000E-02 0.  1.
          1   -1    0    0  501    0  0.00000000000E+00 -0.00000000000E+00 -0.11699389992E+04  0.11699389992E+04  0.50400000000E-02 0. -1.
         23    2    1    2    0    0  0.00000000000E+00  0.00000000000E+00 -0.11681249297E+04  0.11717530758E+04  0.92138044060E+02 0.  0.
    9000005    2    3    3    0    0 -0.26543428133E+02 -0.13655521048E+02 -0.10288550459E+04  0.10293201885E+04  0.81435987289E+01 0.  0.
         22    1    3    3    0    0  0.26543428133E+02  0.13655521048E+02 -0.13926988385E+03  0.14243288728E+03  0.00000000000E+00 0.  1.
         22    1    4    4    0    0 -0.46618828311E+01 -0.51056689361E+00 -0.94238976368E+02  0.94355596003E+02  0.00000000000E+00 0.  1.
         22    1    4    4    0    0 -0.21881545302E+02 -0.13144954154E+02 -0.93461606948E+03  0.93496459248E+03  0.00000000000E+00 0.  1.
<mgrwt>
<rscale>  0 0.92138044E+02</rscale>
<asrwt>0</asrwt>
<pdfrwt beam="2">  1        1 0.17999001E+00 0.92138044E+02</pdfrwt>
<pdfrwt beam="1">  1       -1 0.27908909E-03 0.92138044E+02</pdfrwt>
<totfact> 0.12525428E+05</totfact>
</mgrwt>
</event>
<event>
 7    1  0.2911475E-009  0.8820911E+02  0.7818608E-02  0.1307247E+00
          1   -1    0    0  501    0  0.00000000000E+00  0.00000000000E+00  0.17164275105E+03  0.17164275113E+03  0.50400000000E-02 0. -1.
         -1   -1    0    0    0  501 -0.00000000000E+00 -0.00000000000E+00 -0.11332909814E+02  0.11332910934E+02  0.50400000000E-02 0.  1.
         23    2    1    2    0    0 -0.35527136788E-14  0.00000000000E+00  0.16030984124E+03  0.18297566206E+03  0.88209113524E+02 0.  0.
    9000005    2    3    3    0    0  0.27297800578E+02 -0.33187705946E+02  0.94489684867E+02  0.10436976707E+03  0.10869866138E+02 0.  0.
         22    1    3    3    0    0 -0.27297800578E+02  0.33187705946E+02  0.65820156374E+02  0.78605894992E+02  0.00000000000E+00 0. -1.
         22    1    4    4    0    0  0.28265838513E+02 -0.31980655223E+02  0.92275616837E+02  0.10166862544E+03  0.00000000000E+00 0. -1.
         22    1    4    4    0    0 -0.96803793553E+00 -0.12070507229E+01  0.22140680300E+01  0.27011416353E+01  0.00000000000E+00 0. -1.
<mgrwt>
<rscale>  0 0.88209114E+02</rscale>
<asrwt>0</asrwt>
<pdfrwt beam="1">  1        1 0.26406578E-01 0.88209114E+02</pdfrwt>
<pdfrwt beam="2">  1       -1 0.17435246E-02 0.88209114E+02</pdfrwt>
<totfact> 0.12565822E+05</totfact>
</mgrwt>
</event>
<event>
 7    1  0.4193690E-009  0.1013397E+03  0.7818608E-02  0.1277504E+00
          1   -1    0    0  501    0  0.00000000000E+00  0.00000000000E+00  0.45994346086E+02  0.45994346362E+02  0.50400000000E-02 0. -1.
         -1   -1    0    0    0  501 -0.00000000000E+00 -0.00000000000E+00 -0.55820637681E+02  0.55820637909E+02  0.50400000000E-02 0.  1.
         23    2    1    2    0    0  0.00000000000E+00  0.00000000000E+00 -0.98262915957E+01  0.10181498427E+03  0.10133970108E+03 0.  0.
    9000005    2    3    3    0    0  0.51832398074E+01 -0.30014788540E+02 -0.44566078740E+02  0.55613184340E+02  0.13376748192E+02 0.  0.
         22    1    3    3    0    0 -0.51832398074E+01  0.30014788540E+02  0.34739787144E+02  0.46201799931E+02  0.00000000000E+00 0. -1.
         22    1    4    4    0    0  0.41746926454E+01 -0.31285669954E+02 -0.41440640977E+02  0.52091726097E+02  0.00000000000E+00 0. -1.
         22    1    4    4    0    0  0.10085471621E+01  0.12708814144E+01 -0.31254377629E+01  0.35214582430E+01  0.00000000000E+00 0. -1.
<mgrwt>
<rscale>  0 0.10133970E+03</rscale>
<asrwt>0</asrwt>
<pdfrwt beam="1">  1        1 0.70760533E-02 0.10133970E+03</pdfrwt>
<pdfrwt beam="2">  1       -1 0.85877905E-02 0.10133970E+03</pdfrwt>
<totfact> 0.68642755E+04</totfact>
</mgrwt>
</event>
<event>
 7    1  0.2911475E-009  0.9523169E+02  0.7818608E-02  0.1290655E+00
          1   -1    0    0  501    0  0.00000000000E+00  0.00000000000E+00  0.62020744067E+02  0.62020744272E+02  0.50400000000E-02 0. -1.
         -1   -1    0    0    0  501 -0.00000000000E+00 -0.00000000000E+00 -0.36556618580E+02  0.36556618927E+02  0.50400000000E-02 0.  1.
         23    2    1    2    0    0  0.00000000000E+00  0.17763568394E-14  0.25464125488E+02  0.98577363199E+02  0.95231690358E+02 0.  0.
    9000005    2    3    3    0    0  0.77850427762E+01 -0.11133314542E+02 -0.34421640220E+02  0.37170014143E+02  0.34932867425E+01 0.  0.
         22    1    3    3    0    0 -0.77850427762E+01  0.11133314542E+02  0.59885765707E+02  0.61407349056E+02  0.00000000000E+00 0. -1.
         22    1    4    4    0    0  0.45585567806E+01 -0.86678253884E+01 -0.21501908988E+02  0.23627181953E+02  0.00000000000E+00 0.  1.
         22    1    4    4    0    0  0.32264859956E+01 -0.24654891539E+01 -0.12919731231E+02  0.13542832190E+02  0.00000000000E+00 0.  1.
<mgrwt>
<rscale>  0 0.95231690E+02</rscale>
<asrwt>0</asrwt>
<pdfrwt beam="1">  1        1 0.95416530E-02 0.95231690E+02</pdfrwt>
<pdfrwt beam="2">  1       -1 0.56240952E-02 0.95231690E+02</pdfrwt>
<totfact> 0.85815118E+04</totfact>
</mgrwt>
</event>
<event>
 7    1  0.2911475E-009  0.9218132E+02  0.7818608E-02  0.1297654E+00
         -1   -1    0    0    0  501 -0.00000000000E+00  0.00000000000E+00  0.59301915227E+02  0.59301915441E+02  0.50400000000E-02 0.  1.
          1   -1    0    0  501    0  0.00000000000E+00 -0.00000000000E+00 -0.35822601209E+02  0.35822601563E+02  0.50400000000E-02 0. -1.
         23    2    1    2    0    0 -0.35527136788E-14 -0.44408920985E-15  0.23479314018E+02  0.95124517004E+02  0.92181318870E+02 0.  0.
    9000005    2    3    3    0    0 -0.19934215888E+02 -0.39547073443E+01 -0.29442887840E+02  0.38434375685E+02  0.14046526856E+02 0.  0.
         22    1    3    3    0    0  0.19934215888E+02  0.39547073443E+01  0.52922201858E+02  0.56690141319E+02  0.00000000000E+00 0.  1.
         22    1    4    4    0    0 -0.11783897825E-02 -0.16851379325E+00  0.14580629811E+01  0.14677690363E+01  0.00000000000E+00 0.  1.
         22    1    4    4    0    0 -0.19933037498E+02 -0.37861935511E+01 -0.30900950821E+02  0.36966606649E+02  0.00000000000E+00 0.  1.
<mgrwt>
<rscale>  0 0.92181319E+02</rscale>
<asrwt>0</asrwt>
<pdfrwt beam="2">  1        1 0.55111694E-02 0.92181319E+02</pdfrwt>
<pdfrwt beam="1">  1       -1 0.91233716E-02 0.92181319E+02</pdfrwt>
<totfact> 0.86406627E+04</totfact>
</mgrwt>
</event>
<event>
 6    1  0.2911475E-009  0.1400351E+03  0.7818608E-02  0.1213282E+00
          1   -1    0    0  501    0  0.00000000000E+00  0.00000000000E+00  0.79421648695E+02  0.79421648855E+02  0.50400000000E-02 0. -1.
         -1   -1    0    0    0  501 -0.00000000000E+00 -0.00000000000E+00 -0.61726987009E+02  0.61726987215E+02  0.50400000000E-02 0.  1.
    9000005    2    1    2    0    0  0.37207866501E+02 -0.70322226391E+01 -0.50040211723E+02  0.63547794834E+02  0.10021075502E+02 0.  0.
         22    1    1    2    0    0 -0.37207866501E+02  0.70322226391E+01  0.67734873409E+02  0.77600841236E+02  0.00000000000E+00 0. -1.
         22    1    3    3    0    0  0.19336965400E+02 -0.61189367983E+01 -0.19407557656E+02  0.28071567691E+02  0.00000000000E+00 0. -1.
         22    1    3    3    0    0  0.17870901101E+02 -0.91328584077E+00 -0.30632654066E+02  0.35476227144E+02  0.00000000000E+00 0. -1.
<mgrwt>
<rscale>  0 0.14003513E+03</rscale>
<asrwt>0</asrwt>
<pdfrwt beam="1">  1        1 0.12218715E-01 0.14003513E+03</pdfrwt>
<pdfrwt beam="2">  1       -1 0.94964596E-02 0.14003513E+03</pdfrwt>
<totfact> 0.29788260E+04</totfact>
</mgrwt>
</event>
<event>
 7    1  0.2911475E-009  0.9173474E+02  0.7818608E-02  0.1298704E+00
          1   -1    0    0  501    0  0.00000000000E+00  0.00000000000E+00  0.91190546148E+01  0.91190560076E+01  0.50400000000E-02 0. -1.
         -1   -1    0    0    0  501 -0.00000000000E+00 -0.00000000000E+00 -0.23070543046E+03  0.23070543051E+03  0.50400000000E-02 0.  1.
         23    2    1    2    0    0  0.00000000000E+00 -0.38857805862E-15 -0.22158637584E+03  0.23982448652E+03  0.91734739197E+02 0.  0.
    9000005    2    3    3    0    0  0.35853034616E+02  0.38992252847E+00 -0.42285181430E+02  0.56973425685E+02  0.13127929577E+02 0.  0.
         22    1    3    3    0    0 -0.35853034616E+02 -0.38992252847E+00 -0.17930119441E+03  0.18285106083E+03  0.00000000000E+00 0. -1.
         22    1    4    4    0    0  0.20302449840E+02  0.67137297560E+01 -0.22979404732E+02  0.31389754357E+02  0.00000000000E+00 0. -1.
         22    1    4    4    0    0  0.15550584776E+02 -0.63238072275E+01 -0.19305776698E+02  0.25583671328E+02  0.00000000000E+00 0. -1.
<mgrwt>
<rscale>  0 0.91734739E+02</rscale>
<asrwt>0</asrwt>
<pdfrwt beam="1">  1        1 0.14029318E-02 0.91734739E+02</pdfrwt>
<pdfrwt beam="2">  1       -1 0.35493139E-01 0.91734739E+02</pdfrwt>
<totfact> 0.65445165E+04</totfact>
</mgrwt>
</event>
<event>
 7    1  0.2911475E-009  0.9061266E+02  0.7818608E-02  0.1301375E+00
         -1   -1    0    0    0  501 -0.00000000000E+00  0.00000000000E+00  0.12625242617E+03  0.12625242628E+03  0.50400000000E-02 0.  1.
          1   -1    0    0  501    0  0.00000000000E+00 -0.00000000000E+00 -0.16258409433E+02  0.16258410214E+02  0.50400000000E-02 0. -1.
         23    2    1    2    0    0  0.00000000000E+00  0.17763568394E-14  0.10999401674E+03  0.14251083649E+03  0.90612663563E+02 0.  0.
    9000005    2    3    3    0    0 -0.13259690213E+02 -0.13435392688E+02  0.11920409180E+03  0.12150715482E+03  0.14072811010E+02 0.  0.
         22    1    3    3    0    0  0.13259690213E+02  0.13435392688E+02 -0.92100750552E+01  0.21003681671E+02  0.00000000000E+00 0. -1.
         22    1    4    4    0    0 -0.18537725886E+01  0.23946022393E+01  0.71156344072E+01  0.77332299663E+01  0.00000000000E+00 0. -1.
         22    1    4    4    0    0 -0.11405917624E+02 -0.15829994927E+02  0.11208845739E+03  0.11377392485E+03  0.00000000000E+00 0. -1.
<mgrwt>
<rscale>  0 0.90612664E+02</rscale>
<asrwt>0</asrwt>
<pdfrwt beam="2">  1        1 0.25012939E-02 0.90612664E+02</pdfrwt>
<pdfrwt beam="1">  1       -1 0.19423450E-01 0.90612664E+02</pdfrwt>
<totfact> 0.78964004E+04</totfact>
</mgrwt>
</event>
<event>
 7    1  0.2911475E-009  0.9024805E+02  0.7818608E-02  0.1302252E+00
          1   -1    0    0  501    0  0.00000000000E+00  0.00000000000E+00  0.75300317049E+03  0.75300317051E+03  0.50400000000E-02 0. -1.
         -1   -1    0    0    0  501 -0.00000000000E+00 -0.00000000000E+00 -0.27040732887E+01  0.27040779856E+01  0.50400000000E-02 0.  1.
         23    2    1    2    0    0  0.00000000000E+00  0.00000000000E+00  0.75029909720E+03  0.75570724849E+03  0.90248047973E+02 0.  0.
    9000005    2    3    3    0    0 -0.19725559686E+02  0.35625220878E+02  0.52894436759E+03  0.53063799162E+03  0.11673905877E+02 0.  0.
         22    1    3    3    0    0  0.19725559686E+02 -0.35625220878E+02  0.22135472961E+03  0.22506925687E+03  0.00000000000E+00 0.  1.
         22    1    4    4    0    0 -0.12297087963E+02  0.22232233256E+02  0.25402415915E+03  0.25529152748E+03  0.00000000000E+00 0. -1.
         22    1    4    4    0    0 -0.74284717231E+01  0.13392987622E+02  0.27492020844E+03  0.27534646415E+03  0.00000000000E+00 0. -1.
<mgrwt>
<rscale>  0 0.90248048E+02</rscale>
<asrwt>0</asrwt>
<pdfrwt beam="1">  1        1 0.11584678E+00 0.90248048E+02</pdfrwt>
<pdfrwt beam="2">  1       -1 0.41601114E-03 0.90248048E+02</pdfrwt>
<totfact> 0.14577138E+05</totfact>
</mgrwt>
</event>
<event>
 7    1  0.2911475E-009  0.9175344E+02  0.7818608E-02  0.1298660E+00
          1   -1    0    0  501    0  0.00000000000E+00  0.00000000000E+00  0.67221116076E+03  0.67221116078E+03  0.50400000000E-02 0. -1.
         -1   -1    0    0    0  501 -0.00000000000E+00 -0.00000000000E+00 -0.31309685378E+01  0.31309725943E+01  0.50400000000E-02 0.  1.
         23    2    1    2    0    0  0.00000000000E+00  0.00000000000E+00  0.66908019222E+03  0.67534213338E+03  0.91753438546E+02 0.  0.
    9000005    2    3    3    0    0 -0.19927985785E+02 -0.34283485837E+02  0.50231936578E+03  0.50393135410E+03  0.70414756643E+01 0.  0.
         22    1    3    3    0    0  0.19927985785E+02  0.34283485837E+02  0.16676082644E+03  0.17141077928E+03  0.00000000000E+00 0.  1.
         22    1    4    4    0    0 -0.85388742189E+01 -0.84705604215E+01  0.15970805222E+03  0.16016030941E+03  0.00000000000E+00 0.  1.
         22    1    4    4    0    0 -0.11389111566E+02 -0.25812925415E+02  0.34261131357E+03  0.34377104469E+03  0.00000000000E+00 0.  1.
<mgrwt>
<rscale>  0 0.91753439E+02</rscale>
<asrwt>0</asrwt>
<pdfrwt beam="1">  1        1 0.10341712E+00 0.91753439E+02</pdfrwt>
<pdfrwt beam="2">  1       -1 0.48168769E-03 0.91753439E+02</pdfrwt>
<totfact> 0.13981774E+05</totfact>
</mgrwt>
</event>
<event>
 7    1  0.2911475E-009  0.9137016E+02  0.7818608E-02  0.1299567E+00
         -1   -1    0    0    0  501 -0.00000000000E+00  0.00000000000E+00  0.64256415317E+01  0.64256435083E+01  0.50400000000E-02 0.  1.
          1   -1    0    0  501    0  0.00000000000E+00 -0.00000000000E+00 -0.32481209770E+03  0.32481209773E+03  0.50400000000E-02 0. -1.
         23    2    1    2    0    0  0.00000000000E+00  0.35527136788E-14 -0.31838645616E+03  0.33123774124E+03  0.91370157902E+02 0.  0.
    9000005    2    3    3    0    0 -0.17590479659E+02  0.16804937492E+02 -0.29895440164E+03  0.30010197978E+03  0.97792183227E+01 0.  0.
         22    1    3    3    0    0  0.17590479659E+02 -0.16804937492E+02 -0.19432054528E+02  0.31135761464E+02  0.00000000000E+00 0.  1.
         22    1    4    4    0    0 -0.12353851684E+01  0.65837429389E+01 -0.95924905137E+02  0.96158511184E+02  0.00000000000E+00 0.  1.
         22    1    4    4    0    0 -0.16355094491E+02  0.10221194553E+02 -0.20302949650E+03  0.20394346860E+03  0.00000000000E+00 0.  1.
<mgrwt>
<rscale>  0 0.91370158E+02</rscale>
<asrwt>0</asrwt>
<pdfrwt beam="2">  1        1 0.49971079E-01 0.91370158E+02</pdfrwt>
<pdfrwt beam="1">  1       -1 0.98856064E-03 0.91370158E+02</pdfrwt>
<totfact> 0.12932011E+05</totfact>
</mgrwt>
</event>
<event>
 7    1  0.2911475E-009  0.9137419E+02  0.7818608E-02  0.1299558E+00
         -1   -1    0    0    0  501 -0.00000000000E+00  0.00000000000E+00  0.11186111164E+02  0.11186112300E+02  0.50400000000E-02 0. -1.
          1   -1    0    0  501    0  0.00000000000E+00 -0.00000000000E+00 -0.18659841188E+03  0.18659841195E+03  0.50400000000E-02 0.  1.
         23    2    1    2    0    0  0.00000000000E+00 -0.44408920985E-15 -0.17541230072E+03  0.19778452425E+03  0.91374191047E+02 0.  0.
    9000005    2    3    3    0    0  0.32770797103E+02 -0.28571279415E+01 -0.23545997443E+02  0.42396421767E+02  0.12686775011E+02 0.  0.
         22    1    3    3    0    0 -0.32770797103E+02  0.28571279415E+01 -0.15186630327E+03  0.15538810248E+03  0.00000000000E+00 0.  1.
         22    1    4    4    0    0  0.26137613985E+02 -0.27452175210E+01 -0.24205258620E+02  0.35729618371E+02  0.00000000000E+00 0.  1.
         22    1    4    4    0    0  0.66331831178E+01 -0.11191042048E+00  0.65926117698E+00  0.66668033956E+01  0.00000000000E+00 0.  1.
<mgrwt>
<rscale>  0 0.91374191E+02</rscale>
<asrwt>0</asrwt>
<pdfrwt beam="2">  1        1 0.28707446E-01 0.91374191E+02</pdfrwt>
<pdfrwt beam="1">  1       -1 0.17209404E-02 0.91374191E+02</pdfrwt>
<totfact> 0.11615316E+05</totfact>
</mgrwt>
</event>
<event>
 7    1  0.3641125E-009  0.9266553E+02  0.7818608E-02  0.1296522E+00
          1   -1    0    0  501    0  0.00000000000E+00  0.00000000000E+00  0.11937108401E+02  0.11937109465E+02  0.50400000000E-02 0. -1.
         -1   -1    0    0    0  501 -0.00000000000E+00 -0.00000000000E+00 -0.17983627263E+03  0.17983627270E+03  0.50400000000E-02 0.  1.
         23    2    1    2    0    0  0.00000000000E+00 -0.88817841970E-15 -0.16789916422E+03  0.19177338216E+03  0.92665531662E+02 0.  0.
    9000005    2    3    3    0    0 -0.26135418021E+02  0.64316821311E+01 -0.16107662243E+03  0.16400696924E+03  0.15105663012E+02 0.  0.
         22    1    3    3    0    0  0.26135418021E+02 -0.64316821311E+01 -0.68225417969E+01  0.27766412925E+02  0.00000000000E+00 0. -1.
         22    1    4    4    0    0 -0.20273767686E+02  0.31653689247E+01 -0.77800794705E+02  0.80461225900E+02  0.00000000000E+00 0. -1.
         22    1    4    4    0    0 -0.58616503347E+01  0.32663132064E+01 -0.83275827723E+02  0.83545743336E+02  0.00000000000E+00 0. -1.
<mgrwt>
<rscale>  0 0.92665532E+02</rscale>
<asrwt>0</asrwt>
<pdfrwt beam="1">  1        1 0.18364784E-02 0.92665532E+02</pdfrwt>
<pdfrwt beam="2">  1       -1 0.27667117E-01 0.92665532E+02</pdfrwt>
<totfact> 0.68532932E+04</totfact>
</mgrwt>
</event>
<event>
 7    1  0.2911475E-009  0.9396075E+02  0.7818608E-02  0.1293534E+00
         -1   -1    0    0    0  501 -0.00000000000E+00  0.00000000000E+00  0.42211704512E+02  0.42211704812E+02  0.50400000000E-02 0.  1.
          1   -1    0    0  501    0  0.00000000000E+00 -0.00000000000E+00 -0.52287764472E+02  0.52287764715E+02  0.50400000000E-02 0. -1.
         23    2    1    2    0    0  0.71054273576E-14  0.17763568394E-14 -0.10076059960E+02  0.94499469527E+02  0.93960751150E+02 0.  0.
    9000005    2    3    3    0    0 -0.40435404306E+02 -0.11914387336E+02 -0.25032767274E+02  0.49770534366E+02  0.85727537366E+01 0.  0.
         22    1    3    3    0    0  0.40435404306E+02  0.11914387336E+02  0.14956707314E+02  0.44728935161E+02  0.00000000000E+00 0.  1.
         22    1    4    4    0    0 -0.36963386031E+02 -0.10071330468E+02 -0.19512522997E+02  0.42993745568E+02  0.00000000000E+00 0. -1.
         22    1    4    4    0    0 -0.34720182754E+01 -0.18430568678E+01 -0.55202442778E+01  0.67767887978E+01  0.00000000000E+00 0. -1.
<mgrwt>
<rscale>  0 0.93960751E+02</rscale>
<asrwt>0</asrwt>
<pdfrwt beam="2">  1        1 0.80442714E-02 0.93960751E+02</pdfrwt>
<pdfrwt beam="1">  1       -1 0.64941085E-02 0.93960751E+02</pdfrwt>
<totfact> 0.86774568E+04</totfact>
</mgrwt>
</event>
<event>
 7    1  0.3877447E-009  0.9151192E+02  0.7818608E-02  0.1299231E+00
         -1   -1    0    0    0  501 -0.00000000000E+00  0.00000000000E+00  0.76516031642E+01  0.76516048240E+01  0.50400000000E-02 0.  1.
          1   -1    0    0  501    0  0.00000000000E+00 -0.00000000000E+00 -0.27361686495E+03  0.27361686500E+03  0.50400000000E-02 0. -1.
         23    2    1    2    0    0  0.00000000000E+00  0.00000000000E+00 -0.26596526179E+03  0.28126846982E+03  0.91511920745E+02 0.  0.
    9000005    2    3    3    0    0 -0.38238935708E+02 -0.47009725888E+01 -0.20501480020E+03  0.20916247759E+03  0.15282617100E+02 0.  0.
         22    1    3    3    0    0  0.38238935708E+02  0.47009725888E+01 -0.60950461593E+02  0.72105992232E+02  0.00000000000E+00 0.  1.
         22    1    4    4    0    0 -0.34740108264E+02 -0.35919104874E+01 -0.19952547029E+03  0.20255910307E+03  0.00000000000E+00 0.  1.
         22    1    4    4    0    0 -0.34988274439E+01 -0.11090621014E+01 -0.54893299100E+01  0.66033745228E+01  0.00000000000E+00 0.  1.
<mgrwt>
<rscale>  0 0.91511921E+02</rscale>
<asrwt>0</asrwt>
<pdfrwt beam="2">  1        1 0.42094895E-01 0.91511921E+02</pdfrwt>
<pdfrwt beam="1">  1       -1 0.11771701E-02 0.91511921E+02</pdfrwt>
<totfact> 0.12464123E+05</totfact>
</mgrwt>
</event>
<event>
 7    1  0.2911475E-009  0.8753086E+02  0.7818608E-02  0.1308944E+00
          1   -1    0    0  501    0  0.00000000000E+00  0.00000000000E+00  0.39833084675E+01  0.39833116560E+01  0.50400000000E-02 0. -1.
         -1   -1    0    0    0  501 -0.00000000000E+00 -0.00000000000E+00 -0.48085963490E+03  0.48085963493E+03  0.50400000000E-02 0.  1.
         23    2    1    2    0    0  0.00000000000E+00  0.00000000000E+00 -0.47687632643E+03  0.48484294658E+03  0.87530863922E+02 0.  0.
    9000005    2    3    3    0    0 -0.99003165821E+01 -0.42129641429E+02 -0.25559645358E+03  0.25937076408E+03  0.84097097699E+01 0.  0.
         22    1    3    3    0    0  0.99003165821E+01  0.42129641429E+02 -0.22127987285E+03  0.22547218251E+03  0.00000000000E+00 0.  1.
         22    1    4    4    0    0 -0.49582248362E+01 -0.18065528340E+02 -0.87014110155E+02  0.89007879841E+02  0.00000000000E+00 0.  1.
         22    1    4    4    0    0 -0.49420917459E+01 -0.24064113089E+02 -0.16858234343E+03  0.17036288424E+03  0.00000000000E+00 0.  1.
<mgrwt>
<rscale>  0 0.87530864E+02</rscale>
<asrwt>0</asrwt>
<pdfrwt beam="1">  1        1 0.61281732E-03 0.87530864E+02</pdfrwt>
<pdfrwt beam="2">  1       -1 0.73978360E-01 0.87530864E+02</pdfrwt>
<totfact> 0.53598637E+04</totfact>
</mgrwt>
</event>
<event>
 7    1  0.2911475E-009  0.9992374E+02  0.7818608E-02  0.1280456E+00
         -1   -1    0    0    0  501 -0.00000000000E+00  0.00000000000E+00  0.15352958078E+02  0.15352958906E+02  0.50400000000E-02 0.  1.
          1   -1    0    0  501    0  0.00000000000E+00 -0.00000000000E+00 -0.16258679353E+03  0.16258679361E+03  0.50400000000E-02 0. -1.
         23    2    1    2    0    0  0.00000000000E+00  0.00000000000E+00 -0.14723383545E+03  0.17793975251E+03  0.99923737034E+02 0.  0.
    9000005    2    3    3    0    0 -0.46184396247E+02  0.46238332552E+01 -0.43175873202E+02  0.63999251382E+02  0.87960138698E+01 0.  0.
         22    1    3    3    0    0  0.46184396247E+02 -0.46238332552E+01 -0.10405796225E+03  0.11394050113E+03  0.00000000000E+00 0. -1.
         22    1    4    4    0    0 -0.37784162027E+02  0.15323025028E+01 -0.31061743565E+02  0.48936926388E+02  0.00000000000E+00 0. -1.
         22    1    4    4    0    0 -0.84002342202E+01  0.30915307524E+01 -0.12114129637E+02  0.15062324994E+02  0.00000000000E+00 0. -1.
<mgrwt>
<rscale>  0 0.99923737E+02</rscale>
<asrwt>0</asrwt>
<pdfrwt beam="2">  1        1 0.25013352E-01 0.99923737E+02</pdfrwt>
<pdfrwt beam="1">  1       -1 0.23619937E-02 0.99923737E+02</pdfrwt>
<totfact> 0.88806268E+04</totfact>
</mgrwt>
</event>
<event>
 7    1  0.2911475E-009  0.9295235E+02  0.7818608E-02  0.1295856E+00
         -1   -1    0    0    0  501 -0.00000000000E+00  0.00000000000E+00  0.26007756921E+03  0.26007756926E+03  0.50400000000E-02 0.  1.
          1   -1    0    0  501    0  0.00000000000E+00 -0.00000000000E+00 -0.83053484434E+01  0.83053499726E+01  0.50400000000E-02 0. -1.
         23    2    1    2    0    0 -0.33306690739E-15 -0.35527136788E-14  0.25177222077E+03  0.26838291923E+03  0.92952354383E+02 0.  0.
    9000005    2    3    3    0    0  0.72397238048E+00  0.27226545184E+02  0.23408373333E+03  0.23590690521E+03  0.10726827127E+02 0.  0.
         22    1    3    3    0    0 -0.72397238048E+00 -0.27226545184E+02  0.17688487441E+02  0.32476014020E+02  0.00000000000E+00 0. -1.
         22    1    4    4    0    0  0.39290550557E+01  0.22192017798E+02  0.20366965238E+03  0.20491278737E+03  0.00000000000E+00 0. -1.
         22    1    4    4    0    0 -0.32050826752E+01  0.50345273853E+01  0.30414080949E+02  0.30994117844E+02  0.00000000000E+00 0. -1.
<mgrwt>
<rscale>  0 0.92952354E+02</rscale>
<asrwt>0</asrwt>
<pdfrwt beam="2">  1        1 0.12777458E-02 0.92952354E+02</pdfrwt>
<pdfrwt beam="1">  1       -1 0.40011940E-01 0.92952354E+02</pdfrwt>
<totfact> 0.60746066E+04</totfact>
</mgrwt>
</event>
<event>
 7    1  0.2911475E-009  0.8672849E+02  0.7818608E-02  0.1310973E+00
         -1   -1    0    0    0  501 -0.00000000000E+00  0.00000000000E+00  0.13331846124E+02  0.13331847077E+02  0.50400000000E-02 0.  1.
          1   -1    0    0  501    0  0.00000000000E+00 -0.00000000000E+00 -0.14105005923E+03  0.14105005932E+03  0.50400000000E-02 0. -1.
         23    2    1    2    0    0  0.00000000000E+00 -0.17763568394E-14 -0.12771821311E+03  0.15438190640E+03  0.86728490498E+02 0.  0.
    9000005    2    3    3    0    0  0.39256766034E+02  0.99979422749E+01 -0.38833716235E+02  0.56701272119E+02  0.81193727655E+01 0.  0.
         22    1    3    3    0    0 -0.39256766034E+02 -0.99979422749E+01 -0.88884496874E+02  0.97680634282E+02  0.00000000000E+00 0. -1.
         22    1    4    4    0    0  0.12377699750E+02  0.71219968741E+01 -0.13730987408E+02  0.19810863327E+02  0.00000000000E+00 0.  1.
         22    1    4    4    0    0  0.26879066284E+02  0.28759454008E+01 -0.25102728827E+02  0.36890408791E+02  0.00000000000E+00 0.  1.
<mgrwt>
<rscale>  0 0.86728490E+02</rscale>
<asrwt>0</asrwt>
<pdfrwt beam="2">  1        1 0.21700008E-01 0.86728490E+02</pdfrwt>
<pdfrwt beam="1">  1       -1 0.20510534E-02 0.86728490E+02</pdfrwt>
<totfact> 0.12685938E+05</totfact>
</mgrwt>
</event>
<event>
 7    1  0.2911475E-009  0.9037068E+02  0.7818608E-02  0.1301957E+00
         -1   -1    0    0    0  501 -0.00000000000E+00  0.00000000000E+00  0.55080445733E+02  0.55080445963E+02  0.50400000000E-02 0.  1.
          1   -1    0    0  501    0  0.00000000000E+00 -0.00000000000E+00 -0.37067873908E+02  0.37067874250E+02  0.50400000000E-02 0. -1.
         23    2    1    2    0    0  0.00000000000E+00  0.00000000000E+00  0.18012571825E+02  0.92148320214E+02  0.90370682051E+02 0.  0.
    9000005    2    3    3    0    0 -0.14357762115E+02 -0.94426132807E+01  0.51251662778E+02  0.54729802794E+02  0.85621316218E+01 0.  0.
         22    1    3    3    0    0  0.14357762115E+02  0.94426132807E+01 -0.33239090952E+02  0.37418517419E+02  0.00000000000E+00 0. -1.
         22    1    4    4    0    0 -0.78654803319E+01 -0.32819833459E+01  0.36445679095E+02  0.37428928921E+02  0.00000000000E+00 0. -1.
         22    1    4    4    0    0 -0.64922817829E+01 -0.61606299348E+01  0.14805983683E+02  0.17300873873E+02  0.00000000000E+00 0. -1.
<mgrwt>
<rscale>  0 0.90370682E+02</rscale>
<asrwt>0</asrwt>
<pdfrwt beam="2">  1        1 0.57027499E-02 0.90370682E+02</pdfrwt>
<pdfrwt beam="1">  1       -1 0.84739147E-02 0.90370682E+02</pdfrwt>
<totfact> 0.91897653E+04</totfact>
</mgrwt>
</event>
<event>
 7    1  0.2911475E-009  0.9207985E+02  0.7818608E-02  0.1297892E+00
         -1   -1    0    0    0  501 -0.00000000000E+00  0.00000000000E+00  0.20842055871E+03  0.20842055877E+03  0.50400000000E-02 0.  1.
          1   -1    0    0  501    0  0.00000000000E+00 -0.00000000000E+00 -0.10170179944E+02  0.10170181193E+02  0.50400000000E-02 0. -1.
         23    2    1    2    0    0 -0.35527136788E-14  0.00000000000E+00  0.19825037877E+03  0.21859073997E+03  0.92079850767E+02 0.  0.
    9000005    2    3    3    0    0 -0.26091337602E+02 -0.37222318556E+02  0.98989498600E+02  0.10941665317E+03  0.10335582267E+02 0.  0.
         22    1    3    3    0    0  0.26091337602E+02  0.37222318556E+02  0.99260880167E+02  0.10917408680E+03  0.00000000000E+00 0. -1.
         22    1    4    4    0    0 -0.23038005187E+02 -0.28962605380E+02  0.86970417639E+02  0.94516854252E+02  0.00000000000E+00 0. -1.
         22    1    4    4    0    0 -0.30533324145E+01 -0.82597131757E+01  0.12019080962E+02  0.14899798916E+02  0.00000000000E+00 0. -1.
<mgrwt>
<rscale>  0 0.92079851E+02</rscale>
<asrwt>0</asrwt>
<pdfrwt beam="2">  1        1 0.15646432E-02 0.92079851E+02</pdfrwt>
<pdfrwt beam="1">  1       -1 0.32064702E-01 0.92079851E+02</pdfrwt>
<totfact> 0.66856315E+04</totfact>
</mgrwt>
</event>
<event>
 7    1  0.2911475E-009  0.9282973E+02  0.7818608E-02  0.1296140E+00
          1   -1    0    0  501    0  0.00000000000E+00  0.00000000000E+00  0.25685005140E+03  0.25685005145E+03  0.50400000000E-02 0. -1.
         -1   -1    0    0    0  501 -0.00000000000E+00 -0.00000000000E+00 -0.83875369131E+01  0.83875384274E+01  0.50400000000E-02 0.  1.
         23    2    1    2    0    0  0.00000000000E+00 -0.30531133177E-15  0.24846251449E+03  0.26523758988E+03  0.92829725727E+02 0.  0.
    9000005    2    3    3    0    0  0.45466250237E+02 -0.17193654728E+00  0.11385482547E+03  0.12315859982E+03  0.11743506902E+02 0.  0.
         22    1    3    3    0    0 -0.45466250237E+02  0.17193654728E+00  0.13460768902E+03  0.14207899006E+03  0.00000000000E+00 0.  1.
         22    1    4    4    0    0  0.19197197971E+02 -0.57410053920E+01  0.51968013765E+02  0.55697091553E+02  0.00000000000E+00 0. -1.
         22    1    4    4    0    0  0.26269052266E+02  0.55690688447E+01  0.61886811701E+02  0.67461508264E+02  0.00000000000E+00 0. -1.
<mgrwt>
<rscale>  0 0.92829726E+02</rscale>
<asrwt>0</asrwt>
<pdfrwt beam="1">  1        1 0.39515397E-01 0.92829726E+02</pdfrwt>
<pdfrwt beam="2">  1       -1 0.12903903E-02 0.92829726E+02</pdfrwt>
<totfact> 0.11848955E+05</totfact>
</mgrwt>
</event>
<event>
 7    1  0.2911475E-009  0.9127279E+02  0.7818608E-02  0.1299798E+00
         -1   -1    0    0    0  501 -0.00000000000E+00  0.00000000000E+00  0.76902084969E+02  0.76902085134E+02  0.50400000000E-02 0.  1.
          1   -1    0    0  501    0  0.00000000000E+00 -0.00000000000E+00 -0.27082236554E+02  0.27082237023E+02  0.50400000000E-02 0. -1.
         23    2    1    2    0    0  0.00000000000E+00  0.00000000000E+00  0.49819848415E+02  0.10398432216E+03  0.91272788707E+02 0.  0.
    9000005    2    3    3    0    0 -0.43940715184E+02 -0.82559147137E+01  0.20758912240E+02  0.50659988218E+02  0.11685691686E+02 0.  0.
         22    1    3    3    0    0  0.43940715184E+02  0.82559147137E+01  0.29060936175E+02  0.53324333939E+02  0.00000000000E+00 0. -1.
         22    1    4    4    0    0 -0.34371609736E+02 -0.92648317683E+01  0.11773615792E+02  0.37494835542E+02  0.00000000000E+00 0. -1.
         22    1    4    4    0    0 -0.95691054487E+01  0.10089170546E+01  0.89852964486E+01  0.13165152676E+02  0.00000000000E+00 0. -1.
<mgrwt>
<rscale>  0 0.91272789E+02</rscale>
<asrwt>0</asrwt>
<pdfrwt beam="2">  1        1 0.41664981E-02 0.91272789E+02</pdfrwt>
<pdfrwt beam="1">  1       -1 0.11831090E-01 0.91272789E+02</pdfrwt>
<totfact> 0.84984712E+04</totfact>
</mgrwt>
</event>
<event>
 7    1  0.2911475E-009  0.9178925E+02  0.7818608E-02  0.1298576E+00
         -1   -1    0    0    0  501 -0.00000000000E+00  0.00000000000E+00  0.14450992331E+02  0.14450993210E+02  0.50400000000E-02 0.  1.
          1   -1    0    0  501    0  0.00000000000E+00 -0.00000000000E+00 -0.14575582675E+03  0.14575582684E+03  0.50400000000E-02 0. -1.
         23    2    1    2    0    0  0.00000000000E+00 -0.88817841970E-15 -0.13130483442E+03  0.16020682005E+03  0.91789245818E+02 0.  0.
    9000005    2    3    3    0    0  0.39946465034E+02  0.72389165996E+01 -0.10227065340E+03  0.11029584280E+03  0.76002901647E+01 0.  0.
         22    1    3    3    0    0 -0.39946465034E+02 -0.72389165996E+01 -0.29034181026E+02  0.49910977250E+02  0.00000000000E+00 0.  1.
         22    1    4    4    0    0  0.43685673127E+01  0.84213061459E+00 -0.60550407451E+01  0.75137928346E+01  0.00000000000E+00 0.  1.
         22    1    4    4    0    0  0.35577897721E+02  0.63967859850E+01 -0.96215612653E+02  0.10278204997E+03  0.00000000000E+00 0.  1.
<mgrwt>
<rscale>  0 0.91789246E+02</rscale>
<asrwt>0</asrwt>
<pdfrwt beam="2">  1        1 0.22423972E-01 0.91789246E+02</pdfrwt>
<pdfrwt beam="1">  1       -1 0.22232298E-02 0.91789246E+02</pdfrwt>
<totfact> 0.10954424E+05</totfact>
</mgrwt>
</event>
<event>
 7    1  0.2911475E-009  0.9252175E+02  0.7818608E-02  0.1296857E+00
          1   -1    0    0  501    0  0.00000000000E+00  0.00000000000E+00  0.25167388133E+03  0.25167388138E+03  0.50400000000E-02 0. -1.
         -1   -1    0    0    0  501 -0.00000000000E+00 -0.00000000000E+00 -0.85033388524E+01  0.85033403460E+01  0.50400000000E-02 0.  1.
         23    2    1    2    0    0  0.00000000000E+00 -0.71054273576E-14  0.24317054248E+03  0.26017722173E+03  0.92521748667E+02 0.  0.
    9000005    2    3    3    0    0  0.11431573371E+02  0.38748922750E+02  0.18416338269E+03  0.18866495152E+03  0.67935648583E+01 0.  0.
         22    1    3    3    0    0 -0.11431573371E+02 -0.38748922750E+02  0.59007159783E+02  0.71512270204E+02  0.00000000000E+00 0.  1.
         22    1    4    4    0    0  0.12724620577E+00  0.10871326734E+02  0.50997620437E+02  0.52143640329E+02  0.00000000000E+00 0.  1.
         22    1    4    4    0    0  0.11304327166E+02  0.27877596017E+02  0.13316576226E+03  0.13652131119E+03  0.00000000000E+00 0.  1.
<mgrwt>
<rscale>  0 0.92521749E+02</rscale>
<asrwt>0</asrwt>
<pdfrwt beam="1">  1        1 0.38719058E-01 0.92521749E+02</pdfrwt>
<pdfrwt beam="2">  1       -1 0.13082061E-02 0.92521749E+02</pdfrwt>
<totfact> 0.11907392E+05</totfact>
</mgrwt>
</event>
<event>
 7    1  0.2911475E-009  0.9292747E+02  0.7818608E-02  0.1295913E+00
          1   -1    0    0  501    0  0.00000000000E+00  0.00000000000E+00  0.68519217854E+02  0.68519218039E+02  0.50400000000E-02 0. -1.
         -1   -1    0    0    0  501 -0.00000000000E+00 -0.00000000000E+00 -0.31507634634E+02  0.31507635037E+02  0.50400000000E-02 0.  1.
         23    2    1    2    0    0  0.71054273576E-14  0.00000000000E+00  0.37011583221E+02  0.10002685308E+03  0.92927466574E+02 0.  0.
    9000005    2    3    3    0    0 -0.39344095365E+02  0.18820877200E+02  0.34165529619E+02  0.56320065505E+02  0.10123393982E+02 0.  0.
         22    1    3    3    0    0  0.39344095365E+02 -0.18820877200E+02  0.28460536011E+01  0.43706787571E+02  0.00000000000E+00 0.  1.
         22    1    4    4    0    0 -0.33449926325E+02  0.17713034545E+02  0.24981067217E+02  0.45350886246E+02  0.00000000000E+00 0. -1.
         22    1    4    4    0    0 -0.58941690395E+01  0.11078426547E+01  0.91844624022E+01  0.10969179260E+02  0.00000000000E+00 0. -1.
<mgrwt>
<rscale>  0 0.92927467E+02</rscale>
<asrwt>0</asrwt>
<pdfrwt beam="1">  1        1 0.10541418E-01 0.92927467E+02</pdfrwt>
<pdfrwt beam="2">  1       -1 0.48473285E-02 0.92927467E+02</pdfrwt>
<totfact> 0.93302154E+04</totfact>
</mgrwt>
</event>
<event>
 7    1  0.2911475E-009  0.8960162E+02  0.7818608E-02  0.1303819E+00
         -1   -1    0    0    0  501 -0.00000000000E+00  0.00000000000E+00  0.41238780040E+01  0.41238810838E+01  0.50400000000E-02 0.  1.
          1   -1    0    0  501    0  0.00000000000E+00 -0.00000000000E+00 -0.48670497030E+03  0.48670497033E+03  0.50400000000E-02 0. -1.
         23    2    1    2    0    0 -0.71054273576E-14  0.35527136788E-14 -0.48258109230E+03  0.49082885141E+03  0.89601622390E+02 0.  0.
    9000005    2    3    3    0    0  0.38334944831E+02 -0.21617293942E+02 -0.27132862109E+03  0.27504080266E+03  0.95575683537E+01 0.  0.
         22    1    3    3    0    0 -0.38334944831E+02  0.21617293942E+02 -0.21125247121E+03  0.21578804875E+03  0.00000000000E+00 0. -1.
         22    1    4    4    0    0  0.21782385253E+02 -0.68913057275E+01 -0.13237707947E+03  0.13433411172E+03  0.00000000000E+00 0.  1.
         22    1    4    4    0    0  0.16552559578E+02 -0.14725988214E+02 -0.13895154162E+03  0.14070669094E+03  0.00000000000E+00 0.  1.
<mgrwt>
<rscale>  0 0.89601622E+02</rscale>
<asrwt>0</asrwt>
<pdfrwt beam="2">  1        1 0.74877642E-01 0.89601622E+02</pdfrwt>
<pdfrwt beam="1">  1       -1 0.63444340E-03 0.89601622E+02</pdfrwt>
<totfact> 0.14536401E+05</totfact>
</mgrwt>
</event>
<event>
 7    1  0.2911475E-009  0.9175518E+02  0.7818608E-02  0.1298656E+00
          1   -1    0    0  501    0  0.00000000000E+00  0.00000000000E+00  0.67308050619E+03  0.67308050620E+03  0.50400000000E-02 0. -1.
         -1   -1    0    0    0  501 -0.00000000000E+00 -0.00000000000E+00 -0.31270434591E+01  0.31270475207E+01  0.50400000000E-02 0.  1.
         23    2    1    2    0    0  0.00000000000E+00  0.35527136788E-14  0.66995346273E+03  0.67620755372E+03  0.91755182391E+02 0.  0.
    9000005    2    3    3    0    0  0.10428245355E+01 -0.29656445714E+02  0.59253661361E+03  0.59329820092E+03  0.47459974116E+01 0.  0.
         22    1    3    3    0    0 -0.10428245355E+01  0.29656445714E+02  0.77416849115E+02  0.82909352804E+02  0.00000000000E+00 0.  1.
         22    1    4    4    0    0  0.57122942116E+00 -0.60519624619E+01  0.88156740499E+02  0.88366076342E+02  0.00000000000E+00 0.  1.
         22    1    4    4    0    0  0.47159511435E+00 -0.23604483252E+02  0.50437987311E+03  0.50493212458E+03  0.00000000000E+00 0.  1.
<mgrwt>
<rscale>  0 0.91755182E+02</rscale>
<asrwt>0</asrwt>
<pdfrwt beam="1">  1        1 0.10355087E+00 0.91755182E+02</pdfrwt>
<pdfrwt beam="2">  1       -1 0.48108380E-03 0.91755182E+02</pdfrwt>
<totfact> 0.13981258E+05</totfact>
</mgrwt>
</event>
<event>
 7    1  0.2911475E-009  0.9092890E+02  0.7818608E-02  0.1300618E+00
         -1   -1    0    0    0  501 -0.00000000000E+00  0.00000000000E+00  0.50848736451E+02  0.50848736701E+02  0.50400000000E-02 0.  1.
          1   -1    0    0  501    0  0.00000000000E+00 -0.00000000000E+00 -0.40650293649E+02  0.40650293962E+02  0.50400000000E-02 0. -1.
         23    2    1    2    0    0  0.00000000000E+00  0.00000000000E+00  0.10198442802E+02  0.91499030662E+02  0.90928897368E+02 0.  0.
    9000005    2    3    3    0    0  0.15307951233E+02 -0.11412638099E+02 -0.36403309458E+02  0.41137289300E+02  0.15792251681E+01 0.  0.
         22    1    3    3    0    0 -0.15307951233E+02  0.11412638099E+02  0.46601752260E+02  0.50361741362E+02  0.00000000000E+00 0.  1.
         22    1    4    4    0    0  0.24215468414E+01 -0.21271670881E+01 -0.50624673195E+01  0.60014418507E+01  0.00000000000E+00 0.  1.
         22    1    4    4    0    0  0.12886404391E+02 -0.92854710112E+01 -0.31340842139E+02  0.35135847449E+02  0.00000000000E+00 0.  1.
<mgrwt>
<rscale>  0 0.90928897E+02</rscale>
<asrwt>0</asrwt>
<pdfrwt beam="2">  1        1 0.62538914E-02 0.90928897E+02</pdfrwt>
<pdfrwt beam="1">  1       -1 0.78228826E-02 0.90928897E+02</pdfrwt>
<totfact> 0.91587160E+04</totfact>
</mgrwt>
</event>
<event>
 7    1  0.2911475E-009  0.9069557E+02  0.7818608E-02  0.1301176E+00
          1   -1    0    0  501    0  0.00000000000E+00  0.00000000000E+00  0.23226617452E+02  0.23226617999E+02  0.50400000000E-02 0. -1.
         -1   -1    0    0    0  501 -0.00000000000E+00 -0.00000000000E+00 -0.88537279910E+02  0.88537280054E+02  0.50400000000E-02 0.  1.
         23    2    1    2    0    0  0.00000000000E+00  0.35527136788E-14 -0.65310662459E+02  0.11176389805E+03  0.90695569226E+02 0.  0.
    9000005    2    3    3    0    0 -0.34101999103E+02  0.22533066103E+02 -0.55157293417E+02  0.69647674175E+02  0.11738231984E+02 0.  0.
         22    1    3    3    0    0  0.34101999103E+02 -0.22533066103E+02 -0.10153369042E+02  0.42116223878E+02  0.00000000000E+00 0. -1.
         22    1    4    4    0    0 -0.25773734153E+02  0.10719679075E+02 -0.33429482306E+02  0.43551431422E+02  0.00000000000E+00 0.  1.
         22    1    4    4    0    0 -0.83282649498E+01  0.11813387028E+02 -0.21727811111E+02  0.26096242753E+02  0.00000000000E+00 0.  1.
<mgrwt>
<rscale>  0 0.90695569E+02</rscale>
<asrwt>0</asrwt>
<pdfrwt beam="1">  1        1 0.35733259E-02 0.90695569E+02</pdfrwt>
<pdfrwt beam="2">  1       -1 0.13621120E-01 0.90695569E+02</pdfrwt>
<totfact> 0.84319973E+04</totfact>
</mgrwt>
</event>
<event>
 7    1  0.2911475E-009  0.8927046E+02  0.7818608E-02  0.1304628E+00
         -1   -1    0    0    0  501 -0.00000000000E+00  0.00000000000E+00  0.27918908774E+03  0.27918908778E+03  0.50400000000E-02 0.  1.
          1   -1    0    0  501    0  0.00000000000E+00 -0.00000000000E+00 -0.71360362255E+01  0.71360380053E+01  0.50400000000E-02 0. -1.
         23    2    1    2    0    0 -0.17763568394E-14  0.00000000000E+00  0.27205305151E+03  0.28632512579E+03  0.89270458835E+02 0.  0.
    9000005    2    3    3    0    0  0.83311637543E+01  0.35520938061E+02  0.66039458792E+02  0.77105753560E+02  0.15904143618E+02 0.  0.
         22    1    3    3    0    0 -0.83311637543E+01 -0.35520938061E+02  0.20601359272E+03  0.20921937223E+03  0.00000000000E+00 0.  1.
         22    1    4    4    0    0 -0.53691181169E+00  0.28094879147E+02  0.49563866060E+02  0.56975322092E+02  0.00000000000E+00 0.  1.
         22    1    4    4    0    0  0.88680755659E+01  0.74260589142E+01  0.16475592732E+02  0.20130431469E+02  0.00000000000E+00 0.  1.
<mgrwt>
<rscale>  0 0.89270459E+02</rscale>
<asrwt>0</asrwt>
<pdfrwt beam="2">  1        1 0.10978518E-02 0.89270459E+02</pdfrwt>
<pdfrwt beam="1">  1       -1 0.42952169E-01 0.89270459E+02</pdfrwt>
<totfact> 0.65806287E+04</totfact>
</mgrwt>
</event>
<event>
 7    1  0.2911475E-009  0.9272102E+02  0.7818608E-02  0.1296393E+00
         -1   -1    0    0    0  501 -0.00000000000E+00  0.00000000000E+00  0.19032150280E+03  0.19032150287E+03  0.50400000000E-02 0.  1.
          1   -1    0    0  501    0  0.00000000000E+00 -0.00000000000E+00 -0.11292978542E+02  0.11292979666E+02  0.50400000000E-02 0. -1.
         23    2    1    2    0    0 -0.35527136788E-14  0.00000000000E+00  0.17902852426E+03  0.20161448253E+03  0.92721017406E+02 0.  0.
    9000005    2    3    3    0    0 -0.26994008508E+02  0.88042668337E+01  0.13570911807E+02  0.33738298611E+02  0.12161888674E+02 0.  0.
         22    1    3    3    0    0  0.26994008508E+02 -0.88042668337E+01  0.16545761245E+03  0.16787618392E+03  0.00000000000E+00 0.  1.
         22    1    4    4    0    0 -0.24931209285E+02  0.81157772765E+01  0.15810157384E+02  0.30616859959E+02  0.00000000000E+00 0.  1.
         22    1    4    4    0    0 -0.20627992230E+01  0.68848955720E+00 -0.22392455778E+01  0.31214386527E+01  0.00000000000E+00 0.  1.
<mgrwt>
<rscale>  0 0.92721017E+02</rscale>
<asrwt>0</asrwt>
<pdfrwt beam="2">  1        1 0.17373816E-02 0.92721017E+02</pdfrwt>
<pdfrwt beam="1">  1       -1 0.29280228E-01 0.92721017E+02</pdfrwt>
<totfact> 0.67382938E+04</totfact>
</mgrwt>
</event>
<event>
 7    1  0.2911475E-009  0.9089290E+02  0.7818608E-02  0.1300704E+00
         -1   -1    0    0    0  501 -0.00000000000E+00  0.00000000000E+00  0.30773700832E+01  0.30773742104E+01  0.50400000000E-02 0.  1.
          1   -1    0    0  501    0  0.00000000000E+00 -0.00000000000E+00 -0.67115042231E+03  0.67115042233E+03  0.50400000000E-02 0. -1.
         23    2    1    2    0    0  0.00000000000E+00 -0.17763568394E-14 -0.66807305223E+03  0.67422779654E+03  0.90892895843E+02 0.  0.
    9000005    2    3    3    0    0 -0.33587070155E+02  0.12599492856E+02 -0.53478795698E+03  0.53619970115E+03  0.15004068816E+02 0.  0.
         22    1    3    3    0    0  0.33587070155E+02 -0.12599492856E+02 -0.13328509525E+03  0.13802809539E+03  0.00000000000E+00 0.  1.
         22    1    4    4    0    0 -0.31479999894E+02  0.15218143372E+02 -0.45526264548E+03  0.45660339316E+03  0.00000000000E+00 0.  1.
         22    1    4    4    0    0 -0.21070702602E+01 -0.26186505153E+01 -0.79525311497E+02  0.79596307982E+02  0.00000000000E+00 0.  1.
<mgrwt>
<rscale>  0 0.90892896E+02</rscale>
<asrwt>0</asrwt>
<pdfrwt beam="2">  1        1 0.10325380E+00 0.90892896E+02</pdfrwt>
<pdfrwt beam="1">  1       -1 0.47344240E-03 0.90892896E+02</pdfrwt>
<totfact> 0.14334534E+05</totfact>
</mgrwt>
</event>
<event>
 7    1  0.2911475E-009  0.8759094E+02  0.7818608E-02  0.1308793E+00
          1   -1    0    0  501    0  0.00000000000E+00  0.00000000000E+00  0.13014967299E+03  0.13014967309E+03  0.50400000000E-02 0. -1.
         -1   -1    0    0    0  501 -0.00000000000E+00 -0.00000000000E+00 -0.14737210274E+02  0.14737211136E+02  0.50400000000E-02 0.  1.
         23    2    1    2    0    0  0.00000000000E+00  0.00000000000E+00  0.11541246272E+03  0.14488688423E+03  0.87590939431E+02 0.  0.
    9000005    2    3    3    0    0  0.20074442093E+02  0.20515119377E+02  0.11230059477E+03  0.11601584215E+03  0.49395037553E+01 0.  0.
         22    1    3    3    0    0 -0.20074442093E+02 -0.20515119377E+02  0.31118679553E+01  0.28871042076E+02  0.00000000000E+00 0.  1.
         22    1    4    4    0    0  0.17095972598E+01  0.46812919414E+00  0.44192004237E+01  0.47614283695E+01  0.00000000000E+00 0.  1.
         22    1    4    4    0    0  0.18364844833E+02  0.20046990183E+02  0.10788139434E+03  0.11125441378E+03  0.00000000000E+00 0.  1.
<mgrwt>
<rscale>  0 0.87590939E+02</rscale>
<asrwt>0</asrwt>
<pdfrwt beam="1">  1        1 0.20023027E-01 0.87590939E+02</pdfrwt>
<pdfrwt beam="2">  1       -1 0.22672632E-02 0.87590939E+02</pdfrwt>
<totfact> 0.12178498E+05</totfact>
</mgrwt>
</event>
<event>
 7    1  0.2911475E-009  0.9159938E+02  0.7818608E-02  0.1299024E+00
         -1   -1    0    0    0  501 -0.00000000000E+00  0.00000000000E+00  0.94411466534E+01  0.94411479987E+01  0.50400000000E-02 0.  1.
          1   -1    0    0  501    0  0.00000000000E+00 -0.00000000000E+00 -0.22217762067E+03  0.22217762073E+03  0.50400000000E-02 0. -1.
         23    2    1    2    0    0  0.00000000000E+00  0.00000000000E+00 -0.21273647402E+03  0.23161876873E+03  0.91599381270E+02 0.  0.
    9000005    2    3    3    0    0  0.20858080135E+02  0.17190539817E+02 -0.19980457148E+03  0.20165531984E+03  0.35252046058E+01 0.  0.
         22    1    3    3    0    0 -0.20858080135E+02 -0.17190539817E+02 -0.12931902535E+02  0.29963448889E+02  0.00000000000E+00 0.  1.
         22    1    4    4    0    0  0.30657870908E+01  0.14927258236E+01 -0.32089344426E+02  0.32270006299E+02  0.00000000000E+00 0. -1.
         22    1    4    4    0    0  0.17792293045E+02  0.15697813994E+02 -0.16771522706E+03  0.16938531354E+03  0.00000000000E+00 0. -1.
<mgrwt>
<rscale>  0 0.91599381E+02</rscale>
<asrwt>0</asrwt>
<pdfrwt beam="2">  1        1 0.34181169E-01 0.91599381E+02</pdfrwt>
<pdfrwt beam="1">  1       -1 0.14524844E-02 0.91599381E+02</pdfrwt>
<totfact> 0.11936735E+05</totfact>
</mgrwt>
</event>
<event>
 7    1  0.2911475E-009  0.8781873E+02  0.7818608E-02  0.1308222E+00
          1   -1    0    0  501    0  0.00000000000E+00  0.00000000000E+00  0.29434586472E+03  0.29434586476E+03  0.50400000000E-02 0. -1.
         -1   -1    0    0    0  501 -0.00000000000E+00 -0.00000000000E+00 -0.65502264823E+01  0.65502284213E+01  0.50400000000E-02 0.  1.
         23    2    1    2    0    0 -0.35527136788E-14  0.00000000000E+00  0.28779563824E+03  0.30089609319E+03  0.87818730947E+02 0.  0.
    9000005    2    3    3    0    0 -0.25380197649E+02 -0.27402051843E+02  0.22146769109E+03  0.22477498277E+03  0.89904285039E+01 0.  0.
         22    1    3    3    0    0  0.25380197649E+02  0.27402051843E+02  0.66327947149E+02  0.76121110416E+02  0.00000000000E+00 0.  1.
         22    1    4    4    0    0  0.75755817518E+00 -0.63030350575E+00  0.68011819083E+01  0.68722086877E+01  0.00000000000E+00 0.  1.
         22    1    4    4    0    0 -0.26137755824E+02 -0.26771748337E+02  0.21466650918E+03  0.21790277408E+03  0.00000000000E+00 0.  1.
<mgrwt>
<rscale>  0 0.87818731E+02</rscale>
<asrwt>0</asrwt>
<pdfrwt beam="1">  1        1 0.45283980E-01 0.87818731E+02</pdfrwt>
<pdfrwt beam="2">  1       -1 0.10077273E-02 0.87818731E+02</pdfrwt>
<totfact> 0.14104984E+05</totfact>
</mgrwt>
</event>
<event>
 7    1  0.2911475E-009  0.9204484E+02  0.7818608E-02  0.1297974E+00
          1   -1    0    0  501    0  0.00000000000E+00  0.00000000000E+00  0.13780622161E+02  0.13780623083E+02  0.50400000000E-02 0. -1.
         -1   -1    0    0    0  501 -0.00000000000E+00 -0.00000000000E+00 -0.15369866887E+03  0.15369866896E+03  0.50400000000E-02 0.  1.
         23    2    1    2    0    0  0.00000000000E+00  0.00000000000E+00 -0.13991804671E+03  0.16747929204E+03  0.92044844864E+02 0.  0.
    9000005    2    3    3    0    0 -0.18733797708E+02 -0.37036442830E+02 -0.33944010459E+02  0.53667387416E+02  0.23107037732E+01 0.  0.
         22    1    3    3    0    0  0.18733797708E+02  0.37036442830E+02 -0.10597403625E+03  0.11381190462E+03  0.00000000000E+00 0. -1.
         22    1    4    4    0    0 -0.13535003383E+02 -0.24639868773E+02 -0.22309229945E+02  0.35889012113E+02  0.00000000000E+00 0. -1.
         22    1    4    4    0    0 -0.51987943246E+01 -0.12396574058E+02 -0.11634780515E+02  0.17778375303E+02  0.00000000000E+00 0. -1.
<mgrwt>
<rscale>  0 0.92044845E+02</rscale>
<asrwt>0</asrwt>
<pdfrwt beam="1">  1        1 0.21200959E-02 0.92044845E+02</pdfrwt>
<pdfrwt beam="2">  1       -1 0.23645948E-01 0.92044845E+02</pdfrwt>
<totfact> 0.72550705E+04</totfact>
</mgrwt>
</event>
<event>
 7    1  0.2911475E-009  0.8815607E+02  0.7818608E-02  0.1307379E+00
          1   -1    0    0  501    0  0.00000000000E+00  0.00000000000E+00  0.84720244496E+01  0.84720259488E+01  0.50400000000E-02 0. -1.
         -1   -1    0    0    0  501 -0.00000000000E+00 -0.00000000000E+00 -0.22932805334E+03  0.22932805339E+03  0.50400000000E-02 0.  1.
         23    2    1    2    0    0  0.00000000000E+00 -0.35527136788E-14 -0.22085602889E+03  0.23780007934E+03  0.88156067510E+02 0.  0.
    9000005    2    3    3    0    0 -0.24537358597E+02 -0.20918653857E+02 -0.36668206588E+02  0.50811240291E+02  0.14055344868E+02 0.  0.
         22    1    3    3    0    0  0.24537358597E+02  0.20918653857E+02 -0.18418782230E+03  0.18698883905E+03  0.00000000000E+00 0.  1.
         22    1    4    4    0    0 -0.94525158434E+01 -0.15529292584E+02 -0.13498457385E+02  0.22643262479E+02  0.00000000000E+00 0. -1.
         22    1    4    4    0    0 -0.15084842754E+02 -0.53893612728E+01 -0.23169749203E+02  0.28167977811E+02  0.00000000000E+00 0. -1.
<mgrwt>
<rscale>  0 0.88156068E+02</rscale>
<asrwt>0</asrwt>
<pdfrwt beam="1">  1        1 0.13033887E-02 0.88156068E+02</pdfrwt>
<pdfrwt beam="2">  1       -1 0.35281234E-01 0.88156068E+02</pdfrwt>
<totfact> 0.72733449E+04</totfact>
</mgrwt>
</event>
<event>
 7    1  0.2911475E-009  0.1147430E+03  0.7818608E-02  0.1252030E+00
         -1   -1    0    0    0  501 -0.00000000000E+00  0.00000000000E+00  0.19616853709E+03  0.19616853715E+03  0.50400000000E-02 0.  1.
          1   -1    0    0  501    0  0.00000000000E+00 -0.00000000000E+00 -0.16778895854E+02  0.16778896611E+02  0.50400000000E-02 0. -1.
         23    2    1    2    0    0  0.00000000000E+00  0.11102230246E-15  0.17938964124E+03  0.21294743376E+03  0.11474304408E+03 0.  0.
    9000005    2    3    3    0    0  0.45329877496E+02  0.93252505906E+00  0.27767128233E+02  0.54691142117E+02  0.12823424620E+02 0.  0.
         22    1    3    3    0    0 -0.45329877496E+02 -0.93252505906E+00  0.15162251300E+03  0.15825629165E+03  0.00000000000E+00 0.  1.
         22    1    4    4    0    0  0.71174833888E+01 -0.39235409198E+01  0.79650957035E+01  0.11379608636E+02  0.00000000000E+00 0. -1.
         22    1    4    4    0    0  0.38212394107E+02  0.48560659788E+01  0.19802032530E+02  0.43311533482E+02  0.00000000000E+00 0. -1.
<mgrwt>
<rscale>  0 0.11474304E+03</rscale>
<asrwt>0</asrwt>
<pdfrwt beam="2">  1        1 0.25813685E-02 0.11474304E+03</pdfrwt>
<pdfrwt beam="1">  1       -1 0.30179776E-01 0.11474304E+03</pdfrwt>
<totfact> 0.38209274E+04</totfact>
</mgrwt>
</event>
<event>
 7    1  0.2911475E-009  0.9016945E+02  0.7818608E-02  0.1302442E+00
          1   -1    0    0  501    0  0.00000000000E+00  0.00000000000E+00  0.22375106404E+01  0.22375163167E+01  0.50400000000E-02 0. -1.
         -1   -1    0    0    0  501 -0.00000000000E+00 -0.00000000000E+00 -0.90843356618E+03  0.90843356619E+03  0.50400000000E-02 0.  1.
         23    2    1    2    0    0  0.00000000000E+00  0.00000000000E+00 -0.90619605554E+03  0.91067108251E+03  0.90169448515E+02 0.  0.
    9000005    2    3    3    0    0  0.24422298274E+02  0.18650913350E+02 -0.78606061773E+03  0.78666774126E+03  0.32457946736E+01 0.  0.
         22    1    3    3    0    0 -0.24422298274E+02 -0.18650913350E+02 -0.12013543782E+03  0.12400334125E+03  0.00000000000E+00 0. -1.
         22    1    4    4    0    0  0.20708643594E+02  0.14508130680E+02 -0.66098041460E+03  0.66146386315E+03  0.00000000000E+00 0.  1.
         22    1    4    4    0    0  0.37136546805E+01  0.41427826698E+01 -0.12508020313E+03  0.12520387811E+03  0.00000000000E+00 0.  1.
<mgrwt>
<rscale>  0 0.90169449E+02</rscale>
<asrwt>0</asrwt>
<pdfrwt beam="1">  1        1 0.34423357E-03 0.90169449E+02</pdfrwt>
<pdfrwt beam="2">  1       -1 0.13975872E+00 0.90169449E+02</pdfrwt>
<totfact> 0.29496831E+04</totfact>
</mgrwt>
</event>
<event>
 7    1  0.2911475E-009  0.9113578E+02  0.7818608E-02  0.1300124E+00
         -1   -1    0    0    0  501 -0.00000000000E+00  0.00000000000E+00  0.10453976295E+03  0.10453976308E+03  0.50400000000E-02 0.  1.
          1   -1    0    0  501    0  0.00000000000E+00 -0.00000000000E+00 -0.19862611500E+02  0.19862612139E+02  0.50400000000E-02 0. -1.
         23    2    1    2    0    0  0.35527136788E-14  0.00000000000E+00  0.84677151455E+02  0.12440237522E+03  0.91135783207E+02 0.  0.
    9000005    2    3    3    0    0 -0.25844289691E+02 -0.10546579818E+02  0.91038384394E+02  0.95773317600E+02  0.10265635660E+02 0.  0.
         22    1    3    3    0    0  0.25844289691E+02  0.10546579818E+02 -0.63612329392E+01  0.28629057616E+02  0.00000000000E+00 0.  1.
         22    1    4    4    0    0 -0.46537062702E+01 -0.61150356696E+01  0.31416719661E+02  0.32342865017E+02  0.00000000000E+00 0. -1.
         22    1    4    4    0    0 -0.21190583420E+02 -0.44315441486E+01  0.59621664734E+02  0.63430452583E+02  0.00000000000E+00 0. -1.
<mgrwt>
<rscale>  0 0.91135783E+02</rscale>
<asrwt>0</asrwt>
<pdfrwt beam="2">  1        1 0.30557865E-02 0.91135783E+02</pdfrwt>
<pdfrwt beam="1">  1       -1 0.16083040E-01 0.91135783E+02</pdfrwt>
<totfact> 0.80788172E+04</totfact>
</mgrwt>
</event>
<event>
 7    1  0.2911475E-009  0.8381639E+02  0.7818608E-02  0.1318557E+00
         -1   -1    0    0    0  501 -0.00000000000E+00  0.00000000000E+00  0.95478466406E+03  0.95478466407E+03  0.50400000000E-02 0.  1.
          1   -1    0    0  501    0  0.00000000000E+00 -0.00000000000E+00 -0.18394655271E+01  0.18394724317E+01  0.50400000000E-02 0. -1.
         23    2    1    2    0    0  0.35527136788E-14  0.00000000000E+00  0.95294519853E+03  0.95662413650E+03  0.83816389430E+02 0.  0.
    9000005    2    3    3    0    0 -0.18446438766E+02 -0.17615120040E+02  0.85422018952E+03  0.85465751961E+03  0.98376866446E+01 0.  0.
         22    1    3    3    0    0  0.18446438766E+02  0.17615120040E+02  0.98725009009E+02  0.10196661689E+03  0.00000000000E+00 0. -1.
         22    1    4    4    0    0 -0.18564505705E+02 -0.13030155854E+02  0.68615235604E+03  0.68652711638E+03  0.00000000000E+00 0.  1.
         22    1    4    4    0    0  0.11806693896E+00 -0.45849641866E+01  0.16806783349E+03  0.16813040323E+03  0.00000000000E+00 0.  1.
<mgrwt>
<rscale>  0 0.83816389E+02</rscale>
<asrwt>0</asrwt>
<pdfrwt beam="2">  1        1 0.28299461E-03 0.83816389E+02</pdfrwt>
<pdfrwt beam="1">  1       -1 0.14689027E+00 0.83816389E+02</pdfrwt>
<totfact> 0.33771775E+04</totfact>
</mgrwt>
</event>
<event>
 7    1  0.2911475E-009  0.8813934E+02  0.7818608E-02  0.1307421E+00
         -1   -1    0    0    0  501 -0.00000000000E+00  0.00000000000E+00  0.36289455596E+02  0.36289455946E+02  0.50400000000E-02 0.  1.
          1   -1    0    0  501    0  0.00000000000E+00 -0.00000000000E+00 -0.53517914554E+02  0.53517914791E+02  0.50400000000E-02 0. -1.
         23    2    1    2    0    0  0.00000000000E+00 -0.44408920985E-15 -0.17228458958E+02  0.89807370737E+02  0.88139344453E+02 0.  0.
    9000005    2    3    3    0    0  0.39637720913E+02 -0.30311289676E+01 -0.26935209334E+02  0.48886011218E+02  0.91651475155E+01 0.  0.
         22    1    3    3    0    0 -0.39637720913E+02  0.30311289676E+01  0.97067503764E+01  0.40921359519E+02  0.00000000000E+00 0.  1.
         22    1    4    4    0    0  0.23232875239E+02 -0.41423668942E+01 -0.11179664271E+02  0.26113417788E+02  0.00000000000E+00 0.  1.
         22    1    4    4    0    0  0.16404845674E+02  0.11112379266E+01 -0.15755545063E+02  0.22772593431E+02  0.00000000000E+00 0.  1.
<mgrwt>
<rscale>  0 0.88139344E+02</rscale>
<asrwt>0</asrwt>
<pdfrwt beam="2">  1        1 0.82335254E-02 0.88139344E+02</pdfrwt>
<pdfrwt beam="1">  1       -1 0.55829932E-02 0.88139344E+02</pdfrwt>
<totfact> 0.10407120E+05</totfact>
</mgrwt>
</event>
<event>
 7    1  0.2911475E-009  0.9089191E+02  0.7818608E-02  0.1300706E+00
          1   -1    0    0  501    0  0.00000000000E+00  0.00000000000E+00  0.79096878197E+01  0.79096894255E+01  0.50400000000E-02 0. -1.
         -1   -1    0    0    0  501 -0.00000000000E+00 -0.00000000000E+00 -0.26111454908E+03  0.26111454913E+03  0.50400000000E-02 0.  1.
         23    2    1    2    0    0  0.00000000000E+00 -0.35527136788E-14 -0.25320486126E+03  0.26902423855E+03  0.90891909231E+02 0.  0.
    9000005    2    3    3    0    0 -0.32829604239E+02 -0.19442602364E+02 -0.19848874079E+03  0.20231853010E+03  0.88999831198E+01 0.  0.
         22    1    3    3    0    0  0.32829604239E+02  0.19442602364E+02 -0.54716120466E+02  0.66705708452E+02  0.00000000000E+00 0. -1.
         22    1    4    4    0    0 -0.48113022558E+01 -0.46671229014E+01 -0.52956398650E+02  0.53378936141E+02  0.00000000000E+00 0. -1.
         22    1    4    4    0    0 -0.28018301983E+02 -0.14775479462E+02 -0.14553234214E+03  0.14893959396E+03  0.00000000000E+00 0. -1.
<mgrwt>
<rscale>  0 0.90891909E+02</rscale>
<asrwt>0</asrwt>
<pdfrwt beam="1">  1        1 0.12168754E-02 0.90891909E+02</pdfrwt>
<pdfrwt beam="2">  1       -1 0.40171463E-01 0.90891909E+02</pdfrwt>
<totfact> 0.64323505E+04</totfact>
</mgrwt>
</event>
<event>
 7    1  0.4317859E-009  0.8824412E+02  0.7818608E-02  0.1307160E+00
         -1   -1    0    0    0  501 -0.00000000000E+00  0.00000000000E+00  0.88841280477E+02  0.88841280620E+02  0.50400000000E-02 0.  1.
          1   -1    0    0  501    0  0.00000000000E+00 -0.00000000000E+00 -0.21912740861E+02  0.21912741440E+02  0.50400000000E-02 0. -1.
         23    2    1    2    0    0  0.00000000000E+00  0.00000000000E+00  0.66928539616E+02  0.11075402206E+03  0.88244115880E+02 0.  0.
    9000005    2    3    3    0    0  0.41123437387E+01  0.39351098523E+02  0.54811338272E+02  0.69374716915E+02  0.15593210632E+02 0.  0.
         22    1    3    3    0    0 -0.41123437387E+01 -0.39351098523E+02  0.12117201344E+02  0.41379305146E+02  0.00000000000E+00 0. -1.
         22    1    4    4    0    0 -0.28882359429E+01  0.38305937921E+01  0.16837598836E+01  0.50843291600E+01  0.00000000000E+00 0.  1.
         22    1    4    4    0    0  0.70005796816E+01  0.35520504731E+02  0.53127578389E+02  0.64290387755E+02  0.00000000000E+00 0.  1.
<mgrwt>
<rscale>  0 0.88244116E+02</rscale>
<asrwt>0</asrwt>
<pdfrwt beam="2">  1        1 0.33711910E-02 0.88244116E+02</pdfrwt>
<pdfrwt beam="1">  1       -1 0.13667889E-01 0.88244116E+02</pdfrwt>
<totfact> 0.90401528E+04</totfact>
</mgrwt>
</event>
<event>
 7    1  0.2911475E-009  0.8868280E+02  0.7818608E-02  0.1306073E+00
         -1   -1    0    0    0  501 -0.00000000000E+00  0.00000000000E+00  0.93642016246E+01  0.93642029809E+01  0.50400000000E-02 0.  1.
          1   -1    0    0  501    0  0.00000000000E+00 -0.00000000000E+00 -0.20996551598E+03  0.20996551604E+03  0.50400000000E-02 0. -1.
         23    2    1    2    0    0  0.00000000000E+00 -0.17763568394E-14 -0.20060131435E+03  0.21932971902E+03  0.88682796104E+02 0.  0.
    9000005    2    3    3    0    0  0.22453028861E+02 -0.12496328991E+02 -0.18895803533E+03  0.19111868058E+03  0.12685196432E+02 0.  0.
         22    1    3    3    0    0 -0.22453028861E+02  0.12496328991E+02 -0.11643279024E+02  0.28211038438E+02  0.00000000000E+00 0.  1.
         22    1    4    4    0    0  0.90784834295E+01 -0.11864279414E+02 -0.11392757218E+03  0.11490287938E+03  0.00000000000E+00 0. -1.
         22    1    4    4    0    0  0.13374545432E+02 -0.63204957776E+00 -0.75030463152E+02  0.76215801203E+02  0.00000000000E+00 0. -1.
<mgrwt>
<rscale>  0 0.88682796E+02</rscale>
<asrwt>0</asrwt>
<pdfrwt beam="2">  1        1 0.32302384E-01 0.88682796E+02</pdfrwt>
<pdfrwt beam="1">  1       -1 0.14406467E-02 0.88682796E+02</pdfrwt>
<totfact> 0.12873121E+05</totfact>
</mgrwt>
</event>
<event>
 7    1  0.2911475E-009  0.9235846E+02  0.7818608E-02  0.1297239E+00
         -1   -1    0    0    0  501 -0.00000000000E+00  0.00000000000E+00  0.58027436838E+01  0.58027458725E+01  0.50400000000E-02 0.  1.
          1   -1    0    0  501    0  0.00000000000E+00 -0.00000000000E+00 -0.36750216738E+03  0.36750216741E+03  0.50400000000E-02 0. -1.
         23    2    1    2    0    0 -0.71054273576E-14  0.00000000000E+00 -0.36169942369E+03  0.37330491328E+03  0.92358460262E+02 0.  0.
    9000005    2    3    3    0    0  0.43916746443E+02  0.11869027240E+02 -0.18139524739E+03  0.18735021337E+03  0.11238872286E+02 0.  0.
         22    1    3    3    0    0 -0.43916746443E+02 -0.11869027240E+02 -0.18030417630E+03  0.18595469991E+03  0.00000000000E+00 0.  1.
         22    1    4    4    0    0  0.11123906115E+02  0.11504327659E+01 -0.64795982362E+02  0.65753966519E+02  0.00000000000E+00 0. -1.
         22    1    4    4    0    0  0.32792840328E+02  0.10718594474E+02 -0.11659926503E+03  0.12159624686E+03  0.00000000000E+00 0. -1.
<mgrwt>
<rscale>  0 0.92358460E+02</rscale>
<asrwt>0</asrwt>
<pdfrwt beam="2">  1        1 0.56538777E-01 0.92358460E+02</pdfrwt>
<pdfrwt beam="1">  1       -1 0.89273026E-03 0.92358460E+02</pdfrwt>
<totfact> 0.12849082E+05</totfact>
</mgrwt>
</event>
<event>
 7    1  0.2911475E-009  0.9416399E+02  0.7818608E-02  0.1293070E+00
         -1   -1    0    0    0  501 -0.00000000000E+00  0.00000000000E+00  0.36894423904E+01  0.36894458328E+01  0.50400000000E-02 0.  1.
          1   -1    0    0  501    0  0.00000000000E+00 -0.00000000000E+00 -0.60082613766E+03  0.60082613768E+03  0.50400000000E-02 0. -1.
         23    2    1    2    0    0  0.35527136788E-14  0.00000000000E+00 -0.59713669527E+03  0.60451558351E+03  0.94163994571E+02 0.  0.
    9000005    2    3    3    0    0  0.18928696367E+02 -0.42293220814E+02 -0.35103596661E+03  0.35409078299E+03  0.26496544024E+01 0.  0.
         22    1    3    3    0    0 -0.18928696367E+02  0.42293220814E+02 -0.24610072865E+03  0.25042480052E+03  0.00000000000E+00 0.  1.
         22    1    4    4    0    0  0.16899457556E+02 -0.36991807000E+02 -0.31385687330E+03  0.31648084045E+03  0.00000000000E+00 0. -1.
         22    1    4    4    0    0  0.20292388113E+01 -0.53014138137E+01 -0.37179093312E+02  0.37609942542E+02  0.00000000000E+00 0. -1.
<mgrwt>
<rscale>  0 0.94163995E+02</rscale>
<asrwt>0</asrwt>
<pdfrwt beam="2">  1        1 0.92434713E-01 0.94163995E+02</pdfrwt>
<pdfrwt beam="1">  1       -1 0.56760727E-03 0.94163995E+02</pdfrwt>
<totfact> 0.12999822E+05</totfact>
</mgrwt>
</event>
<event>
 7    1  0.2911475E-009  0.9355026E+02  0.7818608E-02  0.1294475E+00
          1   -1    0    0  501    0  0.00000000000E+00  0.00000000000E+00  0.71432816837E+02  0.71432817015E+02  0.50400000000E-02 0. -1.
         -1   -1    0    0    0  501 -0.00000000000E+00 -0.00000000000E+00 -0.30628956911E+02  0.30628957326E+02  0.50400000000E-02 0.  1.
         23    2    1    2    0    0  0.00000000000E+00  0.00000000000E+00  0.40803859926E+02  0.10206177434E+03  0.93550258133E+02 0.  0.
    9000005    2    3    3    0    0  0.16879161336E+02 -0.42500645721E+02  0.13167787700E+02  0.48629916221E+02  0.10013348325E+02 0.  0.
         22    1    3    3    0    0 -0.16879161336E+02  0.42500645721E+02  0.27636072226E+02  0.53431858120E+02  0.00000000000E+00 0. -1.
         22    1    4    4    0    0  0.64005614488E+01 -0.64509857451E+01  0.43081687161E+01  0.10056973781E+02  0.00000000000E+00 0.  1.
         22    1    4    4    0    0  0.10478599887E+02 -0.36049659975E+02  0.88596189838E+01  0.38572942440E+02  0.00000000000E+00 0.  1.
<mgrwt>
<rscale>  0 0.93550258E+02</rscale>
<asrwt>0</asrwt>
<pdfrwt beam="1">  1        1 0.10989664E-01 0.93550258E+02</pdfrwt>
<pdfrwt beam="2">  1       -1 0.47121473E-02 0.93550258E+02</pdfrwt>
<totfact> 0.92191382E+04</totfact>
</mgrwt>
</event>
<event>
 7    1  0.2911475E-009  0.9623186E+02  0.7818608E-02  0.1288425E+00
          1   -1    0    0  501    0  0.00000000000E+00  0.00000000000E+00  0.81781977246E+02  0.81781977401E+02  0.50400000000E-02 0. -1.
         -1   -1    0    0    0  501 -0.00000000000E+00 -0.00000000000E+00 -0.28308713469E+02  0.28308713918E+02  0.50400000000E-02 0.  1.
         23    2    1    2    0    0  0.00000000000E+00  0.00000000000E+00  0.53473263777E+02  0.11009069132E+03  0.96231857387E+02 0.  0.
    9000005    2    3    3    0    0  0.25166699543E+02 -0.21644011246E+02 -0.13077926012E+02  0.35720758879E+02  0.17647882073E+01 0.  0.
         22    1    3    3    0    0 -0.25166699543E+02  0.21644011246E+02  0.66551189789E+02  0.74369932440E+02  0.00000000000E+00 0. -1.
         22    1    4    4    0    0  0.46412836262E+01 -0.49266111067E+01 -0.27080989911E+01  0.72901859264E+01  0.00000000000E+00 0. -1.
         22    1    4    4    0    0  0.20525415917E+02 -0.16717400139E+02 -0.10369827021E+02  0.28430572953E+02  0.00000000000E+00 0. -1.
<mgrwt>
<rscale>  0 0.96231857E+02</rscale>
<asrwt>0</asrwt>
<pdfrwt beam="1">  1        1 0.12581843E-01 0.96231857E+02</pdfrwt>
<pdfrwt beam="2">  1       -1 0.43551868E-02 0.96231857E+02</pdfrwt>
<totfact> 0.87129056E+04</totfact>
</mgrwt>
</event>
<event>
 7    1  0.2911475E-009  0.9042916E+02  0.7818608E-02  0.1301816E+00
         -1   -1    0    0    0  501 -0.00000000000E+00  0.00000000000E+00  0.25073427916E+02  0.25073428422E+02  0.50400000000E-02 0.  1.
          1   -1    0    0  501    0  0.00000000000E+00 -0.00000000000E+00 -0.81534851622E+02  0.81534851777E+02  0.50400000000E-02 0. -1.
         23    2    1    2    0    0 -0.35527136788E-14  0.17763568394E-14 -0.56461423706E+02  0.10660828020E+03  0.90429160342E+02 0.  0.
    9000005    2    3    3    0    0  0.17966283532E+02 -0.15137282594E+02 -0.73758664324E+02  0.77434332896E+02  0.19520962642E+01 0.  0.
         22    1    3    3    0    0 -0.17966283532E+02  0.15137282594E+02  0.17297240618E+02  0.29173947304E+02  0.00000000000E+00 0.  1.
         22    1    4    4    0    0  0.17953261826E+02 -0.15033973456E+02 -0.73653508816E+02  0.77286346330E+02  0.00000000000E+00 0.  1.
         22    1    4    4    0    0  0.13021706334E-01 -0.10330913794E+00 -0.10515550767E+00  0.14798656564E+00  0.00000000000E+00 0.  1.
<mgrwt>
<rscale>  0 0.90429160E+02</rscale>
<asrwt>0</asrwt>
<pdfrwt beam="2">  1        1 0.12543823E-01 0.90429160E+02</pdfrwt>
<pdfrwt beam="1">  1       -1 0.38574505E-02 0.90429160E+02</pdfrwt>
<totfact> 0.10335297E+05</totfact>
</mgrwt>
</event>
<event>
 7    1  0.2911475E-009  0.8916842E+02  0.7818608E-02  0.1304878E+00
          1   -1    0    0  501    0  0.00000000000E+00  0.00000000000E+00  0.86319851603E+02  0.86319851750E+02  0.50400000000E-02 0. -1.
         -1   -1    0    0    0  501 -0.00000000000E+00 -0.00000000000E+00 -0.23027748913E+02  0.23027749464E+02  0.50400000000E-02 0.  1.
         23    2    1    2    0    0 -0.17763568394E-14  0.00000000000E+00  0.63292102691E+02  0.10934760121E+03  0.89168422821E+02 0.  0.
    9000005    2    3    3    0    0  0.13435095552E+02  0.24246717627E+02 -0.88742911934E+01  0.32040463676E+02  0.13395266336E+02 0.  0.
         22    1    3    3    0    0 -0.13435095552E+02 -0.24246717627E+02  0.72166393884E+02  0.77307137539E+02  0.00000000000E+00 0. -1.
         22    1    4    4    0    0  0.82686935076E+01  0.23331537140E+02 -0.99606839325E+01  0.26682337642E+02  0.00000000000E+00 0.  1.
         22    1    4    4    0    0  0.51664020447E+01  0.91518048666E+00  0.10863927391E+01  0.53581260338E+01  0.00000000000E+00 0.  1.
<mgrwt>
<rscale>  0 0.89168423E+02</rscale>
<asrwt>0</asrwt>
<pdfrwt beam="1">  1        1 0.13279977E-01 0.89168423E+02</pdfrwt>
<pdfrwt beam="2">  1       -1 0.35427307E-02 0.89168423E+02</pdfrwt>
<totfact> 0.10836828E+05</totfact>
</mgrwt>
</event>
<event>
 7    1  0.2911475E-009  0.9304910E+02  0.7818608E-02  0.1295631E+00
         -1   -1    0    0    0  501 -0.00000000000E+00  0.00000000000E+00  0.70885534003E+03  0.70885534005E+03  0.50400000000E-02 0.  1.
          1   -1    0    0  501    0  0.00000000000E+00 -0.00000000000E+00 -0.30535600212E+01  0.30535641806E+01  0.50400000000E-02 0. -1.
         23    2    1    2    0    0 -0.71054273576E-14  0.00000000000E+00  0.70580178001E+03  0.71190890423E+03  0.93049101319E+02 0.  0.
    9000005    2    3    3    0    0  0.35528192616E+02 -0.24508997125E+02  0.47776662378E+03  0.47982491968E+03  0.10395351411E+02 0.  0.
         22    1    3    3    0    0 -0.35528192616E+02  0.24508997125E+02  0.22803515622E+03  0.23208398455E+03  0.00000000000E+00 0.  1.
         22    1    4    4    0    0  0.25695068777E+02 -0.15038779317E+02  0.27721551082E+03  0.27880968577E+03  0.00000000000E+00 0.  1.
         22    1    4    4    0    0  0.98331238392E+01 -0.94702178075E+01  0.20055111297E+03  0.20101523390E+03  0.00000000000E+00 0.  1.
<mgrwt>
<rscale>  0 0.93049101E+02</rscale>
<asrwt>0</asrwt>
<pdfrwt beam="2">  1        1 0.46977866E-03 0.93049101E+02</pdfrwt>
<pdfrwt beam="1">  1       -1 0.10905470E+00 0.93049101E+02</pdfrwt>
<totfact> 0.34555022E+04</totfact>
</mgrwt>
</event>
<event>
 7    1  0.2911475E-009  0.9113179E+02  0.7818608E-02  0.1300134E+00
          1   -1    0    0  501    0  0.00000000000E+00  0.00000000000E+00  0.23391792373E+02  0.23391792916E+02  0.50400000000E-02 0. -1.
         -1   -1    0    0    0  501 -0.00000000000E+00 -0.00000000000E+00 -0.88759800832E+02  0.88759800975E+02  0.50400000000E-02 0.  1.
         23    2    1    2    0    0  0.00000000000E+00  0.00000000000E+00 -0.65368008459E+02  0.11215159389E+03  0.91131791832E+02 0.  0.
    9000005    2    3    3    0    0  0.19155152640E+02  0.36677975432E+02 -0.55289191969E+02  0.69563141275E+02  0.83631406223E+01 0.  0.
         22    1    3    3    0    0 -0.19155152640E+02 -0.36677975432E+02 -0.10078816490E+02  0.42588452616E+02  0.00000000000E+00 0. -1.
         22    1    4    4    0    0  0.18074616203E+02  0.36504338627E+02 -0.54980624575E+02  0.68426073745E+02  0.00000000000E+00 0.  1.
         22    1    4    4    0    0  0.10805364368E+01  0.17363680425E+00 -0.30856739367E+00  0.11370675298E+01  0.00000000000E+00 0.  1.
<mgrwt>
<rscale>  0 0.91131792E+02</rscale>
<asrwt>0</asrwt>
<pdfrwt beam="1">  1        1 0.35987374E-02 0.91131792E+02</pdfrwt>
<pdfrwt beam="2">  1       -1 0.13655354E-01 0.91131792E+02</pdfrwt>
<totfact> 0.83251554E+04</totfact>
</mgrwt>
</event>
<event>
 7    1  0.2911475E-009  0.8892127E+02  0.7818608E-02  0.1305485E+00
          1   -1    0    0  501    0  0.00000000000E+00  0.00000000000E+00  0.80981944595E+02  0.80981944752E+02  0.50400000000E-02 0. -1.
         -1   -1    0    0    0  501 -0.00000000000E+00 -0.00000000000E+00 -0.24409737913E+02  0.24409738433E+02  0.50400000000E-02 0.  1.
         23    2    1    2    0    0  0.00000000000E+00  0.00000000000E+00  0.56572206682E+02  0.10539168319E+03  0.88921270322E+02 0.  0.
    9000005    2    3    3    0    0 -0.32683269992E+02 -0.28989655720E+02  0.19181679156E+02  0.47888223942E+02  0.40925421169E+01 0.  0.
         22    1    3    3    0    0  0.32683269992E+02  0.28989655720E+02  0.37390527527E+02  0.57503459243E+02  0.00000000000E+00 0. -1.
         22    1    4    4    0    0 -0.30887459626E+02 -0.26258490936E+02  0.17014099426E+02  0.43966158436E+02  0.00000000000E+00 0.  1.
         22    1    4    4    0    0 -0.17958103665E+01 -0.27311647840E+01  0.21675797297E+01  0.39220655062E+01  0.00000000000E+00 0.  1.
<mgrwt>
<rscale>  0 0.88921270E+02</rscale>
<asrwt>0</asrwt>
<pdfrwt beam="1">  1        1 0.12458761E-01 0.88921270E+02</pdfrwt>
<pdfrwt beam="2">  1       -1 0.37553444E-02 0.88921270E+02</pdfrwt>
<totfact> 0.10810101E+05</totfact>
</mgrwt>
</event>
<event>
 7    1  0.2911475E-009  0.9157773E+02  0.7818608E-02  0.1299075E+00
         -1   -1    0    0    0  501 -0.00000000000E+00  0.00000000000E+00  0.47747245830E+03  0.47747245832E+03  0.50400000000E-02 0. -1.
          1   -1    0    0  501    0  0.00000000000E+00 -0.00000000000E+00 -0.43910795505E+01  0.43910824429E+01  0.50400000000E-02 0.  1.
         23    2    1    2    0    0  0.00000000000E+00  0.00000000000E+00  0.47308137875E+03  0.48186354077E+03  0.91577732028E+02 0.  0.
    9000005    2    3    3    0    0 -0.31509991088E+01  0.39085016406E+02  0.35649179095E+03  0.35885663329E+03  0.12414465086E+02 0.  0.
         22    1    3    3    0    0  0.31509991088E+01 -0.39085016406E+02  0.11658958780E+03  0.12300690747E+03  0.00000000000E+00 0.  1.
         22    1    4    4    0    0 -0.31265497738E+01  0.26070896623E+02  0.18256294444E+03  0.18444157787E+03  0.00000000000E+00 0. -1.
         22    1    4    4    0    0 -0.24449334952E-01  0.13014119783E+02  0.17392884651E+03  0.17441505542E+03  0.00000000000E+00 0. -1.
<mgrwt>
<rscale>  0 0.91577732E+02</rscale>
<asrwt>0</asrwt>
<pdfrwt beam="2">  1        1 0.67555134E-03 0.91577732E+02</pdfrwt>
<pdfrwt beam="1">  1       -1 0.73457257E-01 0.91577732E+02</pdfrwt>
<totfact> 0.47817478E+04</totfact>
</mgrwt>
</event>
<event>
 7    1  0.2911475E-009  0.9643135E+02  0.7818608E-02  0.1287984E+00
         -1   -1    0    0    0  501 -0.00000000000E+00  0.00000000000E+00  0.61434254761E+02  0.61434254968E+02  0.50400000000E-02 0.  1.
          1   -1    0    0  501    0  0.00000000000E+00 -0.00000000000E+00 -0.37841285153E+02  0.37841285489E+02  0.50400000000E-02 0. -1.
         23    2    1    2    0    0 -0.35527136788E-14  0.00000000000E+00  0.23592969609E+02  0.99275540457E+02  0.96431347175E+02 0.  0.
    9000005    2    3    3    0    0 -0.29751006299E+02 -0.36836323097E+02  0.24982929202E+01  0.47439043086E+02  0.14779263526E+01 0.  0.
         22    1    3    3    0    0  0.29751006299E+02  0.36836323097E+02  0.21094676688E+02  0.51836497371E+02  0.00000000000E+00 0. -1.
         22    1    4    4    0    0 -0.16972482689E+02 -0.20282292711E+02  0.82246622804E+00  0.26459648843E+02  0.00000000000E+00 0. -1.
         22    1    4    4    0    0 -0.12778523610E+02 -0.16554030386E+02  0.16758266922E+01  0.20979394243E+02  0.00000000000E+00 0. -1.
<mgrwt>
<rscale>  0 0.96431347E+02</rscale>
<asrwt>0</asrwt>
<pdfrwt beam="2">  1        1 0.58217362E-02 0.96431347E+02</pdfrwt>
<pdfrwt beam="1">  1       -1 0.94514238E-02 0.96431347E+02</pdfrwt>
<totfact> 0.76633305E+04</totfact>
</mgrwt>
</event>
<event>
 7    1  0.3475369E-009  0.9168542E+02  0.7818608E-02  0.1298821E+00
         -1   -1    0    0    0  501 -0.00000000000E+00  0.00000000000E+00  0.30868931788E+01  0.30868972932E+01  0.50400000000E-02 0.  1.
          1   -1    0    0  501    0  0.00000000000E+00 -0.00000000000E+00 -0.68079859289E+03  0.68079859291E+03  0.50400000000E-02 0. -1.
         23    2    1    2    0    0  0.00000000000E+00  0.00000000000E+00 -0.67771169971E+03  0.68388549020E+03  0.91685417506E+02 0.  0.
    9000005    2    3    3    0    0  0.14778731910E+02 -0.39542040045E+02 -0.45406349889E+03  0.45628825477E+03  0.15598928321E+02 0.  0.
         22    1    3    3    0    0 -0.14778731910E+02  0.39542040045E+02 -0.22364820082E+03  0.22759723543E+03  0.00000000000E+00 0.  1.
         22    1    4    4    0    0 -0.72238294834E+00 -0.56489053581E+00 -0.58452371438E+02  0.58459564360E+02  0.00000000000E+00 0. -1.
         22    1    4    4    0    0  0.15501114858E+02 -0.38977149509E+02 -0.39561112745E+03  0.39782869041E+03  0.00000000000E+00 0. -1.
<mgrwt>
<rscale>  0 0.91685418E+02</rscale>
<asrwt>0</asrwt>
<pdfrwt beam="2">  1        1 0.10473813E+00 0.91685418E+02</pdfrwt>
<pdfrwt beam="1">  1       -1 0.47490750E-03 0.91685418E+02</pdfrwt>
<totfact> 0.14010621E+05</totfact>
</mgrwt>
</event>
<event>
 7    1  0.2911475E-009  0.9122433E+02  0.7818608E-02  0.1299914E+00
          1   -1    0    0  501    0  0.00000000000E+00  0.00000000000E+00  0.37029882589E+03  0.37029882592E+03  0.50400000000E-02 0. -1.
         -1   -1    0    0    0  501 -0.00000000000E+00 -0.00000000000E+00 -0.56183514982E+01  0.56183537588E+01  0.50400000000E-02 0.  1.
         23    2    1    2    0    0 -0.35527136788E-14 -0.35527136788E-14  0.36468047439E+03  0.37591717968E+03  0.91224325584E+02 0.  0.
    9000005    2    3    3    0    0 -0.22090037543E+02 -0.19646446863E+02  0.32397898826E+03  0.32561247209E+03  0.13680077163E+02 0.  0.
         22    1    3    3    0    0  0.22090037543E+02  0.19646446863E+02  0.40701486127E+02  0.50304707592E+02  0.00000000000E+00 0.  1.
         22    1    4    4    0    0 -0.17331551071E+02 -0.12868431373E+02  0.28196184761E+03  0.28278695637E+03  0.00000000000E+00 0. -1.
         22    1    4    4    0    0 -0.47584864721E+01 -0.67780154900E+01  0.42017140652E+02  0.42825515713E+02  0.00000000000E+00 0. -1.
<mgrwt>
<rscale>  0 0.91224326E+02</rscale>
<asrwt>0</asrwt>
<pdfrwt beam="1">  1        1 0.56969072E-01 0.91224326E+02</pdfrwt>
<pdfrwt beam="2">  1       -1 0.86436161E-03 0.91224326E+02</pdfrwt>
<totfact> 0.13295957E+05</totfact>
</mgrwt>
</event>
<event>
 7    1  0.2911475E-009  0.9187344E+02  0.7818608E-02  0.1298377E+00
         -1   -1    0    0    0  501 -0.00000000000E+00  0.00000000000E+00  0.24883081673E+02  0.24883082183E+02  0.50400000000E-02 0.  1.
          1   -1    0    0  501    0  0.00000000000E+00 -0.00000000000E+00 -0.84803891171E+02  0.84803891321E+02  0.50400000000E-02 0. -1.
         23    2    1    2    0    0  0.00000000000E+00  0.17763568394E-14 -0.59920809498E+02  0.10968697350E+03  0.91873438738E+02 0.  0.
    9000005    2    3    3    0    0 -0.12577045933E+02 -0.14211031751E+02  0.19339287790E+02  0.28186675775E+02  0.77682128678E+01 0.  0.
         22    1    3    3    0    0  0.12577045933E+02  0.14211031751E+02 -0.79260097288E+02  0.81500297729E+02  0.00000000000E+00 0. -1.
         22    1    4    4    0    0  0.39053595081E+00 -0.73467816591E+00 -0.46022971634E+00  0.95083212405E+00  0.00000000000E+00 0. -1.
         22    1    4    4    0    0 -0.12967581884E+02 -0.13476353585E+02  0.19799517506E+02  0.27235843651E+02  0.00000000000E+00 0. -1.
<mgrwt>
<rscale>  0 0.91873439E+02</rscale>
<asrwt>0</asrwt>
<pdfrwt beam="2">  1        1 0.13046752E-01 0.91873439E+02</pdfrwt>
<pdfrwt beam="1">  1       -1 0.38281665E-02 0.91873439E+02</pdfrwt>
<totfact> 0.99580332E+04</totfact>
</mgrwt>
</event>
<event>
 7    1  0.2911475E-009  0.9624785E+02  0.7818608E-02  0.1288390E+00
          1   -1    0    0  501    0  0.00000000000E+00  0.00000000000E+00  0.15738475354E+02  0.15738476161E+02  0.50400000000E-02 0. -1.
         -1   -1    0    0    0  501 -0.00000000000E+00 -0.00000000000E+00 -0.14714971779E+03  0.14714971788E+03  0.50400000000E-02 0.  1.
         23    2    1    2    0    0 -0.35527136788E-14 -0.35527136788E-14 -0.13141124244E+03  0.16288819404E+03  0.96247852541E+02 0.  0.
    9000005    2    3    3    0    0  0.23123160695E+02  0.25161763149E+02 -0.10101548957E+02  0.36857100188E+02  0.94132702917E+01 0.  0.
         22    1    3    3    0    0 -0.23123160695E+02 -0.25161763149E+02 -0.12130969348E+03  0.12603109385E+03  0.00000000000E+00 0. -1.
         22    1    4    4    0    0  0.77910588262E+01  0.14568699642E+02 -0.24074342839E+01  0.16695608606E+02  0.00000000000E+00 0.  1.
         22    1    4    4    0    0  0.15332101869E+02  0.10593063507E+02 -0.76941146733E+01  0.20161491582E+02  0.00000000000E+00 0.  1.
<mgrwt>
<rscale>  0 0.96247853E+02</rscale>
<asrwt>0</asrwt>
<pdfrwt beam="1">  1        1 0.24213041E-02 0.96247853E+02</pdfrwt>
<pdfrwt beam="2">  1       -1 0.22638417E-01 0.96247853E+02</pdfrwt>
<totfact> 0.65261494E+04</totfact>
</mgrwt>
</event>
<event>
 7    1  0.2911475E-009  0.9313654E+02  0.7818608E-02  0.1295429E+00
         -1   -1    0    0    0  501 -0.00000000000E+00  0.00000000000E+00  0.62475466026E+01  0.62475486355E+01  0.50400000000E-02 0.  1.
          1   -1    0    0  501    0  0.00000000000E+00 -0.00000000000E+00 -0.34711278343E+03  0.34711278347E+03  0.50400000000E-02 0. -1.
         23    2    1    2    0    0  0.00000000000E+00  0.00000000000E+00 -0.34086523683E+03  0.35336033210E+03  0.93136537545E+02 0.  0.
    9000005    2    3    3    0    0  0.42640537381E+02  0.48427839412E+01 -0.11972048394E+03  0.12809011722E+03  0.15245191687E+02 0.  0.
         22    1    3    3    0    0 -0.42640537381E+02 -0.48427839412E+01 -0.22114475289E+03  0.22527021488E+03  0.00000000000E+00 0.  1.
         22    1    4    4    0    0  0.14916020280E+02 -0.54972097267E+01 -0.38871616770E+02  0.41996542311E+02  0.00000000000E+00 0.  1.
         22    1    4    4    0    0  0.27724517101E+02  0.10339993668E+02 -0.80848867172E+02  0.86093574909E+02  0.00000000000E+00 0.  1.
<mgrwt>
<rscale>  0 0.93136538E+02</rscale>
<asrwt>0</asrwt>
<pdfrwt beam="2">  1        1 0.53401952E-01 0.93136538E+02</pdfrwt>
<pdfrwt beam="1">  1       -1 0.96116145E-03 0.93136538E+02</pdfrwt>
<totfact> 0.12438764E+05</totfact>
</mgrwt>
</event>
<event>
 7    1  0.2911475E-009  0.1113615E+03  0.7818608E-02  0.1258069E+00
         -1   -1    0    0    0  501 -0.00000000000E+00  0.00000000000E+00  0.31756928901E+02  0.31756929301E+02  0.50400000000E-02 0.  1.
          1   -1    0    0  501    0  0.00000000000E+00 -0.00000000000E+00 -0.97627304126E+02  0.97627304256E+02  0.50400000000E-02 0. -1.
         23    2    1    2    0    0  0.00000000000E+00  0.00000000000E+00 -0.65870375225E+02  0.12938423356E+03  0.11136145456E+03 0.  0.
    9000005    2    3    3    0    0 -0.35551080705E+02 -0.42449407185E+02 -0.33590089013E+02  0.65291734872E+02  0.82997019871E+01 0.  0.
         22    1    3    3    0    0  0.35551080705E+02  0.42449407185E+02 -0.32280286212E+02  0.64092498684E+02  0.00000000000E+00 0. -1.
         22    1    4    4    0    0 -0.15595235470E+02 -0.24755478280E+02 -0.16062665107E+02  0.33377451738E+02  0.00000000000E+00 0.  1.
         22    1    4    4    0    0 -0.19955845235E+02 -0.17693928905E+02 -0.17527423907E+02  0.31914283134E+02  0.00000000000E+00 0.  1.
<mgrwt>
<rscale>  0 0.11136145E+03</rscale>
<asrwt>0</asrwt>
<pdfrwt beam="2">  1        1 0.15019585E-01 0.11136145E+03</pdfrwt>
<pdfrwt beam="1">  1       -1 0.48856815E-02 0.11136145E+03</pdfrwt>
<totfact> 0.59835212E+04</totfact>
</mgrwt>
</event>
<event>
 7    1  0.2911475E-009  0.9213219E+02  0.7818608E-02  0.1297769E+00
         -1   -1    0    0    0  501 -0.00000000000E+00  0.00000000000E+00  0.32542576212E+02  0.32542576602E+02  0.50400000000E-02 0.  1.
          1   -1    0    0  501    0  0.00000000000E+00 -0.00000000000E+00 -0.65209497902E+02  0.65209498096E+02  0.50400000000E-02 0. -1.
         23    2    1    2    0    0 -0.71054273576E-14  0.00000000000E+00 -0.32666921690E+02  0.97752074699E+02  0.92132189463E+02 0.  0.
    9000005    2    3    3    0    0 -0.39408919725E+02 -0.18570559411E+02 -0.12965914129E+01  0.44067568066E+02  0.65069789589E+01 0.  0.
         22    1    3    3    0    0  0.39408919725E+02  0.18570559411E+02 -0.31370330277E+02  0.53684506633E+02  0.00000000000E+00 0. -1.
         22    1    4    4    0    0 -0.27659008885E+02 -0.15108299572E+02 -0.31714042616E+01  0.31675531462E+02  0.00000000000E+00 0.  1.
         22    1    4    4    0    0 -0.11749910841E+02 -0.34622598389E+01  0.18748128486E+01  0.12392036603E+02  0.00000000000E+00 0.  1.
<mgrwt>
<rscale>  0 0.92132189E+02</rscale>
<asrwt>0</asrwt>
<pdfrwt beam="2">  1        1 0.10032230E-01 0.92132189E+02</pdfrwt>
<pdfrwt beam="1">  1       -1 0.50065502E-02 0.92132189E+02</pdfrwt>
<totfact> 0.94821352E+04</totfact>
</mgrwt>
</event>
<event>
 7    1  0.2911475E-009  0.9426193E+02  0.7818608E-02  0.1292847E+00
         -1   -1    0    0    0  501 -0.00000000000E+00  0.00000000000E+00  0.16994131979E+02  0.16994132726E+02  0.50400000000E-02 0.  1.
          1   -1    0    0  501    0  0.00000000000E+00 -0.00000000000E+00 -0.13071146573E+03  0.13071146583E+03  0.50400000000E-02 0. -1.
         23    2    1    2    0    0  0.00000000000E+00  0.00000000000E+00 -0.11371733375E+03  0.14770559855E+03  0.94261932128E+02 0.  0.
    9000005    2    3    3    0    0 -0.21724989884E+02  0.12097250506E+02 -0.11887625828E+03  0.12231006435E+03  0.14486835485E+02 0.  0.
         22    1    3    3    0    0  0.21724989884E+02 -0.12097250506E+02  0.51589245301E+01  0.25395534206E+02  0.00000000000E+00 0.  1.
         22    1    4    4    0    0 -0.87376817618E+00 -0.15580720594E+01 -0.28614018307E+02  0.28669724502E+02  0.00000000000E+00 0.  1.
         22    1    4    4    0    0 -0.20851221708E+02  0.13655322565E+02 -0.90262239975E+02  0.93640339846E+02  0.00000000000E+00 0.  1.
<mgrwt>
<rscale>  0 0.94261932E+02</rscale>
<asrwt>0</asrwt>
<pdfrwt beam="2">  1        1 0.20109456E-01 0.94261932E+02</pdfrwt>
<pdfrwt beam="1">  1       -1 0.26144820E-02 0.94261932E+02</pdfrwt>
<totfact> 0.99928341E+04</totfact>
</mgrwt>
</event>
<event>
 7    1  0.2911475E-009  0.9202909E+02  0.7818608E-02  0.1298011E+00
          1   -1    0    0  501    0  0.00000000000E+00  0.00000000000E+00  0.12054590329E+02  0.12054591383E+02  0.50400000000E-02 0. -1.
         -1   -1    0    0    0  501 -0.00000000000E+00 -0.00000000000E+00 -0.17564580400E+03  0.17564580407E+03  0.50400000000E-02 0.  1.
         23    2    1    2    0    0  0.00000000000E+00  0.00000000000E+00 -0.16359121367E+03  0.18770039545E+03  0.92029089224E+02 0.  0.
    9000005    2    3    3    0    0 -0.80281430577E+01 -0.35942812423E+02 -0.13597398888E+03  0.14166727747E+03  0.14978484874E+02 0.  0.
         22    1    3    3    0    0  0.80281430577E+01  0.35942812423E+02 -0.27617224791E+02  0.46033117980E+02  0.00000000000E+00 0. -1.
         22    1    4    4    0    0 -0.63633542789E+01 -0.34795338103E+02 -0.10852961312E+03  0.11414852060E+03  0.00000000000E+00 0.  1.
         22    1    4    4    0    0 -0.16647887788E+01 -0.11474743204E+01 -0.27444375759E+02  0.27518756873E+02  0.00000000000E+00 0.  1.
<mgrwt>
<rscale>  0 0.92029089E+02</rscale>
<asrwt>0</asrwt>
<pdfrwt beam="1">  1        1 0.18545526E-02 0.92029089E+02</pdfrwt>
<pdfrwt beam="2">  1       -1 0.27022430E-01 0.92029089E+02</pdfrwt>
<totfact> 0.70209169E+04</totfact>
</mgrwt>
</event>
<event>
 7    1  0.2911475E-009  0.9093545E+02  0.7818608E-02  0.1300602E+00
         -1   -1    0    0    0  501 -0.00000000000E+00  0.00000000000E+00  0.20198227190E+03  0.20198227197E+03  0.50400000000E-02 0.  1.
          1   -1    0    0  501    0  0.00000000000E+00 -0.00000000000E+00 -0.10235125367E+02  0.10235126608E+02  0.50400000000E-02 0. -1.
         23    2    1    2    0    0  0.00000000000E+00  0.00000000000E+00  0.19174714654E+03  0.21221739858E+03  0.90935449925E+02 0.  0.
    9000005    2    3    3    0    0 -0.76607272240E+01  0.28323608541E+02  0.18523042633E+02  0.36525897029E+02  0.11407212763E+02 0.  0.
         22    1    3    3    0    0  0.76607272240E+01 -0.28323608541E+02  0.17322410390E+03  0.17569150155E+03  0.00000000000E+00 0.  1.
         22    1    4    4    0    0 -0.10518152038E+02  0.20060487737E+02  0.12125802561E+02  0.25692212405E+02  0.00000000000E+00 0.  1.
         22    1    4    4    0    0  0.28574248139E+01  0.82631208039E+01  0.63972400725E+01  0.10833684624E+02  0.00000000000E+00 0.  1.
<mgrwt>
<rscale>  0 0.90935450E+02</rscale>
<asrwt>0</asrwt>
<pdfrwt beam="2">  1        1 0.15746349E-02 0.90935450E+02</pdfrwt>
<pdfrwt beam="1">  1       -1 0.31074193E-01 0.90935450E+02</pdfrwt>
<totfact> 0.69708212E+04</totfact>
</mgrwt>
</event>
<event>
 7    1  0.2911475E-009  0.9448366E+02  0.7818608E-02  0.1292343E+00
          1   -1    0    0  501    0  0.00000000000E+00  0.00000000000E+00  0.74567735556E+03  0.74567735558E+03  0.50400000000E-02 0. -1.
         -1   -1    0    0    0  501 -0.00000000000E+00 -0.00000000000E+00 -0.29929686476E+01  0.29929728911E+01  0.50400000000E-02 0.  1.
         23    2    1    2    0    0  0.00000000000E+00  0.00000000000E+00  0.74268438691E+03  0.74867032847E+03  0.94483660836E+02 0.  0.
    9000005    2    3    3    0    0 -0.36451479624E+02 -0.18253909193E+02  0.55917471068E+03  0.56068703975E+03  0.56288460691E+01 0.  0.
         22    1    3    3    0    0  0.36451479624E+02  0.18253909193E+02  0.18350967623E+03  0.18798328872E+03  0.00000000000E+00 0.  1.
         22    1    4    4    0    0 -0.14141374182E+02 -0.80935170349E+01  0.25969314617E+03  0.26020379253E+03  0.00000000000E+00 0. -1.
         22    1    4    4    0    0 -0.22310105442E+02 -0.10160392158E+02  0.29948156451E+03  0.30048324722E+03  0.00000000000E+00 0. -1.
<mgrwt>
<rscale>  0 0.94483661E+02</rscale>
<asrwt>0</asrwt>
<pdfrwt beam="1">  1        1 0.11471969E+00 0.94483661E+02</pdfrwt>
<pdfrwt beam="2">  1       -1 0.46045664E-03 0.94483661E+02</pdfrwt>
<totfact> 0.12916017E+05</totfact>
</mgrwt>
</event>
<event>
 7    1  0.2911475E-009  0.9081290E+02  0.7818608E-02  0.1300895E+00
         -1   -1    0    0    0  501 -0.00000000000E+00  0.00000000000E+00  0.11296567200E+03  0.11296567211E+03  0.50400000000E-02 0.  1.
          1   -1    0    0  501    0  0.00000000000E+00 -0.00000000000E+00 -0.18251081783E+02  0.18251082479E+02  0.50400000000E-02 0. -1.
         23    2    1    2    0    0  0.00000000000E+00  0.00000000000E+00  0.94714590216E+02  0.13121675459E+03  0.90812901538E+02 0.  0.
    9000005    2    3    3    0    0  0.50679189785E+01  0.42909570383E+02  0.36831977902E+02  0.58985792799E+02  0.15994190280E+02 0.  0.
         22    1    3    3    0    0 -0.50679189785E+01 -0.42909570383E+02  0.57882612314E+02  0.72230961793E+02  0.00000000000E+00 0.  1.
         22    1    4    4    0    0 -0.82911549679E+00  0.21886643276E+02  0.27714468661E+02  0.35324274367E+02  0.00000000000E+00 0. -1.
         22    1    4    4    0    0  0.58970344753E+01  0.21022927106E+02  0.91175092410E+01  0.23661518431E+02  0.00000000000E+00 0. -1.
<mgrwt>
<rscale>  0 0.90812902E+02</rscale>
<asrwt>0</asrwt>
<pdfrwt beam="2">  1        1 0.28078588E-02 0.90812902E+02</pdfrwt>
<pdfrwt beam="1">  1       -1 0.17379334E-01 0.90812902E+02</pdfrwt>
<totfact> 0.80315610E+04</totfact>
</mgrwt>
</event>
<event>
 7    1  0.2911475E-009  0.9455492E+02  0.7818608E-02  0.1292182E+00
         -1   -1    0    0    0  501 -0.00000000000E+00  0.00000000000E+00  0.25607306608E+02  0.25607307104E+02  0.50400000000E-02 0.  1.
          1   -1    0    0  501    0  0.00000000000E+00 -0.00000000000E+00 -0.87285952939E+02  0.87285953084E+02  0.50400000000E-02 0. -1.
         23    2    1    2    0    0  0.00000000000E+00  0.00000000000E+00 -0.61678646330E+02  0.11289326019E+03  0.94554919401E+02 0.  0.
    9000005    2    3    3    0    0 -0.29854584059E+02 -0.34191547125E+02 -0.18272933195E+02  0.50088690157E+02  0.10706012792E+02 0.  0.
         22    1    3    3    0    0  0.29854584059E+02  0.34191547125E+02 -0.43405713135E+02  0.62804570032E+02  0.00000000000E+00 0. -1.
         22    1    4    4    0    0 -0.10131040890E+02 -0.59290713846E+01 -0.17494400590E+01  0.11868126116E+02  0.00000000000E+00 0. -1.
         22    1    4    4    0    0 -0.19723543170E+02 -0.28262475740E+02 -0.16523493136E+02  0.38220564040E+02  0.00000000000E+00 0. -1.
<mgrwt>
<rscale>  0 0.94554919E+02</rscale>
<asrwt>0</asrwt>
<pdfrwt beam="2">  1        1 0.13428608E-01 0.94554919E+02</pdfrwt>
<pdfrwt beam="1">  1       -1 0.39395857E-02 0.94554919E+02</pdfrwt>
<totfact> 0.92440975E+04</totfact>
</mgrwt>
</event>
<event>
 7    1  0.2911475E-009  0.8995509E+02  0.7818608E-02  0.1302960E+00
         -1   -1    0    0    0  501 -0.00000000000E+00  0.00000000000E+00  0.92974300349E+01  0.92974314009E+01  0.50400000000E-02 0.  1.
          1   -1    0    0  501    0  0.00000000000E+00 -0.00000000000E+00 -0.21758481475E+03  0.21758481481E+03  0.50400000000E-02 0. -1.
         23    2    1    2    0    0  0.17763568394E-14  0.00000000000E+00 -0.20828738472E+03  0.22688224621E+03  0.89955094429E+02 0.  0.
    9000005    2    3    3    0    0 -0.13004123842E+02  0.34278866095E+02 -0.43675689016E+02  0.58237180291E+02  0.11826050041E+02 0.  0.
         22    1    3    3    0    0  0.13004123842E+02 -0.34278866095E+02 -0.16461169570E+03  0.16864506592E+03  0.00000000000E+00 0. -1.
         22    1    4    4    0    0 -0.18836244038E+01  0.25988832816E+01 -0.10722222406E+02  0.11192331684E+02  0.00000000000E+00 0.  1.
         22    1    4    4    0    0 -0.11120499438E+02  0.31679982814E+02 -0.32953466610E+02  0.47044848607E+02  0.00000000000E+00 0.  1.
<mgrwt>
<rscale>  0 0.89955094E+02</rscale>
<asrwt>0</asrwt>
<pdfrwt beam="2">  1        1 0.33474583E-01 0.89955094E+02</pdfrwt>
<pdfrwt beam="1">  1       -1 0.14303741E-02 0.89955094E+02</pdfrwt>
<totfact> 0.12478549E+05</totfact>
</mgrwt>
</event>
<event>
 7    1  0.2911475E-009  0.9043949E+02  0.7818608E-02  0.1301791E+00
          1   -1    0    0  501    0  0.00000000000E+00  0.00000000000E+00  0.59084530299E+02  0.59084530514E+02  0.50400000000E-02 0. -1.
         -1   -1    0    0    0  501 -0.00000000000E+00 -0.00000000000E+00 -0.34608472809E+02  0.34608473176E+02  0.50400000000E-02 0.  1.
         23    2    1    2    0    0  0.17763568394E-14  0.00000000000E+00  0.24476057490E+02  0.93693003690E+02  0.90439491098E+02 0.  0.
    9000005    2    3    3    0    0 -0.11061915502E+02 -0.22955425873E+02  0.50613858446E+02  0.57189549190E+02  0.77177923112E+01 0.  0.
         22    1    3    3    0    0  0.11061915502E+02  0.22955425873E+02 -0.26137800956E+02  0.36503454500E+02  0.00000000000E+00 0.  1.
         22    1    4    4    0    0 -0.47784475730E+01 -0.14071598924E+02  0.21744291801E+02  0.26337381863E+02  0.00000000000E+00 0. -1.
         22    1    4    4    0    0 -0.62834679294E+01 -0.88838269488E+01  0.28869566645E+02  0.30852167327E+02  0.00000000000E+00 0. -1.
<mgrwt>
<rscale>  0 0.90439491E+02</rscale>
<asrwt>0</asrwt>
<pdfrwt beam="1">  1        1 0.90899277E-02 0.90439491E+02</pdfrwt>
<pdfrwt beam="2">  1       -1 0.53243805E-02 0.90439491E+02</pdfrwt>
<totfact> 0.98336122E+04</totfact>
</mgrwt>
</event>
<event>
 7    1  0.2911475E-009  0.9182532E+02  0.7818608E-02  0.1298491E+00
         -1   -1    0    0    0  501 -0.00000000000E+00  0.00000000000E+00  0.30303473300E+02  0.30303473719E+02  0.50400000000E-02 0.  1.
          1   -1    0    0  501    0  0.00000000000E+00 -0.00000000000E+00 -0.69562074172E+02  0.69562074355E+02  0.50400000000E-02 0. -1.
         23    2    1    2    0    0  0.00000000000E+00  0.35527136788E-14 -0.39258600872E+02  0.99865548074E+02  0.91825323031E+02 0.  0.
    9000005    2    3    3    0    0  0.24717900712E+01 -0.29986062206E+02 -0.56512583371E+02  0.65181638478E+02  0.12235205051E+02 0.  0.
         22    1    3    3    0    0 -0.24717900712E+01  0.29986062206E+02  0.17253982499E+02  0.34683909596E+02  0.00000000000E+00 0.  1.
         22    1    4    4    0    0  0.14761933827E+01 -0.16135053926E+02 -0.42364604260E+02  0.45357235434E+02  0.00000000000E+00 0.  1.
         22    1    4    4    0    0  0.99559668846E+00 -0.13851008280E+02 -0.14147979112E+02  0.19824403044E+02  0.00000000000E+00 0.  1.
<mgrwt>
<rscale>  0 0.91825323E+02</rscale>
<asrwt>0</asrwt>
<pdfrwt beam="2">  1        1 0.10701858E-01 0.91825323E+02</pdfrwt>
<pdfrwt beam="1">  1       -1 0.46620729E-02 0.91825323E+02</pdfrwt>
<totfact> 0.96660301E+04</totfact>
</mgrwt>
</event>
<event>
 7    1  0.2911475E-009  0.9297179E+02  0.7818608E-02  0.1295811E+00
         -1   -1    0    0    0  501 -0.00000000000E+00  0.00000000000E+00  0.67043159633E+01  0.67043178577E+01  0.50400000000E-02 0.  1.
          1   -1    0    0  501    0  0.00000000000E+00 -0.00000000000E+00 -0.32232045320E+03  0.32232045324E+03  0.50400000000E-02 0. -1.
         23    2    1    2    0    0  0.00000000000E+00  0.00000000000E+00 -0.31561613724E+03  0.32902477110E+03  0.92971790944E+02 0.  0.
    9000005    2    3    3    0    0 -0.33094320996E+02  0.48297846440E+01 -0.27012218299E+03  0.27256008501E+03  0.14298436833E+02 0.  0.
         22    1    3    3    0    0  0.33094320996E+02 -0.48297846440E+01 -0.45493954249E+02  0.56464686089E+02  0.00000000000E+00 0.  1.
         22    1    4    4    0    0  0.10357825621E+01 -0.68967799154E+00 -0.22691750876E+02  0.22725845618E+02  0.00000000000E+00 0.  1.
         22    1    4    4    0    0 -0.34130103558E+02  0.55194626355E+01 -0.24743043211E+03  0.24983423939E+03  0.00000000000E+00 0.  1.
<mgrwt>
<rscale>  0 0.92971791E+02</rscale>
<asrwt>0</asrwt>
<pdfrwt beam="2">  1        1 0.49587750E-01 0.92971791E+02</pdfrwt>
<pdfrwt beam="1">  1       -1 0.10314336E-02 0.92971791E+02</pdfrwt>
<totfact> 0.12328809E+05</totfact>
</mgrwt>
</event>
<event>
 7    1  0.2911475E-009  0.9130864E+02  0.7818608E-02  0.1299713E+00
         -1   -1    0    0    0  501 -0.00000000000E+00  0.00000000000E+00  0.29498403971E+01  0.29498447027E+01  0.50400000000E-02 0.  1.
          1   -1    0    0  501    0  0.00000000000E+00 -0.00000000000E+00 -0.70658588986E+03  0.70658588988E+03  0.50400000000E-02 0. -1.
         23    2    1    2    0    0  0.35527136788E-14  0.00000000000E+00 -0.70363604946E+03  0.70953573458E+03  0.91308644406E+02 0.  0.
    9000005    2    3    3    0    0  0.16403094317E+02  0.37400433331E+02 -0.50414590674E+03  0.50590820462E+03  0.10590670290E+02 0.  0.
         22    1    3    3    0    0 -0.16403094317E+02 -0.37400433331E+02 -0.19949014272E+03  0.20362752996E+03  0.00000000000E+00 0.  1.
         22    1    4    4    0    0  0.16916792473E+02  0.28177738655E+02 -0.37947182059E+03  0.38089240665E+03  0.00000000000E+00 0. -1.
         22    1    4    4    0    0 -0.51369815671E+00  0.92226946757E+01 -0.12467408615E+03  0.12501579797E+03  0.00000000000E+00 0. -1.
<mgrwt>
<rscale>  0 0.91308644E+02</rscale>
<asrwt>0</asrwt>
<pdfrwt beam="2">  1        1 0.10870539E+00 0.91308644E+02</pdfrwt>
<pdfrwt beam="1">  1       -1 0.45382249E-03 0.91308644E+02</pdfrwt>
<totfact> 0.14161769E+05</totfact>
</mgrwt>
</event>
<event>
 7    1  0.2911475E-009  0.9046936E+02  0.7818608E-02  0.1301719E+00
         -1   -1    0    0    0  501 -0.00000000000E+00  0.00000000000E+00  0.26433943039E+02  0.26433943520E+02  0.50400000000E-02 0.  1.
          1   -1    0    0  501    0  0.00000000000E+00 -0.00000000000E+00 -0.77407151978E+02  0.77407152143E+02  0.50400000000E-02 0. -1.
         23    2    1    2    0    0  0.00000000000E+00 -0.17763568394E-14 -0.50973208939E+02  0.10384109566E+03  0.90469360110E+02 0.  0.
    9000005    2    3    3    0    0  0.17018961397E+02  0.12717234636E+02 -0.70620081193E+02  0.74903703016E+02  0.13114715171E+02 0.  0.
         22    1    3    3    0    0 -0.17018961397E+02 -0.12717234636E+02  0.19646872253E+02  0.28937392646E+02  0.00000000000E+00 0.  1.
         22    1    4    4    0    0  0.14123275929E+02  0.14988614718E+02 -0.52122310760E+02  0.56043382955E+02  0.00000000000E+00 0. -1.
         22    1    4    4    0    0  0.28956854675E+01 -0.22713800815E+01 -0.18497770433E+02  0.18860320061E+02  0.00000000000E+00 0. -1.
<mgrwt>
<rscale>  0 0.90469360E+02</rscale>
<asrwt>0</asrwt>
<pdfrwt beam="2">  1        1 0.11908793E-01 0.90469360E+02</pdfrwt>
<pdfrwt beam="1">  1       -1 0.40667605E-02 0.90469360E+02</pdfrwt>
<totfact> 0.10238916E+05</totfact>
</mgrwt>
</event>
<event>
 7    1  0.2911475E-009  0.9000369E+02  0.7818608E-02  0.1302843E+00
          1   -1    0    0  501    0  0.00000000000E+00  0.00000000000E+00  0.49704185723E+02  0.49704185978E+02  0.50400000000E-02 0. -1.
         -1   -1    0    0    0  501 -0.00000000000E+00 -0.00000000000E+00 -0.40744380079E+02  0.40744380391E+02  0.50400000000E-02 0.  1.
         23    2    1    2    0    0  0.00000000000E+00  0.35527136788E-14  0.89598056431E+01  0.90448566369E+02  0.90003694597E+02 0.  0.
    9000005    2    3    3    0    0 -0.86882893642E+01 -0.28618484862E+02  0.37582554942E+02  0.49050911541E+02  0.99518560662E+01 0.  0.
         22    1    3    3    0    0  0.86882893642E+01  0.28618484862E+02 -0.28622749299E+02  0.41397654828E+02  0.00000000000E+00 0.  1.
         22    1    4    4    0    0  0.15661213861E+01 -0.10971995565E+02  0.14218555236E+02  0.18027887726E+02  0.00000000000E+00 0.  1.
         22    1    4    4    0    0 -0.10254410750E+02 -0.17646489297E+02  0.23363999706E+02  0.31023023815E+02  0.00000000000E+00 0.  1.
<mgrwt>
<rscale>  0 0.90003695E+02</rscale>
<asrwt>0</asrwt>
<pdfrwt beam="1">  1        1 0.76467978E-02 0.90003695E+02</pdfrwt>
<pdfrwt beam="2">  1       -1 0.62683662E-02 0.90003695E+02</pdfrwt>
<totfact> 0.97128265E+04</totfact>
</mgrwt>
</event>
<event>
 7    1  0.2911475E-009  0.9115843E+02  0.7818608E-02  0.1300070E+00
         -1   -1    0    0    0  501 -0.00000000000E+00  0.00000000000E+00  0.20758363877E+01  0.20758425061E+01  0.50400000000E-02 0.  1.
          1   -1    0    0  501    0  0.00000000000E+00 -0.00000000000E+00 -0.10007831071E+04  0.10007831072E+04  0.50400000000E-02 0. -1.
         23    2    1    2    0    0 -0.17763568394E-14  0.71054273576E-14 -0.99870727075E+03  0.10028589497E+04  0.91158434922E+02 0.  0.
    9000005    2    3    3    0    0 -0.11623421357E+02  0.34962244060E+02 -0.79412571330E+03  0.79498620955E+03  0.31563277988E+01 0.  0.
         22    1    3    3    0    0  0.11623421357E+02 -0.34962244060E+02 -0.20458155745E+03  0.20787274011E+03  0.00000000000E+00 0.  1.
         22    1    4    4    0    0 -0.10913710088E+02  0.31714094082E+02 -0.73851141161E+03  0.73927261407E+03  0.00000000000E+00 0.  1.
         22    1    4    4    0    0 -0.70971126912E+00  0.32481499783E+01 -0.55614301695E+02  0.55713595480E+02  0.00000000000E+00 0.  1.
<mgrwt>
<rscale>  0 0.91158435E+02</rscale>
<asrwt>0</asrwt>
<pdfrwt beam="2">  1        1 0.15396625E+00 0.91158435E+02</pdfrwt>
<pdfrwt beam="1">  1       -1 0.31936072E-03 0.91158435E+02</pdfrwt>
<totfact> 0.13605949E+05</totfact>
</mgrwt>
</event>
<event>
 7    1  0.2911475E-009  0.9250873E+02  0.7818608E-02  0.1296888E+00
         -1   -1    0    0    0  501 -0.00000000000E+00  0.00000000000E+00  0.75972481010E+02  0.75972481177E+02  0.50400000000E-02 0.  1.
          1   -1    0    0  501    0  0.00000000000E+00 -0.00000000000E+00 -0.28161070298E+02  0.28161070749E+02  0.50400000000E-02 0. -1.
         23    2    1    2    0    0  0.71054273576E-14  0.00000000000E+00  0.47811410712E+02  0.10413355193E+03  0.92508732790E+02 0.  0.
    9000005    2    3    3    0    0  0.44365766163E+02 -0.12183152036E+02  0.20189199920E+02  0.50470371534E+02  0.47858341656E+01 0.  0.
         22    1    3    3    0    0 -0.44365766163E+02  0.12183152036E+02  0.27622210793E+02  0.53663180392E+02  0.00000000000E+00 0. -1.
         22    1    4    4    0    0  0.21053410262E+02 -0.80957632949E+01  0.89122475514E+01  0.24253156978E+02  0.00000000000E+00 0. -1.
         22    1    4    4    0    0  0.23312355901E+02 -0.40873887415E+01  0.11276952368E+02  0.26217214556E+02  0.00000000000E+00 0. -1.
<mgrwt>
<rscale>  0 0.92508733E+02</rscale>
<asrwt>0</asrwt>
<pdfrwt beam="2">  1        1 0.43324724E-02 0.92508733E+02</pdfrwt>
<pdfrwt beam="1">  1       -1 0.11688074E-01 0.92508733E+02</pdfrwt>
<totfact> 0.82275753E+04</totfact>
</mgrwt>
</event>
<event>
 7    1  0.2911475E-009  0.8933939E+02  0.7818608E-02  0.1304459E+00
          1   -1    0    0  501    0  0.00000000000E+00  0.00000000000E+00  0.21534727604E+02  0.21534728194E+02  0.50400000000E-02 0. -1.
         -1   -1    0    0    0  501 -0.00000000000E+00 -0.00000000000E+00 -0.92658777231E+02  0.92658777368E+02  0.50400000000E-02 0.  1.
         23    2    1    2    0    0 -0.35527136788E-14  0.00000000000E+00 -0.71124049627E+02  0.11419350556E+03  0.89339388162E+02 0.  0.
    9000005    2    3    3    0    0  0.18359702887E+02  0.30492659831E+01 -0.87068268609E+02  0.89686469183E+02  0.10789005642E+02 0.  0.
         22    1    3    3    0    0 -0.18359702887E+02 -0.30492659831E+01  0.15944218982E+02  0.24507036379E+02  0.00000000000E+00 0. -1.
         22    1    4    4    0    0  0.61625783782E+01  0.50808590299E+01 -0.20928689756E+02  0.22400949883E+02  0.00000000000E+00 0. -1.
         22    1    4    4    0    0  0.12197124509E+02 -0.20315930468E+01 -0.66139578853E+02  0.67285519300E+02  0.00000000000E+00 0. -1.
<mgrwt>
<rscale>  0 0.89339388E+02</rscale>
<asrwt>0</asrwt>
<pdfrwt beam="1">  1        1 0.33130351E-02 0.89339388E+02</pdfrwt>
<pdfrwt beam="2">  1       -1 0.14255196E-01 0.89339388E+02</pdfrwt>
<totfact> 0.86939476E+04</totfact>
</mgrwt>
</event>
<event>
 7    1  0.2911475E-009  0.8995282E+02  0.7818608E-02  0.1302966E+00
         -1   -1    0    0    0  501 -0.00000000000E+00  0.00000000000E+00  0.34649723655E+02  0.34649724021E+02  0.50400000000E-02 0.  1.
          1   -1    0    0  501    0  0.00000000000E+00 -0.00000000000E+00 -0.58380766476E+02  0.58380766694E+02  0.50400000000E-02 0. -1.
         23    2    1    2    0    0  0.00000000000E+00  0.00000000000E+00 -0.23731042822E+02  0.93030490715E+02  0.89952819908E+02 0.  0.
    9000005    2    3    3    0    0 -0.11543410345E+02  0.41139138597E+02 -0.25368208370E+02  0.50271171755E+02  0.76135186923E+01 0.  0.
         22    1    3    3    0    0  0.11543410345E+02 -0.41139138597E+02  0.16371655480E+01  0.42759318960E+02  0.00000000000E+00 0.  1.
         22    1    4    4    0    0 -0.98937196147E+01  0.37077112203E+02 -0.25149831374E+02  0.45881499051E+02  0.00000000000E+00 0.  1.
         22    1    4    4    0    0 -0.16496907301E+01  0.40620263946E+01 -0.21837699602E+00  0.43896727039E+01  0.00000000000E+00 0.  1.
<mgrwt>
<rscale>  0 0.89952820E+02</rscale>
<asrwt>0</asrwt>
<pdfrwt beam="2">  1        1 0.89816564E-02 0.89952820E+02</pdfrwt>
<pdfrwt beam="1">  1       -1 0.53307268E-02 0.89952820E+02</pdfrwt>
<totfact> 0.99637189E+04</totfact>
</mgrwt>
</event>
<event>
 7    1  0.2911475E-009  0.9299491E+02  0.7818608E-02  0.1295757E+00
          1   -1    0    0  501    0  0.00000000000E+00  0.00000000000E+00  0.19251302058E+02  0.19251302718E+02  0.50400000000E-02 0. -1.
         -1   -1    0    0    0  501 -0.00000000000E+00 -0.00000000000E+00 -0.11230477218E+03  0.11230477230E+03  0.50400000000E-02 0.  1.
         23    2    1    2    0    0 -0.44408920985E-15  0.00000000000E+00 -0.93053470126E+02  0.13155607502E+03  0.92994906156E+02 0.  0.
    9000005    2    3    3    0    0 -0.37074272441E+01  0.45307838811E+02 -0.33170131510E+02  0.56372569390E+02  0.33262111620E+01 0.  0.
         22    1    3    3    0    0  0.37074272441E+01 -0.45307838811E+02 -0.59883338616E+02  0.75183505626E+02  0.00000000000E+00 0.  1.
         22    1    4    4    0    0 -0.36187721795E+01  0.24748347740E+02 -0.18780024595E+02  0.31277236958E+02  0.00000000000E+00 0. -1.
         22    1    4    4    0    0 -0.88655064603E-01  0.20559491070E+02 -0.14390106916E+02  0.25095332431E+02  0.00000000000E+00 0. -1.
<mgrwt>
<rscale>  0 0.92994906E+02</rscale>
<asrwt>0</asrwt>
<pdfrwt beam="1">  1        1 0.29617389E-02 0.92994906E+02</pdfrwt>
<pdfrwt beam="2">  1       -1 0.17277657E-01 0.92994906E+02</pdfrwt>
<totfact> 0.75622888E+04</totfact>
</mgrwt>
</event>
<event>
 7    1  0.2911475E-009  0.9019825E+02  0.7818608E-02  0.1302372E+00
         -1   -1    0    0    0  501 -0.00000000000E+00  0.00000000000E+00  0.37419534581E+02  0.37419534920E+02  0.50400000000E-02 0. -1.
          1   -1    0    0  501    0  0.00000000000E+00 -0.00000000000E+00 -0.54354793149E+02  0.54354793382E+02  0.50400000000E-02 0.  1.
         23    2    1    2    0    0  0.00000000000E+00  0.00000000000E+00 -0.16935258568E+02  0.91774328302E+02  0.90198250275E+02 0.  0.
    9000005    2    3    3    0    0 -0.36878544536E+02  0.19934153766E+02 -0.23425891303E+02  0.49353509749E+02  0.11384155997E+02 0.  0.
         22    1    3    3    0    0  0.36878544536E+02 -0.19934153766E+02  0.64906327347E+01  0.42420818553E+02  0.00000000000E+00 0. -1.
         22    1    4    4    0    0 -0.42613389007E+01  0.17229831877E+00  0.55922800818E+00  0.43013290855E+01  0.00000000000E+00 0. -1.
         22    1    4    4    0    0 -0.32617205635E+02  0.19761855447E+02 -0.23985119311E+02  0.45052180663E+02  0.00000000000E+00 0. -1.
<mgrwt>
<rscale>  0 0.90198250E+02</rscale>
<asrwt>0</asrwt>
<pdfrwt beam="2">  1        1 0.83622759E-02 0.90198250E+02</pdfrwt>
<pdfrwt beam="1">  1       -1 0.57568515E-02 0.90198250E+02</pdfrwt>
<totfact> 0.97838660E+04</totfact>
</mgrwt>
</event>
<event>
 7    1  0.2911475E-009  0.9211697E+02  0.7818608E-02  0.1297805E+00
          1   -1    0    0  501    0  0.00000000000E+00  0.00000000000E+00  0.42330248261E+03  0.42330248264E+03  0.50400000000E-02 0. -1.
         -1   -1    0    0    0  501 -0.00000000000E+00 -0.00000000000E+00 -0.50115072741E+01  0.50115098084E+01  0.50400000000E-02 0.  1.
         23    2    1    2    0    0  0.71054273576E-14 -0.88817841970E-15  0.41829097534E+03  0.42831399245E+03  0.92116969553E+02 0.  0.
    9000005    2    3    3    0    0  0.40239161047E+02 -0.53328071224E+01  0.31018956304E+03  0.31284302530E+03  0.23589292326E+01 0.  0.
         22    1    3    3    0    0 -0.40239161047E+02  0.53328071224E+01  0.10810141230E+03  0.11547096715E+03  0.00000000000E+00 0. -1.
         22    1    4    4    0    0  0.76772011073E+01 -0.18471463145E+01  0.63718804630E+02  0.64206210212E+02  0.00000000000E+00 0. -1.
         22    1    4    4    0    0  0.32561959940E+02 -0.34856608079E+01  0.24647075841E+03  0.24863681509E+03  0.00000000000E+00 0. -1.
<mgrwt>
<rscale>  0 0.92116970E+02</rscale>
<asrwt>0</asrwt>
<pdfrwt beam="1">  1        1 0.65123470E-01 0.92116970E+02</pdfrwt>
<pdfrwt beam="2">  1       -1 0.77100119E-03 0.92116970E+02</pdfrwt>
<totfact> 0.13245417E+05</totfact>
</mgrwt>
</event>
<event>
 7    1  0.2911475E-009  0.9453638E+02  0.7818608E-02  0.1292224E+00
         -1   -1    0    0    0  501 -0.00000000000E+00  0.00000000000E+00  0.14738539122E+02  0.14738539983E+02  0.50400000000E-02 0.  1.
          1   -1    0    0  501    0  0.00000000000E+00 -0.00000000000E+00 -0.15159450646E+03  0.15159450654E+03  0.50400000000E-02 0. -1.
         23    2    1    2    0    0  0.17763568394E-14  0.71054273576E-14 -0.13685596734E+03  0.16633304653E+03  0.94536376971E+02 0.  0.
    9000005    2    3    3    0    0  0.78898093101E+01  0.46243356925E+02 -0.59680576316E+02  0.76018384760E+02  0.40406040943E+01 0.  0.
         22    1    3    3    0    0 -0.78898093101E+01 -0.46243356925E+02 -0.77175391020E+02  0.90314661765E+02  0.00000000000E+00 0.  1.
         22    1    4    4    0    0  0.55204558296E+01  0.24870111663E+02 -0.29815456920E+02  0.39216824936E+02  0.00000000000E+00 0. -1.
         22    1    4    4    0    0  0.23693534805E+01  0.21373245262E+02 -0.29865119397E+02  0.36801559825E+02  0.00000000000E+00 0. -1.
<mgrwt>
<rscale>  0 0.94536377E+02</rscale>
<asrwt>0</asrwt>
<pdfrwt beam="2">  1        1 0.23322231E-01 0.94536377E+02</pdfrwt>
<pdfrwt beam="1">  1       -1 0.22674677E-02 0.94536377E+02</pdfrwt>
<totfact> 0.10187567E+05</totfact>
</mgrwt>
</event>
<event>
 7    1  0.2911475E-009  0.9281675E+02  0.7818608E-02  0.1296170E+00
         -1   -1    0    0    0  501 -0.00000000000E+00  0.00000000000E+00  0.56183213061E+01  0.56183235667E+01  0.50400000000E-02 0.  1.
          1   -1    0    0  501    0  0.00000000000E+00 -0.00000000000E+00 -0.38334171765E+03  0.38334171768E+03  0.50400000000E-02 0. -1.
         23    2    1    2    0    0  0.00000000000E+00  0.00000000000E+00 -0.37772339634E+03  0.38896004125E+03  0.92816752493E+02 0.  0.
    9000005    2    3    3    0    0  0.47650599168E+01 -0.45237765464E+02 -0.19762847589E+03  0.20320928999E+03  0.12955301442E+02 0.  0.
         22    1    3    3    0    0 -0.47650599168E+01  0.45237765464E+02 -0.18009492045E+03  0.18575075125E+03  0.00000000000E+00 0.  1.
         22    1    4    4    0    0 -0.11562564108E-01 -0.14576444853E+02 -0.90895940955E+02  0.92057291728E+02  0.00000000000E+00 0.  1.
         22    1    4    4    0    0  0.47766224809E+01 -0.30661320611E+02 -0.10673253494E+03  0.11115199827E+03  0.00000000000E+00 0.  1.
<mgrwt>
<rscale>  0 0.92816752E+02</rscale>
<asrwt>0</asrwt>
<pdfrwt beam="2">  1        1 0.58975628E-01 0.92816752E+02</pdfrwt>
<pdfrwt beam="1">  1       -1 0.86435760E-03 0.92816752E+02</pdfrwt>
<totfact> 0.12773448E+05</totfact>
</mgrwt>
</event>
<event>
 7    1  0.2911475E-009  0.8942434E+02  0.7818608E-02  0.1304252E+00
         -1   -1    0    0    0  501 -0.00000000000E+00  0.00000000000E+00  0.63914465312E+01  0.63914485184E+01  0.50400000000E-02 0.  1.
          1   -1    0    0  501    0  0.00000000000E+00 -0.00000000000E+00 -0.31278960085E+03  0.31278960089E+03  0.50400000000E-02 0. -1.
         23    2    1    2    0    0  0.71054273576E-14  0.00000000000E+00 -0.30639815432E+03  0.31918104941E+03  0.89424344179E+02 0.  0.
    9000005    2    3    3    0    0 -0.38396305611E+02  0.17965199558E+02 -0.11286172644E+03  0.12105640784E+03  0.10948054846E+02 0.  0.
         22    1    3    3    0    0  0.38396305611E+02 -0.17965199558E+02 -0.19353642788E+03  0.19812464157E+03  0.00000000000E+00 0. -1.
         22    1    4    4    0    0 -0.10682129017E+02  0.39582374283E+01 -0.45130429370E+02  0.46546011418E+02  0.00000000000E+00 0.  1.
         22    1    4    4    0    0 -0.27714176594E+02  0.14006962130E+02 -0.67731297066E+02  0.74510396420E+02  0.00000000000E+00 0.  1.
<mgrwt>
<rscale>  0 0.89424344E+02</rscale>
<asrwt>0</asrwt>
<pdfrwt beam="2">  1        1 0.48121465E-01 0.89424344E+02</pdfrwt>
<pdfrwt beam="1">  1       -1 0.98329987E-03 0.89424344E+02</pdfrwt>
<totfact> 0.13597844E+05</totfact>
</mgrwt>
</event>
<event>
 7    1  0.2911475E-009  0.9030127E+02  0.7818608E-02  0.1302124E+00
          1   -1    0    0  501    0  0.00000000000E+00  0.00000000000E+00  0.85676819306E+01  0.85676834130E+01  0.50400000000E-02 0. -1.
         -1   -1    0    0    0  501 -0.00000000000E+00 -0.00000000000E+00 -0.23793831747E+03  0.23793831753E+03  0.50400000000E-02 0.  1.
         23    2    1    2    0    0  0.00000000000E+00  0.00000000000E+00 -0.22937063554E+03  0.24650600094E+03  0.90301273801E+02 0.  0.
    9000005    2    3    3    0    0  0.23745008102E+02 -0.36260964106E+02 -0.14115041846E+03  0.14821312413E+03  0.12845489795E+02 0.  0.
         22    1    3    3    0    0 -0.23745008102E+02  0.36260964106E+02 -0.88220217088E+02  0.98292876806E+02  0.00000000000E+00 0.  1.
         22    1    4    4    0    0  0.20330246731E+02 -0.20632290980E+02 -0.83343385222E+02  0.88233384971E+02  0.00000000000E+00 0. -1.
         22    1    4    4    0    0  0.34147613703E+01 -0.15628673126E+02 -0.57807033233E+02  0.59979739164E+02  0.00000000000E+00 0. -1.
<mgrwt>
<rscale>  0 0.90301274E+02</rscale>
<asrwt>0</asrwt>
<pdfrwt beam="1">  1        1 0.13181052E-02 0.90301274E+02</pdfrwt>
<pdfrwt beam="2">  1       -1 0.36605890E-01 0.90301274E+02</pdfrwt>
<totfact> 0.67515991E+04</totfact>
</mgrwt>
</event>
<event>
 7    1  0.2911475E-009  0.9126341E+02  0.7818608E-02  0.1299821E+00
         -1   -1    0    0    0  501 -0.00000000000E+00  0.00000000000E+00  0.21635008315E+01  0.21635067019E+01  0.50400000000E-02 0.  1.
          1   -1    0    0  501    0  0.00000000000E+00 -0.00000000000E+00 -0.96244465590E+03  0.96244465591E+03  0.50400000000E-02 0. -1.
         23    2    1    2    0    0  0.00000000000E+00  0.71054273576E-14 -0.96028115507E+03  0.96460816261E+03  0.91263413282E+02 0.  0.
    9000005    2    3    3    0    0  0.83271160041E+01  0.33261907200E+02 -0.79092063515E+03  0.79181151612E+03  0.15307861673E+02 0.  0.
         22    1    3    3    0    0 -0.83271160041E+01 -0.33261907200E+02 -0.16936051992E+03  0.17279664649E+03  0.00000000000E+00 0.  1.
         22    1    4    4    0    0  0.83318956517E+01  0.17515882796E+02 -0.29261640386E+03  0.29325856585E+03  0.00000000000E+00 0. -1.
         22    1    4    4    0    0 -0.47796475833E-02  0.15746024404E+02 -0.49830423129E+03  0.49855295027E+03  0.00000000000E+00 0. -1.
<mgrwt>
<rscale>  0 0.91263413E+02</rscale>
<asrwt>0</asrwt>
<pdfrwt beam="2">  1        1 0.14806807E+00 0.91263413E+02</pdfrwt>
<pdfrwt beam="1">  1       -1 0.33284750E-03 0.91263413E+02</pdfrwt>
<totfact> 0.13696729E+05</totfact>
</mgrwt>
</event>
<event>
 7    1  0.2911475E-009  0.9325366E+02  0.7818608E-02  0.1295158E+00
          1   -1    0    0  501    0  0.00000000000E+00  0.00000000000E+00  0.21126969765E+02  0.21126970366E+02  0.50400000000E-02 0. -1.
         -1   -1    0    0    0  501 -0.00000000000E+00 -0.00000000000E+00 -0.10290455093E+03  0.10290455105E+03  0.50400000000E-02 0.  1.
         23    2    1    2    0    0  0.00000000000E+00  0.00000000000E+00 -0.81777581160E+02  0.12403152142E+03  0.93253662256E+02 0.  0.
    9000005    2    3    3    0    0  0.24474125118E+02 -0.34850678172E+02 -0.64977380874E+02  0.78251620815E+02  0.93650181875E+01 0.  0.
         22    1    3    3    0    0 -0.24474125118E+02  0.34850678172E+02 -0.16800200286E+02  0.45779900600E+02  0.00000000000E+00 0.  1.
         22    1    4    4    0    0  0.23348287742E+02 -0.27442851553E+02 -0.55496373193E+02  0.66167213025E+02  0.00000000000E+00 0.  1.
         22    1    4    4    0    0  0.11258373761E+01 -0.74078266182E+01 -0.94810076802E+01  0.12084407790E+02  0.00000000000E+00 0.  1.
<mgrwt>
<rscale>  0 0.93253662E+02</rscale>
<asrwt>0</asrwt>
<pdfrwt beam="1">  1        1 0.32503032E-02 0.93253662E+02</pdfrwt>
<pdfrwt beam="2">  1       -1 0.15831469E-01 0.93253662E+02</pdfrwt>
<totfact> 0.76365965E+04</totfact>
</mgrwt>
</event>
<event>
 7    1  0.2911475E-009  0.8850558E+02  0.7818608E-02  0.1306512E+00
         -1   -1    0    0    0  501 -0.00000000000E+00  0.00000000000E+00  0.45922922064E+03  0.45922922067E+03  0.50400000000E-02 0.  1.
          1   -1    0    0  501    0  0.00000000000E+00 -0.00000000000E+00 -0.42643385591E+01  0.42643415375E+01  0.50400000000E-02 0. -1.
         23    2    1    2    0    0  0.00000000000E+00  0.00000000000E+00  0.45496488208E+03  0.46349356220E+03  0.88505583319E+02 0.  0.
    9000005    2    3    3    0    0  0.35800556358E+02  0.21869010183E+01  0.36245481465E+03  0.36427373079E+03  0.59494456028E+01 0.  0.
         22    1    3    3    0    0 -0.35800556358E+02 -0.21869010183E+01  0.92510067425E+02  0.99219831418E+02  0.00000000000E+00 0. -1.
         22    1    4    4    0    0  0.34457166696E+02  0.32968577495E+01  0.34480507358E+03  0.34653817160E+03  0.00000000000E+00 0. -1.
         22    1    4    4    0    0  0.13433896615E+01 -0.11099567312E+01  0.17649741072E+02  0.17735559186E+02  0.00000000000E+00 0. -1.
<mgrwt>
<rscale>  0 0.88505583E+02</rscale>
<asrwt>0</asrwt>
<pdfrwt beam="2">  1        1 0.65605236E-03 0.88505583E+02</pdfrwt>
<pdfrwt beam="1">  1       -1 0.70650645E-01 0.88505583E+02</pdfrwt>
<totfact> 0.53484601E+04</totfact>
</mgrwt>
</event>
<event>
 7    1  0.2911475E-009  0.9126116E+02  0.7818608E-02  0.1299826E+00
          1   -1    0    0  501    0  0.00000000000E+00  0.00000000000E+00  0.22478286612E+02  0.22478287177E+02  0.50400000000E-02 0. -1.
         -1   -1    0    0    0  501 -0.00000000000E+00 -0.00000000000E+00 -0.92629386977E+02  0.92629387114E+02  0.50400000000E-02 0.  1.
         23    2    1    2    0    0  0.00000000000E+00  0.00000000000E+00 -0.70151100366E+02  0.11510767429E+03  0.91261162595E+02 0.  0.
    9000005    2    3    3    0    0  0.24971606284E+02 -0.34537031507E+02 -0.19782576932E+02  0.49127557448E+02  0.14344995119E+02 0.  0.
         22    1    3    3    0    0 -0.24971606284E+02  0.34537031507E+02 -0.50368523434E+02  0.65980116843E+02  0.00000000000E+00 0.  1.
         22    1    4    4    0    0  0.19586391171E+02 -0.32416008840E+02 -0.12624902444E+02  0.39922581453E+02  0.00000000000E+00 0. -1.
         22    1    4    4    0    0  0.53852151137E+01 -0.21210226674E+01 -0.71576744882E+01  0.92049759943E+01  0.00000000000E+00 0. -1.
<mgrwt>
<rscale>  0 0.91261163E+02</rscale>
<asrwt>0</asrwt>
<pdfrwt beam="1">  1        1 0.34581980E-02 0.91261163E+02</pdfrwt>
<pdfrwt beam="2">  1       -1 0.14250675E-01 0.91261163E+02</pdfrwt>
<totfact> 0.82320884E+04</totfact>
</mgrwt>
</event>
<event>
 7    1  0.2911475E-009  0.1081101E+03  0.7818608E-02  0.1264110E+00
          1   -1    0    0  501    0  0.00000000000E+00  0.00000000000E+00  0.23246767577E+02  0.23246768123E+02  0.50400000000E-02 0. -1.
         -1   -1    0    0    0  501 -0.00000000000E+00 -0.00000000000E+00 -0.12569268462E+03  0.12569268472E+03  0.50400000000E-02 0.  1.
         23    2    1    2    0    0 -0.71054273576E-14  0.88817841970E-15 -0.10244591704E+03  0.14893945284E+03  0.10811010450E+03 0.  0.
    9000005    2    3    3    0    0  0.46677320183E+02 -0.76375527744E+01 -0.16494534782E+02  0.50833670423E+02  0.86537817858E+01 0.  0.
         22    1    3    3    0    0 -0.46677320183E+02  0.76375527744E+01 -0.85951382260E+02  0.98105782420E+02  0.00000000000E+00 0.  1.
         22    1    4    4    0    0  0.24751126023E+02  0.25881113090E+00 -0.76605753354E+01  0.25910801553E+02  0.00000000000E+00 0. -1.
         22    1    4    4    0    0  0.21926194159E+02 -0.78963639053E+01 -0.88339594470E+01  0.24922868871E+02  0.00000000000E+00 0. -1.
<mgrwt>
<rscale>  0 0.10811010E+03</rscale>
<asrwt>0</asrwt>
<pdfrwt beam="1">  1        1 0.35764259E-02 0.10811010E+03</pdfrwt>
<pdfrwt beam="2">  1       -1 0.19337336E-01 0.10811010E+03</pdfrwt>
<totfact> 0.49976444E+04</totfact>
</mgrwt>
</event>
<event>
 7    1  0.2967805E-009  0.9033295E+02  0.7818608E-02  0.1302047E+00
          1   -1    0    0  501    0  0.00000000000E+00  0.00000000000E+00  0.21243832609E+02  0.21243833206E+02  0.50400000000E-02 0. -1.
         -1   -1    0    0    0  501 -0.00000000000E+00 -0.00000000000E+00 -0.96028357087E+02  0.96028357219E+02  0.50400000000E-02 0.  1.
         23    2    1    2    0    0  0.17763568394E-14 -0.35527136788E-14 -0.74784524478E+02  0.11727219043E+03  0.90332948284E+02 0.  0.
    9000005    2    3    3    0    0 -0.15496391961E+02  0.25981693517E+02 -0.79932344206E+02  0.86585277746E+02  0.13879629329E+02 0.  0.
         22    1    3    3    0    0  0.15496391961E+02 -0.25981693517E+02  0.51478197278E+01  0.30686912679E+02  0.00000000000E+00 0. -1.
         22    1    4    4    0    0 -0.88461221717E+01  0.31167507703E+01 -0.25590351042E+02  0.27254982651E+02  0.00000000000E+00 0.  1.
         22    1    4    4    0    0 -0.66502697891E+01  0.22864942747E+02 -0.54341993164E+02  0.59330295095E+02  0.00000000000E+00 0.  1.
<mgrwt>
<rscale>  0 0.90332948E+02</rscale>
<asrwt>0</asrwt>
<pdfrwt beam="1">  1        1 0.32682820E-02 0.90332948E+02</pdfrwt>
<pdfrwt beam="2">  1       -1 0.14773593E-01 0.90332948E+02</pdfrwt>
<totfact> 0.83963419E+04</totfact>
</mgrwt>
</event>
<event>
 7    1  0.2911475E-009  0.9312059E+02  0.7818608E-02  0.1295466E+00
         -1   -1    0    0    0  501 -0.00000000000E+00  0.00000000000E+00  0.26695544518E+03  0.26695544522E+03  0.50400000000E-02 0.  1.
          1   -1    0    0  501    0  0.00000000000E+00 -0.00000000000E+00 -0.81206842579E+01  0.81206858219E+01  0.50400000000E-02 0. -1.
         23    2    1    2    0    0 -0.71054273576E-14  0.83266726847E-16  0.25883476092E+03  0.27507613105E+03  0.93120590695E+02 0.  0.
    9000005    2    3    3    0    0 -0.46334257333E+02 -0.21391725335E+00  0.12162104340E+03  0.13025032727E+03  0.51536777010E+01 0.  0.
         22    1    3    3    0    0  0.46334257333E+02  0.21391725335E+00  0.13721371752E+03  0.14482580378E+03  0.00000000000E+00 0. -1.
         22    1    4    4    0    0 -0.31956561177E+02  0.13033487144E+01  0.78286905929E+02  0.84568080031E+02  0.00000000000E+00 0.  1.
         22    1    4    4    0    0 -0.14377696156E+02 -0.15172659678E+01  0.43334137468E+02  0.45682247239E+02  0.00000000000E+00 0.  1.
<mgrwt>
<rscale>  0 0.93120591E+02</rscale>
<asrwt>0</asrwt>
<pdfrwt beam="2">  1        1 0.12493362E-02 0.93120591E+02</pdfrwt>
<pdfrwt beam="1">  1       -1 0.41070068E-01 0.93120591E+02</pdfrwt>
<totfact> 0.59901812E+04</totfact>
</mgrwt>
</event>
<event>
 7    1  0.2911475E-009  0.9070402E+02  0.7818608E-02  0.1301156E+00
         -1   -1    0    0    0  501 -0.00000000000E+00  0.00000000000E+00  0.20773442652E+02  0.20773443263E+02  0.50400000000E-02 0.  1.
          1   -1    0    0  501    0  0.00000000000E+00 -0.00000000000E+00 -0.99011271596E+02  0.99011271725E+02  0.50400000000E-02 0. -1.
         23    2    1    2    0    0  0.00000000000E+00  0.00000000000E+00 -0.78237828945E+02  0.11978471499E+03  0.90704024534E+02 0.  0.
    9000005    2    3    3    0    0 -0.91507625338E+01  0.42936487860E+02 -0.25089200251E+02  0.50849563020E+02  0.53788144968E+01 0.  0.
         22    1    3    3    0    0  0.91507625338E+01 -0.42936487860E+02 -0.53148628694E+02  0.68935151967E+02  0.00000000000E+00 0. -1.
         22    1    4    4    0    0 -0.65176894946E+01  0.20333029781E+02 -0.14023167013E+02  0.25545285073E+02  0.00000000000E+00 0. -1.
         22    1    4    4    0    0 -0.26330730391E+01  0.22603458080E+02 -0.11066033238E+02  0.25304277947E+02  0.00000000000E+00 0. -1.
<mgrwt>
<rscale>  0 0.90704025E+02</rscale>
<asrwt>0</asrwt>
<pdfrwt beam="2">  1        1 0.15232503E-01 0.90704025E+02</pdfrwt>
<pdfrwt beam="1">  1       -1 0.31959144E-02 0.90704025E+02</pdfrwt>
<totfact> 0.10576738E+05</totfact>
</mgrwt>
</event>
<event>
 7    1  0.2911475E-009  0.9117240E+02  0.7818608E-02  0.1300037E+00
          1   -1    0    0  501    0  0.00000000000E+00  0.00000000000E+00  0.56162160269E+01  0.56162182883E+01  0.50400000000E-02 0.  1.
         -1   -1    0    0    0  501 -0.00000000000E+00 -0.00000000000E+00 -0.37001805137E+03  0.37001805140E+03  0.50400000000E-02 0. -1.
         23    2    1    2    0    0  0.71054273576E-14  0.00000000000E+00 -0.36440183534E+03  0.37563426969E+03  0.91172402437E+02 0.  0.
    9000005    2    3    3    0    0 -0.43129574448E+02  0.54977666413E+01 -0.13508365663E+03  0.14223072919E+03  0.95708101905E+01 0.  0.
         22    1    3    3    0    0  0.43129574448E+02 -0.54977666413E+01 -0.22931817871E+03  0.23340354050E+03  0.00000000000E+00 0.  1.
         22    1    4    4    0    0 -0.32297757994E+02  0.13256846396E+01 -0.10874667075E+03  0.11344928827E+03  0.00000000000E+00 0.  1.
         22    1    4    4    0    0 -0.10831816454E+02  0.41720820016E+01 -0.26336985886E+02  0.28781440921E+02  0.00000000000E+00 0.  1.
<mgrwt>
<rscale>  0 0.91172402E+02</rscale>
<asrwt>0</asrwt>
<pdfrwt beam="1">  1        1 0.86403370E-03 0.91172402E+02</pdfrwt>
<pdfrwt beam="2">  1       -1 0.56925835E-01 0.91172402E+02</pdfrwt>
<totfact> 0.55362835E+04</totfact>
</mgrwt>
</event>
<event>
 7    1  0.2911475E-009  0.8516801E+02  0.7818608E-02  0.1314994E+00
         -1   -1    0    0    0  501 -0.00000000000E+00  0.00000000000E+00  0.10619217619E+03  0.10619217631E+03  0.50400000000E-02 0.  1.
          1   -1    0    0  501    0  0.00000000000E+00 -0.00000000000E+00 -0.17076563060E+02  0.17076563803E+02  0.50400000000E-02 0. -1.
         23    2    1    2    0    0  0.00000000000E+00  0.00000000000E+00  0.89115613126E+02  0.12326874011E+03  0.85168009165E+02 0.  0.
    9000005    2    3    3    0    0  0.16240711781E+02  0.21735059459E+02  0.90833025848E+02  0.96081922801E+02  0.15650040749E+02 0.  0.
         22    1    3    3    0    0 -0.16240711781E+02 -0.21735059459E+02 -0.17174127225E+01  0.27186817308E+02  0.00000000000E+00 0. -1.
         22    1    4    4    0    0 -0.26979430835E+01  0.26543459321E+01  0.19217113565E+02  0.19586268225E+02  0.00000000000E+00 0.  1.
         22    1    4    4    0    0  0.18938654865E+02  0.19080713527E+02  0.71615912284E+02  0.76495654576E+02  0.00000000000E+00 0.  1.
<mgrwt>
<rscale>  0 0.85168009E+02</rscale>
<asrwt>0</asrwt>
<pdfrwt beam="2">  1        1 0.26271636E-02 0.85168009E+02</pdfrwt>
<pdfrwt beam="1">  1       -1 0.16337258E-01 0.85168009E+02</pdfrwt>
<totfact> 0.95880815E+04</totfact>
</mgrwt>
</event>
<event>
 7    1  0.2911475E-009  0.9251353E+02  0.7818608E-02  0.1296877E+00
          1   -1    0    0  501    0  0.00000000000E+00  0.00000000000E+00  0.96159684864E+02  0.96159684996E+02  0.50400000000E-02 0. -1.
         -1   -1    0    0    0  501 -0.00000000000E+00 -0.00000000000E+00 -0.22251404804E+02  0.22251405375E+02  0.50400000000E-02 0.  1.
         23    2    1    2    0    0 -0.17763568394E-14  0.00000000000E+00  0.73908280060E+02  0.11841109037E+03  0.92513525830E+02 0.  0.
    9000005    2    3    3    0    0  0.10005806488E+02 -0.36746117885E+02  0.68986294252E+02  0.80010318408E+02  0.13861778890E+02 0.  0.
         22    1    3    3    0    0 -0.10005806488E+02  0.36746117885E+02  0.49219858077E+01  0.38400771963E+02  0.00000000000E+00 0.  1.
         22    1    4    4    0    0 -0.31058450128E+01 -0.54219292648E+01  0.74238772096E+01  0.97034809744E+01  0.00000000000E+00 0. -1.
         22    1    4    4    0    0  0.13111651500E+02 -0.31324188620E+02  0.61562417043E+02  0.70306837434E+02  0.00000000000E+00 0. -1.
<mgrwt>
<rscale>  0 0.92513526E+02</rscale>
<asrwt>0</asrwt>
<pdfrwt beam="1">  1        1 0.14793798E-01 0.92513526E+02</pdfrwt>
<pdfrwt beam="2">  1       -1 0.34232930E-02 0.92513526E+02</pdfrwt>
<totfact> 0.99728377E+04</totfact>
</mgrwt>
</event>
<event>
 7    1  0.2911475E-009  0.7903243E+02  0.7818608E-02  0.1331820E+00
          1   -1    0    0  501    0  0.00000000000E+00  0.00000000000E+00  0.39813864634E+02  0.39813864953E+02  0.50400000000E-02 0. -1.
         -1   -1    0    0    0  501 -0.00000000000E+00 -0.00000000000E+00 -0.39220788117E+02  0.39220788441E+02  0.50400000000E-02 0.  1.
         23    2    1    2    0    0  0.35527136788E-14 -0.22204460493E-15  0.59307651694E+00  0.79034653394E+02  0.79032428137E+02 0.  0.
    9000005    2    3    3    0    0  0.21010366247E+02 -0.14711347469E+01 -0.32230153126E+02  0.40035113249E+02  0.10973959864E+02 0.  0.
         22    1    3    3    0    0 -0.21010366247E+02  0.14711347469E+01  0.32823229643E+02  0.38999540144E+02  0.00000000000E+00 0. -1.
         22    1    4    4    0    0  0.19680957545E+02 -0.37742758551E+01 -0.31399079187E+02  0.37248992227E+02  0.00000000000E+00 0. -1.
         22    1    4    4    0    0  0.13294087017E+01  0.23031411082E+01 -0.83107393884E+00  0.27861210225E+01  0.00000000000E+00 0. -1.
<mgrwt>
<rscale>  0 0.79032428E+02</rscale>
<asrwt>0</asrwt>
<pdfrwt beam="1">  1        1 0.61252100E-02 0.79032428E+02</pdfrwt>
<pdfrwt beam="2">  1       -1 0.60339674E-02 0.79032428E+02</pdfrwt>
<totfact> 0.13500093E+05</totfact>
</mgrwt>
</event>
<event>
 7    1  0.2911475E-009  0.1080093E+03  0.7818608E-02  0.1264301E+00
         -1   -1    0    0    0  501 -0.00000000000E+00  0.00000000000E+00  0.84642673223E+01  0.84642688228E+01  0.50400000000E-02 0.  1.
          1   -1    0    0  501    0  0.00000000000E+00 -0.00000000000E+00 -0.34456607591E+03  0.34456607595E+03  0.50400000000E-02 0. -1.
         23    2    1    2    0    0  0.00000000000E+00  0.00000000000E+00 -0.33610180859E+03  0.35303034477E+03  0.10800925235E+03 0.  0.
    9000005    2    3    3    0    0  0.28729674095E+02 -0.48496905646E+01 -0.31591731775E+03  0.31758563652E+03  0.14421206656E+02 0.  0.
         22    1    3    3    0    0 -0.28729674095E+02  0.48496905646E+01 -0.20184490842E+02  0.35444708247E+02  0.00000000000E+00 0.  1.
         22    1    4    4    0    0  0.28620252084E+02 -0.58753836878E+01 -0.25638611390E+03  0.25804549669E+03  0.00000000000E+00 0. -1.
         22    1    4    4    0    0  0.10942201096E+00  0.10256931232E+01 -0.59531203845E+02  0.59540139828E+02  0.00000000000E+00 0. -1.
<mgrwt>
<rscale>  0 0.10800925E+03</rscale>
<asrwt>0</asrwt>
<pdfrwt beam="2">  1        1 0.53010155E-01 0.10800925E+03</pdfrwt>
<pdfrwt beam="1">  1       -1 0.13021954E-02 0.10800925E+03</pdfrwt>
<totfact> 0.83438588E+04</totfact>
</mgrwt>
</event>
<event>
 7    1  0.2911475E-009  0.9084964E+02  0.7818608E-02  0.1300807E+00
          1   -1    0    0  501    0  0.00000000000E+00  0.00000000000E+00  0.36126389763E+02  0.36126390114E+02  0.50400000000E-02 0. -1.
         -1   -1    0    0    0  501 -0.00000000000E+00 -0.00000000000E+00 -0.57116537187E+02  0.57116537410E+02  0.50400000000E-02 0.  1.
         23    2    1    2    0    0  0.00000000000E+00  0.00000000000E+00 -0.20990147425E+02  0.93242927524E+02  0.90849640860E+02 0.  0.
    9000005    2    3    3    0    0 -0.31026926718E+02 -0.32118261910E+02 -0.11691936067E+02  0.47628130976E+02  0.11725381084E+02 0.  0.
         22    1    3    3    0    0  0.31026926718E+02  0.32118261910E+02 -0.92982113582E+01  0.45614796548E+02  0.00000000000E+00 0.  1.
         22    1    4    4    0    0 -0.20168746112E+02 -0.28072044862E+02 -0.93152344355E+01  0.35799324227E+02  0.00000000000E+00 0.  1.
         22    1    4    4    0    0 -0.10858180606E+02 -0.40462170477E+01 -0.23767016311E+01  0.11828806749E+02  0.00000000000E+00 0.  1.
<mgrwt>
<rscale>  0 0.90849641E+02</rscale>
<asrwt>0</asrwt>
<pdfrwt beam="1">  1        1 0.55579061E-02 0.90849641E+02</pdfrwt>
<pdfrwt beam="2">  1       -1 0.87871597E-02 0.90849641E+02</pdfrwt>
<totfact> 0.90176521E+04</totfact>
</mgrwt>
</event>
<event>
 7    1  0.2911475E-009  0.9076640E+02  0.7818608E-02  0.1301006E+00
         -1   -1    0    0    0  501 -0.00000000000E+00  0.00000000000E+00  0.54953798358E+01  0.54953821470E+01  0.50400000000E-02 0.  1.
          1   -1    0    0  501    0  0.00000000000E+00 -0.00000000000E+00 -0.37479378906E+03  0.37479378909E+03  0.50400000000E-02 0. -1.
         23    2    1    2    0    0  0.00000000000E+00  0.00000000000E+00 -0.36929840922E+03  0.38028917124E+03  0.90766396356E+02 0.  0.
    9000005    2    3    3    0    0  0.39942994979E+02  0.12722351293E+02 -0.25149168463E+03  0.25524627688E+03  0.12053769249E+02 0.  0.
         22    1    3    3    0    0 -0.39942994979E+02 -0.12722351293E+02 -0.11780672459E+03  0.12504289436E+03  0.00000000000E+00 0.  1.
         22    1    4    4    0    0  0.11942285643E+02 -0.17316206496E+01 -0.64831226940E+02  0.65944709288E+02  0.00000000000E+00 0. -1.
         22    1    4    4    0    0  0.28000709335E+02  0.14453971943E+02 -0.18666045769E+03  0.18930156759E+03  0.00000000000E+00 0. -1.
<mgrwt>
<rscale>  0 0.90766396E+02</rscale>
<asrwt>0</asrwt>
<pdfrwt beam="2">  1        1 0.57660563E-01 0.90766396E+02</pdfrwt>
<pdfrwt beam="1">  1       -1 0.84544353E-03 0.90766396E+02</pdfrwt>
<totfact> 0.13503004E+05</totfact>
</mgrwt>
</event>
<event>
 7    1  0.2911475E-009  0.8988286E+02  0.7818608E-02  0.1303136E+00
         -1   -1    0    0    0  501 -0.00000000000E+00  0.00000000000E+00  0.84066116706E+01  0.84066131814E+01  0.50400000000E-02 0.  1.
          1   -1    0    0  501    0  0.00000000000E+00 -0.00000000000E+00 -0.24025516807E+03  0.24025516813E+03  0.50400000000E-02 0. -1.
         23    2    1    2    0    0  0.00000000000E+00  0.00000000000E+00 -0.23184855640E+03  0.24866178131E+03  0.89882859195E+02 0.  0.
    9000005    2    3    3    0    0 -0.74095307814E+01 -0.10404784289E+02 -0.23473780275E+03  0.23556565872E+03  0.15039376411E+02 0.  0.
         22    1    3    3    0    0  0.74095307814E+01  0.10404784289E+02  0.28892463486E+01  0.13096122592E+02  0.00000000000E+00 0.  1.
         22    1    4    4    0    0  0.35106552518E+01 -0.21509214105E+01 -0.21609347268E+02  0.21998069291E+02  0.00000000000E+00 0. -1.
         22    1    4    4    0    0 -0.10920186033E+02 -0.82538628781E+01 -0.21312845548E+03  0.21356758942E+03  0.00000000000E+00 0. -1.
<mgrwt>
<rscale>  0 0.89882859E+02</rscale>
<asrwt>0</asrwt>
<pdfrwt beam="2">  1        1 0.36962328E-01 0.89882859E+02</pdfrwt>
<pdfrwt beam="1">  1       -1 0.12933252E-02 0.89882859E+02</pdfrwt>
<totfact> 0.12748842E+05</totfact>
</mgrwt>
</event>
<event>
 7    1  0.2911475E-009  0.8975530E+02  0.7818608E-02  0.1303445E+00
          1   -1    0    0  501    0  0.00000000000E+00  0.00000000000E+00  0.96905981484E+02  0.96905981615E+02  0.50400000000E-02 0. -1.
         -1   -1    0    0    0  501 -0.00000000000E+00 -0.00000000000E+00 -0.20783065733E+02  0.20783066344E+02  0.50400000000E-02 0.  1.
         23    2    1    2    0    0  0.00000000000E+00  0.00000000000E+00  0.76122915751E+02  0.11768904796E+03  0.89755299048E+02 0.  0.
    9000005    2    3    3    0    0 -0.14695897442E+02  0.28584557556E+02 -0.71404342667E+00  0.34400605617E+02  0.12241138692E+02 0.  0.
         22    1    3    3    0    0  0.14695897442E+02 -0.28584557556E+02  0.76836959178E+02  0.83288442343E+02  0.00000000000E+00 0. -1.
         22    1    4    4    0    0  0.60758549604E+00  0.10954663334E+02 -0.12969131673E+01  0.11047886344E+02  0.00000000000E+00 0. -1.
         22    1    4    4    0    0 -0.15303482938E+02  0.17629894222E+02  0.58286974063E+00  0.23352719273E+02  0.00000000000E+00 0. -1.
<mgrwt>
<rscale>  0 0.89755299E+02</rscale>
<asrwt>0</asrwt>
<pdfrwt beam="1">  1        1 0.14908612E-01 0.89755299E+02</pdfrwt>
<pdfrwt beam="2">  1       -1 0.31973948E-02 0.89755299E+02</pdfrwt>
<totfact> 0.10845322E+05</totfact>
</mgrwt>
</event>
<event>
 7    1  0.2911475E-009  0.8065316E+02  0.7818608E-02  0.1327208E+00
          1   -1    0    0  501    0  0.00000000000E+00  0.00000000000E+00  0.29698048823E+01  0.29698091590E+01  0.50400000000E-02 0. -1.
         -1   -1    0    0    0  501 -0.00000000000E+00 -0.00000000000E+00 -0.54758877852E+03  0.54758877854E+03  0.50400000000E-02 0.  1.
         23    2    1    2    0    0  0.00000000000E+00  0.00000000000E+00 -0.54461897364E+03  0.55055858770E+03  0.80653158936E+02 0.  0.
    9000005    2    3    3    0    0  0.10237368374E+02  0.11792301867E+02 -0.52596561931E+03  0.52623144808E+03  0.59868320226E+01 0.  0.
         22    1    3    3    0    0 -0.10237368374E+02 -0.11792301867E+02 -0.18653354331E+02  0.24327139625E+02  0.00000000000E+00 0. -1.
         22    1    4    4    0    0  0.79004845476E+01  0.72176005384E+01 -0.42554214447E+03  0.42567667088E+03  0.00000000000E+00 0.  1.
         22    1    4    4    0    0  0.23368838269E+01  0.45747013287E+01 -0.10042347484E+03  0.10055477720E+03  0.00000000000E+00 0.  1.
<mgrwt>
<rscale>  0 0.80653159E+02</rscale>
<asrwt>0</asrwt>
<pdfrwt beam="1">  1        1 0.45689383E-03 0.80653159E+02</pdfrwt>
<pdfrwt beam="2">  1       -1 0.84244347E-01 0.80653159E+02</pdfrwt>
<totfact> 0.61113322E+04</totfact>
</mgrwt>
</event>
<event>
 7    1  0.2911475E-009  0.9057881E+02  0.7818608E-02  0.1301456E+00
         -1   -1    0    0    0  501 -0.00000000000E+00  0.00000000000E+00  0.44337405074E+01  0.44337433720E+01  0.50400000000E-02 0.  1.
          1   -1    0    0  501    0  0.00000000000E+00 -0.00000000000E+00 -0.46261830972E+03  0.46261830974E+03  0.50400000000E-02 0. -1.
         23    2    1    2    0    0  0.00000000000E+00  0.00000000000E+00 -0.45818456921E+03  0.46705205312E+03  0.90578810207E+02 0.  0.
    9000005    2    3    3    0    0 -0.81308847832E+01 -0.43674266234E+02 -0.24662630892E+03  0.25087978312E+03  0.11940540549E+02 0.  0.
         22    1    3    3    0    0  0.81308847832E+01  0.43674266234E+02 -0.21155826029E+03  0.21617226999E+03  0.00000000000E+00 0. -1.
         22    1    4    4    0    0 -0.32196154253E+01 -0.36961432515E+02 -0.18397421738E+03  0.18767798507E+03  0.00000000000E+00 0.  1.
         22    1    4    4    0    0 -0.49112693579E+01 -0.67128337193E+01 -0.62652091541E+02  0.63201798057E+02  0.00000000000E+00 0.  1.
<mgrwt>
<rscale>  0 0.90578810E+02</rscale>
<asrwt>0</asrwt>
<pdfrwt beam="2">  1        1 0.71172010E-01 0.90578810E+02</pdfrwt>
<pdfrwt beam="1">  1       -1 0.68211451E-03 0.90578810E+02</pdfrwt>
<totfact> 0.14031562E+05</totfact>
</mgrwt>
</event>
<event>
 7    1  0.4052887E-009  0.8677323E+02  0.7818608E-02  0.1310859E+00
         -1   -1    0    0    0  501 -0.00000000000E+00  0.00000000000E+00  0.34409898140E+01  0.34409935051E+01  0.50400000000E-02 0.  1.
          1   -1    0    0  501    0  0.00000000000E+00 -0.00000000000E+00 -0.54705107841E+03  0.54705107843E+03  0.50400000000E-02 0. -1.
         23    2    1    2    0    0  0.00000000000E+00  0.00000000000E+00 -0.54361008859E+03  0.55049207193E+03  0.86773226536E+02 0.  0.
    9000005    2    3    3    0    0  0.16947912697E+01 -0.28963482221E+02 -0.47347652814E+03  0.47459429910E+03  0.14763821211E+02 0.  0.
         22    1    3    3    0    0 -0.16947912697E+01  0.28963482221E+02 -0.70133560449E+02  0.75897772834E+02  0.00000000000E+00 0.  1.
         22    1    4    4    0    0 -0.14964374276E+01 -0.11856215470E+02 -0.99826642841E+02  0.10053938428E+03  0.00000000000E+00 0. -1.
         22    1    4    4    0    0  0.31912286973E+01 -0.17107266752E+02 -0.37364988530E+03  0.37405491482E+03  0.00000000000E+00 0. -1.
<mgrwt>
<rscale>  0 0.86773227E+02</rscale>
<asrwt>0</asrwt>
<pdfrwt beam="2">  1        1 0.84161635E-01 0.86773227E+02</pdfrwt>
<pdfrwt beam="1">  1       -1 0.52938377E-03 0.86773227E+02</pdfrwt>
<totfact> 0.16022863E+05</totfact>
</mgrwt>
</event>
<event>
 7    1  0.2911475E-009  0.9108504E+02  0.7818608E-02  0.1300245E+00
          1   -1    0    0  501    0  0.00000000000E+00  0.00000000000E+00  0.11547904547E+04  0.11547904547E+04  0.50400000000E-02 0. -1.
         -1   -1    0    0    0  501 -0.00000000000E+00 -0.00000000000E+00 -0.17960981806E+01  0.17961052520E+01  0.50400000000E-02 0.  1.
         23    2    1    2    0    0  0.22204460493E-15  0.00000000000E+00  0.11529943565E+04  0.11565865599E+04  0.91085040052E+02 0.  0.
    9000005    2    3    3    0    0 -0.18742454014E+01 -0.31901402169E+02  0.98521511872E+03  0.98579111244E+03  0.10680588243E+02 0.  0.
         22    1    3    3    0    0  0.18742454014E+01  0.31901402169E+02  0.16777923778E+03  0.17079544749E+03  0.00000000000E+00 0.  1.
         22    1    4    4    0    0 -0.13272410540E+01 -0.88399752300E+01  0.15656916240E+03  0.15682413509E+03  0.00000000000E+00 0.  1.
         22    1    4    4    0    0 -0.54700434745E+00 -0.23061426939E+02  0.82864595632E+03  0.82896697736E+03  0.00000000000E+00 0.  1.
<mgrwt>
<rscale>  0 0.91085040E+02</rscale>
<asrwt>0</asrwt>
<pdfrwt beam="1">  1        1 0.17766004E+00 0.91085040E+02</pdfrwt>
<pdfrwt beam="2">  1       -1 0.27632339E-03 0.91085040E+02</pdfrwt>
<totfact> 0.12984630E+05</totfact>
</mgrwt>
</event>
<event>
 7    1  0.2911475E-009  0.9789331E+02  0.7818608E-02  0.1284789E+00
          1   -1    0    0  501    0  0.00000000000E+00  0.00000000000E+00  0.19666782519E+03  0.19666782526E+03  0.50400000000E-02 0.  1.
         -1   -1    0    0    0  501 -0.00000000000E+00 -0.00000000000E+00 -0.12181834473E+02  0.12181835515E+02  0.50400000000E-02 0. -1.
         23    2    1    2    0    0  0.00000000000E+00 -0.71054273576E-14  0.18448599072E+03  0.20884966077E+03  0.97893309439E+02 0.  0.
    9000005    2    3    3    0    0  0.11027880826E+02  0.46555237540E+02  0.78045750623E+02  0.92151207442E+02  0.10568895151E+02 0.  0.
         22    1    3    3    0    0 -0.11027880826E+02 -0.46555237540E+02  0.10644024010E+03  0.11669845333E+03  0.00000000000E+00 0.  1.
         22    1    4    4    0    0 -0.14395365908E+01  0.12320567273E+02  0.16720034562E+02  0.20818938476E+02  0.00000000000E+00 0. -1.
         22    1    4    4    0    0  0.12467417417E+02  0.34234670267E+02  0.61325716061E+02  0.71332268965E+02  0.00000000000E+00 0. -1.
<mgrwt>
<rscale>  0 0.97893309E+02</rscale>
<asrwt>0</asrwt>
<pdfrwt beam="1">  1        1 0.30256588E-01 0.97893309E+02</pdfrwt>
<pdfrwt beam="2">  1       -1 0.18741285E-02 0.97893309E+02</pdfrwt>
<totfact> 0.97447828E+04</totfact>
</mgrwt>
</event>
<event>
 7    1  0.2911475E-009  0.9214990E+02  0.7818608E-02  0.1297727E+00
          1   -1    0    0  501    0  0.00000000000E+00  0.00000000000E+00  0.38162181355E+02  0.38162181688E+02  0.50400000000E-02 0. -1.
         -1   -1    0    0    0  501 -0.00000000000E+00 -0.00000000000E+00 -0.55628401964E+02  0.55628402193E+02  0.50400000000E-02 0.  1.
         23    2    1    2    0    0  0.71054273576E-14 -0.17763568394E-14 -0.17466220609E+02  0.93790583881E+02  0.92149903756E+02 0.  0.
    9000005    2    3    3    0    0 -0.38705464138E+02  0.90536439496E+01 -0.31008246403E+02  0.51796919055E+02  0.11888147702E+02 0.  0.
         22    1    3    3    0    0  0.38705464138E+02 -0.90536439496E+01  0.13542025794E+02  0.41993664825E+02  0.00000000000E+00 0.  1.
         22    1    4    4    0    0 -0.36473549910E+00 -0.37911282180E+00  0.89265859842E+00  0.10361456892E+01  0.00000000000E+00 0.  1.
         22    1    4    4    0    0 -0.38340728638E+02  0.94327567714E+01 -0.31900905001E+02  0.50760773366E+02  0.00000000000E+00 0.  1.
<mgrwt>
<rscale>  0 0.92149904E+02</rscale>
<asrwt>0</asrwt>
<pdfrwt beam="1">  1        1 0.58711049E-02 0.92149904E+02</pdfrwt>
<pdfrwt beam="2">  1       -1 0.85582157E-02 0.92149904E+02</pdfrwt>
<totfact> 0.87345275E+04</totfact>
</mgrwt>
</event>
<event>
 7    1  0.2911475E-009  0.9025324E+02  0.7818608E-02  0.1302240E+00
          1   -1    0    0  501    0  0.00000000000E+00  0.00000000000E+00  0.30739163588E+02  0.30739164001E+02  0.50400000000E-02 0. -1.
         -1   -1    0    0    0  501 -0.00000000000E+00 -0.00000000000E+00 -0.66248113891E+02  0.66248114083E+02  0.50400000000E-02 0.  1.
         23    2    1    2    0    0  0.00000000000E+00  0.00000000000E+00 -0.35508950303E+02  0.96987278084E+02  0.90253235723E+02 0.  0.
    9000005    2    3    3    0    0  0.15290307003E+02  0.11410237437E+02  0.25968884231E+02  0.32617167429E+02  0.50507084908E+01 0.  0.
         22    1    3    3    0    0 -0.15290307003E+02 -0.11410237437E+02 -0.61477834535E+02  0.64370110655E+02  0.00000000000E+00 0.  1.
         22    1    4    4    0    0  0.11807499619E+01 -0.19157919420E+00  0.55302210231E+00  0.13178416088E+01  0.00000000000E+00 0.  1.
         22    1    4    4    0    0  0.14109557041E+02  0.11601816631E+02  0.25415862129E+02  0.31299325820E+02  0.00000000000E+00 0.  1.
<mgrwt>
<rscale>  0 0.90253236E+02</rscale>
<asrwt>0</asrwt>
<pdfrwt beam="1">  1        1 0.47291022E-02 0.90253236E+02</pdfrwt>
<pdfrwt beam="2">  1       -1 0.10192017E-01 0.90253236E+02</pdfrwt>
<totfact> 0.89597497E+04</totfact>
</mgrwt>
</event>
<event>
 7    1  0.2911475E-009  0.9273293E+02  0.7818608E-02  0.1296365E+00
         -1   -1    0    0    0  501 -0.00000000000E+00  0.00000000000E+00  0.30999170253E+03  0.30999170257E+03  0.50400000000E-02 0.  1.
          1   -1    0    0  501    0  0.00000000000E+00 -0.00000000000E+00 -0.69351823067E+01  0.69351841380E+01  0.50400000000E-02 0. -1.
         23    2    1    2    0    0  0.00000000000E+00  0.00000000000E+00  0.30305652023E+03  0.31692688671E+03  0.92732934113E+02 0.  0.
    9000005    2    3    3    0    0 -0.29625389453E+02 -0.45618135056E+01  0.27084433196E+03  0.27292576268E+03  0.15275664971E+02 0.  0.
         22    1    3    3    0    0  0.29625389453E+02  0.45618135056E+01  0.32212188268E+02  0.44001124028E+02  0.00000000000E+00 0. -1.
         22    1    4    4    0    0 -0.20115486954E+02  0.28783416577E+01  0.13168824075E+03  0.13324680265E+03  0.00000000000E+00 0. -1.
         22    1    4    4    0    0 -0.95099024983E+01 -0.74401551633E+01  0.13915609121E+03  0.13967896003E+03  0.00000000000E+00 0. -1.
<mgrwt>
<rscale>  0 0.92732934E+02</rscale>
<asrwt>0</asrwt>
<pdfrwt beam="2">  1        1 0.10669515E-02 0.92732934E+02</pdfrwt>
<pdfrwt beam="1">  1       -1 0.47691020E-01 0.92732934E+02</pdfrwt>
<totfact> 0.57206820E+04</totfact>
</mgrwt>
</event>
<event>
 7    1  0.2911475E-009  0.7807831E+02  0.7818608E-02  0.1334595E+00
         -1   -1    0    0    0  501 -0.00000000000E+00  0.00000000000E+00  0.33051979392E+01  0.33052017819E+01  0.50400000000E-02 0.  1.
          1   -1    0    0  501    0  0.00000000000E+00 -0.00000000000E+00 -0.46110842482E+03  0.46110842485E+03  0.50400000000E-02 0. -1.
         23    2    1    2    0    0  0.00000000000E+00  0.00000000000E+00 -0.45780322688E+03  0.46441362663E+03  0.78078307209E+02 0.  0.
    9000005    2    3    3    0    0 -0.34164546227E+02 -0.71665872049E+01 -0.33222366922E+03  0.33407252991E+03  0.36486519727E+01 0.  0.
         22    1    3    3    0    0  0.34164546227E+02  0.71665872049E+01 -0.12557955766E+03  0.13034109672E+03  0.00000000000E+00 0.  1.
         22    1    4    4    0    0 -0.14559553799E+02 -0.23494933857E+01 -0.12463496886E+03  0.12550448673E+03  0.00000000000E+00 0. -1.
         22    1    4    4    0    0 -0.19604992428E+02 -0.48170938192E+01 -0.20758870036E+03  0.20856804318E+03  0.00000000000E+00 0. -1.
<mgrwt>
<rscale>  0 0.78078307E+02</rscale>
<asrwt>0</asrwt>
<pdfrwt beam="2">  1        1 0.70939707E-01 0.78078307E+02</pdfrwt>
<pdfrwt beam="1">  1       -1 0.50849266E-03 0.78078307E+02</pdfrwt>
<totfact> 0.20727022E+05</totfact>
</mgrwt>
</event>
<event>
 7    1  0.2911475E-009  0.9124461E+02  0.7818608E-02  0.1299865E+00
          1   -1    0    0  501    0  0.00000000000E+00  0.00000000000E+00  0.14728288704E+03  0.14728288713E+03  0.50400000000E-02 0. -1.
         -1   -1    0    0    0  501 -0.00000000000E+00 -0.00000000000E+00 -0.14131950719E+02  0.14131951618E+02  0.50400000000E-02 0.  1.
         23    2    1    2    0    0  0.35527136788E-14 -0.35527136788E-14  0.13315093632E+03  0.16141483875E+03  0.91244607094E+02 0.  0.
    9000005    2    3    3    0    0  0.17583407112E+02 -0.23179567630E+02  0.12859958852E+03  0.13196686211E+03  0.55614716197E+01 0.  0.
         22    1    3    3    0    0 -0.17583407112E+02  0.23179567630E+02  0.45513478045E+01  0.29447976637E+02  0.00000000000E+00 0.  1.
         22    1    4    4    0    0  0.12217858434E+02 -0.15777048587E+02  0.75855918607E+02  0.78436673275E+02  0.00000000000E+00 0.  1.
         22    1    4    4    0    0  0.53655486779E+01 -0.74025190425E+01  0.52743669912E+02  0.53530188834E+02  0.00000000000E+00 0.  1.
<mgrwt>
<rscale>  0 0.91244607E+02</rscale>
<asrwt>0</asrwt>
<pdfrwt beam="1">  1        1 0.22658905E-01 0.91244607E+02</pdfrwt>
<pdfrwt beam="2">  1       -1 0.21741464E-02 0.91244607E+02</pdfrwt>
<totfact> 0.11153315E+05</totfact>
</mgrwt>
</event>
<event>
 7    1  0.2911475E-009  0.9270104E+02  0.7818608E-02  0.1296439E+00
         -1   -1    0    0    0  501 -0.00000000000E+00  0.00000000000E+00  0.23479076100E+01  0.23479130194E+01  0.50400000000E-02 0.  1.
          1   -1    0    0  501    0  0.00000000000E+00 -0.00000000000E+00 -0.91501390018E+03  0.91501390020E+03  0.50400000000E-02 0. -1.
         23    2    1    2    0    0  0.00000000000E+00  0.00000000000E+00 -0.91266599257E+03  0.91736181322E+03  0.92701037471E+02 0.  0.
    9000005    2    3    3    0    0  0.17845718665E+02  0.17240427655E+02 -0.84367445478E+03  0.84404377786E+03  0.27588563203E+01 0.  0.
         22    1    3    3    0    0 -0.17845718665E+02 -0.17240427655E+02 -0.68991537798E+02  0.73318035353E+02  0.00000000000E+00 0.  1.
         22    1    4    4    0    0  0.15774523130E+02  0.15320851616E+02 -0.77351827052E+03  0.77383078183E+03  0.00000000000E+00 0. -1.
         22    1    4    4    0    0  0.20711955343E+01  0.19195760396E+01 -0.70156184253E+02  0.70212996034E+02  0.00000000000E+00 0. -1.
<mgrwt>
<rscale>  0 0.92701037E+02</rscale>
<asrwt>0</asrwt>
<pdfrwt beam="2">  1        1 0.14077108E+00 0.92701037E+02</pdfrwt>
<pdfrwt beam="1">  1       -1 0.36121770E-03 0.92701037E+02</pdfrwt>
<totfact> 0.13280843E+05</totfact>
</mgrwt>
</event>
<event>
 7    1  0.2911475E-009  0.9090670E+02  0.7818608E-02  0.1300671E+00
         -1   -1    0    0    0  501 -0.00000000000E+00  0.00000000000E+00  0.16642827411E+02  0.16642828174E+02  0.50400000000E-02 0.  1.
          1   -1    0    0  501    0  0.00000000000E+00 -0.00000000000E+00 -0.12413797087E+03  0.12413797097E+03  0.50400000000E-02 0. -1.
         23    2    1    2    0    0  0.00000000000E+00  0.00000000000E+00 -0.10749514346E+03  0.14078079915E+03  0.90906696898E+02 0.  0.
    9000005    2    3    3    0    0 -0.73878345390E+01  0.15760417681E+02 -0.11837598256E+03  0.12025365799E+03  0.12045669193E+02 0.  0.
         22    1    3    3    0    0  0.73878345390E+01 -0.15760417681E+02  0.10880839104E+02  0.20527141161E+02  0.00000000000E+00 0.  1.
         22    1    4    4    0    0 -0.92617709521E+01  0.15368676794E+02 -0.11483339367E+03  0.11622686836E+03  0.00000000000E+00 0. -1.
         22    1    4    4    0    0  0.18739364131E+01  0.39174088752E+00 -0.35425888987E+01  0.40267896280E+01  0.00000000000E+00 0. -1.
<mgrwt>
<rscale>  0 0.90906697E+02</rscale>
<asrwt>0</asrwt>
<pdfrwt beam="2">  1        1 0.19098149E-01 0.90906697E+02</pdfrwt>
<pdfrwt beam="1">  1       -1 0.25604351E-02 0.90906697E+02</pdfrwt>
<totfact> 0.10925404E+05</totfact>
</mgrwt>
</event>
<event>
 7    1  0.2911475E-009  0.9173809E+02  0.7818608E-02  0.1298696E+00
         -1   -1    0    0    0  501 -0.00000000000E+00  0.00000000000E+00  0.10415615905E+03  0.10415615917E+03  0.50400000000E-02 0.  1.
          1   -1    0    0  501    0  0.00000000000E+00 -0.00000000000E+00 -0.20200142569E+02  0.20200143198E+02  0.50400000000E-02 0. -1.
         23    2    1    2    0    0  0.00000000000E+00  0.00000000000E+00  0.83956016482E+02  0.12435630237E+03  0.91738090431E+02 0.  0.
    9000005    2    3    3    0    0 -0.19993638622E+02  0.38671774314E+02  0.57000270671E+02  0.73152162439E+02  0.14385975774E+02 0.  0.
         22    1    3    3    0    0  0.19993638622E+02 -0.38671774314E+02  0.26955745811E+02  0.51204139932E+02  0.00000000000E+00 0. -1.
         22    1    4    4    0    0 -0.12687153498E+02  0.31535921228E+02  0.34450754010E+02  0.48397651218E+02  0.00000000000E+00 0. -1.
         22    1    4    4    0    0 -0.73064851245E+01  0.71358530860E+01  0.22549516661E+02  0.24754511221E+02  0.00000000000E+00 0. -1.
<mgrwt>
<rscale>  0 0.91738090E+02</rscale>
<asrwt>0</asrwt>
<pdfrwt beam="2">  1        1 0.31077143E-02 0.91738090E+02</pdfrwt>
<pdfrwt beam="1">  1       -1 0.16024025E-01 0.91738090E+02</pdfrwt>
<totfact> 0.79481960E+04</totfact>
</mgrwt>
</event>
<event>
 7    1  0.2911475E-009  0.9301513E+02  0.7818608E-02  0.1295710E+00
         -1   -1    0    0    0  501 -0.00000000000E+00  0.00000000000E+00  0.77554844252E+02  0.77554844415E+02  0.50400000000E-02 0.  1.
          1   -1    0    0  501    0  0.00000000000E+00 -0.00000000000E+00 -0.27889343133E+02  0.27889343589E+02  0.50400000000E-02 0. -1.
         23    2    1    2    0    0  0.00000000000E+00  0.88817841970E-15  0.49665501119E+02  0.10544418800E+03  0.93015132008E+02 0.  0.
    9000005    2    3    3    0    0  0.41753807558E+02 -0.60714937120E+01  0.37864348821E+01  0.43113359354E+02  0.80113160103E+01 0.  0.
         22    1    3    3    0    0 -0.41753807558E+02  0.60714937120E+01  0.45879066236E+02  0.62330828650E+02  0.00000000000E+00 0.  1.
         22    1    4    4    0    0  0.22835404070E+02 -0.12435462740E+01 -0.13983394248E+01  0.22911949710E+02  0.00000000000E+00 0.  1.
         22    1    4    4    0    0  0.18918403488E+02 -0.48279474380E+01  0.51847743069E+01  0.20201409644E+02  0.00000000000E+00 0.  1.
<mgrwt>
<rscale>  0 0.93015132E+02</rscale>
<asrwt>0</asrwt>
<pdfrwt beam="2">  1        1 0.42906683E-02 0.93015132E+02</pdfrwt>
<pdfrwt beam="1">  1       -1 0.11931514E-01 0.93015132E+02</pdfrwt>
<totfact> 0.80853560E+04</totfact>
</mgrwt>
</event>
<event>
 7    1  0.2911475E-009  0.9045985E+02  0.7818608E-02  0.1301742E+00
         -1   -1    0    0    0  501 -0.00000000000E+00  0.00000000000E+00  0.54710126923E+02  0.54710127155E+02  0.50400000000E-02 0.  1.
          1   -1    0    0  501    0  0.00000000000E+00 -0.00000000000E+00 -0.37392458820E+02  0.37392459160E+02  0.50400000000E-02 0. -1.
         23    2    1    2    0    0  0.00000000000E+00  0.00000000000E+00  0.17317668103E+02  0.92102586315E+02  0.90459851743E+02 0.  0.
    9000005    2    3    3    0    0 -0.16968813413E+02  0.22363774621E+02  0.44515558557E+02  0.53015449185E+02  0.63971755238E+01 0.  0.
         22    1    3    3    0    0  0.16968813413E+02 -0.22363774621E+02 -0.27197890454E+02  0.39087137131E+02  0.00000000000E+00 0. -1.
         22    1    4    4    0    0 -0.16961476641E+02  0.20562112583E+02  0.39208911580E+02  0.47411295184E+02  0.00000000000E+00 0.  1.
         22    1    4    4    0    0 -0.73367718591E-02  0.18016620377E+01  0.53066469771E+01  0.56041540009E+01  0.00000000000E+00 0.  1.
<mgrwt>
<rscale>  0 0.90459852E+02</rscale>
<asrwt>0</asrwt>
<pdfrwt beam="2">  1        1 0.57526861E-02 0.90459852E+02</pdfrwt>
<pdfrwt beam="1">  1       -1 0.84169426E-02 0.90459852E+02</pdfrwt>
<totfact> 0.91763436E+04</totfact>
</mgrwt>
</event>
<event>
 7    1  0.2911475E-009  0.9149418E+02  0.7818608E-02  0.1299273E+00
         -1   -1    0    0    0  501 -0.00000000000E+00  0.00000000000E+00  0.11043906877E+02  0.11043908027E+02  0.50400000000E-02 0.  1.
          1   -1    0    0  501    0  0.00000000000E+00 -0.00000000000E+00 -0.18949779096E+03  0.18949779102E+03  0.50400000000E-02 0. -1.
         23    2    1    2    0    0 -0.35527136788E-14  0.71054273576E-14 -0.17845388408E+03  0.20054169905E+03  0.91494176399E+02 0.  0.
    9000005    2    3    3    0    0 -0.17590478906E+02  0.40690805663E+02 -0.88824075339E+02  0.10054835313E+03  0.15971485326E+02 0.  0.
         22    1    3    3    0    0  0.17590478906E+02 -0.40690805663E+02 -0.89629808742E+02  0.99993345922E+02  0.00000000000E+00 0.  1.
         22    1    4    4    0    0 -0.40973439019E+01  0.17619196341E+02 -0.51928875041E+02  0.54989384155E+02  0.00000000000E+00 0. -1.
         22    1    4    4    0    0 -0.13493135004E+02  0.23071609322E+02 -0.36895200298E+02  0.45558968974E+02  0.00000000000E+00 0. -1.
<mgrwt>
<rscale>  0 0.91494176E+02</rscale>
<asrwt>0</asrwt>
<pdfrwt beam="2">  1        1 0.29153504E-01 0.91494176E+02</pdfrwt>
<pdfrwt beam="1">  1       -1 0.16990628E-02 0.91494176E+02</pdfrwt>
<totfact> 0.11608854E+05</totfact>
</mgrwt>
</event>
<event>
 7    1  0.2911475E-009  0.8806897E+02  0.7818608E-02  0.1307596E+00
         -1   -1    0    0    0  501 -0.00000000000E+00  0.00000000000E+00  0.89010104130E+01  0.89010118399E+01  0.50400000000E-02 0.  1.
          1   -1    0    0  501    0  0.00000000000E+00 -0.00000000000E+00 -0.21784445610E+03  0.21784445616E+03  0.50400000000E-02 0. -1.
         23    2    1    2    0    0  0.00000000000E+00  0.00000000000E+00 -0.20894344568E+03  0.22674546800E+03  0.88068971619E+02 0.  0.
    9000005    2    3    3    0    0 -0.32519414219E+02 -0.19186466266E+02 -0.47556664854E+02  0.61000706945E+02  0.58152460679E+01 0.  0.
         22    1    3    3    0    0  0.32519414219E+02  0.19186466266E+02 -0.16138678083E+03  0.16574476105E+03  0.00000000000E+00 0. -1.
         22    1    4    4    0    0 -0.11066988590E+02 -0.62264075334E+01 -0.20543891046E+02  0.24151559919E+02  0.00000000000E+00 0. -1.
         22    1    4    4    0    0 -0.21452425629E+02 -0.12960058733E+02 -0.27012773807E+02  0.36849147025E+02  0.00000000000E+00 0. -1.
<mgrwt>
<rscale>  0 0.88068972E+02</rscale>
<asrwt>0</asrwt>
<pdfrwt beam="2">  1        1 0.33514528E-01 0.88068972E+02</pdfrwt>
<pdfrwt beam="1">  1       -1 0.13693865E-02 0.88068972E+02</pdfrwt>
<totfact> 0.13207689E+05</totfact>
</mgrwt>
</event>
<event>
 7    1  0.3174810E-009  0.1060440E+03  0.7818608E-02  0.1268076E+00
         -1   -1    0    0    0  501 -0.00000000000E+00  0.00000000000E+00  0.55125159077E+01  0.55125182117E+01  0.50400000000E-02 0.  1.
          1   -1    0    0  501    0  0.00000000000E+00 -0.00000000000E+00 -0.50999047960E+03  0.50999047962E+03  0.50400000000E-02 0. -1.
         23    2    1    2    0    0  0.00000000000E+00  0.00000000000E+00 -0.50447796369E+03  0.51550299783E+03  0.10604397638E+03 0.  0.
    9000005    2    3    3    0    0  0.49862854308E+02 -0.14048427191E+02 -0.28851174969E+03  0.29341052129E+03  0.12924463261E+02 0.  0.
         22    1    3    3    0    0 -0.49862854308E+02  0.14048427191E+02 -0.21596621400E+03  0.22209247654E+03  0.00000000000E+00 0.  1.
         22    1    4    4    0    0  0.23697635486E+02 -0.13975795763E+01 -0.10838695910E+03  0.11095613575E+03  0.00000000000E+00 0.  1.
         22    1    4    4    0    0  0.26165218822E+02 -0.12650847615E+02 -0.18012479058E+03  0.18245438554E+03  0.00000000000E+00 0.  1.
<mgrwt>
<rscale>  0 0.10604398E+03</rscale>
<asrwt>0</asrwt>
<pdfrwt beam="2">  1        1 0.78460037E-01 0.10604398E+03</pdfrwt>
<pdfrwt beam="1">  1       -1 0.84807995E-03 0.10604398E+03</pdfrwt>
<totfact> 0.93261529E+04</totfact>
</mgrwt>
</event>
<event>
 7    1  0.2911475E-009  0.9130738E+02  0.7818608E-02  0.1299716E+00
          1   -1    0    0  501    0  0.00000000000E+00  0.00000000000E+00  0.54561481417E+01  0.54561504695E+01  0.50400000000E-02 0. -1.
         -1   -1    0    0    0  501 -0.00000000000E+00 -0.00000000000E+00 -0.38200193487E+03  0.38200193490E+03  0.50400000000E-02 0.  1.
         23    2    1    2    0    0  0.00000000000E+00  0.00000000000E+00 -0.37654578673E+03  0.38745808537E+03  0.91307384246E+02 0.  0.
    9000005    2    3    3    0    0 -0.35805161278E+02 -0.24579543749E+02 -0.23360434330E+03  0.23806457883E+03  0.14750964181E+02 0.  0.
         22    1    3    3    0    0  0.35805161278E+02  0.24579543749E+02 -0.14294144343E+03  0.14939350654E+03  0.00000000000E+00 0. -1.
         22    1    4    4    0    0 -0.20854570803E+01  0.19850524513E+01 -0.11965023661E+02  0.12306557426E+02  0.00000000000E+00 0. -1.
         22    1    4    4    0    0 -0.33719704198E+02 -0.26564596200E+02 -0.22163931963E+03  0.22575802141E+03  0.00000000000E+00 0. -1.
<mgrwt>
<rscale>  0 0.91307384E+02</rscale>
<asrwt>0</asrwt>
<pdfrwt beam="1">  1        1 0.83940789E-03 0.91307384E+02</pdfrwt>
<pdfrwt beam="2">  1       -1 0.58769507E-01 0.91307384E+02</pdfrwt>
<totfact> 0.54314390E+04</totfact>
</mgrwt>
</event>
<event>
 7    1  0.2911475E-009  0.9100254E+02  0.7818608E-02  0.1300442E+00
         -1   -1    0    0    0  501 -0.00000000000E+00  0.00000000000E+00  0.39874588224E+01  0.39874620076E+01  0.50400000000E-02 0.  1.
          1   -1    0    0  501    0  0.00000000000E+00 -0.00000000000E+00 -0.51921906766E+03  0.51921906769E+03  0.50400000000E-02 0. -1.
         23    2    1    2    0    0  0.00000000000E+00 -0.17763568394E-14 -0.51523160884E+03  0.52320652969E+03  0.91002538245E+02 0.  0.
    9000005    2    3    3    0    0  0.38089098503E+02  0.12963892342E+02 -0.37509657533E+03  0.37740985777E+03  0.11041647658E+02 0.  0.
         22    1    3    3    0    0 -0.38089098503E+02 -0.12963892342E+02 -0.14013503351E+03  0.14579667193E+03  0.00000000000E+00 0.  1.
         22    1    4    4    0    0  0.16258191907E+02  0.41625303452E+01 -0.11034147764E+03  0.11161047061E+03  0.00000000000E+00 0. -1.
         22    1    4    4    0    0  0.21830906595E+02  0.88013619965E+01 -0.26475509770E+03  0.26579938715E+03  0.00000000000E+00 0. -1.
<mgrwt>
<rscale>  0 0.91002538E+02</rscale>
<asrwt>0</asrwt>
<pdfrwt beam="2">  1        1 0.79879803E-01 0.91002538E+02</pdfrwt>
<pdfrwt beam="1">  1       -1 0.61345586E-03 0.91002538E+02</pdfrwt>
<totfact> 0.14057041E+05</totfact>
</mgrwt>
</event>
<event>
 7    1  0.2911475E-009  0.8552656E+02  0.7818608E-02  0.1314061E+00
          1   -1    0    0  501    0  0.00000000000E+00  0.00000000000E+00  0.24246003492E+02  0.24246004016E+02  0.50400000000E-02 0. -1.
         -1   -1    0    0    0  501 -0.00000000000E+00 -0.00000000000E+00 -0.75422653627E+02  0.75422653795E+02  0.50400000000E-02 0.  1.
         23    2    1    2    0    0  0.00000000000E+00  0.88817841970E-15 -0.51176650135E+02  0.99668657811E+02  0.85526556290E+02 0.  0.
    9000005    2    3    3    0    0  0.29570378522E+02 -0.65032150709E+01 -0.60665748169E+02  0.67939458740E+02  0.43287366271E+01 0.  0.
         22    1    3    3    0    0 -0.29570378522E+02  0.65032150709E+01  0.94890980342E+01  0.31729199071E+02  0.00000000000E+00 0. -1.
         22    1    4    4    0    0  0.62363675951E+01 -0.28624175413E+01 -0.16145968428E+02  0.17543603149E+02  0.00000000000E+00 0.  1.
         22    1    4    4    0    0  0.23334010927E+02 -0.36407975297E+01 -0.44519779741E+02  0.50395855591E+02  0.00000000000E+00 0.  1.
<mgrwt>
<rscale>  0 0.85526556E+02</rscale>
<asrwt>0</asrwt>
<pdfrwt beam="1">  1        1 0.37301545E-02 0.85526556E+02</pdfrwt>
<pdfrwt beam="2">  1       -1 0.11603485E-01 0.85526556E+02</pdfrwt>
<totfact> 0.10064675E+05</totfact>
</mgrwt>
</event>
<event>
 7    1  0.2911475E-009  0.9221269E+02  0.7818608E-02  0.1297580E+00
         -1   -1    0    0    0  501 -0.00000000000E+00  0.00000000000E+00  0.25576318785E+01  0.25576368444E+01  0.50400000000E-02 0.  1.
          1   -1    0    0  501    0  0.00000000000E+00 -0.00000000000E+00 -0.83115665318E+03  0.83115665320E+03  0.50400000000E-02 0. -1.
         23    2    1    2    0    0  0.00000000000E+00  0.11102230246E-15 -0.82859902130E+03  0.83371429004E+03  0.92212685215E+02 0.  0.
    9000005    2    3    3    0    0 -0.21000388004E+02  0.71339612756E+00 -0.78477884679E+03  0.78511662626E+03  0.94208935960E+01 0.  0.
         22    1    3    3    0    0  0.21000388004E+02 -0.71339612756E+00 -0.43820174518E+02  0.48597663783E+02  0.00000000000E+00 0.  1.
         22    1    4    4    0    0 -0.20289414086E+02  0.30006053403E+01 -0.72439003804E+03  0.72468033723E+03  0.00000000000E+00 0. -1.
         22    1    4    4    0    0 -0.71097391799E+00 -0.22872092128E+01 -0.60388808747E+02  0.60436289030E+02  0.00000000000E+00 0. -1.
<mgrwt>
<rscale>  0 0.92212685E+02</rscale>
<asrwt>0</asrwt>
<pdfrwt beam="2">  1        1 0.12787004E+00 0.92212685E+02</pdfrwt>
<pdfrwt beam="1">  1       -1 0.39348287E-03 0.92212685E+02</pdfrwt>
<totfact> 0.13661583E+05</totfact>
</mgrwt>
</event>
<event>
 7    1  0.2911475E-009  0.8996046E+02  0.7818608E-02  0.1302947E+00
         -1   -1    0    0    0  501 -0.00000000000E+00  0.00000000000E+00  0.18003202683E+02  0.18003203388E+02  0.50400000000E-02 0.  1.
          1   -1    0    0  501    0  0.00000000000E+00 -0.00000000000E+00 -0.11238117466E+03  0.11238117477E+03  0.50400000000E-02 0. -1.
         23    2    1    2    0    0  0.00000000000E+00 -0.17763568394E-14 -0.94377971974E+02  0.13038437816E+03  0.89960460613E+02 0.  0.
    9000005    2    3    3    0    0  0.34723170229E+02  0.91092075139E+01 -0.85524060902E+02  0.93410496112E+02  0.11067049219E+02 0.  0.
         22    1    3    3    0    0 -0.34723170229E+02 -0.91092075139E+01 -0.88539110724E+01  0.36973882046E+02  0.00000000000E+00 0.  1.
         22    1    4    4    0    0  0.31397702247E+01 -0.23805764989E+01 -0.81501777259E+01  0.90526625086E+01  0.00000000000E+00 0.  1.
         22    1    4    4    0    0  0.31583400004E+02  0.11489784013E+02 -0.77373883176E+02  0.84357833603E+02  0.00000000000E+00 0.  1.
<mgrwt>
<rscale>  0 0.89960461E+02</rscale>
<asrwt>0</asrwt>
<pdfrwt beam="2">  1        1 0.17289411E-01 0.89960461E+02</pdfrwt>
<pdfrwt beam="1">  1       -1 0.27697236E-02 0.89960461E+02</pdfrwt>
<totfact> 0.11048040E+05</totfact>
</mgrwt>
</event>
<event>
 7    1  0.2911475E-009  0.9152648E+02  0.7818608E-02  0.1299197E+00
          1   -1    0    0  501    0  0.00000000000E+00  0.00000000000E+00  0.89814269790E+02  0.89814269932E+02  0.50400000000E-02 0. -1.
         -1   -1    0    0    0  501 -0.00000000000E+00 -0.00000000000E+00 -0.23317833426E+02  0.23317833971E+02  0.50400000000E-02 0.  1.
         23    2    1    2    0    0  0.00000000000E+00 -0.88817841970E-15  0.66496436364E+02  0.11313210390E+03  0.91526481874E+02 0.  0.
    9000005    2    3    3    0    0 -0.21666794682E+02 -0.63052490478E+01 -0.14641498721E+02  0.28914702688E+02  0.10605677226E+02 0.  0.
         22    1    3    3    0    0  0.21666794682E+02  0.63052490478E+01  0.81137935085E+02  0.84217401214E+02  0.00000000000E+00 0. -1.
         22    1    4    4    0    0 -0.13317543627E+02 -0.93049721150E+00 -0.31294537920E+01  0.13711902653E+02  0.00000000000E+00 0.  1.
         22    1    4    4    0    0 -0.83492510545E+01 -0.53747518363E+01 -0.11512044929E+02  0.15202800035E+02  0.00000000000E+00 0.  1.
<mgrwt>
<rscale>  0 0.91526482E+02</rscale>
<asrwt>0</asrwt>
<pdfrwt beam="1">  1        1 0.13817580E-01 0.91526482E+02</pdfrwt>
<pdfrwt beam="2">  1       -1 0.35873590E-02 0.91526482E+02</pdfrwt>
<totfact> 0.10155611E+05</totfact>
</mgrwt>
</event>
<event>
 7    1  0.2911475E-009  0.8815187E+02  0.7818608E-02  0.1307390E+00
         -1   -1    0    0    0  501 -0.00000000000E+00  0.00000000000E+00  0.43708530175E+01  0.43708559233E+01  0.50400000000E-02 0.  1.
          1   -1    0    0  501    0  0.00000000000E+00 -0.00000000000E+00 -0.44446411785E+03  0.44446411788E+03  0.50400000000E-02 0. -1.
         23    2    1    2    0    0  0.00000000000E+00  0.00000000000E+00 -0.44009326484E+03  0.44883497381E+03  0.88151868709E+02 0.  0.
    9000005    2    3    3    0    0 -0.78421955162E+01 -0.15295996425E+02 -0.42660035430E+03  0.42698260158E+03  0.55508762509E+01 0.  0.
         22    1    3    3    0    0  0.78421955162E+01  0.15295996425E+02 -0.13492910539E+02  0.21852372227E+02  0.00000000000E+00 0.  1.
         22    1    4    4    0    0 -0.33667380817E+01 -0.43231525386E+01 -0.84779513885E+02  0.84956403807E+02  0.00000000000E+00 0.  1.
         22    1    4    4    0    0 -0.44754574345E+01 -0.10972843886E+02 -0.34182084041E+03  0.34202619777E+03  0.00000000000E+00 0.  1.
<mgrwt>
<rscale>  0 0.88151869E+02</rscale>
<asrwt>0</asrwt>
<pdfrwt beam="2">  1        1 0.68379060E-01 0.88151869E+02</pdfrwt>
<pdfrwt beam="1">  1       -1 0.67243950E-03 0.88151869E+02</pdfrwt>
<totfact> 0.14992285E+05</totfact>
</mgrwt>
</event>
<event>
 7    1  0.2911475E-009  0.9004548E+02  0.7818608E-02  0.1302742E+00
          1   -1    0    0  501    0  0.00000000000E+00  0.00000000000E+00  0.11251961649E+03  0.11251961660E+03  0.50400000000E-02 0. -1.
         -1   -1    0    0    0  501 -0.00000000000E+00 -0.00000000000E+00 -0.18015056685E+02  0.18015057390E+02  0.50400000000E-02 0.  1.
         23    2    1    2    0    0  0.00000000000E+00  0.00000000000E+00  0.94504559806E+02  0.13053467399E+03  0.90045484565E+02 0.  0.
    9000005    2    3    3    0    0 -0.15195607169E+02  0.26591579157E+02  0.18293228187E+01  0.32929765767E+02  0.11958448569E+02 0.  0.
         22    1    3    3    0    0  0.15195607169E+02 -0.26591579157E+02  0.92675236988E+02  0.97604908227E+02  0.00000000000E+00 0. -1.
         22    1    4    4    0    0 -0.17197195441E+02  0.22685652192E+02  0.11667562280E+01  0.28491115572E+02  0.00000000000E+00 0.  1.
         22    1    4    4    0    0  0.20015882724E+01  0.39059269646E+01  0.66256659073E+00  0.44386501949E+01  0.00000000000E+00 0.  1.
<mgrwt>
<rscale>  0 0.90045485E+02</rscale>
<asrwt>0</asrwt>
<pdfrwt beam="1">  1        1 0.17310710E-01 0.90045485E+02</pdfrwt>
<pdfrwt beam="2">  1       -1 0.27715473E-02 0.90045485E+02</pdfrwt>
<totfact> 0.11022100E+05</totfact>
</mgrwt>
</event>
<event>
 7    1  0.2911475E-009  0.8673395E+02  0.7818608E-02  0.1310959E+00
          1   -1    0    0  501    0  0.00000000000E+00  0.00000000000E+00  0.10553516827E+03  0.10553516839E+03  0.50400000000E-02 0. -1.
         -1   -1    0    0    0  501 -0.00000000000E+00 -0.00000000000E+00 -0.17820547374E+02  0.17820548087E+02  0.50400000000E-02 0.  1.
         23    2    1    2    0    0  0.00000000000E+00  0.00000000000E+00  0.87714620893E+02  0.12335571648E+03  0.86733949919E+02 0.  0.
    9000005    2    3    3    0    0 -0.16322931328E+02  0.47274112453E+01 -0.93750037170E+01  0.24790095130E+02  0.15423087162E+02 0.  0.
         22    1    3    3    0    0  0.16322931328E+02 -0.47274112453E+01  0.97089624610E+02  0.98565621345E+02  0.00000000000E+00 0. -1.
         22    1    4    4    0    0 -0.80979633108E+00 -0.36218523637E+01  0.15918259906E+01  0.40382539081E+01  0.00000000000E+00 0. -1.
         22    1    4    4    0    0 -0.15513134997E+02  0.83492636089E+01 -0.10966829708E+02  0.20751841222E+02  0.00000000000E+00 0. -1.
<mgrwt>
<rscale>  0 0.86733950E+02</rscale>
<asrwt>0</asrwt>
<pdfrwt beam="1">  1        1 0.16236180E-01 0.86733950E+02</pdfrwt>
<pdfrwt beam="2">  1       -1 0.27416227E-02 0.86733950E+02</pdfrwt>
<totfact> 0.12068269E+05</totfact>
</mgrwt>
</event>
<event>
 7    1  0.2911475E-009  0.8739539E+02  0.7818608E-02  0.1309285E+00
         -1   -1    0    0    0  501 -0.00000000000E+00  0.00000000000E+00  0.15207917002E+03  0.15207917011E+03  0.50400000000E-02 0.  1.
          1   -1    0    0  501    0  0.00000000000E+00 -0.00000000000E+00 -0.12555883589E+02  0.12555884600E+02  0.50400000000E-02 0. -1.
         23    2    1    2    0    0  0.00000000000E+00  0.00000000000E+00  0.13952328644E+03  0.16463505471E+03  0.87395387641E+02 0.  0.
    9000005    2    3    3    0    0 -0.20293360931E+02 -0.71996111832E+01  0.14061781427E+03  0.14307460735E+03  0.15274772641E+02 0.  0.
         22    1    3    3    0    0  0.20293360931E+02  0.71996111832E+01 -0.10945278348E+01  0.21560447357E+02  0.00000000000E+00 0. -1.
         22    1    4    4    0    0 -0.14872538143E+02 -0.10702830618E+02  0.77918290174E+02  0.80043756269E+02  0.00000000000E+00 0. -1.
         22    1    4    4    0    0 -0.54208227886E+01  0.35032194348E+01  0.62699524096E+02  0.63030851081E+02  0.00000000000E+00 0. -1.
<mgrwt>
<rscale>  0 0.87395388E+02</rscale>
<asrwt>0</asrwt>
<pdfrwt beam="2">  1        1 0.19316745E-02 0.87395388E+02</pdfrwt>
<pdfrwt beam="1">  1       -1 0.23396795E-01 0.87395388E+02</pdfrwt>
<totfact> 0.83194637E+04</totfact>
</mgrwt>
</event>
<event>
 7    1  0.2911475E-009  0.8487477E+02  0.7818608E-02  0.1315760E+00
         -1   -1    0    0    0  501 -0.00000000000E+00  0.00000000000E+00  0.16687352451E+03  0.16687352459E+03  0.50400000000E-02 0.  1.
          1   -1    0    0  501    0  0.00000000000E+00 -0.00000000000E+00 -0.10792194584E+02  0.10792195760E+02  0.50400000000E-02 0. -1.
         23    2    1    2    0    0  0.00000000000E+00  0.00000000000E+00  0.15608132993E+03  0.17766572035E+03  0.84874770308E+02 0.  0.
    9000005    2    3    3    0    0 -0.17955931369E+02 -0.36914343407E+02  0.71362995817E+02  0.83526035013E+02  0.14100962112E+02 0.  0.
         22    1    3    3    0    0  0.17955931369E+02  0.36914343407E+02  0.84718334114E+02  0.94139685338E+02  0.00000000000E+00 0. -1.
         22    1    4    4    0    0 -0.16322478398E+02 -0.18604042973E+02  0.45497753248E+02  0.51793621872E+02  0.00000000000E+00 0. -1.
         22    1    4    4    0    0 -0.16334529711E+01 -0.18310300434E+02  0.25865242569E+02  0.31732413141E+02  0.00000000000E+00 0. -1.
<mgrwt>
<rscale>  0 0.84874770E+02</rscale>
<asrwt>0</asrwt>
<pdfrwt beam="2">  1        1 0.16603377E-02 0.84874770E+02</pdfrwt>
<pdfrwt beam="1">  1       -1 0.25672850E-01 0.84874770E+02</pdfrwt>
<totfact> 0.87750364E+04</totfact>
</mgrwt>
</event>
<event>
 7    1  0.2911475E-009  0.9133007E+02  0.7818608E-02  0.1299662E+00
         -1   -1    0    0    0  501 -0.00000000000E+00  0.00000000000E+00  0.11745842963E+01  0.11745951092E+01  0.50400000000E-02 0.  1.
          1   -1    0    0  501    0  0.00000000000E+00 -0.00000000000E+00 -0.17753394990E+04  0.17753394990E+04  0.50400000000E-02 0. -1.
         23    2    1    2    0    0  0.17763568394E-14  0.17763568394E-14 -0.17741649147E+04  0.17765140941E+04  0.91330071872E+02 0.  0.
    9000005    2    3    3    0    0  0.86141078677E+01  0.13629150121E+02 -0.17169479508E+04  0.17170688458E+04  0.12457885717E+02 0.  0.
         22    1    3    3    0    0 -0.86141078677E+01 -0.13629150121E+02 -0.57216963865E+02  0.59445248265E+02  0.00000000000E+00 0.  1.
         22    1    4    4    0    0  0.52661102119E+01  0.28277183120E+01 -0.11066069403E+04  0.11066230832E+04  0.00000000000E+00 0. -1.
         22    1    4    4    0    0  0.33479976558E+01  0.10801431809E+02 -0.61034101047E+03  0.61044576260E+03  0.00000000000E+00 0. -1.
<mgrwt>
<rscale>  0 0.91330072E+02</rscale>
<asrwt>0</asrwt>
<pdfrwt beam="2">  1        1 0.27312701E+00 0.91330072E+02</pdfrwt>
<pdfrwt beam="1">  1       -1 0.18070753E-03 0.91330072E+02</pdfrwt>
<totfact> 0.93095263E+04</totfact>
</mgrwt>
</event>
<event>
 7    1  0.2911475E-009  0.9488526E+02  0.7818608E-02  0.1291435E+00
         -1   -1    0    0    0  501 -0.00000000000E+00  0.00000000000E+00  0.11254397379E+02  0.11254398508E+02  0.50400000000E-02 0.  1.
          1   -1    0    0  501    0  0.00000000000E+00 -0.00000000000E+00 -0.19999320164E+03  0.19999320170E+03  0.50400000000E-02 0. -1.
         23    2    1    2    0    0  0.00000000000E+00 -0.35527136788E-14 -0.18873880426E+03  0.21124760021E+03  0.94885258924E+02 0.  0.
    9000005    2    3    3    0    0 -0.35433610625E+02 -0.31219566530E+02 -0.95111191361E+02  0.10638420339E+03  0.64232321959E+01 0.  0.
         22    1    3    3    0    0  0.35433610625E+02  0.31219566530E+02 -0.93627612897E+02  0.10486339682E+03  0.00000000000E+00 0. -1.
         22    1    4    4    0    0 -0.14545910313E+02 -0.88250492545E+01 -0.32416400537E+02  0.36609944345E+02  0.00000000000E+00 0.  1.
         22    1    4    4    0    0 -0.20887700313E+02 -0.22394517275E+02 -0.62694790824E+02  0.69774259042E+02  0.00000000000E+00 0.  1.
<mgrwt>
<rscale>  0 0.94885259E+02</rscale>
<asrwt>0</asrwt>
<pdfrwt beam="2">  1        1 0.30768182E-01 0.94885259E+02</pdfrwt>
<pdfrwt beam="1">  1       -1 0.17314460E-02 0.94885259E+02</pdfrwt>
<totfact> 0.10636586E+05</totfact>
</mgrwt>
</event>
<event>
 7    1  0.3358851E-009  0.9666366E+02  0.7818608E-02  0.1287472E+00
         -1   -1    0    0    0  501 -0.00000000000E+00  0.00000000000E+00  0.98135083222E+02  0.98135083351E+02  0.50400000000E-02 0.  1.
          1   -1    0    0  501    0  0.00000000000E+00 -0.00000000000E+00 -0.23803575602E+02  0.23803576136E+02  0.50400000000E-02 0. -1.
         23    2    1    2    0    0  0.00000000000E+00 -0.17763568394E-14  0.74331507620E+02  0.12193865949E+03  0.96663662524E+02 0.  0.
    9000005    2    3    3    0    0  0.32959342338E+02 -0.88723992935E+01 -0.27027426804E+01  0.37681235862E+02  0.15733181544E+02 0.  0.
         22    1    3    3    0    0 -0.32959342338E+02  0.88723992935E+01  0.77034250300E+02  0.84257423625E+02  0.00000000000E+00 0.  1.
         22    1    4    4    0    0  0.60453505001E+01 -0.27626658421E+01 -0.71097966632E+01  0.97328204451E+01  0.00000000000E+00 0.  1.
         22    1    4    4    0    0  0.26913991838E+02 -0.61097334514E+01  0.44070539829E+01  0.27948415417E+02  0.00000000000E+00 0.  1.
<mgrwt>
<rscale>  0 0.96663663E+02</rscale>
<asrwt>0</asrwt>
<pdfrwt beam="2">  1        1 0.36620886E-02 0.96663663E+02</pdfrwt>
<pdfrwt beam="1">  1       -1 0.15097705E-01 0.96663663E+02</pdfrwt>
<totfact> 0.70234041E+04</totfact>
</mgrwt>
</event>
<event>
 7    1  0.2911475E-009  0.8964283E+02  0.7818608E-02  0.1303719E+00
          1   -1    0    0  501    0  0.00000000000E+00  0.00000000000E+00  0.40065470851E+02  0.40065471168E+02  0.50400000000E-02 0. -1.
         -1   -1    0    0    0  501 -0.00000000000E+00 -0.00000000000E+00 -0.50141909014E+02  0.50141909268E+02  0.50400000000E-02 0.  1.
         23    2    1    2    0    0  0.00000000000E+00  0.35527136788E-14 -0.10076438163E+02  0.90207380436E+02  0.89642829491E+02 0.  0.
    9000005    2    3    3    0    0 -0.26462028177E+02 -0.21865685882E+02 -0.32376952832E+02  0.49272552858E+02  0.14183449374E+02 0.  0.
         22    1    3    3    0    0  0.26462028177E+02  0.21865685882E+02  0.22300514669E+02  0.40934827578E+02  0.00000000000E+00 0. -1.
         22    1    4    4    0    0 -0.17274983760E+02 -0.21921398171E+02 -0.23297241541E+02  0.36355662903E+02  0.00000000000E+00 0.  1.
         22    1    4    4    0    0 -0.91870444168E+01  0.55712289893E-01 -0.90797112916E+01  0.12916889955E+02  0.00000000000E+00 0.  1.
<mgrwt>
<rscale>  0 0.89642829E+02</rscale>
<asrwt>0</asrwt>
<pdfrwt beam="1">  1        1 0.61639187E-02 0.89642829E+02</pdfrwt>
<pdfrwt beam="2">  1       -1 0.77141399E-02 0.89642829E+02</pdfrwt>
<totfact> 0.95127997E+04</totfact>
</mgrwt>
</event>
<event>
 7    1  0.2911475E-009  0.8183212E+02  0.7818608E-02  0.1323931E+00
          1   -1    0    0  501    0  0.00000000000E+00  0.00000000000E+00  0.40781473350E+02  0.40781473661E+02  0.50400000000E-02 0. -1.
         -1   -1    0    0    0  501 -0.00000000000E+00 -0.00000000000E+00 -0.41051090969E+02  0.41051091278E+02  0.50400000000E-02 0.  1.
         23    2    1    2    0    0  0.00000000000E+00  0.00000000000E+00 -0.26961761892E+00  0.81832564939E+02  0.81832120777E+02 0.  0.
    9000005    2    3    3    0    0 -0.12258499301E+02  0.32624863782E+02 -0.18566737105E+02  0.42469674758E+02  0.15630003373E+02 0.  0.
         22    1    3    3    0    0  0.12258499301E+02 -0.32624863782E+02  0.18297119486E+02  0.39362890181E+02  0.00000000000E+00 0.  1.
         22    1    4    4    0    0 -0.13614245539E+02  0.22405156187E+02 -0.73349195071E+01  0.27223881970E+02  0.00000000000E+00 0.  1.
         22    1    4    4    0    0  0.13557462373E+01  0.10219707595E+02 -0.11231817598E+02  0.15245792788E+02  0.00000000000E+00 0.  1.
<mgrwt>
<rscale>  0 0.81832121E+02</rscale>
<asrwt>0</asrwt>
<pdfrwt beam="1">  1        1 0.62740729E-02 0.81832121E+02</pdfrwt>
<pdfrwt beam="2">  1       -1 0.63155525E-02 0.81832121E+02</pdfrwt>
<totfact> 0.12301291E+05</totfact>
</mgrwt>
</event>
<event>
 7    1  0.2911475E-009  0.9279413E+02  0.7818608E-02  0.1296223E+00
          1   -1    0    0  501    0  0.00000000000E+00  0.00000000000E+00  0.53844138436E+03  0.53844138438E+03  0.50400000000E-02 0. -1.
         -1   -1    0    0    0  501 -0.00000000000E+00 -0.00000000000E+00 -0.39979968774E+01  0.39980000542E+01  0.50400000000E-02 0.  1.
         23    2    1    2    0    0  0.71054273576E-14 -0.35527136788E-14  0.53444338748E+03  0.54243938443E+03  0.92794134325E+02 0.  0.
    9000005    2    3    3    0    0 -0.34424075629E+02  0.25576644277E+02  0.36865579073E+03  0.37119479634E+03  0.62692165686E+01 0.  0.
         22    1    3    3    0    0  0.34424075629E+02 -0.25576644277E+02  0.16578759674E+03  0.17124458809E+03  0.00000000000E+00 0.  1.
         22    1    4    4    0    0 -0.92757025313E+00  0.24718445770E+01  0.24364129713E+02  0.24506758636E+02  0.00000000000E+00 0.  1.
         22    1    4    4    0    0 -0.33496505376E+02  0.23104799700E+02  0.34429166102E+03  0.34668803771E+03  0.00000000000E+00 0.  1.
<mgrwt>
<rscale>  0 0.92794134E+02</rscale>
<asrwt>0</asrwt>
<pdfrwt beam="1">  1        1 0.82837113E-01 0.92794134E+02</pdfrwt>
<pdfrwt beam="2">  1       -1 0.61507686E-03 0.92794134E+02</pdfrwt>
<totfact> 0.13398637E+05</totfact>
</mgrwt>
</event>
<event>
 7    1  0.2911475E-009  0.9901954E+02  0.7818608E-02  0.1282371E+00
          1   -1    0    0  501    0  0.00000000000E+00  0.00000000000E+00  0.34977107224E+02  0.34977107587E+02  0.50400000000E-02 0. -1.
         -1   -1    0    0    0  501 -0.00000000000E+00 -0.00000000000E+00 -0.70080616741E+02  0.70080616922E+02  0.50400000000E-02 0.  1.
         23    2    1    2    0    0  0.71054273576E-14  0.44408920985E-15 -0.35103509517E+02  0.10505772451E+03  0.99019538974E+02 0.  0.
    9000005    2    3    3    0    0 -0.44363848248E+02 -0.37251922802E+01 -0.38214641271E+02  0.60429177259E+02  0.14467154793E+02 0.  0.
         22    1    3    3    0    0  0.44363848248E+02  0.37251922802E+01  0.31111317539E+01  0.44628547251E+02  0.00000000000E+00 0. -1.
         22    1    4    4    0    0 -0.24350095671E+02 -0.35610803012E+01 -0.29980580333E+02  0.38787158303E+02  0.00000000000E+00 0. -1.
         22    1    4    4    0    0 -0.20013752577E+02 -0.16411197902E+00 -0.82340609376E+01  0.21642018956E+02  0.00000000000E+00 0. -1.
<mgrwt>
<rscale>  0 0.99019539E+02</rscale>
<asrwt>0</asrwt>
<pdfrwt beam="1">  1        1 0.53810935E-02 0.99019539E+02</pdfrwt>
<pdfrwt beam="2">  1       -1 0.10781633E-01 0.99019539E+02</pdfrwt>
<totfact> 0.70091339E+04</totfact>
</mgrwt>
</event>
<event>
 7    1  0.2911475E-009  0.8828254E+02  0.7818608E-02  0.1307065E+00
         -1   -1    0    0    0  501 -0.00000000000E+00  0.00000000000E+00  0.33409583926E+02  0.33409584307E+02  0.50400000000E-02 0.  1.
          1   -1    0    0  501    0  0.00000000000E+00 -0.00000000000E+00 -0.58320145654E+02  0.58320145872E+02  0.50400000000E-02 0. -1.
         23    2    1    2    0    0  0.00000000000E+00  0.00000000000E+00 -0.24910561728E+02  0.91729730178E+02  0.88282542515E+02 0.  0.
    9000005    2    3    3    0    0  0.15226688549E+02  0.21802445047E+02  0.23659336047E+02  0.36356147812E+02  0.74031511795E+01 0.  0.
         22    1    3    3    0    0 -0.15226688549E+02 -0.21802445047E+02 -0.48569897775E+02  0.55373582366E+02  0.00000000000E+00 0. -1.
         22    1    4    4    0    0  0.72705981148E+01  0.94928222087E+01  0.15516337081E+02  0.19589078254E+02  0.00000000000E+00 0.  1.
         22    1    4    4    0    0  0.79560904339E+01  0.12309622839E+02  0.81429989660E+01  0.16767069558E+02  0.00000000000E+00 0.  1.
<mgrwt>
<rscale>  0 0.88282543E+02</rscale>
<asrwt>0</asrwt>
<pdfrwt beam="2">  1        1 0.89723301E-02 0.88282543E+02</pdfrwt>
<pdfrwt beam="1">  1       -1 0.51399361E-02 0.88282543E+02</pdfrwt>
<totfact> 0.10492032E+05</totfact>
</mgrwt>
</event>
<event>
 7    1  0.2911475E-009  0.8832743E+02  0.7818608E-02  0.1306953E+00
         -1   -1    0    0    0  501 -0.00000000000E+00  0.00000000000E+00  0.81046065295E+02  0.81046065452E+02  0.50400000000E-02 0.  1.
          1   -1    0    0  501    0  0.00000000000E+00 -0.00000000000E+00 -0.24065742355E+02  0.24065742882E+02  0.50400000000E-02 0. -1.
         23    2    1    2    0    0  0.00000000000E+00  0.00000000000E+00  0.56980322940E+02  0.10511180833E+03  0.88327430897E+02 0.  0.
    9000005    2    3    3    0    0 -0.38722245594E+02  0.16246894033E+02  0.42652824026E+02  0.60742324511E+02  0.10343728539E+02 0.  0.
         22    1    3    3    0    0  0.38722245594E+02 -0.16246894033E+02  0.14327498914E+02  0.44369483823E+02  0.00000000000E+00 0. -1.
         22    1    4    4    0    0 -0.10526255266E+02  0.18730987886E+01  0.16623718689E+02  0.19765084671E+02  0.00000000000E+00 0. -1.
         22    1    4    4    0    0 -0.28195990328E+02  0.14373795244E+02  0.26029105337E+02  0.40977239840E+02  0.00000000000E+00 0. -1.
<mgrwt>
<rscale>  0 0.88327431E+02</rscale>
<asrwt>0</asrwt>
<pdfrwt beam="2">  1        1 0.37024220E-02 0.88327431E+02</pdfrwt>
<pdfrwt beam="1">  1       -1 0.12468625E-01 0.88327431E+02</pdfrwt>
<totfact> 0.91609362E+04</totfact>
</mgrwt>
</event>
<event>
 7    1  0.2911475E-009  0.7928941E+02  0.7818608E-02  0.1331080E+00
          1   -1    0    0  501    0  0.00000000000E+00  0.00000000000E+00  0.36379200321E+02  0.36379200671E+02  0.50400000000E-02 0. -1.
         -1   -1    0    0    0  501 -0.00000000000E+00 -0.00000000000E+00 -0.43203328562E+02  0.43203328856E+02  0.50400000000E-02 0.  1.
         23    2    1    2    0    0  0.00000000000E+00  0.00000000000E+00 -0.68241282410E+01  0.79582529527E+02  0.79289408370E+02 0.  0.
    9000005    2    3    3    0    0 -0.77856272594E+01 -0.15870174451E+02 -0.38877249276E+02  0.42978144585E+02  0.48168425120E+01 0.  0.
         22    1    3    3    0    0  0.77856272594E+01  0.15870174451E+02  0.32053121035E+02  0.36604384942E+02  0.00000000000E+00 0. -1.
         22    1    4    4    0    0 -0.56604299019E+01 -0.62795580512E+01 -0.19476106741E+02  0.21231864020E+02  0.00000000000E+00 0.  1.
         22    1    4    4    0    0 -0.21251973575E+01 -0.95906164002E+01 -0.19401142535E+02  0.21746280565E+02  0.00000000000E+00 0.  1.
<mgrwt>
<rscale>  0 0.79289408E+02</rscale>
<asrwt>0</asrwt>
<pdfrwt beam="1">  1        1 0.55968001E-02 0.79289408E+02</pdfrwt>
<pdfrwt beam="2">  1       -1 0.66466660E-02 0.79289408E+02</pdfrwt>
<totfact> 0.13218594E+05</totfact>
</mgrwt>
</event>
<event>
 7    1  0.2911475E-009  0.9146995E+02  0.7818608E-02  0.1299331E+00
          1   -1    0    0  501    0  0.00000000000E+00  0.00000000000E+00  0.89021865758E+02  0.89021865901E+02  0.50400000000E-02 0. -1.
         -1   -1    0    0    0  501 -0.00000000000E+00 -0.00000000000E+00 -0.23496339051E+02  0.23496339591E+02  0.50400000000E-02 0.  1.
         23    2    1    2    0    0 -0.17763568394E-14 -0.35527136788E-14  0.65525526708E+02  0.11251820549E+03  0.91469950896E+02 0.  0.
    9000005    2    3    3    0    0  0.13228680240E+02  0.20217331423E+02  0.80039096083E+02  0.84333419405E+02  0.11051255858E+02 0.  0.
         22    1    3    3    0    0 -0.13228680240E+02 -0.20217331423E+02 -0.14513569375E+02  0.28184786087E+02  0.00000000000E+00 0.  1.
         22    1    4    4    0    0  0.10308265618E+02  0.76755593426E+01  0.50494886567E+02  0.52104780210E+02  0.00000000000E+00 0.  1.
         22    1    4    4    0    0  0.29204146214E+01  0.12541772080E+02  0.29544209516E+02  0.32228639196E+02  0.00000000000E+00 0.  1.
<mgrwt>
<rscale>  0 0.91469951E+02</rscale>
<asrwt>0</asrwt>
<pdfrwt beam="1">  1        1 0.13695672E-01 0.91469951E+02</pdfrwt>
<pdfrwt beam="2">  1       -1 0.36148214E-02 0.91469951E+02</pdfrwt>
<totfact> 0.10158198E+05</totfact>
</mgrwt>
</event>
<event>
 7    1  0.2911475E-009  0.1179107E+03  0.7818608E-02  0.1246584E+00
          1   -1    0    0  501    0  0.00000000000E+00  0.00000000000E+00  0.36445984256E+03  0.36445984259E+03  0.50400000000E-02 0. -1.
         -1   -1    0    0    0  501 -0.00000000000E+00 -0.00000000000E+00 -0.95366762568E+01  0.95366775886E+01  0.50400000000E-02 0.  1.
         23    2    1    2    0    0  0.00000000000E+00  0.00000000000E+00  0.35492316630E+03  0.37399652018E+03  0.11791074222E+03 0.  0.
    9000005    2    3    3    0    0 -0.17944842148E+02  0.20494088091E+02  0.34273160654E+03  0.34415260730E+03  0.15298300150E+02 0.  0.
         22    1    3    3    0    0  0.17944842148E+02 -0.20494088091E+02  0.12191559764E+02  0.29843912878E+02  0.00000000000E+00 0.  1.
         22    1    4    4    0    0 -0.16279328625E+02  0.10923568439E+02  0.27865782315E+03  0.27934660064E+03  0.00000000000E+00 0. -1.
         22    1    4    4    0    0 -0.16655135227E+01  0.95705196522E+01  0.64073783390E+02  0.64806006663E+02  0.00000000000E+00 0. -1.
<mgrwt>
<rscale>  0 0.11791074E+03</rscale>
<asrwt>0</asrwt>
<pdfrwt beam="1">  1        1 0.56070739E-01 0.11791074E+03</pdfrwt>
<pdfrwt beam="2">  1       -1 0.14671812E-02 0.11791074E+03</pdfrwt>
<totfact> 0.66421986E+04</totfact>
</mgrwt>
</event>
<event>
 7    1  0.2911475E-009  0.7171812E+02  0.7818608E-02  0.1354346E+00
         -1   -1    0    0    0  501 -0.00000000000E+00  0.00000000000E+00  0.58892364695E+01  0.58892386261E+01  0.50400000000E-02 0.  1.
          1   -1    0    0  501    0  0.00000000000E+00 -0.00000000000E+00 -0.21834270347E+03  0.21834270353E+03  0.50400000000E-02 0. -1.
         23    2    1    2    0    0  0.35527136788E-14  0.00000000000E+00 -0.21245346701E+03  0.22423194216E+03  0.71718116553E+02 0.  0.
    9000005    2    3    3    0    0 -0.21735721079E+02  0.26824611517E+02 -0.10430666629E+03  0.11070779557E+03  0.13576966286E+02 0.  0.
         22    1    3    3    0    0  0.21735721079E+02 -0.26824611517E+02 -0.10814680072E+03  0.11352414659E+03  0.00000000000E+00 0. -1.
         22    1    4    4    0    0 -0.23470915763E+02  0.23061426692E+02 -0.94352048969E+02  0.99925084100E+02  0.00000000000E+00 0.  1.
         22    1    4    4    0    0  0.17351946843E+01  0.37631848254E+01 -0.99546173167E+01  0.10782711465E+02  0.00000000000E+00 0.  1.
<mgrwt>
<rscale>  0 0.71718117E+02</rscale>
<asrwt>0</asrwt>
<pdfrwt beam="2">  1        1 0.33591179E-01 0.71718117E+02</pdfrwt>
<pdfrwt beam="1">  1       -1 0.90603672E-03 0.71718117E+02</pdfrwt>
<totfact> 0.22709959E+05</totfact>
</mgrwt>
</event>
<event>
 7    1  0.2911475E-009  0.9040642E+02  0.7818608E-02  0.1301870E+00
          1   -1    0    0  501    0  0.00000000000E+00  0.00000000000E+00  0.53411719064E+02  0.53411719302E+02  0.50400000000E-02 0. -1.
         -1   -1    0    0    0  501 -0.00000000000E+00 -0.00000000000E+00 -0.38256212769E+02  0.38256213101E+02  0.50400000000E-02 0.  1.
         23    2    1    2    0    0 -0.35527136788E-14 -0.71054273576E-14  0.15155506295E+02  0.91667932403E+02  0.90406418245E+02 0.  0.
    9000005    2    3    3    0    0  0.29032744082E+02  0.33087525096E+02  0.42237070463E+01  0.46311689385E+02  0.13756755671E+02 0.  0.
         22    1    3    3    0    0 -0.29032744082E+02 -0.33087525096E+02  0.10931799248E+02  0.45356243018E+02  0.00000000000E+00 0. -1.
         22    1    4    4    0    0  0.45691815796E+01  0.15015578357E+02  0.10170745360E+01  0.15728301062E+02  0.00000000000E+00 0. -1.
         22    1    4    4    0    0  0.24463562502E+02  0.18071946739E+02  0.32066325102E+01  0.30583388323E+02  0.00000000000E+00 0. -1.
<mgrwt>
<rscale>  0 0.90406418E+02</rscale>
<asrwt>0</asrwt>
<pdfrwt beam="1">  1        1 0.82171876E-02 0.90406418E+02</pdfrwt>
<pdfrwt beam="2">  1       -1 0.58855713E-02 0.90406418E+02</pdfrwt>
<totfact> 0.96960626E+04</totfact>
</mgrwt>
</event>
<event>
 7    1  0.2911475E-009  0.9219364E+02  0.7818608E-02  0.1297625E+00
         -1   -1    0    0    0  501 -0.00000000000E+00  0.00000000000E+00  0.35058074645E+01  0.35058110873E+01  0.50400000000E-02 0.  1.
          1   -1    0    0  501    0  0.00000000000E+00 -0.00000000000E+00 -0.60611300924E+03  0.60611300926E+03  0.50400000000E-02 0. -1.
         23    2    1    2    0    0  0.00000000000E+00  0.00000000000E+00 -0.60260720177E+03  0.60961882035E+03  0.92193635849E+02 0.  0.
    9000005    2    3    3    0    0 -0.42729818302E+02  0.84577769866E+01 -0.39380117455E+03  0.39631779276E+03  0.95423487162E+01 0.  0.
         22    1    3    3    0    0  0.42729818302E+02 -0.84577769866E+01 -0.20880602723E+03  0.21330102759E+03  0.00000000000E+00 0. -1.
         22    1    4    4    0    0 -0.14164853947E+02  0.61539764479E+01 -0.16717914568E+03  0.16789098029E+03  0.00000000000E+00 0. -1.
         22    1    4    4    0    0 -0.28564964356E+02  0.23038005387E+01 -0.22662202887E+03  0.22842681247E+03  0.00000000000E+00 0. -1.
<mgrwt>
<rscale>  0 0.92193636E+02</rscale>
<asrwt>0</asrwt>
<pdfrwt beam="2">  1        1 0.93248073E-01 0.92193636E+02</pdfrwt>
<pdfrwt beam="1">  1       -1 0.53935575E-03 0.92193636E+02</pdfrwt>
<totfact> 0.13756921E+05</totfact>
</mgrwt>
</event>
<event>
 7    1  0.2911475E-009  0.9048122E+02  0.7818608E-02  0.1301691E+00
          1   -1    0    0  501    0  0.00000000000E+00  0.00000000000E+00  0.47891624117E+03  0.47891624120E+03  0.50400000000E-02 0. -1.
         -1   -1    0    0    0  501 -0.00000000000E+00 -0.00000000000E+00 -0.42736322052E+01  0.42736351771E+01  0.50400000000E-02 0.  1.
         23    2    1    2    0    0  0.00000000000E+00  0.00000000000E+00  0.47464260897E+03  0.48318987638E+03  0.90481215648E+02 0.  0.
    9000005    2    3    3    0    0  0.37029217685E+02 -0.48157094516E+01  0.37244582229E+03  0.37438483409E+03  0.73320825801E+01 0.  0.
         22    1    3    3    0    0 -0.37029217685E+02  0.48157094516E+01  0.10219678668E+03  0.10880504229E+03  0.00000000000E+00 0.  1.
         22    1    4    4    0    0  0.28121030464E+02 -0.66968069018E+01  0.27551350159E+03  0.27702586366E+03  0.00000000000E+00 0.  1.
         22    1    4    4    0    0  0.89081872208E+01  0.18810974501E+01  0.96932320700E+02  0.97358970431E+02  0.00000000000E+00 0.  1.
<mgrwt>
<rscale>  0 0.90481216E+02</rscale>
<asrwt>0</asrwt>
<pdfrwt beam="1">  1        1 0.73679385E-01 0.90481216E+02</pdfrwt>
<pdfrwt beam="2">  1       -1 0.65748244E-03 0.90481216E+02</pdfrwt>
<totfact> 0.14136523E+05</totfact>
</mgrwt>
</event>
<event>
 7    1  0.2911475E-009  0.8746009E+02  0.7818608E-02  0.1309122E+00
         -1   -1    0    0    0  501 -0.00000000000E+00  0.00000000000E+00  0.40081797630E+02  0.40081797947E+02  0.50400000000E-02 0.  1.
          1   -1    0    0  501    0  0.00000000000E+00 -0.00000000000E+00 -0.47710352595E+02  0.47710352862E+02  0.50400000000E-02 0. -1.
         23    2    1    2    0    0  0.00000000000E+00 -0.44408920985E-15 -0.76285549657E+01  0.87792150808E+02  0.87460087427E+02 0.  0.
    9000005    2    3    3    0    0 -0.42537067432E+02  0.28282137252E+01 -0.91610392952E+01  0.45133629891E+02  0.11649850110E+02 0.  0.
         22    1    3    3    0    0  0.42537067432E+02 -0.28282137252E+01  0.15324843295E+01  0.42658520917E+02  0.00000000000E+00 0.  1.
         22    1    4    4    0    0 -0.30108445028E+02 -0.72793389639E+00 -0.16050273840E+01  0.30159981145E+02  0.00000000000E+00 0. -1.
         22    1    4    4    0    0 -0.12428622404E+02  0.35561476216E+01 -0.75560119112E+01  0.14973648746E+02  0.00000000000E+00 0. -1.
<mgrwt>
<rscale>  0 0.87460087E+02</rscale>
<asrwt>0</asrwt>
<pdfrwt beam="2">  1        1 0.73400543E-02 0.87460087E+02</pdfrwt>
<pdfrwt beam="1">  1       -1 0.61664305E-02 0.87460087E+02</pdfrwt>
<totfact> 0.10456743E+05</totfact>
</mgrwt>
</event>
<event>
 7    1  0.2911475E-009  0.9264125E+02  0.7818608E-02  0.1296579E+00
          1   -1    0    0  501    0  0.00000000000E+00  0.00000000000E+00  0.16678832919E+03  0.16678832927E+03  0.50400000000E-02 0. -1.
         -1   -1    0    0    0  501 -0.00000000000E+00 -0.00000000000E+00 -0.12864210038E+02  0.12864211026E+02  0.50400000000E-02 0.  1.
         23    2    1    2    0    0  0.00000000000E+00 -0.88817841970E-15  0.15392411916E+03  0.17965254030E+03  0.92641247708E+02 0.  0.
    9000005    2    3    3    0    0  0.44482337035E+02  0.71502283533E+01  0.66405662207E+02  0.81218377627E+02  0.12526324985E+02 0.  0.
         22    1    3    3    0    0 -0.44482337035E+02 -0.71502283533E+01  0.87518456949E+02  0.98434162669E+02  0.00000000000E+00 0. -1.
         22    1    4    4    0    0  0.29713159152E+02  0.10582147442E+02  0.42918511840E+02  0.53262109702E+02  0.00000000000E+00 0.  1.
         22    1    4    4    0    0  0.14769177883E+02 -0.34319190891E+01  0.23487150366E+02  0.27956267925E+02  0.00000000000E+00 0.  1.
<mgrwt>
<rscale>  0 0.92641248E+02</rscale>
<asrwt>0</asrwt>
<pdfrwt beam="1">  1        1 0.25659741E-01 0.92641248E+02</pdfrwt>
<pdfrwt beam="2">  1       -1 0.19791095E-02 0.92641248E+02</pdfrwt>
<totfact> 0.10955619E+05</totfact>
</mgrwt>
</event>
<event>
 7    1  0.2911475E-009  0.9160634E+02  0.7818608E-02  0.1299008E+00
         -1   -1    0    0    0  501 -0.00000000000E+00  0.00000000000E+00  0.48684246691E+02  0.48684246952E+02  0.50400000000E-02 0.  1.
          1   -1    0    0  501    0  0.00000000000E+00 -0.00000000000E+00 -0.43092591866E+02  0.43092592161E+02  0.50400000000E-02 0. -1.
         23    2    1    2    0    0  0.00000000000E+00  0.00000000000E+00  0.55916548248E+01  0.91776839113E+02  0.91606340358E+02 0.  0.
    9000005    2    3    3    0    0  0.81818701938E+01 -0.32155907464E+02  0.33775708436E+02  0.48241953531E+02  0.92489034699E+01 0.  0.
         22    1    3    3    0    0 -0.81818701938E+01  0.32155907464E+02 -0.28184053611E+02  0.43534885582E+02  0.00000000000E+00 0. -1.
         22    1    4    4    0    0 -0.31719846137E+00  0.54815114783E+00  0.87406653162E+00  0.10793872551E+01  0.00000000000E+00 0.  1.
         22    1    4    4    0    0  0.84990686552E+01 -0.32704058611E+02  0.32901641905E+02  0.47162566275E+02  0.00000000000E+00 0.  1.
<mgrwt>
<rscale>  0 0.91606340E+02</rscale>
<asrwt>0</asrwt>
<pdfrwt beam="2">  1        1 0.66296296E-02 0.91606340E+02</pdfrwt>
<pdfrwt beam="1">  1       -1 0.74898841E-02 0.91606340E+02</pdfrwt>
<totfact> 0.90485112E+04</totfact>
</mgrwt>
</event>
<event>
 7    1  0.2911475E-009  0.9467667E+02  0.7818608E-02  0.1291906E+00
          1   -1    0    0  501    0  0.00000000000E+00  0.00000000000E+00  0.42713748395E+02  0.42713748693E+02  0.50400000000E-02 0. -1.
         -1   -1    0    0    0  501 -0.00000000000E+00 -0.00000000000E+00 -0.52463626483E+02  0.52463626725E+02  0.50400000000E-02 0.  1.
         23    2    1    2    0    0 -0.71054273576E-14  0.16653345369E-15 -0.97498780880E+01  0.95177375418E+02  0.94676674364E+02 0.  0.
    9000005    2    3    3    0    0 -0.46367770875E+02 -0.36872640849E+00 -0.17831402737E+01  0.48128729885E+02  0.12770627079E+02 0.  0.
         22    1    3    3    0    0  0.46367770875E+02  0.36872640849E+00 -0.79667378143E+01  0.47048645533E+02  0.00000000000E+00 0. -1.
         22    1    4    4    0    0 -0.45038663416E+02  0.23141416165E+01 -0.15303888889E+01  0.45124035101E+02  0.00000000000E+00 0. -1.
         22    1    4    4    0    0 -0.13291074597E+01 -0.26828680250E+01 -0.25275138486E+00  0.30046947834E+01  0.00000000000E+00 0. -1.
<mgrwt>
<rscale>  0 0.94676674E+02</rscale>
<asrwt>0</asrwt>
<pdfrwt beam="1">  1        1 0.65713459E-02 0.94676674E+02</pdfrwt>
<pdfrwt beam="2">  1       -1 0.80713272E-02 0.94676674E+02</pdfrwt>
<totfact> 0.82319721E+04</totfact>
</mgrwt>
</event>
<event>
 7    1  0.2911475E-009  0.9074800E+02  0.7818608E-02  0.1301050E+00
          1   -1    0    0  501    0  0.00000000000E+00  0.00000000000E+00  0.42128840780E+03  0.42128840783E+03  0.50400000000E-02 0. -1.
         -1   -1    0    0    0  501 -0.00000000000E+00 -0.00000000000E+00 -0.48869119693E+01  0.48869145683E+01  0.50400000000E-02 0.  1.
         23    2    1    2    0    0  0.00000000000E+00  0.00000000000E+00  0.41640149583E+03  0.42617532239E+03  0.90748001032E+02 0.  0.
    9000005    2    3    3    0    0 -0.36323755930E+02  0.11399106802E+02  0.32073340127E+03  0.32321057505E+03  0.12075025853E+02 0.  0.
         22    1    3    3    0    0  0.36323755930E+02 -0.11399106802E+02  0.95668094554E+02  0.10296474735E+03  0.00000000000E+00 0.  1.
         22    1    4    4    0    0 -0.35708672400E+02  0.12806155652E+02  0.29465235167E+03  0.29708435713E+03  0.00000000000E+00 0. -1.
         22    1    4    4    0    0 -0.61508353024E+00 -0.14070488500E+01  0.26081049602E+02  0.26126217915E+02  0.00000000000E+00 0. -1.
<mgrwt>
<rscale>  0 0.90748001E+02</rscale>
<asrwt>0</asrwt>
<pdfrwt beam="1">  1        1 0.64813603E-01 0.90748001E+02</pdfrwt>
<pdfrwt beam="2">  1       -1 0.75183280E-03 0.90748001E+02</pdfrwt>
<totfact> 0.13772454E+05</totfact>
</mgrwt>
</event>
<event>
 7    1  0.2911475E-009  0.8808934E+02  0.7818608E-02  0.1307546E+00
          1   -1    0    0  501    0  0.00000000000E+00  0.00000000000E+00  0.17812465841E+03  0.17812465848E+03  0.50400000000E-02 0. -1.
         -1   -1    0    0    0  501 -0.00000000000E+00 -0.00000000000E+00 -0.10890872399E+02  0.10890873565E+02  0.50400000000E-02 0.  1.
         23    2    1    2    0    0  0.00000000000E+00  0.00000000000E+00  0.16723378601E+03  0.18901553204E+03  0.88089341984E+02 0.  0.
    9000005    2    3    3    0    0 -0.35617620304E+02  0.15493753634E+02  0.47186015402E+02  0.62840500816E+02  0.14619754290E+02 0.  0.
         22    1    3    3    0    0  0.35617620304E+02 -0.15493753634E+02  0.12004777061E+03  0.12617503123E+03  0.00000000000E+00 0. -1.
         22    1    4    4    0    0 -0.21166600700E+02  0.14114583720E+01  0.26471036053E+02  0.33922454947E+02  0.00000000000E+00 0.  1.
         22    1    4    4    0    0 -0.14451019604E+02  0.14082295262E+02  0.20714979349E+02  0.28918045869E+02  0.00000000000E+00 0.  1.
<mgrwt>
<rscale>  0 0.88089342E+02</rscale>
<asrwt>0</asrwt>
<pdfrwt beam="1">  1        1 0.27403793E-01 0.88089342E+02</pdfrwt>
<pdfrwt beam="2">  1       -1 0.16755190E-02 0.88089342E+02</pdfrwt>
<totfact> 0.12699676E+05</totfact>
</mgrwt>
</event>
<event>
 7    1  0.2911475E-009  0.9083807E+02  0.7818608E-02  0.1300835E+00
          1   -1    0    0  501    0  0.00000000000E+00  0.00000000000E+00  0.31795420951E+02  0.31795421350E+02  0.50400000000E-02 0. -1.
         -1   -1    0    0    0  501 -0.00000000000E+00 -0.00000000000E+00 -0.64880062154E+02  0.64880062350E+02  0.50400000000E-02 0.  1.
         23    2    1    2    0    0  0.35527136788E-14 -0.22204460493E-15 -0.33084641203E+02  0.96675483700E+02  0.90838073874E+02 0.  0.
    9000005    2    3    3    0    0  0.26542887392E+02 -0.10341852833E+01 -0.55317921767E+02  0.62035720783E+02  0.90974597670E+01 0.  0.
         22    1    3    3    0    0 -0.26542887392E+02  0.10341852833E+01  0.22233280563E+02  0.34639762917E+02  0.00000000000E+00 0. -1.
         22    1    4    4    0    0  0.12040367116E+02 -0.75628734295E+00 -0.15391538801E+02  0.19556121228E+02  0.00000000000E+00 0. -1.
         22    1    4    4    0    0  0.14502520276E+02 -0.27789794036E+00 -0.39926382966E+02  0.42479599555E+02  0.00000000000E+00 0. -1.
<mgrwt>
<rscale>  0 0.90838074E+02</rscale>
<asrwt>0</asrwt>
<pdfrwt beam="1">  1        1 0.48916033E-02 0.90838074E+02</pdfrwt>
<pdfrwt beam="2">  1       -1 0.99815480E-02 0.90838074E+02</pdfrwt>
<totfact> 0.88430833E+04</totfact>
</mgrwt>
</event>
<event>
 7    1  0.2911475E-009  0.9062517E+02  0.7818608E-02  0.1301345E+00
         -1   -1    0    0    0  501 -0.00000000000E+00  0.00000000000E+00  0.62054035444E+01  0.62054055911E+01  0.50400000000E-02 0.  1.
          1   -1    0    0  501    0  0.00000000000E+00 -0.00000000000E+00 -0.33087776765E+03  0.33087776769E+03  0.50400000000E-02 0. -1.
         23    2    1    2    0    0  0.00000000000E+00 -0.35527136788E-14 -0.32467236411E+03  0.33708317328E+03  0.90625171417E+02 0.  0.
    9000005    2    3    3    0    0 -0.26460469913E+02  0.29316771377E+02 -0.24221521984E+03  0.24565664435E+03  0.10924497177E+02 0.  0.
         22    1    3    3    0    0  0.26460469913E+02 -0.29316771377E+02 -0.82457144273E+02  0.91426528938E+02  0.00000000000E+00 0.  1.
         22    1    4    4    0    0 -0.25400810147E+02  0.22572191646E+02 -0.19273947770E+03  0.19571206211E+03  0.00000000000E+00 0.  1.
         22    1    4    4    0    0 -0.10596597664E+01  0.67445797309E+01 -0.49475742138E+02  0.49944582235E+02  0.00000000000E+00 0.  1.
<mgrwt>
<rscale>  0 0.90625171E+02</rscale>
<asrwt>0</asrwt>
<pdfrwt beam="2">  1        1 0.50904258E-01 0.90625171E+02</pdfrwt>
<pdfrwt beam="1">  1       -1 0.95467789E-03 0.90625171E+02</pdfrwt>
<totfact> 0.13262014E+05</totfact>
</mgrwt>
</event>
<event>
 7    1  0.2911475E-009  0.9101877E+02  0.7818608E-02  0.1300403E+00
          1   -1    0    0  501    0  0.00000000000E+00  0.00000000000E+00  0.26819855845E+02  0.26819856319E+02  0.50400000000E-02 0. -1.
         -1   -1    0    0    0  501 -0.00000000000E+00 -0.00000000000E+00 -0.77222794535E+02  0.77222794699E+02  0.50400000000E-02 0.  1.
         23    2    1    2    0    0  0.00000000000E+00  0.00000000000E+00 -0.50402938690E+02  0.10404265102E+03  0.91018772802E+02 0.  0.
    9000005    2    3    3    0    0  0.20590679168E+02  0.39132147523E+02 -0.33731642389E+02  0.56785554633E+02  0.11466232090E+02 0.  0.
         22    1    3    3    0    0 -0.20590679168E+02 -0.39132147523E+02 -0.16671296301E+02  0.47257096385E+02  0.00000000000E+00 0. -1.
         22    1    4    4    0    0  0.17687054180E+02  0.28713613618E+02 -0.30569972087E+02  0.45517322922E+02  0.00000000000E+00 0.  1.
         22    1    4    4    0    0  0.29036249883E+01  0.10418533905E+02 -0.31616703021E+01  0.11268231711E+02  0.00000000000E+00 0.  1.
<mgrwt>
<rscale>  0 0.91018773E+02</rscale>
<asrwt>0</asrwt>
<pdfrwt beam="1">  1        1 0.41261317E-02 0.91018773E+02</pdfrwt>
<pdfrwt beam="2">  1       -1 0.11880430E-01 0.91018773E+02</pdfrwt>
<totfact> 0.85533672E+04</totfact>
</mgrwt>
</event>
<event>
 7    1  0.2911475E-009  0.1109978E+03  0.7818608E-02  0.1258733E+00
          1   -1    0    0  501    0  0.00000000000E+00  0.00000000000E+00  0.64017617030E+02  0.64017617229E+02  0.50400000000E-02 0. -1.
         -1   -1    0    0    0  501 -0.00000000000E+00 -0.00000000000E+00 -0.48113740035E+02  0.48113740299E+02  0.50400000000E-02 0.  1.
         23    2    1    2    0    0  0.00000000000E+00  0.00000000000E+00  0.15903876995E+02  0.11213135753E+03  0.11099778393E+03 0.  0.
    9000005    2    3    3    0    0  0.43543699013E+02  0.33198750495E+02  0.10345310278E+02  0.57094020908E+02  0.12429441681E+02 0.  0.
         22    1    3    3    0    0 -0.43543699013E+02 -0.33198750495E+02  0.55585667175E+01  0.55037336620E+02  0.00000000000E+00 0. -1.
         22    1    4    4    0    0  0.43994073759E+02  0.31489173922E+02  0.89405017380E+01  0.54835929567E+02  0.00000000000E+00 0. -1.
         22    1    4    4    0    0 -0.45037474512E+00  0.17095765737E+01  0.14048085399E+01  0.22580913414E+01  0.00000000000E+00 0. -1.
<mgrwt>
<rscale>  0 0.11099778E+03</rscale>
<asrwt>0</asrwt>
<pdfrwt beam="1">  1        1 0.98488641E-02 0.11099778E+03</pdfrwt>
<pdfrwt beam="2">  1       -1 0.74021139E-02 0.11099778E+03</pdfrwt>
<totfact> 0.55997974E+04</totfact>
</mgrwt>
</event>
<event>
 7    1  0.2911475E-009  0.9003992E+02  0.7818608E-02  0.1302755E+00
         -1   -1    0    0    0  501 -0.00000000000E+00  0.00000000000E+00  0.43979003802E+01  0.43979032682E+01  0.50400000000E-02 0.  1.
          1   -1    0    0  501    0  0.00000000000E+00 -0.00000000000E+00 -0.46085539927E+03  0.46085539930E+03  0.50400000000E-02 0. -1.
         23    2    1    2    0    0  0.00000000000E+00 -0.35527136788E-14 -0.45645749889E+03  0.46525330257E+03  0.90039920344E+02 0.  0.
    9000005    2    3    3    0    0  0.33289358909E+02 -0.26710804571E+02 -0.28418935132E+03  0.28777664730E+03  0.15171118280E+02 0.  0.
         22    1    3    3    0    0 -0.33289358909E+02  0.26710804571E+02 -0.17226814757E+03  0.17747665527E+03  0.00000000000E+00 0.  1.
         22    1    4    4    0    0  0.49686441882E+01 -0.78481876776E+01 -0.10313827497E+03  0.10355571079E+03  0.00000000000E+00 0. -1.
         22    1    4    4    0    0  0.28320714721E+02 -0.18862616894E+02 -0.18105107635E+03  0.18422093650E+03  0.00000000000E+00 0. -1.
<mgrwt>
<rscale>  0 0.90039920E+02</rscale>
<asrwt>0</asrwt>
<pdfrwt beam="2">  1        1 0.70900793E-01 0.90039920E+02</pdfrwt>
<pdfrwt beam="1">  1       -1 0.67660065E-03 0.90039920E+02</pdfrwt>
<totfact> 0.14247589E+05</totfact>
</mgrwt>
</event>
<event>
 7    1  0.2911475E-009  0.8946770E+02  0.7818608E-02  0.1304146E+00
         -1   -1    0    0    0  501 -0.00000000000E+00  0.00000000000E+00  0.42806896491E+02  0.42806896788E+02  0.50400000000E-02 0.  1.
          1   -1    0    0  501    0  0.00000000000E+00 -0.00000000000E+00 -0.46747549056E+02  0.46747549327E+02  0.50400000000E-02 0. -1.
         23    2    1    2    0    0  0.71054273576E-14  0.00000000000E+00 -0.39406525649E+01  0.89554446115E+02  0.89467704097E+02 0.  0.
    9000005    2    3    3    0    0 -0.37375026606E+02 -0.64557158395E+01 -0.25149556747E+02  0.46098876882E+02  0.73510111139E+01 0.  0.
         22    1    3    3    0    0  0.37375026606E+02  0.64557158395E+01  0.21208904183E+02  0.43455569233E+02  0.00000000000E+00 0.  1.
         22    1    4    4    0    0 -0.96743981004E+01 -0.23464805725E+00 -0.31328921869E+01  0.10171728062E+02  0.00000000000E+00 0. -1.
         22    1    4    4    0    0 -0.27700628505E+02 -0.62210677822E+01 -0.22016664560E+02  0.35927148820E+02  0.00000000000E+00 0. -1.
<mgrwt>
<rscale>  0 0.89467704E+02</rscale>
<asrwt>0</asrwt>
<pdfrwt beam="2">  1        1 0.71919307E-02 0.89467704E+02</pdfrwt>
<pdfrwt beam="1">  1       -1 0.65856764E-02 0.89467704E+02</pdfrwt>
<totfact> 0.97867210E+04</totfact>
</mgrwt>
</event>
<event>
 7    1  0.2911475E-009  0.8836369E+02  0.7818608E-02  0.1306863E+00
         -1   -1    0    0    0  501 -0.00000000000E+00  0.00000000000E+00  0.68626901450E+03  0.68626901452E+03  0.50400000000E-02 0.  1.
          1   -1    0    0  501    0  0.00000000000E+00 -0.00000000000E+00 -0.28444151222E+01  0.28444195874E+01  0.50400000000E-02 0. -1.
         23    2    1    2    0    0  0.00000000000E+00  0.00000000000E+00  0.68342459938E+03  0.68911343411E+03  0.88363691812E+02 0.  0.
    9000005    2    3    3    0    0 -0.33925476452E+02  0.10582415653E+02  0.54137773021E+03  0.54268857791E+03  0.12574591290E+02 0.  0.
         22    1    3    3    0    0  0.33925476452E+02 -0.10582415653E+02  0.14204686917E+03  0.14642485620E+03  0.00000000000E+00 0. -1.
         22    1    4    4    0    0 -0.22224902207E+02  0.74156996933E+00  0.29500320076E+03  0.29584013363E+03  0.00000000000E+00 0. -1.
         22    1    4    4    0    0 -0.11700574244E+02  0.98408456833E+01  0.24637452945E+03  0.24684844428E+03  0.00000000000E+00 0. -1.
<mgrwt>
<rscale>  0 0.88363692E+02</rscale>
<asrwt>0</asrwt>
<pdfrwt beam="2">  1        1 0.43760236E-03 0.88363692E+02</pdfrwt>
<pdfrwt beam="1">  1       -1 0.10557992E+00 0.88363692E+02</pdfrwt>
<totfact> 0.40675322E+04</totfact>
</mgrwt>
</event>
<event>
 7    1  0.2911475E-009  0.9098202E+02  0.7818608E-02  0.1300491E+00
         -1   -1    0    0    0  501 -0.00000000000E+00  0.00000000000E+00  0.62360926916E+03  0.62360926918E+03  0.50400000000E-02 0.  1.
          1   -1    0    0  501    0  0.00000000000E+00 -0.00000000000E+00 -0.33184735611E+01  0.33184773884E+01  0.50400000000E-02 0. -1.
         23    2    1    2    0    0  0.00000000000E+00 -0.35527136788E-14  0.62029079560E+03  0.62692774657E+03  0.90982021923E+02 0.  0.
    9000005    2    3    3    0    0 -0.26849979652E+02  0.28923382996E+02  0.45658531965E+03  0.45853247838E+03  0.14979857216E+02 0.  0.
         22    1    3    3    0    0  0.26849979652E+02 -0.28923382996E+02  0.16370547595E+03  0.16839526819E+03  0.00000000000E+00 0. -1.
         22    1    4    4    0    0 -0.23593347922E+02  0.21080942779E+02  0.28785118016E+03  0.28958479610E+03  0.00000000000E+00 0.  1.
         22    1    4    4    0    0 -0.32566317303E+01  0.78424402175E+01  0.16873413949E+03  0.16894768228E+03  0.00000000000E+00 0.  1.
<mgrwt>
<rscale>  0 0.90982022E+02</rscale>
<asrwt>0</asrwt>
<pdfrwt beam="2">  1        1 0.51053508E-03 0.90982022E+02</pdfrwt>
<pdfrwt beam="1">  1       -1 0.95939815E-01 0.90982022E+02</pdfrwt>
<totfact> 0.40664087E+04</totfact>
</mgrwt>
</event>
<event>
 7    1  0.2911475E-009  0.9099032E+02  0.7818608E-02  0.1300471E+00
         -1   -1    0    0    0  501 -0.00000000000E+00  0.00000000000E+00  0.30931494128E+02  0.30931494538E+02  0.50400000000E-02 0.  1.
          1   -1    0    0  501    0  0.00000000000E+00 -0.00000000000E+00 -0.66915919684E+02  0.66915919874E+02  0.50400000000E-02 0. -1.
         23    2    1    2    0    0  0.35527136788E-14  0.35527136788E-14 -0.35984425556E+02  0.97847414412E+02  0.90990316103E+02 0.  0.
    9000005    2    3    3    0    0 -0.28949634352E+02 -0.29938426989E+02  0.37498662822E-01  0.42784089375E+02  0.98023547061E+01 0.  0.
         22    1    3    3    0    0  0.28949634352E+02  0.29938426989E+02 -0.36021924219E+02  0.55063325037E+02  0.00000000000E+00 0. -1.
         22    1    4    4    0    0 -0.16688497992E+02 -0.13294073047E+02  0.40713360133E+01  0.21721282658E+02  0.00000000000E+00 0. -1.
         22    1    4    4    0    0 -0.12261136360E+02 -0.16644353943E+02 -0.40338373505E+01  0.21062806717E+02  0.00000000000E+00 0. -1.
<mgrwt>
<rscale>  0 0.90990316E+02</rscale>
<asrwt>0</asrwt>
<pdfrwt beam="2">  1        1 0.10294757E-01 0.90990316E+02</pdfrwt>
<pdfrwt beam="1">  1       -1 0.47586915E-02 0.90990316E+02</pdfrwt>
<totfact> 0.98541580E+04</totfact>
</mgrwt>
</event>
<event>
 7    1  0.2911475E-009  0.9147867E+02  0.7818608E-02  0.1299310E+00
         -1   -1    0    0    0  501 -0.00000000000E+00  0.00000000000E+00  0.97909408834E+01  0.97909421806E+01  0.50400000000E-02 0.  1.
          1   -1    0    0  501    0  0.00000000000E+00 -0.00000000000E+00 -0.21367576377E+03  0.21367576383E+03  0.50400000000E-02 0. -1.
         23    2    1    2    0    0 -0.35527136788E-14  0.00000000000E+00 -0.20388482288E+03  0.22346670601E+03  0.91478673424E+02 0.  0.
    9000005    2    3    3    0    0 -0.31142582283E+02  0.28033905863E+02 -0.60386585975E+02  0.73975889216E+02  0.83744916437E+01 0.  0.
         22    1    3    3    0    0  0.31142582283E+02 -0.28033905863E+02 -0.14349823691E+03  0.14949081679E+03  0.00000000000E+00 0. -1.
         22    1    4    4    0    0 -0.39191484374E+01  0.73029119211E+01 -0.14974290991E+02  0.17114953628E+02  0.00000000000E+00 0. -1.
         22    1    4    4    0    0 -0.27223433845E+02  0.20730993942E+02 -0.45412294984E+02  0.56860935588E+02  0.00000000000E+00 0. -1.
<mgrwt>
<rscale>  0 0.91478673E+02</rscale>
<asrwt>0</asrwt>
<pdfrwt beam="2">  1        1 0.32873191E-01 0.91478673E+02</pdfrwt>
<pdfrwt beam="1">  1       -1 0.15062989E-02 0.91478673E+02</pdfrwt>
<totfact> 0.11888081E+05</totfact>
</mgrwt>
</event>
<event>
 7    1  0.2911475E-009  0.9141698E+02  0.7818608E-02  0.1299456E+00
         -1   -1    0    0    0  501 -0.00000000000E+00  0.00000000000E+00  0.14537804412E+02  0.14537805286E+02  0.50400000000E-02 0.  1.
          1   -1    0    0  501    0  0.00000000000E+00 -0.00000000000E+00 -0.14371261545E+03  0.14371261554E+03  0.50400000000E-02 0. -1.
         23    2    1    2    0    0  0.00000000000E+00 -0.35527136788E-14 -0.12917481104E+03  0.15825042082E+03  0.91416978097E+02 0.  0.
    9000005    2    3    3    0    0  0.38763913832E+02  0.19824405535E+02 -0.85475833344E+02  0.96563722729E+02  0.11080902088E+02 0.  0.
         22    1    3    3    0    0 -0.38763913832E+02 -0.19824405535E+02 -0.43698977693E+02  0.61686698095E+02  0.00000000000E+00 0. -1.
         22    1    4    4    0    0  0.28296095366E+02  0.14528334066E+02 -0.71898930835E+02  0.78620593733E+02  0.00000000000E+00 0.  1.
         22    1    4    4    0    0  0.10467818466E+02  0.52960714695E+01 -0.13576902509E+02  0.17943128996E+02  0.00000000000E+00 0.  1.
<mgrwt>
<rscale>  0 0.91416978E+02</rscale>
<asrwt>0</asrwt>
<pdfrwt beam="2">  1        1 0.22109632E-01 0.91416978E+02</pdfrwt>
<pdfrwt beam="1">  1       -1 0.22365855E-02 0.91416978E+02</pdfrwt>
<totfact> 0.11046926E+05</totfact>
</mgrwt>
</event>
<event>
 7    1  0.2911475E-009  0.8177510E+02  0.7818608E-02  0.1324088E+00
          1   -1    0    0  501    0  0.00000000000E+00  0.00000000000E+00  0.26544092497E+02  0.26544092976E+02  0.50400000000E-02 0. -1.
         -1   -1    0    0    0  501 -0.00000000000E+00 -0.00000000000E+00 -0.62981683355E+02  0.62981683556E+02  0.50400000000E-02 0.  1.
         23    2    1    2    0    0  0.00000000000E+00  0.00000000000E+00 -0.36437590857E+02  0.89525776532E+02  0.81775097898E+02 0.  0.
    9000005    2    3    3    0    0 -0.13670402148E+02  0.66802610366E+01 -0.59182826351E+02  0.62160624969E+02  0.11394322240E+02 0.  0.
         22    1    3    3    0    0  0.13670402148E+02 -0.66802610366E+01  0.22745235494E+02  0.27365151563E+02  0.00000000000E+00 0. -1.
         22    1    4    4    0    0 -0.15682740155E+02  0.54467066558E+01 -0.50261833930E+02  0.52932663849E+02  0.00000000000E+00 0.  1.
         22    1    4    4    0    0  0.20123380070E+01  0.12335543808E+01 -0.89209924208E+01  0.92279611203E+01  0.00000000000E+00 0.  1.
<mgrwt>
<rscale>  0 0.81775098E+02</rscale>
<asrwt>0</asrwt>
<pdfrwt beam="1">  1        1 0.40837066E-02 0.81775098E+02</pdfrwt>
<pdfrwt beam="2">  1       -1 0.96894897E-02 0.81775098E+02</pdfrwt>
<totfact> 0.11598782E+05</totfact>
</mgrwt>
</event>
<event>
 7    1  0.2911475E-009  0.9352037E+02  0.7818608E-02  0.1294544E+00
          1   -1    0    0  501    0  0.00000000000E+00  0.00000000000E+00  0.10548927316E+03  0.10548927328E+03  0.50400000000E-02 0. -1.
         -1   -1    0    0    0  501 -0.00000000000E+00 -0.00000000000E+00 -0.20727368128E+02  0.20727368741E+02  0.50400000000E-02 0.  1.
         23    2    1    2    0    0  0.00000000000E+00 -0.17763568394E-14  0.84761905028E+02  0.12621664202E+03  0.93520373065E+02 0.  0.
    9000005    2    3    3    0    0 -0.40981293746E+01  0.12616058075E+02  0.10228193912E+03  0.10424140185E+03  0.15123333115E+02 0.  0.
         22    1    3    3    0    0  0.40981293746E+01 -0.12616058075E+02 -0.17520034092E+02  0.21975240164E+02  0.00000000000E+00 0.  1.
         22    1    4    4    0    0  0.80676063877E+00  0.12120219191E+02  0.92430905149E+02  0.93225655282E+02  0.00000000000E+00 0. -1.
         22    1    4    4    0    0 -0.49048900134E+01  0.49583888385E+00  0.98510339698E+01  0.11015746571E+02  0.00000000000E+00 0. -1.
<mgrwt>
<rscale>  0 0.93520373E+02</rscale>
<asrwt>0</asrwt>
<pdfrwt beam="1">  1        1 0.16229119E-01 0.93520373E+02</pdfrwt>
<pdfrwt beam="2">  1       -1 0.31888259E-02 0.93520373E+02</pdfrwt>
<totfact> 0.98338575E+04</totfact>
</mgrwt>
</event>
<event>
 7    1  0.2911475E-009  0.9301835E+02  0.7818608E-02  0.1295703E+00
         -1   -1    0    0    0  501 -0.00000000000E+00  0.00000000000E+00  0.36017606824E+02  0.36017607176E+02  0.50400000000E-02 0.  1.
          1   -1    0    0  501    0  0.00000000000E+00 -0.00000000000E+00 -0.60056829356E+02  0.60056829567E+02  0.50400000000E-02 0. -1.
         23    2    1    2    0    0  0.00000000000E+00  0.00000000000E+00 -0.24039222532E+02  0.96074436743E+02  0.93018348597E+02 0.  0.
    9000005    2    3    3    0    0  0.23659651346E+02 -0.20279114534E+02  0.22519033525E+02  0.40050399089E+02  0.11220784653E+02 0.  0.
         22    1    3    3    0    0 -0.23659651346E+02  0.20279114534E+02 -0.46558256057E+02  0.56024037654E+02  0.00000000000E+00 0. -1.
         22    1    4    4    0    0  0.92670257851E+01 -0.47019280573E+01  0.13418803956E+02  0.16972041538E+02  0.00000000000E+00 0.  1.
         22    1    4    4    0    0  0.14392625560E+02 -0.15577186477E+02  0.91002295692E+01  0.23078357551E+02  0.00000000000E+00 0.  1.
<mgrwt>
<rscale>  0 0.93018349E+02</rscale>
<asrwt>0</asrwt>
<pdfrwt beam="2">  1        1 0.92395122E-02 0.93018349E+02</pdfrwt>
<pdfrwt beam="1">  1       -1 0.55411703E-02 0.93018349E+02</pdfrwt>
<totfact> 0.91172481E+04</totfact>
</mgrwt>
</event>
<event>
 7    1  0.3560816E-009  0.8922852E+02  0.7818608E-02  0.1304731E+00
         -1   -1    0    0    0  501 -0.00000000000E+00  0.00000000000E+00  0.10099370887E+03  0.10099370900E+03  0.50400000000E-02 0.  1.
          1   -1    0    0  501    0  0.00000000000E+00 -0.00000000000E+00 -0.19708477418E+02  0.19708478062E+02  0.50400000000E-02 0. -1.
         23    2    1    2    0    0  0.00000000000E+00  0.17763568394E-14  0.81285231456E+02  0.12070218706E+03  0.89228521833E+02 0.  0.
    9000005    2    3    3    0    0 -0.28174109026E+02 -0.11366467198E+02  0.84203341297E+02  0.90181827283E+02  0.10935368786E+02 0.  0.
         22    1    3    3    0    0  0.28174109026E+02  0.11366467198E+02 -0.29181098406E+01  0.30520359779E+02  0.00000000000E+00 0. -1.
         22    1    4    4    0    0 -0.24789627500E+02 -0.70856696062E+01  0.58884157202E+02  0.64281228323E+02  0.00000000000E+00 0. -1.
         22    1    4    4    0    0 -0.33844815262E+01 -0.42807975915E+01  0.25319184095E+02  0.25900598960E+02  0.00000000000E+00 0. -1.
<mgrwt>
<rscale>  0 0.89228522E+02</rscale>
<asrwt>0</asrwt>
<pdfrwt beam="2">  1        1 0.30320736E-02 0.89228522E+02</pdfrwt>
<pdfrwt beam="1">  1       -1 0.15537493E-01 0.89228522E+02</pdfrwt>
<totfact> 0.85861860E+04</totfact>
</mgrwt>
</event>
<event>
 7    1  0.2911475E-009  0.8280466E+02  0.7818608E-02  0.1321275E+00
          1   -1    0    0  501    0  0.00000000000E+00  0.00000000000E+00  0.18632984284E+03  0.18632984291E+03  0.50400000000E-02 0. -1.
         -1   -1    0    0    0  501 -0.00000000000E+00 -0.00000000000E+00 -0.91995622304E+01  0.91995636110E+01  0.50400000000E-02 0.  1.
         23    2    1    2    0    0  0.35527136788E-14  0.00000000000E+00  0.17713028061E+03  0.19552940652E+03  0.82804664754E+02 0.  0.
    9000005    2    3    3    0    0  0.31018270390E+02  0.16700168606E+02  0.13922273693E+03  0.14377990800E+03  0.69758681310E+01 0.  0.
         22    1    3    3    0    0 -0.31018270390E+02 -0.16700168606E+02  0.37907543683E+02  0.51749498525E+02  0.00000000000E+00 0.  1.
         22    1    4    4    0    0  0.16821280626E+02  0.88096566046E+01  0.88729834248E+02  0.90738905752E+02  0.00000000000E+00 0.  1.
         22    1    4    4    0    0  0.14196989764E+02  0.78905120018E+01  0.50492902680E+02  0.53041002245E+02  0.00000000000E+00 0.  1.
<mgrwt>
<rscale>  0 0.82804665E+02</rscale>
<asrwt>0</asrwt>
<pdfrwt beam="1">  1        1 0.28666129E-01 0.82804665E+02</pdfrwt>
<pdfrwt beam="2">  1       -1 0.14153174E-02 0.82804665E+02</pdfrwt>
<totfact> 0.15104392E+05</totfact>
</mgrwt>
</event>
<event>
 7    1  0.2911475E-009  0.9415140E+02  0.7818608E-02  0.1293099E+00
          1   -1    0    0  501    0  0.00000000000E+00  0.00000000000E+00  0.20905650682E+03  0.20905650688E+03  0.50400000000E-02 0. -1.
         -1   -1    0    0    0  501 -0.00000000000E+00 -0.00000000000E+00 -0.10600584917E+02  0.10600586116E+02  0.50400000000E-02 0.  1.
         23    2    1    2    0    0  0.00000000000E+00  0.00000000000E+00  0.19845592190E+03  0.21965709300E+03  0.94151397045E+02 0.  0.
    9000005    2    3    3    0    0 -0.11240281534E+02 -0.45271279761E+02  0.97411988625E+02  0.10836599204E+03  0.88464683698E+01 0.  0.
         22    1    3    3    0    0  0.11240281534E+02  0.45271279761E+02  0.10104393328E+03  0.11129110096E+03  0.00000000000E+00 0. -1.
         22    1    4    4    0    0 -0.43099599662E+01 -0.60131770911E+01  0.19297573628E+02  0.20667133366E+02  0.00000000000E+00 0. -1.
         22    1    4    4    0    0 -0.69303215675E+01 -0.39258102669E+02  0.78114414997E+02  0.87698858673E+02  0.00000000000E+00 0. -1.
<mgrwt>
<rscale>  0 0.94151397E+02</rscale>
<asrwt>0</asrwt>
<pdfrwt beam="1">  1        1 0.32162540E-01 0.94151397E+02</pdfrwt>
<pdfrwt beam="2">  1       -1 0.16308593E-02 0.94151397E+02</pdfrwt>
<totfact> 0.10956148E+05</totfact>
</mgrwt>
</event>
<event>
 7    1  0.2911475E-009  0.9604157E+02  0.7818608E-02  0.1288847E+00
          1   -1    0    0  501    0  0.00000000000E+00  0.00000000000E+00  0.58405779115E+03  0.58405779117E+03  0.50400000000E-02 0. -1.
         -1   -1    0    0    0  501 -0.00000000000E+00 -0.00000000000E+00 -0.39482301947E+01  0.39482334115E+01  0.50400000000E-02 0.  1.
         23    2    1    2    0    0  0.00000000000E+00  0.00000000000E+00  0.58010956096E+03  0.58800602459E+03  0.96041565140E+02 0.  0.
    9000005    2    3    3    0    0 -0.44913135737E+02 -0.11179557098E+02  0.34215530884E+03  0.34559233199E+03  0.14887320172E+02 0.  0.
         22    1    3    3    0    0  0.44913135737E+02  0.11179557098E+02  0.23795425211E+03  0.24241369260E+03  0.00000000000E+00 0.  1.
         22    1    4    4    0    0 -0.15577737545E+02 -0.10269353298E+02  0.10728310568E+03  0.10889348139E+03  0.00000000000E+00 0. -1.
         22    1    4    4    0    0 -0.29335398192E+02 -0.91020379956E+00  0.23487220316E+03  0.23669885060E+03  0.00000000000E+00 0. -1.
<mgrwt>
<rscale>  0 0.96041565E+02</rscale>
<asrwt>0</asrwt>
<pdfrwt beam="1">  1        1 0.89855012E-01 0.96041565E+02</pdfrwt>
<pdfrwt beam="2">  1       -1 0.60742050E-03 0.96041565E+02</pdfrwt>
<totfact> 0.12312392E+05</totfact>
</mgrwt>
</event>
<event>
 7    1  0.2911475E-009  0.9594226E+02  0.7818608E-02  0.1289068E+00
          1   -1    0    0  501    0  0.00000000000E+00  0.00000000000E+00  0.37525162696E+02  0.37525163035E+02  0.50400000000E-02 0.  1.
         -1   -1    0    0    0  501 -0.00000000000E+00 -0.00000000000E+00 -0.61324959558E+02  0.61324959765E+02  0.50400000000E-02 0. -1.
         23    2    1    2    0    0  0.00000000000E+00  0.00000000000E+00 -0.23799796862E+02  0.98850122800E+02  0.95942255794E+02 0.  0.
    9000005    2    3    3    0    0 -0.46609844722E+02 -0.76124099182E+01 -0.15819721890E+02  0.50953275238E+02  0.10749244022E+02 0.  0.
         22    1    3    3    0    0  0.46609844722E+02  0.76124099182E+01 -0.79800749717E+01  0.47896847562E+02  0.00000000000E+00 0.  1.
         22    1    4    4    0    0 -0.20913688546E+02  0.16810531386E+01 -0.50344285537E+01  0.21576695278E+02  0.00000000000E+00 0. -1.
         22    1    4    4    0    0 -0.25696156176E+02 -0.92934630568E+01 -0.10785293336E+02  0.29376579961E+02  0.00000000000E+00 0. -1.
<mgrwt>
<rscale>  0 0.95942256E+02</rscale>
<asrwt>0</asrwt>
<pdfrwt beam="1">  1        1 0.57731020E-02 0.95942256E+02</pdfrwt>
<pdfrwt beam="2">  1       -1 0.94346092E-02 0.95942256E+02</pdfrwt>
<totfact> 0.77651619E+04</totfact>
</mgrwt>
</event>
<event>
 7    1  0.2911475E-009  0.9029434E+02  0.7818608E-02  0.1302140E+00
          1   -1    0    0  501    0  0.00000000000E+00  0.00000000000E+00  0.45300677073E+03  0.45300677075E+03  0.50400000000E-02 0. -1.
         -1   -1    0    0    0  501 -0.00000000000E+00 -0.00000000000E+00 -0.44994170259E+01  0.44994198486E+01  0.50400000000E-02 0.  1.
         23    2    1    2    0    0  0.00000000000E+00  0.00000000000E+00  0.44850735370E+03  0.45750619060E+03  0.90294341554E+02 0.  0.
    9000005    2    3    3    0    0 -0.38725460457E+02  0.20374876056E+01  0.34130290963E+03  0.34350353506E+03  0.17860096015E+01 0.  0.
         22    1    3    3    0    0  0.38725460457E+02 -0.20374876056E+01  0.10720444407E+03  0.11400265554E+03  0.00000000000E+00 0.  1.
         22    1    4    4    0    0 -0.99559411836E+00 -0.23035972959E+00  0.91921132699E+01  0.92487415154E+01  0.00000000000E+00 0.  1.
         22    1    4    4    0    0 -0.37729866339E+02  0.22678473352E+01  0.33211079637E+03  0.33425479354E+03  0.00000000000E+00 0.  1.
<mgrwt>
<rscale>  0 0.90294342E+02</rscale>
<asrwt>0</asrwt>
<pdfrwt beam="1">  1        1 0.69693385E-01 0.90294342E+02</pdfrwt>
<pdfrwt beam="2">  1       -1 0.69221788E-03 0.90294342E+02</pdfrwt>
<totfact> 0.14107734E+05</totfact>
</mgrwt>
</event>
<event>
 7    1  0.2911475E-009  0.8963621E+02  0.7818608E-02  0.1303735E+00
         -1   -1    0    0    0  501 -0.00000000000E+00  0.00000000000E+00  0.61953445968E+01  0.61953466468E+01  0.50400000000E-02 0.  1.
          1   -1    0    0  501    0  0.00000000000E+00 -0.00000000000E+00 -0.32422121053E+03  0.32422121057E+03  0.50400000000E-02 0. -1.
         23    2    1    2    0    0 -0.35527136788E-14  0.00000000000E+00 -0.31802586593E+03  0.33041655721E+03  0.89636208531E+02 0.  0.
    9000005    2    3    3    0    0  0.19663191451E+02 -0.12131583893E+02 -0.30034754079E+03  0.30132464072E+03  0.73537348675E+01 0.  0.
         22    1    3    3    0    0 -0.19663191451E+02  0.12131583893E+02 -0.17678325138E+02  0.29091916497E+02  0.00000000000E+00 0.  1.
         22    1    4    4    0    0  0.19255602231E+02 -0.12975957529E+02 -0.29276474885E+03  0.29368410216E+03  0.00000000000E+00 0. -1.
         22    1    4    4    0    0  0.40758922071E+00  0.84437363579E+00 -0.75827919386E+01  0.76405385539E+01  0.00000000000E+00 0. -1.
<mgrwt>
<rscale>  0 0.89636209E+02</rscale>
<asrwt>0</asrwt>
<pdfrwt beam="2">  1        1 0.49880173E-01 0.89636209E+02</pdfrwt>
<pdfrwt beam="1">  1       -1 0.95313035E-03 0.89636209E+02</pdfrwt>
<totfact> 0.13603272E+05</totfact>
</mgrwt>
</event>
<event>
 7    1  0.3079698E-009  0.9175393E+02  0.7818608E-02  0.1298659E+00
         -1   -1    0    0    0  501 -0.00000000000E+00  0.00000000000E+00  0.10057500572E+02  0.10057501834E+02  0.50400000000E-02 0.  1.
          1   -1    0    0  501    0  0.00000000000E+00 -0.00000000000E+00 -0.20926629229E+03  0.20926629235E+03  0.50400000000E-02 0. -1.
         23    2    1    2    0    0  0.00000000000E+00  0.00000000000E+00 -0.19920879171E+03  0.21932379418E+03  0.91753931783E+02 0.  0.
    9000005    2    3    3    0    0  0.68364507845E+01  0.22168239229E+02 -0.19360719693E+03  0.19545863644E+03  0.13496813139E+02 0.  0.
         22    1    3    3    0    0 -0.68364507845E+01 -0.22168239229E+02 -0.56015947793E+01  0.23865157739E+02  0.00000000000E+00 0.  1.
         22    1    4    4    0    0 -0.62389801263E+00  0.55401685700E+01 -0.96182715229E+02  0.96344161345E+02  0.00000000000E+00 0. -1.
         22    1    4    4    0    0  0.74603487971E+01  0.16628070659E+02 -0.97424481706E+02  0.99114475097E+02  0.00000000000E+00 0. -1.
<mgrwt>
<rscale>  0 0.91753932E+02</rscale>
<asrwt>0</asrwt>
<pdfrwt beam="2">  1        1 0.32194811E-01 0.91753932E+02</pdfrwt>
<pdfrwt beam="1">  1       -1 0.15473080E-02 0.91753932E+02</pdfrwt>
<totfact> 0.11744787E+05</totfact>
</mgrwt>
</event>
<event>
 7    1  0.2911475E-009  0.8899197E+02  0.7818608E-02  0.1305311E+00
          1   -1    0    0  501    0  0.00000000000E+00  0.00000000000E+00  0.10718786212E+02  0.10718787397E+02  0.50400000000E-02 0. -1.
         -1   -1    0    0    0  501 -0.00000000000E+00 -0.00000000000E+00 -0.18471240410E+03  0.18471240417E+03  0.50400000000E-02 0.  1.
         23    2    1    2    0    0  0.00000000000E+00  0.00000000000E+00 -0.17399361789E+03  0.19543119156E+03  0.88991974756E+02 0.  0.
    9000005    2    3    3    0    0  0.14851522275E+02 -0.32109399776E+02 -0.14592491858E+03  0.15027110799E+03  0.59785253175E+01 0.  0.
         22    1    3    3    0    0 -0.14851522275E+02  0.32109399776E+02 -0.28068699303E+02  0.45160083574E+02  0.00000000000E+00 0. -1.
         22    1    4    4    0    0  0.10277394643E+01 -0.68063142453E+01 -0.34185056711E+02  0.34871195338E+02  0.00000000000E+00 0. -1.
         22    1    4    4    0    0  0.13823782811E+02 -0.25303085531E+02 -0.11173986187E+03  0.11539991265E+03  0.00000000000E+00 0. -1.
<mgrwt>
<rscale>  0 0.88991975E+02</rscale>
<asrwt>0</asrwt>
<pdfrwt beam="1">  1        1 0.16490443E-02 0.88991975E+02</pdfrwt>
<pdfrwt beam="2">  1       -1 0.28417291E-01 0.88991975E+02</pdfrwt>
<totfact> 0.75595156E+04</totfact>
</mgrwt>
</event>
<event>
 7    1  0.2911475E-009  0.9132253E+02  0.7818608E-02  0.1299680E+00
         -1   -1    0    0    0  501 -0.00000000000E+00  0.00000000000E+00  0.21848445816E+03  0.21848445822E+03  0.50400000000E-02 0.  1.
          1   -1    0    0  501    0  0.00000000000E+00 -0.00000000000E+00 -0.95427880004E+01  0.95427893314E+01  0.50400000000E-02 0. -1.
         23    2    1    2    0    0  0.00000000000E+00  0.00000000000E+00  0.20894167016E+03  0.22802724755E+03  0.91322527867E+02 0.  0.
    9000005    2    3    3    0    0 -0.68830972804E+01 -0.13456255541E+02  0.21170943833E+03  0.21266142893E+03  0.13249499399E+02 0.  0.
         22    1    3    3    0    0  0.68830972804E+01  0.13456255541E+02 -0.27677681681E+01  0.15365818624E+02  0.00000000000E+00 0. -1.
         22    1    4    4    0    0 -0.15975994061E+01  0.26623778323E+01  0.28665483210E+02  0.28833149451E+02  0.00000000000E+00 0. -1.
         22    1    4    4    0    0 -0.52854978743E+01 -0.16118633373E+02  0.18304395512E+03  0.18382827948E+03  0.00000000000E+00 0. -1.
<mgrwt>
<rscale>  0 0.91322528E+02</rscale>
<asrwt>0</asrwt>
<pdfrwt beam="2">  1        1 0.14681215E-02 0.91322528E+02</pdfrwt>
<pdfrwt beam="1">  1       -1 0.33612991E-01 0.91322528E+02</pdfrwt>
<totfact> 0.67352918E+04</totfact>
</mgrwt>
</event>
<event>
 7    1  0.2911475E-009  0.9252546E+02  0.7818608E-02  0.1296849E+00
          1   -1    0    0  501    0  0.00000000000E+00  0.00000000000E+00  0.13160902962E+02  0.13160903927E+02  0.50400000000E-02 0. -1.
         -1   -1    0    0    0  501 -0.00000000000E+00 -0.00000000000E+00 -0.16262105164E+03  0.16262105172E+03  0.50400000000E-02 0.  1.
         23    2    1    2    0    0  0.00000000000E+00 -0.35527136788E-14 -0.14946014868E+03  0.17578195565E+03  0.92525455350E+02 0.  0.
    9000005    2    3    3    0    0  0.22540447135E+02  0.20577003872E+02 -0.14058878136E+03  0.14399853224E+03  0.62359439380E+01 0.  0.
         22    1    3    3    0    0 -0.22540447135E+02 -0.20577003872E+02 -0.88713673168E+01  0.31783423407E+02  0.00000000000E+00 0. -1.
         22    1    4    4    0    0  0.86652420441E+01  0.44209570307E+01 -0.50312671349E+02  0.51244474619E+02  0.00000000000E+00 0.  1.
         22    1    4    4    0    0  0.13875205091E+02  0.16156046841E+02 -0.90276110015E+02  0.92754057621E+02  0.00000000000E+00 0.  1.
<mgrwt>
<rscale>  0 0.92525455E+02</rscale>
<asrwt>0</asrwt>
<pdfrwt beam="1">  1        1 0.20247545E-02 0.92525455E+02</pdfrwt>
<pdfrwt beam="2">  1       -1 0.25018622E-01 0.92525455E+02</pdfrwt>
<totfact> 0.70600670E+04</totfact>
</mgrwt>
</event>
<event>
 7    1  0.2911475E-009  0.8659525E+02  0.7818608E-02  0.1311313E+00
          1   -1    0    0  501    0  0.00000000000E+00  0.00000000000E+00  0.26732261437E+02  0.26732261912E+02  0.50400000000E-02 0. -1.
         -1   -1    0    0    0  501 -0.00000000000E+00 -0.00000000000E+00 -0.70128152877E+02  0.70128153058E+02  0.50400000000E-02 0.  1.
         23    2    1    2    0    0  0.88817841970E-15 -0.35527136788E-14 -0.43395891440E+02  0.96860414970E+02  0.86595245795E+02 0.  0.
    9000005    2    3    3    0    0 -0.68462347651E+01  0.30160519087E+02  0.97531016944E+01  0.35367786849E+02  0.14114868470E+02 0.  0.
         22    1    3    3    0    0  0.68462347651E+01 -0.30160519087E+02 -0.53148993134E+02  0.61492628121E+02  0.00000000000E+00 0.  1.
         22    1    4    4    0    0  0.55202512182E+00 -0.13403025516E+01 -0.30776685944E+00  0.14818444941E+01  0.00000000000E+00 0. -1.
         22    1    4    4    0    0 -0.73982598869E+01  0.31500821638E+02  0.10060868554E+02  0.33885942355E+02  0.00000000000E+00 0. -1.
<mgrwt>
<rscale>  0 0.86595246E+02</rscale>
<asrwt>0</asrwt>
<pdfrwt beam="1">  1        1 0.41126557E-02 0.86595246E+02</pdfrwt>
<pdfrwt beam="2">  1       -1 0.10788947E-01 0.86595246E+02</pdfrwt>
<totfact> 0.98649261E+04</totfact>
</mgrwt>
</event>
<event>
 7    1  0.2911475E-009  0.1173142E+03  0.7818608E-02  0.1247595E+00
         -1   -1    0    0    0  501 -0.00000000000E+00  0.00000000000E+00  0.35625715856E+01  0.35625751506E+01  0.50400000000E-02 0.  1.
          1   -1    0    0  501    0  0.00000000000E+00 -0.00000000000E+00 -0.96577825696E+03  0.96577825697E+03  0.50400000000E-02 0. -1.
         23    2    1    2    0    0 -0.35527136788E-14  0.00000000000E+00 -0.96221568537E+03  0.96934083212E+03  0.11731420904E+03 0.  0.
    9000005    2    3    3    0    0  0.30228212713E+02 -0.15763035853E+02 -0.87437833516E+03  0.87511971859E+03  0.11611663157E+02 0.  0.
         22    1    3    3    0    0 -0.30228212713E+02  0.15763035853E+02 -0.87837350208E+02  0.94221113529E+02  0.00000000000E+00 0.  1.
         22    1    4    4    0    0  0.93993392616E+01 -0.87792446667E+01 -0.22260087152E+03  0.22297212991E+03  0.00000000000E+00 0.  1.
         22    1    4    4    0    0  0.20828873452E+02 -0.69837911865E+01 -0.65177746364E+03  0.65214758868E+03  0.00000000000E+00 0.  1.
<mgrwt>
<rscale>  0 0.11731421E+03</rscale>
<asrwt>0</asrwt>
<pdfrwt beam="2">  1        1 0.14858106E+00 0.11731421E+03</pdfrwt>
<pdfrwt beam="1">  1       -1 0.54808898E-03 0.11731421E+03</pdfrwt>
<totfact> 0.69910662E+04</totfact>
</mgrwt>
</event>
<event>
 7    1  0.2911475E-009  0.9083135E+02  0.7818608E-02  0.1300851E+00
         -1   -1    0    0    0  501 -0.00000000000E+00  0.00000000000E+00  0.41138647957E+02  0.41138648265E+02  0.50400000000E-02 0.  1.
          1   -1    0    0  501    0  0.00000000000E+00 -0.00000000000E+00 -0.50137362494E+02  0.50137362747E+02  0.50400000000E-02 0. -1.
         23    2    1    2    0    0 -0.35527136788E-14  0.00000000000E+00 -0.89987145369E+01  0.91276011012E+02  0.90831345487E+02 0.  0.
    9000005    2    3    3    0    0  0.29363220723E+02  0.38362720277E+01 -0.37641020629E+02  0.50077741479E+02  0.14629355534E+02 0.  0.
         22    1    3    3    0    0 -0.29363220723E+02 -0.38362720277E+01  0.28642306092E+02  0.41198269533E+02  0.00000000000E+00 0.  1.
         22    1    4    4    0    0  0.24646005446E+02  0.45235105777E+01 -0.37749986796E+02  0.45309482843E+02  0.00000000000E+00 0.  1.
         22    1    4    4    0    0  0.47172152768E+01 -0.68723854999E+00  0.10896616740E+00  0.47682586358E+01  0.00000000000E+00 0.  1.
<mgrwt>
<rscale>  0 0.90831345E+02</rscale>
<asrwt>0</asrwt>
<pdfrwt beam="2">  1        1 0.77134404E-02 0.90831345E+02</pdfrwt>
<pdfrwt beam="1">  1       -1 0.63290228E-02 0.90831345E+02</pdfrwt>
<totfact> 0.94802653E+04</totfact>
</mgrwt>
</event>
<event>
 7    1  0.2911475E-009  0.9441246E+02  0.7818608E-02  0.1292505E+00
         -1   -1    0    0    0  501 -0.00000000000E+00  0.00000000000E+00  0.81501165347E+01  0.81501180930E+01  0.50400000000E-02 0.  1.
          1   -1    0    0  501    0  0.00000000000E+00 -0.00000000000E+00 -0.27342283354E+03  0.27342283359E+03  0.50400000000E-02 0. -1.
         23    2    1    2    0    0  0.00000000000E+00  0.17763568394E-14 -0.26527271701E+03  0.28157295168E+03  0.94412460673E+02 0.  0.
    9000005    2    3    3    0    0 -0.33992464262E+02 -0.15114935851E+02 -0.49418628028E+02  0.62536569677E+02  0.92017845251E+01 0.  0.
         22    1    3    3    0    0  0.33992464262E+02  0.15114935851E+02 -0.21585408898E+03  0.21903638201E+03  0.00000000000E+00 0. -1.
         22    1    4    4    0    0 -0.19407615105E+02 -0.11929567392E+02 -0.35143538260E+02  0.41881241429E+02  0.00000000000E+00 0.  1.
         22    1    4    4    0    0 -0.14584849157E+02 -0.31853684591E+01 -0.14275089768E+02  0.20655328248E+02  0.00000000000E+00 0.  1.
<mgrwt>
<rscale>  0 0.94412461E+02</rscale>
<asrwt>0</asrwt>
<pdfrwt beam="2">  1        1 0.42065045E-01 0.94412461E+02</pdfrwt>
<pdfrwt beam="1">  1       -1 0.12538644E-02 0.94412461E+02</pdfrwt>
<totfact> 0.11464423E+05</totfact>
</mgrwt>
</event>
<event>
 7    1  0.2911475E-009  0.9088999E+02  0.7818608E-02  0.1300711E+00
         -1   -1    0    0    0  501 -0.00000000000E+00  0.00000000000E+00  0.25546368442E+01  0.25546418158E+01  0.50400000000E-02 0. -1.
          1   -1    0    0  501    0  0.00000000000E+00 -0.00000000000E+00 -0.80843012341E+03  0.80843012343E+03  0.50400000000E-02 0.  1.
         23    2    1    2    0    0  0.00000000000E+00  0.00000000000E+00 -0.80587548657E+03  0.81098476525E+03  0.90889986281E+02 0.  0.
    9000005    2    3    3    0    0  0.18365349111E+02  0.28254998425E+02 -0.67197584245E+03  0.67290962020E+03  0.10963263084E+02 0.  0.
         22    1    3    3    0    0 -0.18365349111E+02 -0.28254998425E+02 -0.13389964412E+03  0.13807514505E+03  0.00000000000E+00 0. -1.
         22    1    4    4    0    0  0.14151156979E+02  0.13383296678E+02 -0.42968302664E+03  0.43012425096E+03  0.00000000000E+00 0.  1.
         22    1    4    4    0    0  0.42141921317E+01  0.14871701746E+02 -0.24229281580E+03  0.24278536924E+03  0.00000000000E+00 0.  1.
<mgrwt>
<rscale>  0 0.90889986E+02</rscale>
<asrwt>0</asrwt>
<pdfrwt beam="2">  1        1 0.12437366E+00 0.90889986E+02</pdfrwt>
<pdfrwt beam="1">  1       -1 0.39302208E-03 0.90889986E+02</pdfrwt>
<totfact> 0.14234511E+05</totfact>
</mgrwt>
</event>
<event>
 7    1  0.2911475E-009  0.9028699E+02  0.7818608E-02  0.1302158E+00
         -1   -1    0    0    0  501 -0.00000000000E+00  0.00000000000E+00  0.77790035050E+03  0.77790035052E+03  0.50400000000E-02 0.  1.
          1   -1    0    0  501    0  0.00000000000E+00 -0.00000000000E+00 -0.26197867520E+01  0.26197916000E+01  0.50400000000E-02 0. -1.
         23    2    1    2    0    0  0.00000000000E+00  0.00000000000E+00  0.77528056375E+03  0.78052014212E+03  0.90286985352E+02 0.  0.
    9000005    2    3    3    0    0  0.19184217733E+02 -0.88654104714E+01  0.73118098954E+03  0.73161817735E+03  0.13888421384E+02 0.  0.
         22    1    3    3    0    0 -0.19184217733E+02  0.88654104714E+01  0.44099574205E+02  0.48901964765E+02  0.00000000000E+00 0. -1.
         22    1    4    4    0    0 -0.89089724413E+00 -0.39243906767E+01  0.18964292314E+03  0.18968561579E+03  0.00000000000E+00 0. -1.
         22    1    4    4    0    0  0.20075114977E+02 -0.49410197946E+01  0.54153806640E+03  0.54193256156E+03  0.00000000000E+00 0. -1.
<mgrwt>
<rscale>  0 0.90286985E+02</rscale>
<asrwt>0</asrwt>
<pdfrwt beam="2">  1        1 0.40304490E-03 0.90286985E+02</pdfrwt>
<pdfrwt beam="1">  1       -1 0.11967686E+00 0.90286985E+02</pdfrwt>
<totfact> 0.34413559E+04</totfact>
</mgrwt>
</event>
<event>
 7    1  0.2911475E-009  0.9065951E+02  0.7818608E-02  0.1301262E+00
          1   -1    0    0  501    0  0.00000000000E+00  0.00000000000E+00  0.71762503347E+03  0.71762503348E+03  0.50400000000E-02 0. -1.
         -1   -1    0    0    0  501 -0.00000000000E+00 -0.00000000000E+00 -0.28633131263E+01  0.28633175620E+01  0.50400000000E-02 0.  1.
         23    2    1    2    0    0  0.88817841970E-15  0.00000000000E+00  0.71476172034E+03  0.72048835105E+03  0.90659512075E+02 0.  0.
    9000005    2    3    3    0    0  0.41000686166E+01  0.20144981603E+02  0.67757746943E+03  0.67799953649E+03  0.12227573695E+02 0.  0.
         22    1    3    3    0    0 -0.41000686166E+01 -0.20144981603E+02  0.37184250910E+02  0.42488814554E+02  0.00000000000E+00 0.  1.
         22    1    4    4    0    0  0.81455689311E+01  0.12838518967E+02  0.37798166933E+03  0.37828735137E+03  0.00000000000E+00 0.  1.
         22    1    4    4    0    0 -0.40455003144E+01  0.73064626360E+01  0.29959580010E+03  0.29971218512E+03  0.00000000000E+00 0.  1.
<mgrwt>
<rscale>  0 0.90659512E+02</rscale>
<asrwt>0</asrwt>
<pdfrwt beam="1">  1        1 0.11040390E+00 0.90659512E+02</pdfrwt>
<pdfrwt beam="2">  1       -1 0.44050985E-03 0.90659512E+02</pdfrwt>
<totfact> 0.14427431E+05</totfact>
</mgrwt>
</event>
<event>
 7    1  0.2911475E-009  0.5424757E+02  0.7818608E-02  0.1423691E+00
         -1   -1    0    0    0  501 -0.00000000000E+00  0.00000000000E+00  0.94979693671E+01  0.94979707043E+01  0.50400000000E-02 0.  1.
          1   -1    0    0  501    0  0.00000000000E+00 -0.00000000000E+00 -0.77458632832E+02  0.77458632996E+02  0.50400000000E-02 0. -1.
         23    2    1    2    0    0 -0.17763568394E-14  0.00000000000E+00 -0.67960663465E+02  0.86956603700E+02  0.54247572743E+02 0.  0.
    9000005    2    3    3    0    0  0.15329658932E+02  0.42551926290E+01 -0.69159559785E+02  0.71002216853E+02  0.22726594799E+01 0.  0.
         22    1    3    3    0    0 -0.15329658932E+02 -0.42551926290E+01  0.11988963200E+01  0.15954386847E+02  0.00000000000E+00 0.  1.
         22    1    4    4    0    0  0.96140855633E+01  0.23060075167E+01 -0.38161633143E+02  0.39421549386E+02  0.00000000000E+00 0.  1.
         22    1    4    4    0    0  0.57155733688E+01  0.19491851122E+01 -0.30997926642E+02  0.31580667467E+02  0.00000000000E+00 0.  1.
<mgrwt>
<rscale>  0 0.54247573E+02</rscale>
<asrwt>0</asrwt>
<pdfrwt beam="2">  1        1 0.11916712E-01 0.54247573E+02</pdfrwt>
<pdfrwt beam="1">  1       -1 0.14612262E-02 0.54247573E+02</pdfrwt>
<totfact> 0.39718639E+05</totfact>
</mgrwt>
</event>
<event>
 6    1  0.2911475E-009  0.2301309E+03  0.7818608E-02  0.1126548E+00
          1   -1    0    0  501    0  0.00000000000E+00  0.00000000000E+00  0.24667517028E+02  0.24667517543E+02  0.50400000000E-02 0. -1.
         -1   -1    0    0    0  501 -0.00000000000E+00 -0.00000000000E+00 -0.53674069551E+03  0.53674069553E+03  0.50400000000E-02 0.  1.
    9000005    2    1    2    0    0 -0.87023312029E+02 -0.73108337742E+02 -0.29973499797E+03  0.32056513390E+03  0.17464764574E+01 0.  0.
         22    1    1    2    0    0  0.87023312029E+02  0.73108337742E+02 -0.21233818051E+03  0.24084307917E+03  0.00000000000E+00 0. -1.
         22    1    3    3    0    0 -0.61274292311E+02 -0.52219198884E+02 -0.21073017242E+03  0.22558499329E+03  0.00000000000E+00 0.  1.
         22    1    3    3    0    0 -0.25749019718E+02 -0.20889138858E+02 -0.89004825551E+02  0.94980140609E+02  0.00000000000E+00 0.  1.
<mgrwt>
<rscale>  0 0.23013092E+03</rscale>
<asrwt>0</asrwt>
<pdfrwt beam="1">  1        1 0.37950031E-02 0.23013092E+03</pdfrwt>
<pdfrwt beam="2">  1       -1 0.82575483E-01 0.23013092E+03</pdfrwt>
<totfact> 0.36976748E+03</totfact>
</mgrwt>
</event>
<event>
 7    1  0.2911475E-009  0.9072083E+02  0.7818608E-02  0.1301115E+00
         -1   -1    0    0    0  501 -0.00000000000E+00  0.00000000000E+00  0.60666153213E+02  0.60666153423E+02  0.50400000000E-02 0.  1.
          1   -1    0    0  501    0  0.00000000000E+00 -0.00000000000E+00 -0.33916229906E+02  0.33916230280E+02  0.50400000000E-02 0. -1.
         23    2    1    2    0    0  0.00000000000E+00  0.00000000000E+00  0.26749923308E+02  0.94582383703E+02  0.90720829527E+02 0.  0.
    9000005    2    3    3    0    0  0.10044351543E+02  0.43079820907E+02  0.23505130559E+02  0.50228255966E+02  0.36914180924E+01 0.  0.
         22    1    3    3    0    0 -0.10044351543E+02 -0.43079820907E+02  0.32447927484E+01  0.44354127737E+02  0.00000000000E+00 0. -1.
         22    1    4    4    0    0  0.10827963349E+01  0.73764360061E+01  0.26023012403E+01  0.78965959628E+01  0.00000000000E+00 0.  1.
         22    1    4    4    0    0  0.89615552085E+01  0.35703384901E+02  0.20902829319E+02  0.42331660004E+02  0.00000000000E+00 0.  1.
<mgrwt>
<rscale>  0 0.90720830E+02</rscale>
<asrwt>0</asrwt>
<pdfrwt beam="2">  1        1 0.52178816E-02 0.90720830E+02</pdfrwt>
<pdfrwt beam="1">  1       -1 0.93332543E-02 0.90720830E+02</pdfrwt>
<totfact> 0.89660553E+04</totfact>
</mgrwt>
</event>
<event>
 7    1  0.2911475E-009  0.9124883E+02  0.7818608E-02  0.1299855E+00
          1   -1    0    0  501    0  0.00000000000E+00  0.00000000000E+00  0.27043570606E+02  0.27043571075E+02  0.50400000000E-02 0. -1.
         -1   -1    0    0    0  501 -0.00000000000E+00 -0.00000000000E+00 -0.76971616084E+02  0.76971616249E+02  0.50400000000E-02 0.  1.
         23    2    1    2    0    0  0.00000000000E+00  0.71054273576E-14 -0.49928045479E+02  0.10401518732E+03  0.91248832699E+02 0.  0.
    9000005    2    3    3    0    0 -0.16875778592E+02 -0.38379858104E+02 -0.83595082694E+01  0.44974957846E+02  0.13966389784E+02 0.  0.
         22    1    3    3    0    0  0.16875778592E+02  0.38379858104E+02 -0.41568537209E+02  0.59040229479E+02  0.00000000000E+00 0.  1.
         22    1    4    4    0    0 -0.16585285204E+02 -0.22065075135E+02 -0.28382074388E+01  0.27748777405E+02  0.00000000000E+00 0.  1.
         22    1    4    4    0    0 -0.29049338839E+00 -0.16314782969E+02 -0.55213008306E+01  0.17226180441E+02  0.00000000000E+00 0.  1.
<mgrwt>
<rscale>  0 0.91248833E+02</rscale>
<asrwt>0</asrwt>
<pdfrwt beam="1">  1        1 0.41605494E-02 0.91248833E+02</pdfrwt>
<pdfrwt beam="2">  1       -1 0.11841787E-01 0.91248833E+02</pdfrwt>
<totfact> 0.85029011E+04</totfact>
</mgrwt>
</event>
<event>
 7    1  0.2911475E-009  0.9625185E+02  0.7818608E-02  0.1288381E+00
          1   -1    0    0  501    0  0.00000000000E+00  0.00000000000E+00  0.18306028503E+02  0.18306029197E+02  0.50400000000E-02 0. -1.
         -1   -1    0    0    0  501 -0.00000000000E+00 -0.00000000000E+00 -0.12652140760E+03  0.12652140770E+03  0.50400000000E-02 0.  1.
         23    2    1    2    0    0 -0.71054273576E-14  0.00000000000E+00 -0.10821537910E+03  0.14482743690E+03  0.96251847801E+02 0.  0.
    9000005    2    3    3    0    0 -0.34232286366E+02  0.30136126274E+02 -0.74426344665E+02  0.88067112862E+02  0.11683323631E+02 0.  0.
         22    1    3    3    0    0  0.34232286366E+02 -0.30136126274E+02 -0.33789034431E+02  0.56760324034E+02  0.00000000000E+00 0. -1.
         22    1    4    4    0    0 -0.22944840235E+02  0.18379318126E+02 -0.57441766075E+02  0.64527680247E+02  0.00000000000E+00 0.  1.
         22    1    4    4    0    0 -0.11287446131E+02  0.11756808148E+02 -0.16984578590E+02  0.23539432616E+02  0.00000000000E+00 0.  1.
<mgrwt>
<rscale>  0 0.96251848E+02</rscale>
<asrwt>0</asrwt>
<pdfrwt beam="1">  1        1 0.28163122E-02 0.96251848E+02</pdfrwt>
<pdfrwt beam="2">  1       -1 0.19464831E-01 0.96251848E+02</pdfrwt>
<totfact> 0.67494721E+04</totfact>
</mgrwt>
</event>
<event>
 7    1  0.2911475E-009  0.8998319E+02  0.7818608E-02  0.1302892E+00
         -1   -1    0    0    0  501 -0.00000000000E+00  0.00000000000E+00  0.34805375200E+01  0.34805411691E+01  0.50400000000E-02 0.  1.
          1   -1    0    0  501    0  0.00000000000E+00 -0.00000000000E+00 -0.58158904632E+03  0.58158904634E+03  0.50400000000E-02 0. -1.
         23    2    1    2    0    0  0.00000000000E+00  0.00000000000E+00 -0.57810850880E+03  0.58506958751E+03  0.89983188892E+02 0.  0.
    9000005    2    3    3    0    0  0.29527211420E+02 -0.10008945365E+02 -0.49858949355E+03  0.49965700654E+03  0.96750145270E+01 0.  0.
         22    1    3    3    0    0 -0.29527211420E+02  0.10008945365E+02 -0.79519015253E+02  0.85412580972E+02  0.00000000000E+00 0.  1.
         22    1    4    4    0    0  0.26080395618E+02 -0.11484454240E+02 -0.46133965430E+03  0.46221894850E+03  0.00000000000E+00 0. -1.
         22    1    4    4    0    0  0.34468158022E+01  0.14755088750E+01 -0.37249839247E+02  0.37438058037E+02  0.00000000000E+00 0. -1.
<mgrwt>
<rscale>  0 0.89983189E+02</rscale>
<asrwt>0</asrwt>
<pdfrwt beam="2">  1        1 0.89475161E-01 0.89983189E+02</pdfrwt>
<pdfrwt beam="1">  1       -1 0.53546805E-03 0.89983189E+02</pdfrwt>
<totfact> 0.14630993E+05</totfact>
</mgrwt>
</event>
<event>
 7    1  0.3995766E-009  0.9169359E+02  0.7818608E-02  0.1298801E+00
          1   -1    0    0  501    0  0.00000000000E+00  0.00000000000E+00  0.73184058411E+03  0.73184058413E+03  0.50400000000E-02 0. -1.
         -1   -1    0    0    0  501 -0.00000000000E+00 -0.00000000000E+00 -0.28721102741E+01  0.28721146962E+01  0.50400000000E-02 0.  1.
         23    2    1    2    0    0  0.22204460493E-15  0.00000000000E+00  0.72896847384E+03  0.73471269882E+03  0.91693587377E+02 0.  0.
    9000005    2    3    3    0    0  0.14640746458E+01 -0.33439519730E+02  0.61041266526E+03  0.61152250140E+03  0.15355872274E+02 0.  0.
         22    1    3    3    0    0 -0.14640746458E+01  0.33439519730E+02  0.11855580857E+03  0.12319019742E+03  0.00000000000E+00 0.  1.
         22    1    4    4    0    0  0.75006837142E+01 -0.10730782655E+02  0.25268777028E+03  0.25302671638E+03  0.00000000000E+00 0.  1.
         22    1    4    4    0    0 -0.60366090685E+01 -0.22708737076E+02  0.35772489498E+03  0.35849578502E+03  0.00000000000E+00 0.  1.
<mgrwt>
<rscale>  0 0.91693587E+02</rscale>
<asrwt>0</asrwt>
<pdfrwt beam="1">  1        1 0.11259078E+00 0.91693587E+02</pdfrwt>
<pdfrwt beam="2">  1       -1 0.44186376E-03 0.91693587E+02</pdfrwt>
<totfact> 0.13993637E+05</totfact>
</mgrwt>
</event>
<event>
 7    1  0.2911475E-009  0.7824829E+02  0.7818608E-02  0.1334097E+00
         -1   -1    0    0    0  501 -0.00000000000E+00  0.00000000000E+00  0.45237807512E+02  0.45237807792E+02  0.50400000000E-02 0.  1.
          1   -1    0    0  501    0  0.00000000000E+00 -0.00000000000E+00 -0.33836716638E+02  0.33836717014E+02  0.50400000000E-02 0. -1.
         23    2    1    2    0    0  0.00000000000E+00  0.00000000000E+00  0.11401090873E+02  0.79074524806E+02  0.78248294552E+02 0.  0.
    9000005    2    3    3    0    0 -0.11693735475E+02  0.14140729930E+02  0.39705299976E+02  0.45342760173E+02  0.11947860129E+02 0.  0.
         22    1    3    3    0    0  0.11693735475E+02 -0.14140729930E+02 -0.28304209102E+02  0.33731764633E+02  0.00000000000E+00 0. -1.
         22    1    4    4    0    0 -0.12051826154E+02  0.15768961310E+02  0.38398695554E+02  0.43224604968E+02  0.00000000000E+00 0. -1.
         22    1    4    4    0    0  0.35809067870E+00 -0.16282313791E+01  0.13066044216E+01  0.21181552051E+01  0.00000000000E+00 0. -1.
<mgrwt>
<rscale>  0 0.78248295E+02</rscale>
<asrwt>0</asrwt>
<pdfrwt beam="2">  1        1 0.52056488E-02 0.78248295E+02</pdfrwt>
<pdfrwt beam="1">  1       -1 0.69596627E-02 0.78248295E+02</pdfrwt>
<totfact> 0.13579111E+05</totfact>
</mgrwt>
</event>
<event>
 7    1  0.2911475E-009  0.9177830E+02  0.7818608E-02  0.1298602E+00
         -1   -1    0    0    0  501 -0.00000000000E+00  0.00000000000E+00  0.89536267816E+02  0.89536267958E+02  0.50400000000E-02 0.  1.
          1   -1    0    0  501    0  0.00000000000E+00 -0.00000000000E+00 -0.23519119681E+02  0.23519120221E+02  0.50400000000E-02 0. -1.
         23    2    1    2    0    0 -0.35527136788E-14  0.00000000000E+00  0.66017148135E+02  0.11305538818E+03  0.91778303256E+02 0.  0.
    9000005    2    3    3    0    0 -0.30924970134E+02  0.66205563709E+01 -0.71271954157E+01  0.33366740695E+02  0.78966401534E+01 0.  0.
         22    1    3    3    0    0  0.30924970134E+02 -0.66205563709E+01  0.73144343551E+02  0.79688647484E+02  0.00000000000E+00 0.  1.
         22    1    4    4    0    0 -0.97419879934E+01  0.57164471423E+01 -0.37221496597E+01  0.11892791770E+02  0.00000000000E+00 0. -1.
         22    1    4    4    0    0 -0.21182982140E+02  0.90410922854E+00 -0.34050457560E+01  0.21473948925E+02  0.00000000000E+00 0. -1.
<mgrwt>
<rscale>  0 0.91778303E+02</rscale>
<asrwt>0</asrwt>
<pdfrwt beam="2">  1        1 0.36183262E-02 0.91778303E+02</pdfrwt>
<pdfrwt beam="1">  1       -1 0.13774810E-01 0.91778303E+02</pdfrwt>
<totfact> 0.81626539E+04</totfact>
</mgrwt>
</event>
<event>
 7    1  0.2911475E-009  0.9334231E+02  0.7818608E-02  0.1294954E+00
         -1   -1    0    0    0  501 -0.00000000000E+00  0.00000000000E+00  0.22850899951E+01  0.22850955532E+01  0.50400000000E-02 0.  1.
          1   -1    0    0  501    0  0.00000000000E+00 -0.00000000000E+00 -0.95322023412E+03  0.95322023414E+03  0.50400000000E-02 0. -1.
         23    2    1    2    0    0  0.00000000000E+00 -0.44408920985E-15 -0.95093514413E+03  0.95550532969E+03  0.93342309418E+02 0.  0.
    9000005    2    3    3    0    0 -0.16394934083E+02  0.23277715312E+01 -0.92155489171E+03  0.92177979610E+03  0.11847433252E+02 0.  0.
         22    1    3    3    0    0  0.16394934083E+02 -0.23277715312E+01 -0.29380252413E+02  0.33725533588E+02  0.00000000000E+00 0.  1.
         22    1    4    4    0    0 -0.15827818094E+02  0.57491862744E+01 -0.73743675943E+03  0.73762900372E+03  0.00000000000E+00 0.  1.
         22    1    4    4    0    0 -0.56711598973E+00 -0.34214147432E+01 -0.18411813228E+03  0.18415079238E+03  0.00000000000E+00 0.  1.
<mgrwt>
<rscale>  0 0.93342309E+02</rscale>
<asrwt>0</asrwt>
<pdfrwt beam="2">  1        1 0.14664895E+00 0.93342309E+02</pdfrwt>
<pdfrwt beam="1">  1       -1 0.35155350E-03 0.93342309E+02</pdfrwt>
<totfact> 0.12932276E+05</totfact>
</mgrwt>
</event>
<event>
 7    1  0.2911475E-009  0.8827465E+02  0.7818608E-02  0.1307084E+00
         -1   -1    0    0    0  501 -0.00000000000E+00  0.00000000000E+00  0.91567152251E+02  0.91567152389E+02  0.50400000000E-02 0.  1.
          1   -1    0    0  501    0  0.00000000000E+00 -0.00000000000E+00 -0.21275134904E+02  0.21275135501E+02  0.50400000000E-02 0. -1.
         23    2    1    2    0    0 -0.88817841970E-15 -0.17763568394E-14  0.70292017346E+02  0.11284228789E+03  0.88274652272E+02 0.  0.
    9000005    2    3    3    0    0 -0.56229207945E+01 -0.12266957749E+02  0.88560353625E+02  0.90130449544E+02  0.99230141655E+01 0.  0.
         22    1    3    3    0    0  0.56229207945E+01  0.12266957749E+02 -0.18268336279E+02  0.22711838347E+02  0.00000000000E+00 0. -1.
         22    1    4    4    0    0 -0.59921762709E+01 -0.20388520713E+01  0.40577633266E+02  0.41068326186E+02  0.00000000000E+00 0. -1.
         22    1    4    4    0    0  0.36925547637E+00 -0.10228105678E+02  0.47982720359E+02  0.49062123358E+02  0.00000000000E+00 0. -1.
<mgrwt>
<rscale>  0 0.88274652E+02</rscale>
<asrwt>0</asrwt>
<pdfrwt beam="2">  1        1 0.32730977E-02 0.88274652E+02</pdfrwt>
<pdfrwt beam="1">  1       -1 0.14087254E-01 0.88274652E+02</pdfrwt>
<totfact> 0.89843929E+04</totfact>
</mgrwt>
</event>
<event>
 7    1  0.2911475E-009  0.8953429E+02  0.7818608E-02  0.1303983E+00
         -1   -1    0    0    0  501 -0.00000000000E+00  0.00000000000E+00  0.26701807202E+01  0.26701854767E+01  0.50400000000E-02 0. -1.
          1   -1    0    0  501    0  0.00000000000E+00 -0.00000000000E+00 -0.75054681357E+03  0.75054681359E+03  0.50400000000E-02 0.  1.
         23    2    1    2    0    0  0.00000000000E+00  0.44408920985E-15 -0.74787663285E+03  0.75321699907E+03  0.89534293517E+02 0.  0.
    9000005    2    3    3    0    0  0.26990382372E+02  0.31346806133E+01 -0.67268234588E+03  0.67326396438E+03  0.66723536514E+01 0.  0.
         22    1    3    3    0    0 -0.26990382372E+02 -0.31346806133E+01 -0.75194286973E+02  0.79953034692E+02  0.00000000000E+00 0. -1.
         22    1    4    4    0    0  0.13185146458E+02  0.47037458353E+01 -0.36395461977E+03  0.36422374794E+03  0.00000000000E+00 0.  1.
         22    1    4    4    0    0  0.13805235915E+02 -0.15690652220E+01 -0.30872772611E+03  0.30904021644E+03  0.00000000000E+00 0.  1.
<mgrwt>
<rscale>  0 0.89534294E+02</rscale>
<asrwt>0</asrwt>
<pdfrwt beam="2">  1        1 0.11546857E+00 0.89534294E+02</pdfrwt>
<pdfrwt beam="1">  1       -1 0.41079800E-03 0.89534294E+02</pdfrwt>
<totfact> 0.14888295E+05</totfact>
</mgrwt>
</event>
<event>
 7    1  0.4411438E-009  0.9260631E+02  0.7818608E-02  0.1296660E+00
          1   -1    0    0  501    0  0.00000000000E+00  0.00000000000E+00  0.83051050875E+03  0.83051050877E+03  0.50400000000E-02 0. -1.
         -1   -1    0    0    0  501 -0.00000000000E+00 -0.00000000000E+00 -0.25815209139E+01  0.25815258338E+01  0.50400000000E-02 0.  1.
         23    2    1    2    0    0  0.00000000000E+00  0.00000000000E+00  0.82792898784E+03  0.83309203460E+03  0.92606313031E+02 0.  0.
    9000005    2    3    3    0    0 -0.37649508556E+02  0.14428954027E+02  0.60928800336E+03  0.61076443780E+03  0.13253196805E+02 0.  0.
         22    1    3    3    0    0  0.37649508556E+02 -0.14428954027E+02  0.21864098447E+03  0.22232759680E+03  0.00000000000E+00 0.  1.
         22    1    4    4    0    0 -0.67236047187E+01  0.48472246021E+01  0.21098150157E+03  0.21114425507E+03  0.00000000000E+00 0. -1.
         22    1    4    4    0    0 -0.30925903837E+02  0.95817294253E+01  0.39830650180E+03  0.39962018273E+03  0.00000000000E+00 0. -1.
<mgrwt>
<rscale>  0 0.92606313E+02</rscale>
<asrwt>0</asrwt>
<pdfrwt beam="1">  1        1 0.12777095E+00 0.92606313E+02</pdfrwt>
<pdfrwt beam="2">  1       -1 0.39715712E-03 0.92606313E+02</pdfrwt>
<totfact> 0.13509582E+05</totfact>
</mgrwt>
</event>
<event>
 7    1  0.2911475E-009  0.8266958E+02  0.7818608E-02  0.1321642E+00
         -1   -1    0    0    0  501 -0.00000000000E+00  0.00000000000E+00  0.87251437265E+02  0.87251437410E+02  0.50400000000E-02 0.  1.
          1   -1    0    0  501    0  0.00000000000E+00 -0.00000000000E+00 -0.19582083755E+02  0.19582084404E+02  0.50400000000E-02 0. -1.
         23    2    1    2    0    0  0.00000000000E+00  0.35527136788E-14  0.67669353510E+02  0.10683352181E+03  0.82669583153E+02 0.  0.
    9000005    2    3    3    0    0 -0.24014542566E+02  0.30116292594E+02  0.51275880446E+02  0.64971423284E+02  0.10410600067E+02 0.  0.
         22    1    3    3    0    0  0.24014542566E+02 -0.30116292594E+02  0.16393473064E+02  0.41862098530E+02  0.00000000000E+00 0. -1.
         22    1    4    4    0    0 -0.94158394490E+01  0.19669762150E+02  0.30832962934E+02  0.37765449539E+02  0.00000000000E+00 0. -1.
         22    1    4    4    0    0 -0.14598703117E+02  0.10446530444E+02  0.20442917511E+02  0.27205973745E+02  0.00000000000E+00 0. -1.
<mgrwt>
<rscale>  0 0.82669583E+02</rscale>
<asrwt>0</asrwt>
<pdfrwt beam="2">  1        1 0.30126283E-02 0.82669583E+02</pdfrwt>
<pdfrwt beam="1">  1       -1 0.13423298E-01 0.82669583E+02</pdfrwt>
<totfact> 0.10717078E+05</totfact>
</mgrwt>
</event>
<event>
 7    1  0.2911475E-009  0.9174652E+02  0.7818608E-02  0.1298677E+00
          1   -1    0    0  501    0  0.00000000000E+00  0.00000000000E+00  0.24350781516E+03  0.24350781522E+03  0.50400000000E-02 0. -1.
         -1   -1    0    0    0  501 -0.00000000000E+00 -0.00000000000E+00 -0.86418408111E+01  0.86418422807E+01  0.50400000000E-02 0.  1.
         23    2    1    2    0    0 -0.35527136788E-14  0.00000000000E+00  0.23486597435E+03  0.25214965750E+03  0.91746519645E+02 0.  0.
    9000005    2    3    3    0    0  0.25520661527E+02  0.16919844643E+02  0.21123959252E+03  0.21347419724E+03  0.33885293648E+01 0.  0.
         22    1    3    3    0    0 -0.25520661527E+02 -0.16919844643E+02  0.23626381829E+02  0.38675460254E+02  0.00000000000E+00 0.  1.
         22    1    4    4    0    0  0.38582331037E+01  0.14602072877E+01  0.23832135210E+02  0.24186542471E+02  0.00000000000E+00 0.  1.
         22    1    4    4    0    0  0.21662428424E+02  0.15459637355E+02  0.18740745731E+03  0.18928765477E+03  0.00000000000E+00 0.  1.
<mgrwt>
<rscale>  0 0.91746520E+02</rscale>
<asrwt>0</asrwt>
<pdfrwt beam="1">  1        1 0.37462739E-01 0.91746520E+02</pdfrwt>
<pdfrwt beam="2">  1       -1 0.13295141E-02 0.91746520E+02</pdfrwt>
<totfact> 0.12100422E+05</totfact>
</mgrwt>
</event>
<event>
 7    1  0.2911475E-009  0.9252097E+02  0.7818608E-02  0.1296859E+00
          1   -1    0    0  501    0  0.00000000000E+00  0.00000000000E+00  0.33888293401E+02  0.33888293775E+02  0.50400000000E-02 0. -1.
         -1   -1    0    0    0  501 -0.00000000000E+00 -0.00000000000E+00 -0.63149604355E+02  0.63149604556E+02  0.50400000000E-02 0.  1.
         23    2    1    2    0    0  0.00000000000E+00  0.00000000000E+00 -0.29261310955E+02  0.97037898332E+02  0.92520967320E+02 0.  0.
    9000005    2    3    3    0    0  0.44107702824E+02 -0.92248540056E+01 -0.19234604972E+02  0.50873819085E+02  0.13696279058E+02 0.  0.
         22    1    3    3    0    0 -0.44107702824E+02  0.92248540056E+01 -0.10026705982E+02  0.46164079247E+02  0.00000000000E+00 0. -1.
         22    1    4    4    0    0  0.61493411483E+01  0.17638391118E+01 -0.70525882940E+01  0.95217921955E+01  0.00000000000E+00 0.  1.
         22    1    4    4    0    0  0.37958361676E+02 -0.10988693117E+02 -0.12182016678E+02  0.41352026890E+02  0.00000000000E+00 0.  1.
<mgrwt>
<rscale>  0 0.92520967E+02</rscale>
<asrwt>0</asrwt>
<pdfrwt beam="1">  1        1 0.52135837E-02 0.92520967E+02</pdfrwt>
<pdfrwt beam="2">  1       -1 0.97153237E-02 0.92520967E+02</pdfrwt>
<totfact> 0.84759114E+04</totfact>
</mgrwt>
</event>
<event>
 7    1  0.2911475E-009  0.9183734E+02  0.7818608E-02  0.1298462E+00
         -1   -1    0    0    0  501 -0.00000000000E+00  0.00000000000E+00  0.28388775722E+01  0.28388820461E+01  0.50400000000E-02 0.  1.
          1   -1    0    0  501    0  0.00000000000E+00 -0.00000000000E+00 -0.74273103960E+03  0.74273103962E+03  0.50400000000E-02 0. -1.
         23    2    1    2    0    0  0.71054273576E-14 -0.88817841970E-15 -0.73989216203E+03  0.74556992166E+03  0.91837338043E+02 0.  0.
    9000005    2    3    3    0    0 -0.41340133074E+02  0.61883207860E+01 -0.51572054117E+03  0.51753435971E+03  0.11262103729E+02 0.  0.
         22    1    3    3    0    0  0.41340133074E+02 -0.61883207860E+01 -0.22417162086E+03  0.22803556196E+03  0.00000000000E+00 0.  1.
         22    1    4    4    0    0 -0.20414311533E+00 -0.13652456122E+01 -0.11595132483E+02  0.11677014485E+02  0.00000000000E+00 0.  1.
         22    1    4    4    0    0 -0.41135989959E+02  0.75535663982E+01 -0.50412540868E+03  0.50585734522E+03  0.00000000000E+00 0.  1.
<mgrwt>
<rscale>  0 0.91837338E+02</rscale>
<asrwt>0</asrwt>
<pdfrwt beam="2">  1        1 0.11426616E+00 0.91837338E+02</pdfrwt>
<pdfrwt beam="1">  1       -1 0.43675133E-03 0.91837338E+02</pdfrwt>
<totfact> 0.13928207E+05</totfact>
</mgrwt>
</event>
<event>
 7    1  0.2911475E-009  0.8933262E+02  0.7818608E-02  0.1304476E+00
         -1   -1    0    0    0  501 -0.00000000000E+00  0.00000000000E+00  0.13571925618E+02  0.13571926554E+02  0.50400000000E-02 0.  1.
          1   -1    0    0  501    0  0.00000000000E+00 -0.00000000000E+00 -0.14700046024E+03  0.14700046032E+03  0.50400000000E-02 0. -1.
         23    2    1    2    0    0  0.88817841970E-15  0.00000000000E+00 -0.13342853462E+03  0.16057238688E+03  0.89332623250E+02 0.  0.
    9000005    2    3    3    0    0  0.73975026672E+01 -0.42502372801E+02 -0.87485901755E+02  0.97549373192E+02  0.96045035155E+00 0.  0.
         22    1    3    3    0    0 -0.73975026672E+01  0.42502372801E+02 -0.45942632863E+02  0.63023013684E+02  0.00000000000E+00 0.  1.
         22    1    4    4    0    0  0.28018683801E+01 -0.17881466149E+02 -0.37520968531E+02  0.41658377039E+02  0.00000000000E+00 0. -1.
         22    1    4    4    0    0  0.45956342870E+01 -0.24620906652E+02 -0.49964933224E+02  0.55890996153E+02  0.00000000000E+00 0. -1.
<mgrwt>
<rscale>  0 0.89332623E+02</rscale>
<asrwt>0</asrwt>
<pdfrwt beam="2">  1        1 0.22615454E-01 0.89332623E+02</pdfrwt>
<pdfrwt beam="1">  1       -1 0.20879887E-02 0.89332623E+02</pdfrwt>
<totfact> 0.11804000E+05</totfact>
</mgrwt>
</event>
<event>
 7    1  0.2911475E-009  0.9950508E+02  0.7818608E-02  0.1281340E+00
         -1   -1    0    0    0  501 -0.00000000000E+00  0.00000000000E+00  0.29941544529E+01  0.29941586948E+01  0.50400000000E-02 0.  1.
          1   -1    0    0  501    0  0.00000000000E+00 -0.00000000000E+00 -0.82671528461E+03  0.82671528462E+03  0.50400000000E-02 0. -1.
         23    2    1    2    0    0 -0.35527136788E-14  0.35527136788E-14 -0.82372113015E+03  0.82970944332E+03  0.99505075586E+02 0.  0.
    9000005    2    3    3    0    0  0.22750905614E+02 -0.17092249282E+02 -0.75189026367E+03  0.75244740819E+03  0.53277388978E+01 0.  0.
         22    1    3    3    0    0 -0.22750905614E+02  0.17092249282E+02 -0.71830866481E+02  0.77262035122E+02  0.00000000000E+00 0.  1.
         22    1    4    4    0    0  0.49132218301E+01 -0.12045165696E+01 -0.13653000750E+03  0.13662369325E+03  0.00000000000E+00 0. -1.
         22    1    4    4    0    0  0.17837683784E+02 -0.15887732712E+02 -0.61536025617E+03  0.61582371495E+03  0.00000000000E+00 0. -1.
<mgrwt>
<rscale>  0 0.99505076E+02</rscale>
<asrwt>0</asrwt>
<pdfrwt beam="2">  1        1 0.12718679E+00 0.99505076E+02</pdfrwt>
<pdfrwt beam="1">  1       -1 0.46064013E-03 0.99505076E+02</pdfrwt>
<totfact> 0.11167559E+05</totfact>
</mgrwt>
</event>
<event>
 7    1  0.2911475E-009  0.9513591E+02  0.7818608E-02  0.1290870E+00
          1   -1    0    0  501    0  0.00000000000E+00  0.00000000000E+00  0.16796903115E+02  0.16796903871E+02  0.50400000000E-02 0. -1.
         -1   -1    0    0    0  501 -0.00000000000E+00 -0.00000000000E+00 -0.13470996450E+03  0.13470996459E+03  0.50400000000E-02 0.  1.
         23    2    1    2    0    0  0.00000000000E+00  0.00000000000E+00 -0.11791306138E+03  0.15150686846E+03  0.95135908818E+02 0.  0.
    9000005    2    3    3    0    0 -0.23263963822E+00  0.10328530777E+02 -0.13263498231E+03  0.13352166274E+03  0.11369398341E+02 0.  0.
         22    1    3    3    0    0  0.23263963822E+00 -0.10328530777E+02  0.14721920927E+02  0.17985205725E+02  0.00000000000E+00 0. -1.
         22    1    4    4    0    0 -0.12152610478E+00  0.42703445725E+01 -0.12055953962E+02  0.12790490112E+02  0.00000000000E+00 0.  1.
         22    1    4    4    0    0 -0.11111353343E+00  0.60581862047E+01 -0.12057902835E+03  0.12073117262E+03  0.00000000000E+00 0.  1.
<mgrwt>
<rscale>  0 0.95135909E+02</rscale>
<asrwt>0</asrwt>
<pdfrwt beam="1">  1        1 0.25841391E-02 0.95135909E+02</pdfrwt>
<pdfrwt beam="2">  1       -1 0.20724609E-01 0.95135909E+02</pdfrwt>
<totfact> 0.68627226E+04</totfact>
</mgrwt>
</event>
<event>
 7    1  0.2911475E-009  0.9080488E+02  0.7818608E-02  0.1300914E+00
         -1   -1    0    0    0  501 -0.00000000000E+00  0.00000000000E+00  0.86458268248E+01  0.86458282938E+01  0.50400000000E-02 0.  1.
          1   -1    0    0  501    0  0.00000000000E+00 -0.00000000000E+00 -0.23842500488E+03  0.23842500493E+03  0.50400000000E-02 0. -1.
         23    2    1    2    0    0  0.00000000000E+00  0.00000000000E+00 -0.22977917806E+03  0.24707083323E+03  0.90804878524E+02 0.  0.
    9000005    2    3    3    0    0 -0.73981764685E+01 -0.38030746449E+02 -0.54914975961E+02  0.67965948133E+02  0.10131378497E+02 0.  0.
         22    1    3    3    0    0  0.73981764685E+01  0.38030746449E+02 -0.17486420209E+03  0.17910488509E+03  0.00000000000E+00 0. -1.
         22    1    4    4    0    0 -0.71296371912E+01 -0.29887527541E+02 -0.35742737370E+02  0.47134268889E+02  0.00000000000E+00 0.  1.
         22    1    4    4    0    0 -0.26853927732E+00 -0.81432189081E+01 -0.19172238591E+02  0.20831679244E+02  0.00000000000E+00 0.  1.
<mgrwt>
<rscale>  0 0.90804879E+02</rscale>
<asrwt>0</asrwt>
<pdfrwt beam="2">  1        1 0.36680765E-01 0.90804879E+02</pdfrwt>
<pdfrwt beam="1">  1       -1 0.13301275E-02 0.90804879E+02</pdfrwt>
<totfact> 0.12387831E+05</totfact>
</mgrwt>
</event>
<event>
 7    1  0.2911475E-009  0.9203724E+02  0.7818608E-02  0.1297992E+00
         -1   -1    0    0    0  501 -0.00000000000E+00  0.00000000000E+00  0.43311007542E+03  0.43311007545E+03  0.50400000000E-02 0.  1.
          1   -1    0    0  501    0  0.00000000000E+00 -0.00000000000E+00 -0.48895489315E+01  0.48895515290E+01  0.50400000000E-02 0. -1.
         23    2    1    2    0    0  0.00000000000E+00  0.00000000000E+00  0.42822052648E+03  0.43799962697E+03  0.92037242065E+02 0.  0.
    9000005    2    3    3    0    0 -0.13637491940E+02  0.41422920129E+02  0.16573145785E+03  0.17191251596E+03  0.13607259906E+02 0.  0.
         22    1    3    3    0    0  0.13637491940E+02 -0.41422920129E+02  0.26248906863E+03  0.26608711102E+03  0.00000000000E+00 0.  1.
         22    1    4    4    0    0 -0.19695597694E+01  0.23595044583E+02  0.10206795816E+03  0.10477821041E+03  0.00000000000E+00 0. -1.
         22    1    4    4    0    0 -0.11667932170E+02  0.17827875547E+02  0.63663499695E+02  0.67134305545E+02  0.00000000000E+00 0. -1.
<mgrwt>
<rscale>  0 0.92037242E+02</rscale>
<asrwt>0</asrwt>
<pdfrwt beam="2">  1        1 0.75223833E-03 0.92037242E+02</pdfrwt>
<pdfrwt beam="1">  1       -1 0.66632335E-01 0.92037242E+02</pdfrwt>
<totfact> 0.49873353E+04</totfact>
</mgrwt>
</event>
<event>
 7    1  0.2911475E-009  0.8562156E+02  0.7818608E-02  0.1313815E+00
          1   -1    0    0  501    0  0.00000000000E+00  0.00000000000E+00  0.15917990312E+04  0.15917990312E+04  0.50400000000E-02 0. -1.
         -1   -1    0    0    0  501 -0.00000000000E+00 -0.00000000000E+00 -0.11513728217E+01  0.11513838526E+01  0.50400000000E-02 0.  1.
         23    2    1    2    0    0  0.00000000000E+00  0.17763568394E-14  0.15906476583E+04  0.15929504150E+04  0.85621561170E+02 0.  0.
    9000005    2    3    3    0    0 -0.12659157966E+02 -0.14075227075E+02  0.15093117009E+04  0.15094405098E+04  0.55204937482E+01 0.  0.
         22    1    3    3    0    0  0.12659157966E+02  0.14075227075E+02  0.81335957423E+02  0.83509905206E+02  0.00000000000E+00 0.  1.
         22    1    4    4    0    0 -0.62779299743E+01 -0.54716705362E+01  0.47157640648E+03  0.47164993240E+03  0.00000000000E+00 0. -1.
         22    1    4    4    0    0 -0.63812279918E+01 -0.86035565392E+01  0.10377352944E+04  0.10377905774E+04  0.00000000000E+00 0. -1.
<mgrwt>
<rscale>  0 0.85621561E+02</rscale>
<asrwt>0</asrwt>
<pdfrwt beam="1">  1        1 0.24489217E+00 0.85621561E+02</pdfrwt>
<pdfrwt beam="2">  1       -1 0.17713512E-03 0.85621561E+02</pdfrwt>
<totfact> 0.12386757E+05</totfact>
</mgrwt>
</event>
<event>
 7    1  0.2911475E-009  0.9244677E+02  0.7818608E-02  0.1297032E+00
          1   -1    0    0  501    0  0.00000000000E+00  0.00000000000E+00  0.66428839689E+03  0.66428839691E+03  0.50400000000E-02 0. -1.
         -1   -1    0    0    0  501 -0.00000000000E+00 -0.00000000000E+00 -0.32163739692E+01  0.32163779180E+01  0.50400000000E-02 0.  1.
         23    2    1    2    0    0  0.00000000000E+00  0.17763568394E-14  0.66107202292E+03  0.66750477482E+03  0.92446768080E+02 0.  0.
    9000005    2    3    3    0    0 -0.41971128802E+02  0.12813070143E+02  0.43382093496E+03  0.43605541234E+03  0.42389380916E+01 0.  0.
         22    1    3    3    0    0  0.41971128802E+02 -0.12813070143E+02  0.22725108795E+03  0.23144936249E+03  0.00000000000E+00 0.  1.
         22    1    4    4    0    0 -0.19099205361E+02  0.37253271262E+01  0.19763479283E+03  0.19859045558E+03  0.00000000000E+00 0.  1.
         22    1    4    4    0    0 -0.22871923442E+02  0.90877430169E+01  0.23618614213E+03  0.23746495676E+03  0.00000000000E+00 0.  1.
<mgrwt>
<rscale>  0 0.92446768E+02</rscale>
<asrwt>0</asrwt>
<pdfrwt beam="1">  1        1 0.10219818E+00 0.92446768E+02</pdfrwt>
<pdfrwt beam="2">  1       -1 0.49482725E-03 0.92446768E+02</pdfrwt>
<totfact> 0.13703569E+05</totfact>
</mgrwt>
</event>
<event>
 7    1  0.2911475E-009  0.8850528E+02  0.7818608E-02  0.1306512E+00
          1   -1    0    0  501    0  0.00000000000E+00  0.00000000000E+00  0.11844323603E+03  0.11844323613E+03  0.50400000000E-02 0. -1.
         -1   -1    0    0    0  501 -0.00000000000E+00 -0.00000000000E+00 -0.16533626527E+02  0.16533627295E+02  0.50400000000E-02 0.  1.
         23    2    1    2    0    0  0.00000000000E+00  0.00000000000E+00  0.10190960950E+03  0.13497686343E+03  0.88505283192E+02 0.  0.
    9000005    2    3    3    0    0  0.33942890493E+02  0.27408525652E+02  0.62196387730E+02  0.75981210396E+02  0.11859988032E+01 0.  0.
         22    1    3    3    0    0 -0.33942890493E+02 -0.27408525652E+02  0.39713221770E+02  0.58995653033E+02  0.00000000000E+00 0.  1.
         22    1    4    4    0    0  0.32629691777E+02  0.26295568651E+02  0.60118271959E+02  0.73282742439E+02  0.00000000000E+00 0. -1.
         22    1    4    4    0    0  0.13131987167E+01  0.11129570018E+01  0.20781157705E+01  0.26984679566E+01  0.00000000000E+00 0. -1.
<mgrwt>
<rscale>  0 0.88505283E+02</rscale>
<asrwt>0</asrwt>
<pdfrwt beam="1">  1        1 0.18222036E-01 0.88505283E+02</pdfrwt>
<pdfrwt beam="2">  1       -1 0.25436349E-02 0.88505283E+02</pdfrwt>
<totfact> 0.11650284E+05</totfact>
</mgrwt>
</event>
<event>
 7    1  0.2911475E-009  0.9085493E+02  0.7818608E-02  0.1300794E+00
         -1   -1    0    0    0  501 -0.00000000000E+00  0.00000000000E+00  0.25035520319E+02  0.25035520827E+02  0.50400000000E-02 0.  1.
          1   -1    0    0  501    0  0.00000000000E+00 -0.00000000000E+00 -0.82429064652E+02  0.82429064806E+02  0.50400000000E-02 0. -1.
         23    2    1    2    0    0  0.00000000000E+00  0.00000000000E+00 -0.57393544333E+02  0.10746458563E+03  0.90854929609E+02 0.  0.
    9000005    2    3    3    0    0  0.43686381978E+01  0.35103320237E+02 -0.60707158223E+02  0.71935609735E+02  0.15428700434E+02 0.  0.
         22    1    3    3    0    0 -0.43686381978E+01 -0.35103320237E+02  0.33136138902E+01  0.35528975898E+02  0.00000000000E+00 0.  1.
         22    1    4    4    0    0  0.35508591494E+00  0.21299444516E+01 -0.16495413436E+02  0.16636147805E+02  0.00000000000E+00 0. -1.
         22    1    4    4    0    0  0.40135522828E+01  0.32973375785E+02 -0.44211744787E+02  0.55299461930E+02  0.00000000000E+00 0. -1.
<mgrwt>
<rscale>  0 0.90854930E+02</rscale>
<asrwt>0</asrwt>
<pdfrwt beam="2">  1        1 0.12681395E-01 0.90854930E+02</pdfrwt>
<pdfrwt beam="1">  1       -1 0.38516186E-02 0.90854930E+02</pdfrwt>
<totfact> 0.10220853E+05</totfact>
</mgrwt>
</event>
<event>
 7    1  0.2911475E-009  0.1055680E+03  0.7818608E-02  0.1269005E+00
         -1   -1    0    0    0  501 -0.00000000000E+00  0.00000000000E+00  0.39486781010E+02  0.39486781332E+02  0.50400000000E-02 0.  1.
          1   -1    0    0  501    0  0.00000000000E+00 -0.00000000000E+00 -0.70559074912E+02  0.70559075092E+02  0.50400000000E-02 0. -1.
         23    2    1    2    0    0  0.00000000000E+00  0.00000000000E+00 -0.31072293901E+02  0.11004585642E+03  0.10556800210E+03 0.  0.
    9000005    2    3    3    0    0  0.36356274530E+02 -0.36916870472E+02 -0.19869429784E+02  0.57035119893E+02  0.13174848693E+02 0.  0.
         22    1    3    3    0    0 -0.36356274530E+02  0.36916870472E+02 -0.11202864117E+02  0.53010736531E+02  0.00000000000E+00 0.  1.
         22    1    4    4    0    0  0.36729404600E+02 -0.37540243486E+02 -0.20155312846E+02  0.56254383644E+02  0.00000000000E+00 0.  1.
         22    1    4    4    0    0 -0.37313007076E+00  0.62337301396E+00  0.28588306171E+00  0.78073624817E+00  0.00000000000E+00 0.  1.
<mgrwt>
<rscale>  0 0.10556800E+03</rscale>
<asrwt>0</asrwt>
<pdfrwt beam="2">  1        1 0.10855242E-01 0.10556800E+03</pdfrwt>
<pdfrwt beam="1">  1       -1 0.60748894E-02 0.10556800E+03</pdfrwt>
<totfact> 0.65652124E+04</totfact>
</mgrwt>
</event>
<event>
 7    1  0.2911475E-009  0.8469500E+02  0.7818608E-02  0.1316232E+00
          1   -1    0    0  501    0  0.00000000000E+00  0.00000000000E+00  0.11089393140E+03  0.11089393151E+03  0.50400000000E-02 0. -1.
         -1   -1    0    0    0  501 -0.00000000000E+00 -0.00000000000E+00 -0.16171404308E+02  0.16171405093E+02  0.50400000000E-02 0.  1.
         23    2    1    2    0    0  0.88817841970E-15  0.00000000000E+00  0.94722527092E+02  0.12706533661E+03  0.84694997660E+02 0.  0.
    9000005    2    3    3    0    0 -0.59786811037E+01  0.40467078368E+02  0.51837200473E+02  0.67799154863E+02  0.15372084695E+02 0.  0.
         22    1    3    3    0    0  0.59786811037E+01 -0.40467078368E+02  0.42885326618E+02  0.59266181745E+02  0.00000000000E+00 0. -1.
         22    1    4    4    0    0  0.41363655811E+01  0.12181463019E+02  0.21835580987E+02  0.25343444094E+02  0.00000000000E+00 0. -1.
         22    1    4    4    0    0 -0.10115046685E+02  0.28285615350E+02  0.30001619486E+02  0.42455710770E+02  0.00000000000E+00 0. -1.
<mgrwt>
<rscale>  0 0.84694998E+02</rscale>
<asrwt>0</asrwt>
<pdfrwt beam="1">  1        1 0.17060605E-01 0.84694998E+02</pdfrwt>
<pdfrwt beam="2">  1       -1 0.24879085E-02 0.84694998E+02</pdfrwt>
<totfact> 0.12973426E+05</totfact>
</mgrwt>
</event>
<event>
 7    1  0.2911475E-009  0.9211346E+02  0.7818608E-02  0.1297813E+00
          1   -1    0    0  501    0  0.00000000000E+00  0.00000000000E+00  0.12982602654E+03  0.12982602664E+03  0.50400000000E-02 0. -1.
         -1   -1    0    0    0  501 -0.00000000000E+00 -0.00000000000E+00 -0.16338960265E+02  0.16338961042E+02  0.50400000000E-02 0.  1.
         23    2    1    2    0    0 -0.88817841970E-15  0.35527136788E-14  0.11348706627E+03  0.14616498768E+03  0.92113459449E+02 0.  0.
    9000005    2    3    3    0    0  0.67108860161E+01 -0.31756630301E+02  0.79516438340E+01  0.35751016874E+02  0.12703818667E+02 0.  0.
         22    1    3    3    0    0 -0.67108860161E+01  0.31756630301E+02  0.10553542244E+03  0.11041397080E+03  0.00000000000E+00 0. -1.
         22    1    4    4    0    0  0.85915537281E+01 -0.11170644467E+02  0.19575040342E+01  0.14227786733E+02  0.00000000000E+00 0. -1.
         22    1    4    4    0    0 -0.18806677120E+01 -0.20585985833E+02  0.59941397999E+01  0.21523230141E+02  0.00000000000E+00 0. -1.
<mgrwt>
<rscale>  0 0.92113459E+02</rscale>
<asrwt>0</asrwt>
<pdfrwt beam="1">  1        1 0.19973235E-01 0.92113459E+02</pdfrwt>
<pdfrwt beam="2">  1       -1 0.25136863E-02 0.92113459E+02</pdfrwt>
<totfact> 0.10625606E+05</totfact>
</mgrwt>
</event>
<event>
 7    1  0.2911475E-009  0.9204655E+02  0.7818608E-02  0.1297970E+00
          1   -1    0    0  501    0  0.00000000000E+00  0.00000000000E+00  0.33841723414E+03  0.33841723418E+03  0.50400000000E-02 0. -1.
         -1   -1    0    0    0  501 -0.00000000000E+00 -0.00000000000E+00 -0.62589651785E+01  0.62589672077E+01  0.50400000000E-02 0.  1.
         23    2    1    2    0    0  0.35527136788E-14  0.00000000000E+00  0.33215826896E+03  0.34467620139E+03  0.92046554318E+02 0.  0.
    9000005    2    3    3    0    0 -0.23498014582E+02  0.22990835838E+02  0.28415713825E+03  0.28649679118E+03  0.15949825024E+02 0.  0.
         22    1    3    3    0    0  0.23498014582E+02 -0.22990835838E+02  0.48001130711E+02  0.58179410201E+02  0.00000000000E+00 0.  1.
         22    1    4    4    0    0 -0.52126081233E+01  0.12417270469E+02  0.15904692315E+03  0.15961605074E+03  0.00000000000E+00 0.  1.
         22    1    4    4    0    0 -0.18285406458E+02  0.10573565369E+02  0.12511021510E+03  0.12688074045E+03  0.00000000000E+00 0.  1.
<mgrwt>
<rscale>  0 0.92046554E+02</rscale>
<asrwt>0</asrwt>
<pdfrwt beam="1">  1        1 0.52064208E-01 0.92046554E+02</pdfrwt>
<pdfrwt beam="2">  1       -1 0.96291754E-03 0.92046554E+02</pdfrwt>
<totfact> 0.12776402E+05</totfact>
</mgrwt>
</event>
<event>
 6    1  0.3812159E-009  0.1862444E+03  0.7818608E-02  0.1161893E+00
          1   -1    0    0  501    0  0.00000000000E+00  0.00000000000E+00  0.11149881111E+04  0.11149881111E+04  0.50400000000E-02 0. -1.
         -1   -1    0    0    0  501 -0.00000000000E+00 -0.00000000000E+00 -0.77774300739E+01  0.77774317069E+01  0.50400000000E-02 0.  1.
    9000005    2    1    2    0    0 -0.45983217088E+01 -0.66860445220E+02  0.94250868968E+03  0.94495044321E+03  0.10828032492E+02 0.  0.
         22    1    1    2    0    0  0.45983217088E+01  0.66860445220E+02  0.16470199132E+03  0.17781509959E+03  0.00000000000E+00 0.  1.
         22    1    3    3    0    0 -0.76896688066E+01 -0.49728750878E+02  0.67088321303E+03  0.67276769036E+03  0.00000000000E+00 0.  1.
         22    1    3    3    0    0  0.30913470978E+01 -0.17131694342E+02  0.27162547665E+03  0.27218275284E+03  0.00000000000E+00 0.  1.
<mgrwt>
<rscale>  0 0.18624439E+03</rscale>
<asrwt>0</asrwt>
<pdfrwt beam="1">  1        1 0.17153661E+00 0.18624439E+03</pdfrwt>
<pdfrwt beam="2">  1       -1 0.11965280E-02 0.18624439E+03</pdfrwt>
<totfact> 0.18668253E+04</totfact>
</mgrwt>
</event>
<event>
 7    1  0.2911475E-009  0.9073271E+02  0.7818608E-02  0.1301087E+00
          1   -1    0    0  501    0  0.00000000000E+00  0.00000000000E+00  0.10129729558E+02  0.10129730812E+02  0.50400000000E-02 0. -1.
         -1   -1    0    0    0  501 -0.00000000000E+00 -0.00000000000E+00 -0.20317482289E+03  0.20317482295E+03  0.50400000000E-02 0.  1.
         23    2    1    2    0    0 -0.35527136788E-14 -0.71054273576E-14 -0.19304509333E+03  0.21330455377E+03  0.90732709633E+02 0.  0.
    9000005    2    3    3    0    0  0.17394009827E+02  0.39877444104E+02 -0.11973952501E+03  0.12806097059E+03  0.13011387772E+02 0.  0.
         22    1    3    3    0    0 -0.17394009827E+02 -0.39877444104E+02 -0.73305568322E+02  0.85243583179E+02  0.00000000000E+00 0. -1.
         22    1    4    4    0    0  0.92721205698E+01  0.10725142155E+02 -0.51425100937E+02  0.53343620991E+02  0.00000000000E+00 0.  1.
         22    1    4    4    0    0  0.81218892568E+01  0.29152301949E+02 -0.68314424073E+02  0.74717349595E+02  0.00000000000E+00 0.  1.
<mgrwt>
<rscale>  0 0.90732710E+02</rscale>
<asrwt>0</asrwt>
<pdfrwt beam="1">  1        1 0.15584202E-02 0.90732710E+02</pdfrwt>
<pdfrwt beam="2">  1       -1 0.31257662E-01 0.90732710E+02</pdfrwt>
<totfact> 0.69995347E+04</totfact>
</mgrwt>
</event>
<event>
 7    1  0.2911475E-009  0.9340360E+02  0.7818608E-02  0.1294813E+00
         -1   -1    0    0    0  501 -0.00000000000E+00  0.00000000000E+00  0.27283572408E+01  0.27283618959E+01  0.50400000000E-02 0.  1.
          1   -1    0    0  501    0  0.00000000000E+00 -0.00000000000E+00 -0.79940276671E+03  0.79940276672E+03  0.50400000000E-02 0. -1.
         23    2    1    2    0    0  0.00000000000E+00  0.00000000000E+00 -0.79667440946E+03  0.80213112862E+03  0.93403601649E+02 0.  0.
    9000005    2    3    3    0    0 -0.23479638787E+02 -0.13836635365E+02 -0.72299169668E+03  0.72356976356E+03  0.96676449971E+01 0.  0.
         22    1    3    3    0    0  0.23479638787E+02  0.13836635365E+02 -0.73682712787E+02  0.78561365056E+02  0.00000000000E+00 0.  1.
         22    1    4    4    0    0 -0.85329464861E+01 -0.51257964474E+01 -0.39191566963E+03  0.39204206033E+03  0.00000000000E+00 0.  1.
         22    1    4    4    0    0 -0.14946692300E+02 -0.87108389179E+01 -0.33107602705E+03  0.33152770323E+03  0.00000000000E+00 0.  1.
<mgrwt>
<rscale>  0 0.93403602E+02</rscale>
<asrwt>0</asrwt>
<pdfrwt beam="2">  1        1 0.12298485E+00 0.93403602E+02</pdfrwt>
<pdfrwt beam="1">  1       -1 0.41974826E-03 0.93403602E+02</pdfrwt>
<totfact> 0.13256461E+05</totfact>
</mgrwt>
</event>
<event>
 7    1  0.2911475E-009  0.9002547E+02  0.7818608E-02  0.1302790E+00
         -1   -1    0    0    0  501 -0.00000000000E+00  0.00000000000E+00  0.10196556254E+03  0.10196556266E+03  0.50400000000E-02 0.  1.
          1   -1    0    0  501    0  0.00000000000E+00 -0.00000000000E+00 -0.19870887818E+02  0.19870888457E+02  0.50400000000E-02 0. -1.
         23    2    1    2    0    0  0.00000000000E+00  0.17763568394E-14  0.82094674717E+02  0.12183645112E+03  0.90025469751E+02 0.  0.
    9000005    2    3    3    0    0  0.25798488233E+02  0.15015889384E+02 -0.83320693431E+00  0.33699781766E+02  0.15618646810E+02 0.  0.
         22    1    3    3    0    0 -0.25798488233E+02 -0.15015889384E+02  0.82927881651E+02  0.88136669351E+02  0.00000000000E+00 0.  1.
         22    1    4    4    0    0  0.17171759519E+02  0.14018927323E+02  0.56337510612E+01  0.22872227685E+02  0.00000000000E+00 0.  1.
         22    1    4    4    0    0  0.86267287148E+01  0.99696206062E+00 -0.64669579955E+01  0.10827554081E+02  0.00000000000E+00 0.  1.
<mgrwt>
<rscale>  0 0.90025470E+02</rscale>
<asrwt>0</asrwt>
<pdfrwt beam="2">  1        1 0.30570598E-02 0.90025470E+02</pdfrwt>
<pdfrwt beam="1">  1       -1 0.15687009E-01 0.90025470E+02</pdfrwt>
<totfact> 0.83770886E+04</totfact>
</mgrwt>
</event>
<event>
 7    1  0.2911475E-009  0.8892196E+02  0.7818608E-02  0.1305484E+00
          1   -1    0    0  501    0  0.00000000000E+00  0.00000000000E+00  0.26800680549E+03  0.26800680554E+03  0.50400000000E-02 0. -1.
         -1   -1    0    0    0  501 -0.00000000000E+00 -0.00000000000E+00 -0.73758513726E+01  0.73758530945E+01  0.50400000000E-02 0.  1.
         23    2    1    2    0    0  0.00000000000E+00 -0.16653345369E-15  0.26063095412E+03  0.27538265863E+03  0.88921956968E+02 0.  0.
    9000005    2    3    3    0    0 -0.10394971614E+02  0.38990114760E+00  0.26389921820E+03  0.26447903502E+03  0.14076758732E+02 0.  0.
         22    1    3    3    0    0  0.10394971614E+02 -0.38990114760E+00 -0.32682640890E+01  0.10903623614E+02  0.00000000000E+00 0.  1.
         22    1    4    4    0    0 -0.10368541554E+02  0.45041417084E+01  0.23675939820E+03  0.23702912602E+03  0.00000000000E+00 0. -1.
         22    1    4    4    0    0 -0.26430060042E-01 -0.41142405608E+01  0.27139820003E+02  0.27449908993E+02  0.00000000000E+00 0. -1.
<mgrwt>
<rscale>  0 0.88921957E+02</rscale>
<asrwt>0</asrwt>
<pdfrwt beam="1">  1        1 0.41231812E-01 0.88921957E+02</pdfrwt>
<pdfrwt beam="2">  1       -1 0.11347466E-02 0.88921957E+02</pdfrwt>
<totfact> 0.13400826E+05</totfact>
</mgrwt>
</event>
<event>
 7    1  0.2911475E-009  0.8487447E+02  0.7818608E-02  0.1315761E+00
          1   -1    0    0  501    0  0.00000000000E+00  0.00000000000E+00  0.31063313873E+03  0.31063313877E+03  0.50400000000E-02 0.  1.
         -1   -1    0    0    0  501 -0.00000000000E+00 -0.00000000000E+00 -0.57975733957E+01  0.57975755864E+01  0.50400000000E-02 0. -1.
         23    2    1    2    0    0  0.00000000000E+00  0.00000000000E+00  0.30483556533E+03  0.31643071435E+03  0.84874466690E+02 0.  0.
    9000005    2    3    3    0    0  0.33975725496E+02 -0.22499797242E+02  0.12063306429E+03  0.12777453982E+03  0.10649226640E+02 0.  0.
         22    1    3    3    0    0 -0.33975725496E+02  0.22499797242E+02  0.18420250104E+03  0.18865617453E+03  0.00000000000E+00 0. -1.
         22    1    4    4    0    0  0.15061111032E+02 -0.15655864268E+02  0.55258871313E+02  0.59375803239E+02  0.00000000000E+00 0.  1.
         22    1    4    4    0    0  0.18914614464E+02 -0.68439329745E+01  0.65374192972E+02  0.68398736580E+02  0.00000000000E+00 0.  1.
<mgrwt>
<rscale>  0 0.84874467E+02</rscale>
<asrwt>0</asrwt>
<pdfrwt beam="1">  1        1 0.47789722E-01 0.84874467E+02</pdfrwt>
<pdfrwt beam="2">  1       -1 0.89193439E-03 0.84874467E+02</pdfrwt>
<totfact> 0.15595352E+05</totfact>
</mgrwt>
</event>
<event>
 7    1  0.2911475E-009  0.9037613E+02  0.7818608E-02  0.1301943E+00
          1   -1    0    0  501    0  0.00000000000E+00  0.00000000000E+00  0.43062610623E+03  0.43062610626E+03  0.50400000000E-02 0. -1.
         -1   -1    0    0    0  501 -0.00000000000E+00 -0.00000000000E+00 -0.47418410650E+01  0.47418437435E+01  0.50400000000E-02 0.  1.
         23    2    1    2    0    0  0.00000000000E+00  0.00000000000E+00  0.42588426516E+03  0.43536795000E+03  0.90376128345E+02 0.  0.
    9000005    2    3    3    0    0  0.10795803841E+02 -0.42476750265E+02  0.17996464291E+03  0.18557346587E+03  0.11376064490E+02 0.  0.
         22    1    3    3    0    0 -0.10795803841E+02  0.42476750265E+02  0.24591962225E+03  0.24979448413E+03  0.00000000000E+00 0. -1.
         22    1    4    4    0    0  0.96988587538E+01 -0.16652743397E+02  0.84695239764E+02  0.86860033171E+02  0.00000000000E+00 0.  1.
         22    1    4    4    0    0  0.10969450870E+01 -0.25824006869E+02  0.95269403147E+02  0.98713432699E+02  0.00000000000E+00 0.  1.
<mgrwt>
<rscale>  0 0.90376128E+02</rscale>
<asrwt>0</asrwt>
<pdfrwt beam="1">  1        1 0.66250203E-01 0.90376128E+02</pdfrwt>
<pdfrwt beam="2">  1       -1 0.72951385E-03 0.90376128E+02</pdfrwt>
<totfact> 0.13970017E+05</totfact>
</mgrwt>
</event>
<event>
 7    1  0.2911475E-009  0.9154907E+02  0.7818608E-02  0.1299143E+00
         -1   -1    0    0    0  501 -0.00000000000E+00  0.00000000000E+00  0.17060837393E+01  0.17060911837E+01  0.50400000000E-02 0.  1.
          1   -1    0    0  501    0  0.00000000000E+00 -0.00000000000E+00 -0.12281362519E+04  0.12281362520E+04  0.50400000000E-02 0. -1.
         23    2    1    2    0    0 -0.35527136788E-14 -0.44408920985E-15 -0.12264301682E+04  0.12298423431E+04  0.91549066040E+02 0.  0.
    9000005    2    3    3    0    0 -0.30066254749E+02  0.32793814164E+01 -0.10720111661E+04  0.10724893570E+04  0.10523627943E+02 0.  0.
         22    1    3    3    0    0  0.30066254749E+02 -0.32793814164E+01 -0.15441900214E+03  0.15735298611E+03  0.00000000000E+00 0.  1.
         22    1    4    4    0    0 -0.18210712734E+02  0.68302312741E+01 -0.71170841140E+03  0.71197411820E+03  0.00000000000E+00 0. -1.
         22    1    4    4    0    0 -0.11855542015E+02 -0.35508498577E+01 -0.36030275467E+03  0.36051523884E+03  0.00000000000E+00 0. -1.
<mgrwt>
<rscale>  0 0.91549066E+02</rscale>
<asrwt>0</asrwt>
<pdfrwt beam="2">  1        1 0.18894333E+00 0.91549066E+02</pdfrwt>
<pdfrwt beam="1">  1       -1 0.26247598E-03 0.91549066E+02</pdfrwt>
<totfact> 0.12452841E+05</totfact>
</mgrwt>
</event>
<event>
 7    1  0.2911475E-009  0.8690385E+02  0.7818608E-02  0.1310528E+00
          1   -1    0    0  501    0  0.00000000000E+00  0.00000000000E+00  0.94431955495E+01  0.94431968945E+01  0.50400000000E-02 0. -1.
         -1   -1    0    0    0  501 -0.00000000000E+00 -0.00000000000E+00 -0.19993967699E+03  0.19993967705E+03  0.50400000000E-02 0.  1.
         23    2    1    2    0    0  0.00000000000E+00  0.00000000000E+00 -0.19049648144E+03  0.20938287395E+03  0.86903846068E+02 0.  0.
    9000005    2    3    3    0    0 -0.21016621219E+02 -0.23427782854E+02 -0.28881802288E+02  0.44732140896E+02  0.13275788068E+02 0.  0.
         22    1    3    3    0    0  0.21016621219E+02  0.23427782854E+02 -0.16161467915E+03  0.16465073305E+03  0.00000000000E+00 0.  1.
         22    1    4    4    0    0 -0.54454207344E+01 -0.60644728146E+01 -0.16319037727E+02  0.18241201436E+02  0.00000000000E+00 0. -1.
         22    1    4    4    0    0 -0.15571200485E+02 -0.17363310039E+02 -0.12562764561E+02  0.26490939460E+02  0.00000000000E+00 0. -1.
<mgrwt>
<rscale>  0 0.86903846E+02</rscale>
<asrwt>0</asrwt>
<pdfrwt beam="1">  1        1 0.14527996E-02 0.86903846E+02</pdfrwt>
<pdfrwt beam="2">  1       -1 0.30759947E-01 0.86903846E+02</pdfrwt>
<totfact> 0.78658924E+04</totfact>
</mgrwt>
</event>
<event>
 7    1  0.2911475E-009  0.9516607E+02  0.7818608E-02  0.1290803E+00
          1   -1    0    0  501    0  0.00000000000E+00  0.00000000000E+00  0.41835293695E+03  0.41835293698E+03  0.50400000000E-02 0. -1.
         -1   -1    0    0    0  501 -0.00000000000E+00 -0.00000000000E+00 -0.54120441827E+01  0.54120465294E+01  0.50400000000E-02 0.  1.
         23    2    1    2    0    0 -0.35527136788E-14  0.71054273576E-14  0.41294089277E+03  0.42376498351E+03  0.95166067112E+02 0.  0.
    9000005    2    3    3    0    0 -0.30377662442E+02  0.32491850636E+02  0.28065926383E+03  0.28420513224E+03  0.49408584817E+01 0.  0.
         22    1    3    3    0    0  0.30377662442E+02 -0.32491850636E+02  0.13228162894E+03  0.13955985127E+03  0.00000000000E+00 0. -1.
         22    1    4    4    0    0 -0.14604879749E+02  0.12802202916E+02  0.13178060929E+03  0.13320408364E+03  0.00000000000E+00 0.  1.
         22    1    4    4    0    0 -0.15772782693E+02  0.19689647721E+02  0.14887865454E+03  0.15100104860E+03  0.00000000000E+00 0.  1.
<mgrwt>
<rscale>  0 0.95166067E+02</rscale>
<asrwt>0</asrwt>
<pdfrwt beam="1">  1        1 0.64362034E-01 0.95166067E+02</pdfrwt>
<pdfrwt beam="2">  1       -1 0.83262180E-03 0.95166067E+02</pdfrwt>
<totfact> 0.12123265E+05</totfact>
</mgrwt>
</event>
<event>
 7    1  0.3483709E-009  0.9012612E+02  0.7818608E-02  0.1302547E+00
         -1   -1    0    0    0  501 -0.00000000000E+00  0.00000000000E+00  0.62050530100E+01  0.62050550569E+01  0.50400000000E-02 0.  1.
          1   -1    0    0  501    0  0.00000000000E+00 -0.00000000000E+00 -0.32726213688E+03  0.32726213692E+03  0.50400000000E-02 0. -1.
         23    2    1    2    0    0  0.35527136788E-14  0.00000000000E+00 -0.32105708387E+03  0.33346719197E+03  0.90126117308E+02 0.  0.
    9000005    2    3    3    0    0 -0.27756344025E+02 -0.10392450129E+02 -0.28447312941E+03  0.28638425051E+03  0.14579435141E+02 0.  0.
         22    1    3    3    0    0  0.27756344025E+02  0.10392450129E+02 -0.36583954456E+02  0.47082941464E+02  0.00000000000E+00 0.  1.
         22    1    4    4    0    0 -0.12569631622E+02 -0.50275518830E+01 -0.19526849852E+03  0.19573721780E+03  0.00000000000E+00 0. -1.
         22    1    4    4    0    0 -0.15186712403E+02 -0.53648982461E+01 -0.89204630894E+02  0.90647032714E+02  0.00000000000E+00 0. -1.
<mgrwt>
<rscale>  0 0.90126117E+02</rscale>
<asrwt>0</asrwt>
<pdfrwt beam="2">  1        1 0.50348008E-01 0.90126117E+02</pdfrwt>
<pdfrwt beam="1">  1       -1 0.95462396E-03 0.90126117E+02</pdfrwt>
<totfact> 0.13430873E+05</totfact>
</mgrwt>
</event>
<event>
 7    1  0.2911475E-009  0.8775051E+02  0.7818608E-02  0.1308392E+00
          1   -1    0    0  501    0  0.00000000000E+00  0.00000000000E+00  0.11610511343E+03  0.11610511354E+03  0.50400000000E-02 0. -1.
         -1   -1    0    0    0  501 -0.00000000000E+00 -0.00000000000E+00 -0.16580130365E+02  0.16580131131E+02  0.50400000000E-02 0.  1.
         23    2    1    2    0    0  0.17763568394E-14  0.35527136788E-14  0.99524983061E+02  0.13268524467E+03  0.87750509394E+02 0.  0.
    9000005    2    3    3    0    0 -0.52652585431E+01 -0.29361062697E+02  0.97143521921E+02  0.10276090161E+03  0.15269056889E+02 0.  0.
         22    1    3    3    0    0  0.52652585431E+01  0.29361062697E+02  0.23814611404E+01  0.29924343057E+02  0.00000000000E+00 0.  1.
         22    1    4    4    0    0 -0.86451370583E+01 -0.78141317459E+01  0.31288830024E+02  0.33388470075E+02  0.00000000000E+00 0. -1.
         22    1    4    4    0    0  0.33798785152E+01 -0.21546930951E+02  0.65854691897E+02  0.69372431535E+02  0.00000000000E+00 0. -1.
<mgrwt>
<rscale>  0 0.87750509E+02</rscale>
<asrwt>0</asrwt>
<pdfrwt beam="1">  1        1 0.17862326E-01 0.87750509E+02</pdfrwt>
<pdfrwt beam="2">  1       -1 0.25507893E-02 0.87750509E+02</pdfrwt>
<totfact> 0.11882416E+05</totfact>
</mgrwt>
</event>
<event>
 7    1  0.2911475E-009  0.9256968E+02  0.7818608E-02  0.1296746E+00
         -1   -1    0    0    0  501 -0.00000000000E+00  0.00000000000E+00  0.37412934111E+01  0.37412968059E+01  0.50400000000E-02 0.  1.
          1   -1    0    0  501    0  0.00000000000E+00 -0.00000000000E+00 -0.57260558827E+03  0.57260558829E+03  0.50400000000E-02 0. -1.
         23    2    1    2    0    0  0.44408920985E-15  0.00000000000E+00 -0.56886429486E+03  0.57634688509E+03  0.92569681845E+02 0.  0.
    9000005    2    3    3    0    0 -0.28775759217E+01 -0.32934658467E+02 -0.48258297457E+03  0.48394862536E+03  0.15065605624E+02 0.  0.
         22    1    3    3    0    0  0.28775759217E+01  0.32934658467E+02 -0.86281320285E+02  0.92398259733E+02  0.00000000000E+00 0.  1.
         22    1    4    4    0    0 -0.43822852101E+01 -0.12261034310E+01 -0.53701627693E+02  0.53894086597E+02  0.00000000000E+00 0. -1.
         22    1    4    4    0    0  0.15047092884E+01 -0.31708555036E+02 -0.42888134688E+03  0.43005453876E+03  0.00000000000E+00 0. -1.
<mgrwt>
<rscale>  0 0.92569682E+02</rscale>
<asrwt>0</asrwt>
<pdfrwt beam="2">  1        1 0.88093098E-01 0.92569682E+02</pdfrwt>
<pdfrwt beam="1">  1       -1 0.57558432E-03 0.92569682E+02</pdfrwt>
<totfact> 0.13557708E+05</totfact>
</mgrwt>
</event>
<event>
 7    1  0.2911475E-009  0.1140138E+03  0.7818608E-02  0.1253312E+00
         -1   -1    0    0    0  501 -0.00000000000E+00  0.00000000000E+00  0.14002032095E+03  0.14002032104E+03  0.50400000000E-02 0.  1.
          1   -1    0    0  501    0  0.00000000000E+00 -0.00000000000E+00 -0.23209406127E+02  0.23209406675E+02  0.50400000000E-02 0. -1.
         23    2    1    2    0    0  0.00000000000E+00  0.35527136788E-14  0.11681091482E+03  0.16322972772E+03  0.11401383332E+03 0.  0.
    9000005    2    3    3    0    0 -0.45721309574E+02 -0.26617915317E+02  0.86445128884E+02  0.10222946115E+03  0.13384724693E+02 0.  0.
         22    1    3    3    0    0  0.45721309574E+02  0.26617915317E+02  0.30365785941E+02  0.61000266563E+02  0.00000000000E+00 0.  1.
         22    1    4    4    0    0 -0.21241864543E+02 -0.18499563820E+02  0.52718555428E+02  0.59772039928E+02  0.00000000000E+00 0. -1.
         22    1    4    4    0    0 -0.24479445031E+02 -0.81183514971E+01  0.33726573456E+02  0.42457421226E+02  0.00000000000E+00 0. -1.
<mgrwt>
<rscale>  0 0.11401383E+03</rscale>
<asrwt>0</asrwt>
<pdfrwt beam="2">  1        1 0.35706779E-02 0.11401383E+03</pdfrwt>
<pdfrwt beam="1">  1       -1 0.21541588E-01 0.11401383E+03</pdfrwt>
<totfact> 0.42442007E+04</totfact>
</mgrwt>
</event>
<event>
 7    1  0.2911475E-009  0.8815549E+02  0.7818608E-02  0.1307381E+00
         -1   -1    0    0    0  501 -0.00000000000E+00  0.00000000000E+00  0.53519856424E+01  0.53519880155E+01  0.50400000000E-02 0.  1.
          1   -1    0    0  501    0  0.00000000000E+00 -0.00000000000E+00 -0.36301424278E+03  0.36301424281E+03  0.50400000000E-02 0. -1.
         23    2    1    2    0    0  0.00000000000E+00  0.00000000000E+00 -0.35766225713E+03  0.36836623083E+03  0.88155486701E+02 0.  0.
    9000005    2    3    3    0    0 -0.14235041084E+02 -0.23632267585E+02 -0.32177975792E+03  0.32310394835E+03  0.96347475609E+01 0.  0.
         22    1    3    3    0    0  0.14235041084E+02  0.23632267585E+02 -0.35882499208E+02  0.45262282480E+02  0.00000000000E+00 0.  1.
         22    1    4    4    0    0  0.51965639216E+00 -0.54367661139E+00 -0.37318505934E+02  0.37326083536E+02  0.00000000000E+00 0. -1.
         22    1    4    4    0    0 -0.14754697476E+02 -0.23088590974E+02 -0.28446125199E+03  0.28577786481E+03  0.00000000000E+00 0. -1.
<mgrwt>
<rscale>  0 0.88155487E+02</rscale>
<asrwt>0</asrwt>
<pdfrwt beam="2">  1        1 0.55848326E-01 0.88155487E+02</pdfrwt>
<pdfrwt beam="1">  1       -1 0.82338288E-03 0.88155487E+02</pdfrwt>
<totfact> 0.14509105E+05</totfact>
</mgrwt>
</event>
<event>
 7    1  0.2911475E-009  0.9155809E+02  0.7818608E-02  0.1299122E+00
          1   -1    0    0  501    0  0.00000000000E+00  0.00000000000E+00  0.46194936089E+02  0.46194936364E+02  0.50400000000E-02 0. -1.
         -1   -1    0    0    0  501 -0.00000000000E+00 -0.00000000000E+00 -0.45366893255E+02  0.45366893535E+02  0.50400000000E-02 0.  1.
         23    2    1    2    0    0  0.00000000000E+00  0.00000000000E+00  0.82804283413E+00  0.91561829899E+02  0.91558085604E+02 0.  0.
    9000005    2    3    3    0    0  0.28116723906E+02 -0.14865837307E+02  0.33302915766E+02  0.46106789980E+02  0.22822361193E+01 0.  0.
         22    1    3    3    0    0 -0.28116723906E+02  0.14865837307E+02 -0.32474872932E+02  0.45455039918E+02  0.00000000000E+00 0.  1.
         22    1    4    4    0    0  0.25263600600E+02 -0.12828392809E+02  0.28816255721E+02  0.40412792172E+02  0.00000000000E+00 0. -1.
         22    1    4    4    0    0  0.28531233060E+01 -0.20374444979E+01  0.44866600451E+01  0.56939978084E+01  0.00000000000E+00 0. -1.
<mgrwt>
<rscale>  0 0.91558086E+02</rscale>
<asrwt>0</asrwt>
<pdfrwt beam="1">  1        1 0.71069133E-02 0.91558086E+02</pdfrwt>
<pdfrwt beam="2">  1       -1 0.69795221E-02 0.91558086E+02</pdfrwt>
<totfact> 0.91576502E+04</totfact>
</mgrwt>
</event>
<event>
 7    1  0.2911475E-009  0.9297044E+02  0.7818608E-02  0.1295814E+00
          1   -1    0    0  501    0  0.00000000000E+00  0.00000000000E+00  0.34367162079E+03  0.34367162082E+03  0.50400000000E-02 0. -1.
         -1   -1    0    0    0  501 -0.00000000000E+00 -0.00000000000E+00 -0.62876167016E+01  0.62876187216E+01  0.50400000000E-02 0.  1.
         23    2    1    2    0    0 -0.88817841970E-15  0.00000000000E+00  0.33738400408E+03  0.34995923954E+03  0.92970442241E+02 0.  0.
    9000005    2    3    3    0    0 -0.76181152114E+01 -0.44356601403E+02  0.14220629626E+03  0.14965976026E+03  0.12242115002E+02 0.  0.
         22    1    3    3    0    0  0.76181152114E+01  0.44356601403E+02  0.19517770783E+03  0.20029947928E+03  0.00000000000E+00 0. -1.
         22    1    4    4    0    0  0.64077016104E-01  0.76602755892E+00  0.39365113669E+01  0.40108634765E+01  0.00000000000E+00 0.  1.
         22    1    4    4    0    0 -0.76821922275E+01 -0.45122628961E+02  0.13826978489E+03  0.14564889679E+03  0.00000000000E+00 0.  1.
<mgrwt>
<rscale>  0 0.92970442E+02</rscale>
<asrwt>0</asrwt>
<pdfrwt beam="1">  1        1 0.52872573E-01 0.92970442E+02</pdfrwt>
<pdfrwt beam="2">  1       -1 0.96732551E-03 0.92970442E+02</pdfrwt>
<totfact> 0.12475637E+05</totfact>
</mgrwt>
</event>
<event>
 7    1  0.2930821E-009  0.9234766E+02  0.7818608E-02  0.1297264E+00
          1   -1    0    0  501    0  0.00000000000E+00  0.00000000000E+00  0.41487693669E+03  0.41487693672E+03  0.50400000000E-02 0. -1.
         -1   -1    0    0    0  501 -0.00000000000E+00 -0.00000000000E+00 -0.51389268438E+01  0.51389293153E+01  0.50400000000E-02 0.  1.
         23    2    1    2    0    0  0.00000000000E+00 -0.35527136788E-14  0.40973800985E+03  0.42001586603E+03  0.92347663799E+02 0.  0.
    9000005    2    3    3    0    0  0.25387585886E+02 -0.16891927830E+02  0.36089486505E+03  0.36243531779E+03  0.13578999143E+02 0.  0.
         22    1    3    3    0    0 -0.25387585886E+02  0.16891927830E+02  0.48843144795E+02  0.57580548247E+02  0.00000000000E+00 0.  1.
         22    1    4    4    0    0  0.15440892102E+02 -0.16006928430E+02  0.20046552728E+03  0.20169548962E+03  0.00000000000E+00 0.  1.
         22    1    4    4    0    0  0.99466937837E+01 -0.88499940052E+00  0.16042933777E+03  0.16073982817E+03  0.00000000000E+00 0.  1.
<mgrwt>
<rscale>  0 0.92347664E+02</rscale>
<asrwt>0</asrwt>
<pdfrwt beam="1">  1        1 0.63827212E-01 0.92347664E+02</pdfrwt>
<pdfrwt beam="2">  1       -1 0.79060443E-03 0.92347664E+02</pdfrwt>
<totfact> 0.13116294E+05</totfact>
</mgrwt>
</event>
<event>
 7    1  0.2911475E-009  0.9226109E+02  0.7818608E-02  0.1297467E+00
          1   -1    0    0  501    0  0.00000000000E+00  0.00000000000E+00  0.99534654438E+03  0.99534654439E+03  0.50400000000E-02 0. -1.
         -1   -1    0    0    0  501 -0.00000000000E+00 -0.00000000000E+00 -0.21379732244E+01  0.21379791650E+01  0.50400000000E-02 0.  1.
         23    2    1    2    0    0  0.00000000000E+00 -0.22204460493E-15  0.99320857115E+03  0.99748452356E+03  0.92261091042E+02 0.  0.
    9000005    2    3    3    0    0 -0.37690828037E+02  0.11491336524E+01  0.77836557398E+03  0.77935742194E+03  0.11095284759E+02 0.  0.
         22    1    3    3    0    0  0.37690828037E+02 -0.11491336524E+01  0.21484299717E+03  0.21812710162E+03  0.00000000000E+00 0. -1.
         22    1    4    4    0    0 -0.29861600256E+02  0.54785333819E+01  0.60239597922E+03  0.60316054685E+03  0.00000000000E+00 0.  1.
         22    1    4    4    0    0 -0.78292277819E+01 -0.43293997295E+01  0.17596959476E+03  0.17619687509E+03  0.00000000000E+00 0.  1.
<mgrwt>
<rscale>  0 0.92261091E+02</rscale>
<asrwt>0</asrwt>
<pdfrwt beam="1">  1        1 0.15312981E+00 0.92261091E+02</pdfrwt>
<pdfrwt beam="2">  1       -1 0.32892034E-03 0.92261091E+02</pdfrwt>
<totfact> 0.13199063E+05</totfact>
</mgrwt>
</event>
<event>
 7    1  0.2911475E-009  0.9491422E+02  0.7818608E-02  0.1291369E+00
          1   -1    0    0  501    0  0.00000000000E+00  0.00000000000E+00  0.22741150905E+02  0.22741151463E+02  0.50400000000E-02 0. -1.
         -1   -1    0    0    0  501 -0.00000000000E+00 -0.00000000000E+00 -0.99035316283E+02  0.99035316411E+02  0.50400000000E-02 0.  1.
         23    2    1    2    0    0  0.00000000000E+00  0.35527136788E-14 -0.76294165378E+02  0.12177646787E+03  0.94914216307E+02 0.  0.
    9000005    2    3    3    0    0 -0.34993954527E+02 -0.31355037279E+02 -0.31049304378E+02  0.56547542825E+02  0.50842974918E+01 0.  0.
         22    1    3    3    0    0  0.34993954527E+02  0.31355037279E+02 -0.45244861000E+02  0.65228925049E+02  0.00000000000E+00 0.  1.
         22    1    4    4    0    0 -0.12608599676E+02 -0.85740062320E+01 -0.11533014973E+02  0.19118075296E+02  0.00000000000E+00 0. -1.
         22    1    4    4    0    0 -0.22385354851E+02 -0.22781031047E+02 -0.19516289405E+02  0.37429467529E+02  0.00000000000E+00 0. -1.
<mgrwt>
<rscale>  0 0.94914216E+02</rscale>
<asrwt>0</asrwt>
<pdfrwt beam="1">  1        1 0.34986387E-02 0.94914216E+02</pdfrwt>
<pdfrwt beam="2">  1       -1 0.15236202E-01 0.94914216E+02</pdfrwt>
<totfact> 0.73495954E+04</totfact>
</mgrwt>
</event>
<event>
 7    1  0.2911475E-009  0.9321517E+02  0.7818608E-02  0.1295247E+00
         -1   -1    0    0    0  501 -0.00000000000E+00  0.00000000000E+00  0.37845161555E+02  0.37845161890E+02  0.50400000000E-02 0.  1.
          1   -1    0    0  501    0  0.00000000000E+00 -0.00000000000E+00 -0.57398802634E+02  0.57398802855E+02  0.50400000000E-02 0. -1.
         23    2    1    2    0    0 -0.71054273576E-14  0.35527136788E-14 -0.19553641080E+02  0.95243964746E+02  0.93215170123E+02 0.  0.
    9000005    2    3    3    0    0  0.33679092505E+02 -0.24373853747E+02  0.10406444377E+02  0.43999718834E+02  0.99656988957E+01 0.  0.
         22    1    3    3    0    0 -0.33679092505E+02  0.24373853747E+02 -0.29960085457E+02  0.51244245911E+02  0.00000000000E+00 0. -1.
         22    1    4    4    0    0  0.11867067828E+02 -0.54752262225E+01 -0.67087232786E+00  0.13086461351E+02  0.00000000000E+00 0. -1.
         22    1    4    4    0    0  0.21812024677E+02 -0.18898627524E+02  0.11077316705E+02  0.30913257483E+02  0.00000000000E+00 0. -1.
<mgrwt>
<rscale>  0 0.93215170E+02</rscale>
<asrwt>0</asrwt>
<pdfrwt beam="2">  1        1 0.88305851E-02 0.93215170E+02</pdfrwt>
<pdfrwt beam="1">  1       -1 0.58223326E-02 0.93215170E+02</pdfrwt>
<totfact> 0.90009684E+04</totfact>
</mgrwt>
</event>
<event>
 7    1  0.2911475E-009  0.9894972E+02  0.7818608E-02  0.1282520E+00
         -1   -1    0    0    0  501 -0.00000000000E+00  0.00000000000E+00  0.12812833371E+02  0.12812834363E+02  0.50400000000E-02 0.  1.
          1   -1    0    0  501    0  0.00000000000E+00 -0.00000000000E+00 -0.19103985303E+03  0.19103985309E+03  0.50400000000E-02 0. -1.
         23    2    1    2    0    0 -0.71054273576E-14  0.00000000000E+00 -0.17822701965E+03  0.20385268745E+03  0.98949722828E+02 0.  0.
    9000005    2    3    3    0    0 -0.38768948189E+02  0.27583730171E+02 -0.63659463098E+02  0.79797786185E+02  0.71600226472E+01 0.  0.
         22    1    3    3    0    0  0.38768948189E+02 -0.27583730171E+02 -0.11456755656E+03  0.12405490127E+03  0.00000000000E+00 0.  1.
         22    1    4    4    0    0 -0.44939902463E+01  0.21818803266E+01 -0.37304905813E+01  0.62348303963E+01  0.00000000000E+00 0.  1.
         22    1    4    4    0    0 -0.34274957942E+02  0.25401849844E+02 -0.59928972517E+02  0.73562955789E+02  0.00000000000E+00 0.  1.
<mgrwt>
<rscale>  0 0.98949723E+02</rscale>
<asrwt>0</asrwt>
<pdfrwt beam="2">  1        1 0.29390745E-01 0.98949723E+02</pdfrwt>
<pdfrwt beam="1">  1       -1 0.19712054E-02 0.98949723E+02</pdfrwt>
<totfact> 0.94115990E+04</totfact>
</mgrwt>
</event>
<event>
 7    1  0.2911475E-009  0.9139147E+02  0.7818608E-02  0.1299517E+00
          1   -1    0    0  501    0  0.00000000000E+00  0.00000000000E+00  0.15926664975E+03  0.15926664983E+03  0.50400000000E-02 0. -1.
         -1   -1    0    0    0  501 -0.00000000000E+00 -0.00000000000E+00 -0.13110717062E+02  0.13110718031E+02  0.50400000000E-02 0.  1.
         23    2    1    2    0    0  0.00000000000E+00  0.00000000000E+00  0.14615593269E+03  0.17237736786E+03  0.91391467276E+02 0.  0.
    9000005    2    3    3    0    0  0.42088629750E+02  0.11988548835E+02  0.61345565681E+02  0.76941649133E+02  0.15542229091E+02 0.  0.
         22    1    3    3    0    0 -0.42088629750E+02 -0.11988548835E+02  0.84810367010E+02  0.95435718731E+02  0.00000000000E+00 0. -1.
         22    1    4    4    0    0  0.23672995785E+02  0.12819006525E+02  0.28017428040E+02  0.38855037404E+02  0.00000000000E+00 0. -1.
         22    1    4    4    0    0  0.18415633966E+02 -0.83045769015E+00  0.33328137641E+02  0.38086611728E+02  0.00000000000E+00 0. -1.
<mgrwt>
<rscale>  0 0.91391467E+02</rscale>
<asrwt>0</asrwt>
<pdfrwt beam="1">  1        1 0.24502562E-01 0.91391467E+02</pdfrwt>
<pdfrwt beam="2">  1       -1 0.20170335E-02 0.91391467E+02</pdfrwt>
<totfact> 0.11266650E+05</totfact>
</mgrwt>
</event>
<event>
 7    1  0.2938208E-009  0.8102750E+02  0.7818608E-02  0.1326161E+00
          1   -1    0    0  501    0  0.00000000000E+00  0.00000000000E+00  0.13102613110E+03  0.13102613120E+03  0.50400000000E-02 0. -1.
         -1   -1    0    0    0  501 -0.00000000000E+00 -0.00000000000E+00 -0.12526994994E+02  0.12526996008E+02  0.50400000000E-02 0.  1.
         23    2    1    2    0    0  0.00000000000E+00  0.00000000000E+00  0.11849913611E+03  0.14355312721E+03  0.81027495782E+02 0.  0.
    9000005    2    3    3    0    0 -0.42220632837E+00  0.23822597321E+02  0.50048111669E+01  0.27584785859E+02  0.12968341249E+02 0.  0.
         22    1    3    3    0    0  0.42220632837E+00 -0.23822597321E+02  0.11349432494E+03  0.11596834135E+03  0.00000000000E+00 0. -1.
         22    1    4    4    0    0 -0.15473813292E+00  0.10988606853E+02  0.89309221637E+01  0.14161030864E+02  0.00000000000E+00 0.  1.
         22    1    4    4    0    0 -0.26746819544E+00  0.12833990469E+02 -0.39261109968E+01  0.13423754994E+02  0.00000000000E+00 0.  1.
<mgrwt>
<rscale>  0 0.81027496E+02</rscale>
<asrwt>0</asrwt>
<pdfrwt beam="1">  1        1 0.20157867E-01 0.81027496E+02</pdfrwt>
<pdfrwt beam="2">  1       -1 0.19272300E-02 0.81027496E+02</pdfrwt>
<totfact> 0.15022484E+05</totfact>
</mgrwt>
</event>
<event>
 7    1  0.2911475E-009  0.9155623E+02  0.7818608E-02  0.1299126E+00
         -1   -1    0    0    0  501 -0.00000000000E+00  0.00000000000E+00  0.67933287755E+01  0.67933306451E+01  0.50400000000E-02 0. -1.
          1   -1    0    0  501    0  0.00000000000E+00 -0.00000000000E+00 -0.30848433348E+03  0.30848433352E+03  0.50400000000E-02 0.  1.
         23    2    1    2    0    0  0.00000000000E+00 -0.35527136788E-14 -0.30169100471E+03  0.31527766417E+03  0.91556229731E+02 0.  0.
    9000005    2    3    3    0    0  0.13807176045E+02 -0.31832204069E+02 -0.25114044698E+03  0.25396464587E+03  0.14919447595E+02 0.  0.
         22    1    3    3    0    0 -0.13807176045E+02  0.31832204069E+02 -0.50550557722E+02  0.61313018294E+02  0.00000000000E+00 0. -1.
         22    1    4    4    0    0 -0.22036975901E+01 -0.15444719729E+01 -0.37331493836E+02  0.37428359686E+02  0.00000000000E+00 0. -1.
         22    1    4    4    0    0  0.16010873636E+02 -0.30287732096E+02 -0.21380895315E+03  0.21653628619E+03  0.00000000000E+00 0. -1.
<mgrwt>
<rscale>  0 0.91556230E+02</rscale>
<asrwt>0</asrwt>
<pdfrwt beam="2">  1        1 0.47459118E-01 0.91556230E+02</pdfrwt>
<pdfrwt beam="1">  1       -1 0.10451279E-02 0.91556230E+02</pdfrwt>
<totfact> 0.12738405E+05</totfact>
</mgrwt>
</event>
<event>
 7    1  0.2911475E-009  0.9112365E+02  0.7818608E-02  0.1300153E+00
          1   -1    0    0  501    0  0.00000000000E+00  0.00000000000E+00  0.75514407546E+03  0.75514407548E+03  0.50400000000E-02 0. -1.
         -1   -1    0    0    0  501 -0.00000000000E+00 -0.00000000000E+00 -0.27489831542E+01  0.27489877744E+01  0.50400000000E-02 0.  1.
         23    2    1    2    0    0  0.35527136788E-14  0.88817841970E-15  0.75239509231E+03  0.75789306325E+03  0.91123654440E+02 0.  0.
    9000005    2    3    3    0    0 -0.17152996672E+02 -0.62998797580E+01  0.72301212657E+03  0.72329143821E+03  0.83699251704E+01 0.  0.
         22    1    3    3    0    0  0.17152996672E+02  0.62998797580E+01  0.29382965739E+02  0.34601625040E+02  0.00000000000E+00 0.  1.
         22    1    4    4    0    0 -0.11179868984E+02 -0.80595596546E+01  0.46511417109E+03  0.46531831913E+03  0.00000000000E+00 0. -1.
         22    1    4    4    0    0 -0.59731276882E+01  0.17596798966E+01  0.25789795548E+03  0.25797311908E+03  0.00000000000E+00 0. -1.
<mgrwt>
<rscale>  0 0.91123654E+02</rscale>
<asrwt>0</asrwt>
<pdfrwt beam="1">  1        1 0.11617613E+00 0.91123654E+02</pdfrwt>
<pdfrwt beam="2">  1       -1 0.42292042E-03 0.91123654E+02</pdfrwt>
<totfact> 0.14207909E+05</totfact>
</mgrwt>
</event>
<event>
 7    1  0.2911475E-009  0.9104750E+02  0.7818608E-02  0.1300335E+00
         -1   -1    0    0    0  501 -0.00000000000E+00  0.00000000000E+00  0.28319695333E+03  0.28319695338E+03  0.50400000000E-02 0.  1.
          1   -1    0    0  501    0  0.00000000000E+00 -0.00000000000E+00 -0.73179153961E+01  0.73179171317E+01  0.50400000000E-02 0. -1.
         23    2    1    2    0    0  0.35527136788E-14 -0.35527136788E-14  0.27587903794E+03  0.29051487051E+03  0.91047495376E+02 0.  0.
    9000005    2    3    3    0    0 -0.26095075158E+02  0.16237420853E+02  0.24505477965E+03  0.24698623991E+03  0.23981010703E+01 0.  0.
         22    1    3    3    0    0  0.26095075158E+02 -0.16237420853E+02  0.30824258285E+02  0.43528630605E+02  0.00000000000E+00 0. -1.
         22    1    4    4    0    0 -0.24899613215E+02  0.16012669666E+02  0.23426801623E+03  0.23613110714E+03  0.00000000000E+00 0.  1.
         22    1    4    4    0    0 -0.11954619431E+01  0.22475118732E+00  0.10786763421E+02  0.10855132770E+02  0.00000000000E+00 0.  1.
<mgrwt>
<rscale>  0 0.91047495E+02</rscale>
<asrwt>0</asrwt>
<pdfrwt beam="2">  1        1 0.11258332E-02 0.91047495E+02</pdfrwt>
<pdfrwt beam="1">  1       -1 0.43568766E-01 0.91047495E+02</pdfrwt>
<totfact> 0.62174751E+04</totfact>
</mgrwt>
</event>
<event>
 7    1  0.2911475E-009  0.9595682E+02  0.7818608E-02  0.1289036E+00
         -1   -1    0    0    0  501 -0.00000000000E+00  0.00000000000E+00  0.71213308818E+02  0.71213308997E+02  0.50400000000E-02 0.  1.
          1   -1    0    0  501    0  0.00000000000E+00 -0.00000000000E+00 -0.32324404963E+02  0.32324405356E+02  0.50400000000E-02 0. -1.
         23    2    1    2    0    0  0.00000000000E+00  0.88817841970E-15  0.38888903855E+02  0.10353771435E+03  0.95956820760E+02 0.  0.
    9000005    2    3    3    0    0 -0.41689071874E+02  0.47405373237E+01 -0.34403213902E+01  0.43937255313E+02  0.12577566747E+02 0.  0.
         22    1    3    3    0    0  0.41689071874E+02 -0.47405373237E+01  0.42329225246E+02  0.59600459040E+02  0.00000000000E+00 0.  1.
         22    1    4    4    0    0 -0.18085548301E+02  0.76448309596E+01 -0.44553706175E+01  0.20134071249E+02  0.00000000000E+00 0.  1.
         22    1    4    4    0    0 -0.23603523574E+02 -0.29042936359E+01  0.10150492273E+01  0.23803184063E+02  0.00000000000E+00 0.  1.
<mgrwt>
<rscale>  0 0.95956821E+02</rscale>
<asrwt>0</asrwt>
<pdfrwt beam="2">  1        1 0.49729855E-02 0.95956821E+02</pdfrwt>
<pdfrwt beam="1">  1       -1 0.10955894E-01 0.95956821E+02</pdfrwt>
<totfact> 0.75740783E+04</totfact>
</mgrwt>
</event>
<event>
 7    1  0.2911475E-009  0.9357363E+02  0.7818608E-02  0.1294421E+00
         -1   -1    0    0    0  501 -0.00000000000E+00  0.00000000000E+00  0.16623147229E+02  0.16623147993E+02  0.50400000000E-02 0.  1.
          1   -1    0    0  501    0  0.00000000000E+00 -0.00000000000E+00 -0.13168419966E+03  0.13168419976E+03  0.50400000000E-02 0. -1.
         23    2    1    2    0    0  0.35527136788E-14  0.35527136788E-14 -0.11506105243E+03  0.14830734775E+03  0.93573626681E+02 0.  0.
    9000005    2    3    3    0    0 -0.28740630895E+02 -0.31015638198E+02 -0.32631615222E+02  0.55664993530E+02  0.15677229206E+02 0.  0.
         22    1    3    3    0    0  0.28740630895E+02  0.31015638198E+02 -0.82429437211E+02  0.92642354223E+02  0.00000000000E+00 0. -1.
         22    1    4    4    0    0 -0.45261248593E+01 -0.13205296576E+02 -0.16282932900E+02  0.21447600512E+02  0.00000000000E+00 0.  1.
         22    1    4    4    0    0 -0.24214506036E+02 -0.17810341622E+02 -0.16348682323E+02  0.34217393018E+02  0.00000000000E+00 0.  1.
<mgrwt>
<rscale>  0 0.93573627E+02</rscale>
<asrwt>0</asrwt>
<pdfrwt beam="2">  1        1 0.20259107E-01 0.93573627E+02</pdfrwt>
<pdfrwt beam="1">  1       -1 0.25574074E-02 0.93573627E+02</pdfrwt>
<totfact> 0.10207505E+05</totfact>
</mgrwt>
</event>
<event>
 7    1  0.2911475E-009  0.9181856E+02  0.7818608E-02  0.1298507E+00
         -1   -1    0    0    0  501 -0.00000000000E+00  0.00000000000E+00  0.95825279457E+01  0.95825292711E+01  0.50400000000E-02 0.  1.
          1   -1    0    0  501    0  0.00000000000E+00 -0.00000000000E+00 -0.21994843225E+03  0.21994843230E+03  0.50400000000E-02 0. -1.
         23    2    1    2    0    0  0.00000000000E+00  0.00000000000E+00 -0.21036590430E+03  0.22953096158E+03  0.91818563643E+02 0.  0.
    9000005    2    3    3    0    0  0.21179050694E+02  0.47662324602E+01 -0.20601853292E+03  0.20739120552E+03  0.98085198322E+01 0.  0.
         22    1    3    3    0    0 -0.21179050694E+02 -0.47662324602E+01 -0.43473713802E+01  0.22139756052E+02  0.00000000000E+00 0.  1.
         22    1    4    4    0    0  0.32325213098E+01 -0.58024998128E+00 -0.11111837242E+02  0.11587010440E+02  0.00000000000E+00 0. -1.
         22    1    4    4    0    0  0.17946529384E+02  0.53464824415E+01 -0.19490669568E+03  0.19580419508E+03  0.00000000000E+00 0. -1.
<mgrwt>
<rscale>  0 0.91818564E+02</rscale>
<asrwt>0</asrwt>
<pdfrwt beam="2">  1        1 0.33838217E-01 0.91818564E+02</pdfrwt>
<pdfrwt beam="1">  1       -1 0.14742353E-02 0.91818564E+02</pdfrwt>
<totfact> 0.11837143E+05</totfact>
</mgrwt>
</event>
<event>
 7    1  0.2911475E-009  0.9376926E+02  0.7818608E-02  0.1293972E+00
          1   -1    0    0  501    0  0.00000000000E+00  0.00000000000E+00  0.31311044921E+03  0.31311044925E+03  0.50400000000E-02 0. -1.
         -1   -1    0    0    0  501 -0.00000000000E+00 -0.00000000000E+00 -0.70204243775E+01  0.70204261867E+01  0.50400000000E-02 0.  1.
         23    2    1    2    0    0  0.00000000000E+00 -0.17763568394E-14  0.30609002483E+03  0.32013087544E+03  0.93769259922E+02 0.  0.
    9000005    2    3    3    0    0 -0.12124774963E+02 -0.10388968144E+02  0.30339188688E+03  0.30393764304E+03  0.87471713738E+01 0.  0.
         22    1    3    3    0    0  0.12124774963E+02  0.10388968144E+02  0.26981379546E+01  0.16193232396E+02  0.00000000000E+00 0.  1.
         22    1    4    4    0    0 -0.86918226606E+01 -0.89028911065E+01  0.15498958919E+03  0.15548820537E+03  0.00000000000E+00 0. -1.
         22    1    4    4    0    0 -0.34329523027E+01 -0.14860770378E+01  0.14840229769E+03  0.14844943767E+03  0.00000000000E+00 0. -1.
<mgrwt>
<rscale>  0 0.93769260E+02</rscale>
<asrwt>0</asrwt>
<pdfrwt beam="1">  1        1 0.48170837E-01 0.93769260E+02</pdfrwt>
<pdfrwt beam="2">  1       -1 0.10800655E-02 0.93769260E+02</pdfrwt>
<totfact> 0.11985351E+05</totfact>
</mgrwt>
</event>
<event>
 6    1  0.2911475E-009  0.1392592E+03  0.7818608E-02  0.1214329E+00
          1   -1    0    0  501    0  0.00000000000E+00  0.00000000000E+00  0.13665698814E+03  0.13665698824E+03  0.50400000000E-02 0. -1.
         -1   -1    0    0    0  501 -0.00000000000E+00 -0.00000000000E+00 -0.35477750900E+02  0.35477751258E+02  0.50400000000E-02 0.  1.
    9000005    2    1    2    0    0 -0.30950987028E+02 -0.55885681429E+02  0.83007653314E+02  0.10571652325E+03  0.14301740879E+02 0.  0.
         22    1    1    2    0    0  0.30950987028E+02  0.55885681429E+02  0.18171583929E+02  0.66418216246E+02  0.00000000000E+00 0.  1.
         22    1    3    3    0    0 -0.35686276991E+01 -0.12248459639E+02  0.25465395640E+02  0.28482384772E+02  0.00000000000E+00 0. -1.
         22    1    3    3    0    0 -0.27382359328E+02 -0.43637221790E+02  0.57542257673E+02  0.77234138475E+02  0.00000000000E+00 0. -1.
<mgrwt>
<rscale>  0 0.13925922E+03</rscale>
<asrwt>0</asrwt>
<pdfrwt beam="1">  1        1 0.21024152E-01 0.13925922E+03</pdfrwt>
<pdfrwt beam="2">  1       -1 0.54581157E-02 0.13925922E+03</pdfrwt>
<totfact> 0.33977564E+04</totfact>
</mgrwt>
</event>
<event>
 7    1  0.2911475E-009  0.9036559E+02  0.7818608E-02  0.1301969E+00
         -1   -1    0    0    0  501 -0.00000000000E+00  0.00000000000E+00  0.98765824394E+01  0.98765837253E+01  0.50400000000E-02 0.  1.
          1   -1    0    0  501    0  0.00000000000E+00 -0.00000000000E+00 -0.20669951413E+03  0.20669951419E+03  0.50400000000E-02 0. -1.
         23    2    1    2    0    0  0.00000000000E+00  0.35527136788E-14 -0.19682293169E+03  0.21657609792E+03  0.90365589412E+02 0.  0.
    9000005    2    3    3    0    0  0.38185025841E+02 -0.19969457187E+02 -0.67855920869E+02  0.80600492387E+02  0.59277278360E+01 0.  0.
         22    1    3    3    0    0 -0.38185025841E+02  0.19969457187E+02 -0.12896701083E+03  0.13597560553E+03  0.00000000000E+00 0. -1.
         22    1    4    4    0    0  0.25850250282E+00  0.37009801491E+00 -0.54660214113E+00  0.70892170604E+00  0.00000000000E+00 0. -1.
         22    1    4    4    0    0  0.37926523339E+02 -0.20339555202E+02 -0.67309318728E+02  0.79891570681E+02  0.00000000000E+00 0. -1.
<mgrwt>
<rscale>  0 0.90365589E+02</rscale>
<asrwt>0</asrwt>
<pdfrwt beam="2">  1        1 0.31799922E-01 0.90365589E+02</pdfrwt>
<pdfrwt beam="1">  1       -1 0.15194745E-02 0.90365589E+02</pdfrwt>
<totfact> 0.12205233E+05</totfact>
</mgrwt>
</event>
<event>
 7    1  0.2911475E-009  0.9157332E+02  0.7818608E-02  0.1299086E+00
         -1   -1    0    0    0  501 -0.00000000000E+00  0.00000000000E+00  0.79071260868E+01  0.79071276930E+01  0.50400000000E-02 0.  1.
          1   -1    0    0  501    0  0.00000000000E+00 -0.00000000000E+00 -0.26513021023E+03  0.26513021028E+03  0.50400000000E-02 0. -1.
         23    2    1    2    0    0  0.00000000000E+00 -0.71054273576E-14 -0.25722308414E+03  0.27303733797E+03  0.91573319860E+02 0.  0.
    9000005    2    3    3    0    0 -0.14916582750E+02  0.43096599157E+02 -0.11994902942E+03  0.12838607666E+03  0.39234832065E+01 0.  0.
         22    1    3    3    0    0  0.14916582750E+02 -0.43096599157E+02 -0.13727405472E+03  0.14465126132E+03  0.00000000000E+00 0.  1.
         22    1    4    4    0    0 -0.48604592756E+01  0.19733152989E+02 -0.51652141870E+02  0.55506442428E+02  0.00000000000E+00 0. -1.
         22    1    4    4    0    0 -0.10056123475E+02  0.23363446168E+02 -0.68296887552E+02  0.72879634230E+02  0.00000000000E+00 0. -1.
<mgrwt>
<rscale>  0 0.91573320E+02</rscale>
<asrwt>0</asrwt>
<pdfrwt beam="2">  1        1 0.40789257E-01 0.91573320E+02</pdfrwt>
<pdfrwt beam="1">  1       -1 0.12164813E-02 0.91573320E+02</pdfrwt>
<totfact> 0.12365528E+05</totfact>
</mgrwt>
</event>
<event>
 7    1  0.2911475E-009  0.9098071E+02  0.7818608E-02  0.1300494E+00
         -1   -1    0    0    0  501 -0.00000000000E+00  0.00000000000E+00  0.17332751514E+02  0.17332752246E+02  0.50400000000E-02 0.  1.
          1   -1    0    0  501    0  0.00000000000E+00 -0.00000000000E+00 -0.11939087426E+03  0.11939087436E+03  0.50400000000E-02 0. -1.
         23    2    1    2    0    0  0.00000000000E+00  0.00000000000E+00 -0.10205812274E+03  0.13672362661E+03  0.90980710348E+02 0.  0.
    9000005    2    3    3    0    0  0.37629544061E+02 -0.13791112801E+01 -0.15070436550E+02  0.41935747197E+02  0.10658531842E+02 0.  0.
         22    1    3    3    0    0 -0.37629544061E+02  0.13791112801E+01 -0.86987686194E+02  0.94787879413E+02  0.00000000000E+00 0. -1.
         22    1    4    4    0    0  0.37835569610E+02 -0.19338248017E+01 -0.15755462168E+02  0.41030532463E+02  0.00000000000E+00 0.  1.
         22    1    4    4    0    0 -0.20602554897E+00  0.55471352162E+00  0.68502561783E+00  0.90521473419E+00  0.00000000000E+00 0.  1.
<mgrwt>
<rscale>  0 0.90980710E+02</rscale>
<asrwt>0</asrwt>
<pdfrwt beam="2">  1        1 0.18367826E-01 0.90980710E+02</pdfrwt>
<pdfrwt beam="1">  1       -1 0.26665773E-02 0.90980710E+02</pdfrwt>
<totfact> 0.10827440E+05</totfact>
</mgrwt>
</event>
<event>
 7    1  0.2911475E-009  0.9895001E+02  0.7818608E-02  0.1282520E+00
         -1   -1    0    0    0  501 -0.00000000000E+00  0.00000000000E+00  0.20620658854E+02  0.20620659469E+02  0.50400000000E-02 0.  1.
          1   -1    0    0  501    0  0.00000000000E+00 -0.00000000000E+00 -0.11870504573E+03  0.11870504584E+03  0.50400000000E-02 0. -1.
         23    2    1    2    0    0 -0.17763568394E-14  0.35527136788E-14 -0.98084386881E+02  0.13932570531E+03  0.98950013697E+02 0.  0.
    9000005    2    3    3    0    0  0.85480150632E+01 -0.19477611631E+02  0.11691465764E+02  0.27508069223E+02  0.12944403591E+02 0.  0.
         22    1    3    3    0    0 -0.85480150632E+01  0.19477611631E+02 -0.10977585264E+03  0.11181763609E+03  0.00000000000E+00 0. -1.
         22    1    4    4    0    0 -0.24562829709E+01 -0.37091356027E+01 -0.87955544892E+00  0.45348242237E+01  0.00000000000E+00 0. -1.
         22    1    4    4    0    0  0.11004298034E+02 -0.15768476029E+02  0.12571021212E+02  0.22973245000E+02  0.00000000000E+00 0. -1.
<mgrwt>
<rscale>  0 0.98950014E+02</rscale>
<asrwt>0</asrwt>
<pdfrwt beam="2">  1        1 0.18262314E-01 0.98950014E+02</pdfrwt>
<pdfrwt beam="1">  1       -1 0.31724092E-02 0.98950014E+02</pdfrwt>
<totfact> 0.86018940E+04</totfact>
</mgrwt>
</event>
<event>
 7    1  0.2911475E-009  0.7867853E+02  0.7818608E-02  0.1332844E+00
         -1   -1    0    0    0  501 -0.00000000000E+00  0.00000000000E+00  0.47832623537E+01  0.47832650090E+01  0.50400000000E-02 0.  1.
          1   -1    0    0  501    0  0.00000000000E+00 -0.00000000000E+00 -0.32354010109E+03  0.32354010113E+03  0.50400000000E-02 0. -1.
         23    2    1    2    0    0  0.00000000000E+00  0.00000000000E+00 -0.31875683873E+03  0.32832336614E+03  0.78678526366E+02 0.  0.
    9000005    2    3    3    0    0  0.51805888783E+01  0.36486782265E+02 -0.12957276848E+03  0.13558329189E+03  0.15349362457E+02 0.  0.
         22    1    3    3    0    0 -0.51805888783E+01 -0.36486782265E+02 -0.18918407026E+03  0.19274007425E+03  0.00000000000E+00 0. -1.
         22    1    4    4    0    0  0.38725891386E+01  0.17026407995E+02 -0.36149580285E+02  0.40145830053E+02  0.00000000000E+00 0. -1.
         22    1    4    4    0    0  0.13079997396E+01  0.19460374270E+02 -0.93423188190E+02  0.95437461836E+02  0.00000000000E+00 0. -1.
<mgrwt>
<rscale>  0 0.78678526E+02</rscale>
<asrwt>0</asrwt>
<pdfrwt beam="2">  1        1 0.49775383E-01 0.78678526E+02</pdfrwt>
<pdfrwt beam="1">  1       -1 0.73588698E-03 0.78678526E+02</pdfrwt>
<totfact> 0.19182216E+05</totfact>
</mgrwt>
</event>
<event>
 7    1  0.2911475E-009  0.8982998E+02  0.7818608E-02  0.1303264E+00
         -1   -1    0    0    0  501 -0.00000000000E+00  0.00000000000E+00  0.25802151981E+01  0.25802201205E+01  0.50400000000E-02 0.  1.
          1   -1    0    0  501    0  0.00000000000E+00 -0.00000000000E+00 -0.78185505275E+03  0.78185505277E+03  0.50400000000E-02 0. -1.
         23    2    1    2    0    0  0.17763568394E-14  0.00000000000E+00 -0.77927483755E+03  0.78443527289E+03  0.89829977777E+02 0.  0.
    9000005    2    3    3    0    0  0.12277181756E+02 -0.39439408606E+02 -0.53053371176E+03  0.53228780848E+03  0.12573607558E+02 0.  0.
         22    1    3    3    0    0 -0.12277181756E+02  0.39439408606E+02 -0.24874112580E+03  0.25214746440E+03  0.00000000000E+00 0.  1.
         22    1    4    4    0    0 -0.16926852723E+01 -0.12387706801E+02 -0.13073020464E+03  0.13132671803E+03  0.00000000000E+00 0. -1.
         22    1    4    4    0    0  0.13969867029E+02 -0.27051701804E+02 -0.39980350712E+03  0.40096109045E+03  0.00000000000E+00 0. -1.
<mgrwt>
<rscale>  0 0.89829978E+02</rscale>
<asrwt>0</asrwt>
<pdfrwt beam="2">  1        1 0.12028520E+00 0.89829978E+02</pdfrwt>
<pdfrwt beam="1">  1       -1 0.39695719E-03 0.89829978E+02</pdfrwt>
<totfact> 0.14723434E+05</totfact>
</mgrwt>
</event>
<event>
 7    1  0.2911475E-009  0.9303597E+02  0.7818608E-02  0.1295662E+00
          1   -1    0    0  501    0  0.00000000000E+00  0.00000000000E+00  0.28086668637E+02  0.28086669089E+02  0.50400000000E-02 0. -1.
         -1   -1    0    0    0  501 -0.00000000000E+00 -0.00000000000E+00 -0.77044491913E+02  0.77044492078E+02  0.50400000000E-02 0.  1.
         23    2    1    2    0    0 -0.35527136788E-14 -0.71054273576E-14 -0.48957823276E+02  0.10513116117E+03  0.93035974700E+02 0.  0.
    9000005    2    3    3    0    0 -0.22865358659E+02 -0.40027316252E+02 -0.20754374387E+02  0.51090017561E+02  0.73780190580E+01 0.  0.
         22    1    3    3    0    0  0.22865358659E+02  0.40027316252E+02 -0.28203448889E+02  0.54041143606E+02  0.00000000000E+00 0. -1.
         22    1    4    4    0    0 -0.91606245222E+01 -0.10039092863E+02 -0.43967617515E+01  0.14283974974E+02  0.00000000000E+00 0.  1.
         22    1    4    4    0    0 -0.13704734137E+02 -0.29988223390E+02 -0.16357612636E+02  0.36806042588E+02  0.00000000000E+00 0.  1.
<mgrwt>
<rscale>  0 0.93035975E+02</rscale>
<asrwt>0</asrwt>
<pdfrwt beam="1">  1        1 0.43210260E-02 0.93035975E+02</pdfrwt>
<pdfrwt beam="2">  1       -1 0.11852999E-01 0.93035975E+02</pdfrwt>
<totfact> 0.80897139E+04</totfact>
</mgrwt>
</event>
<event>
 7    1  0.2911475E-009  0.8951486E+02  0.7818608E-02  0.1304031E+00
         -1   -1    0    0    0  501 -0.00000000000E+00  0.00000000000E+00  0.72681506976E+01  0.72681524451E+01  0.50400000000E-02 0.  1.
          1   -1    0    0  501    0  0.00000000000E+00 -0.00000000000E+00 -0.27561719020E+03  0.27561719025E+03  0.50400000000E-02 0. -1.
         23    2    1    2    0    0  0.00000000000E+00  0.00000000000E+00 -0.26834903950E+03  0.28288534269E+03  0.89514859703E+02 0.  0.
    9000005    2    3    3    0    0  0.37955018262E+02 -0.22298476229E+02 -0.11344795067E+03  0.12185071047E+03  0.62731712222E+01 0.  0.
         22    1    3    3    0    0 -0.37955018262E+02  0.22298476229E+02 -0.15490108883E+03  0.16103463222E+03  0.00000000000E+00 0. -1.
         22    1    4    4    0    0  0.24358682793E+02 -0.17446847803E+02 -0.73369117445E+02  0.79251279613E+02  0.00000000000E+00 0.  1.
         22    1    4    4    0    0  0.13596335470E+02 -0.48516284265E+01 -0.40078833223E+02  0.42599430855E+02  0.00000000000E+00 0.  1.
<mgrwt>
<rscale>  0 0.89514860E+02</rscale>
<asrwt>0</asrwt>
<pdfrwt beam="2">  1        1 0.42402637E-01 0.89514860E+02</pdfrwt>
<pdfrwt beam="1">  1       -1 0.11181774E-02 0.89514860E+02</pdfrwt>
<totfact> 0.13237678E+05</totfact>
</mgrwt>
</event>
<event>
 7    1  0.2911475E-009  0.9118339E+02  0.7818608E-02  0.1300011E+00
          1   -1    0    0  501    0  0.00000000000E+00  0.00000000000E+00  0.27200813810E+02  0.27200814277E+02  0.50400000000E-02 0. -1.
         -1   -1    0    0    0  501 -0.00000000000E+00 -0.00000000000E+00 -0.76416919785E+02  0.76416919952E+02  0.50400000000E-02 0.  1.
         23    2    1    2    0    0  0.00000000000E+00  0.00000000000E+00 -0.49216105975E+02  0.10361773423E+03  0.91183385325E+02 0.  0.
    9000005    2    3    3    0    0  0.35850889818E+01 -0.35318150685E+02 -0.56144252130E+02  0.67448357127E+02  0.11699538497E+02 0.  0.
         22    1    3    3    0    0 -0.35850889818E+01  0.35318150685E+02  0.69281461549E+01  0.36169377102E+02  0.00000000000E+00 0. -1.
         22    1    4    4    0    0  0.64787715185E+01 -0.12156669949E+02 -0.17091777374E+02  0.21951946575E+02  0.00000000000E+00 0. -1.
         22    1    4    4    0    0 -0.28936825367E+01 -0.23161480735E+02 -0.39052474757E+02  0.45496410552E+02  0.00000000000E+00 0. -1.
<mgrwt>
<rscale>  0 0.91183385E+02</rscale>
<asrwt>0</asrwt>
<pdfrwt beam="1">  1        1 0.41847407E-02 0.91183385E+02</pdfrwt>
<pdfrwt beam="2">  1       -1 0.11756449E-01 0.91183385E+02</pdfrwt>
<totfact> 0.85288021E+04</totfact>
</mgrwt>
</event>
<event>
 7    1  0.2911475E-009  0.9398118E+02  0.7818608E-02  0.1293487E+00
         -1   -1    0    0    0  501 -0.00000000000E+00  0.00000000000E+00  0.15562065116E+02  0.15562065932E+02  0.50400000000E-02 0.  1.
          1   -1    0    0  501    0  0.00000000000E+00 -0.00000000000E+00 -0.14189091062E+03  0.14189091071E+03  0.50400000000E-02 0. -1.
         23    2    1    2    0    0  0.00000000000E+00  0.00000000000E+00 -0.12632884550E+03  0.15745297664E+03  0.93981182408E+02 0.  0.
    9000005    2    3    3    0    0  0.47598111320E+01 -0.21321084420E+02 -0.13236684152E+03  0.13478798516E+03  0.13022126041E+02 0.  0.
         22    1    3    3    0    0 -0.47598111320E+01  0.21321084420E+02  0.60379960184E+01  0.22664991479E+02  0.00000000000E+00 0.  1.
         22    1    4    4    0    0  0.12747218159E+01 -0.15084648514E+02 -0.11525120882E+03  0.11624118319E+03  0.00000000000E+00 0.  1.
         22    1    4    4    0    0  0.34850893160E+01 -0.62364359060E+01 -0.17115632704E+02  0.18546801967E+02  0.00000000000E+00 0.  1.
<mgrwt>
<rscale>  0 0.93981182E+02</rscale>
<asrwt>0</asrwt>
<pdfrwt beam="2">  1        1 0.21829370E-01 0.93981182E+02</pdfrwt>
<pdfrwt beam="1">  1       -1 0.23941640E-02 0.93981182E+02</pdfrwt>
<totfact> 0.10225666E+05</totfact>
</mgrwt>
</event>
<event>
 7    1  0.2911475E-009  0.1237958E+03  0.7818608E-02  0.1236963E+00
          1   -1    0    0  501    0  0.00000000000E+00  0.00000000000E+00  0.21221350293E+04  0.21221350293E+04  0.50400000000E-02 0. -1.
         -1   -1    0    0    0  501 -0.00000000000E+00 -0.00000000000E+00 -0.18054179095E+01  0.18054249443E+01  0.50400000000E-02 0.  1.
         23    2    1    2    0    0  0.00000000000E+00 -0.44408920985E-15  0.21203296114E+04  0.21239404542E+04  0.12379576835E+03 0.  0.
    9000005    2    3    3    0    0 -0.21436566060E+02 -0.36867564696E+01  0.20534224909E+04  0.20535864827E+04  0.14156176787E+02 0.  0.
         22    1    3    3    0    0  0.21436566060E+02  0.36867564696E+01  0.66907120502E+02  0.70353971541E+02  0.00000000000E+00 0.  1.
         22    1    4    4    0    0 -0.17293860630E+02 -0.87256189691E+01  0.14739328130E+04  0.14740600908E+04  0.00000000000E+00 0.  1.
         22    1    4    4    0    0 -0.41427054307E+01  0.50388624996E+01  0.57948967784E+03  0.57952639187E+03  0.00000000000E+00 0.  1.
<mgrwt>
<rscale>  0 0.12379577E+03</rscale>
<asrwt>0</asrwt>
<pdfrwt beam="1">  1        1 0.32648024E+00 0.12379577E+03</pdfrwt>
<pdfrwt beam="2">  1       -1 0.27775891E-03 0.12379577E+03</pdfrwt>
<totfact> 0.31806686E+04</totfact>
</mgrwt>
</event>
<event>
 7    1  0.4141680E-009  0.9055455E+02  0.7818608E-02  0.1301514E+00
          1   -1    0    0  501    0  0.00000000000E+00  0.00000000000E+00  0.20096966866E+02  0.20096967498E+02  0.50400000000E-02 0. -1.
         -1   -1    0    0    0  501 -0.00000000000E+00 -0.00000000000E+00 -0.10200702182E+03  0.10200702194E+03  0.50400000000E-02 0.  1.
         23    2    1    2    0    0  0.00000000000E+00  0.11102230246E-15 -0.81910054953E+02  0.12210398944E+03  0.90554553365E+02 0.  0.
    9000005    2    3    3    0    0  0.30680251771E+02 -0.75185141834E+00 -0.84503250930E+02  0.91305161628E+02  0.15937063500E+02 0.  0.
         22    1    3    3    0    0 -0.30680251771E+02  0.75185141834E+00  0.25931959767E+01  0.30798827813E+02  0.00000000000E+00 0. -1.
         22    1    4    4    0    0  0.16050491590E+02 -0.83476617130E+00 -0.64805089851E+02  0.66768366653E+02  0.00000000000E+00 0.  1.
         22    1    4    4    0    0  0.14629760180E+02  0.82914752963E-01 -0.19698161078E+02  0.24536794975E+02  0.00000000000E+00 0.  1.
<mgrwt>
<rscale>  0 0.90554553E+02</rscale>
<asrwt>0</asrwt>
<pdfrwt beam="1">  1        1 0.30918412E-02 0.90554553E+02</pdfrwt>
<pdfrwt beam="2">  1       -1 0.15693388E-01 0.90554553E+02</pdfrwt>
<totfact> 0.82511103E+04</totfact>
</mgrwt>
</event>
<event>
 7    1  0.2911475E-009  0.8839486E+02  0.7818608E-02  0.1306786E+00
         -1   -1    0    0    0  501 -0.00000000000E+00  0.00000000000E+00  0.33570701638E+03  0.33570701642E+03  0.50400000000E-02 0.  1.
          1   -1    0    0  501    0  0.00000000000E+00 -0.00000000000E+00 -0.58188010961E+01  0.58188032789E+01  0.50400000000E-02 0. -1.
         23    2    1    2    0    0  0.00000000000E+00  0.00000000000E+00  0.32988821528E+03  0.34152581970E+03  0.88394858087E+02 0.  0.
    9000005    2    3    3    0    0 -0.17747820449E+02 -0.27259952930E+02  0.27969417711E+03  0.28171334915E+03  0.86883955158E+01 0.  0.
         22    1    3    3    0    0  0.17747820449E+02  0.27259952930E+02  0.50194038172E+02  0.59812470543E+02  0.00000000000E+00 0. -1.
         22    1    4    4    0    0 -0.54511480998E+01 -0.28190846979E+01  0.63177047143E+02  0.63474416420E+02  0.00000000000E+00 0. -1.
         22    1    4    4    0    0 -0.12296672350E+02 -0.24440868232E+02  0.21651712997E+03  0.21823893273E+03  0.00000000000E+00 0. -1.
<mgrwt>
<rscale>  0 0.88394858E+02</rscale>
<asrwt>0</asrwt>
<pdfrwt beam="2">  1        1 0.89520027E-03 0.88394858E+02</pdfrwt>
<pdfrwt beam="1">  1       -1 0.51647237E-01 0.88394858E+02</pdfrwt>
<totfact> 0.62716764E+04</totfact>
</mgrwt>
</event>
<event>
 7    1  0.2911475E-009  0.9029139E+02  0.7818608E-02  0.1302148E+00
          1   -1    0    0  501    0  0.00000000000E+00  0.00000000000E+00  0.18565021034E+03  0.18565021040E+03  0.50400000000E-02 0. -1.
         -1   -1    0    0    0  501 -0.00000000000E+00 -0.00000000000E+00 -0.10978353315E+02  0.10978354472E+02  0.50400000000E-02 0.  1.
         23    2    1    2    0    0 -0.35527136788E-14  0.00000000000E+00  0.17467185702E+03  0.19662856488E+03  0.90291388793E+02 0.  0.
    9000005    2    3    3    0    0  0.20106833935E+02 -0.18722633392E+02  0.16445391022E+03  0.16731597016E+03  0.13954336688E+02 0.  0.
         22    1    3    3    0    0 -0.20106833935E+02  0.18722633392E+02  0.10217946798E+02  0.29312594712E+02  0.00000000000E+00 0.  1.
         22    1    4    4    0    0  0.88682311070E+01 -0.73385669575E+01  0.10884196457E+03  0.10944895312E+03  0.00000000000E+00 0.  1.
         22    1    4    4    0    0  0.11238602828E+02 -0.11384066434E+02  0.55611945649E+02  0.57867017039E+02  0.00000000000E+00 0.  1.
<mgrwt>
<rscale>  0 0.90291389E+02</rscale>
<asrwt>0</asrwt>
<pdfrwt beam="1">  1        1 0.28561568E-01 0.90291389E+02</pdfrwt>
<pdfrwt beam="2">  1       -1 0.16889777E-02 0.90291389E+02</pdfrwt>
<totfact> 0.11981165E+05</totfact>
</mgrwt>
</event>
<event>
 7    1  0.2911475E-009  0.8981697E+02  0.7818608E-02  0.1303296E+00
         -1   -1    0    0    0  501 -0.00000000000E+00  0.00000000000E+00  0.96457500132E+02  0.96457500264E+02  0.50400000000E-02 0.  1.
          1   -1    0    0  501    0  0.00000000000E+00 -0.00000000000E+00 -0.20908401819E+02  0.20908402427E+02  0.50400000000E-02 0. -1.
         23    2    1    2    0    0  0.00000000000E+00  0.35527136788E-14  0.75549098313E+02  0.11736590269E+03  0.89816974222E+02 0.  0.
    9000005    2    3    3    0    0  0.18980593416E+02  0.26451696249E+02 -0.14843279518E+01  0.33735143260E+02  0.87121467176E+01 0.  0.
         22    1    3    3    0    0 -0.18980593416E+02 -0.26451696249E+02  0.77033426265E+02  0.83630759431E+02  0.00000000000E+00 0.  1.
         22    1    4    4    0    0  0.13849689521E+02  0.22867261264E+02 -0.39175698655E+01  0.27019861051E+02  0.00000000000E+00 0.  1.
         22    1    4    4    0    0  0.51309038948E+01  0.35844349851E+01  0.24332419137E+01  0.67152822093E+01  0.00000000000E+00 0.  1.
<mgrwt>
<rscale>  0 0.89816974E+02</rscale>
<asrwt>0</asrwt>
<pdfrwt beam="2">  1        1 0.32166772E-02 0.89816974E+02</pdfrwt>
<pdfrwt beam="1">  1       -1 0.14839616E-01 0.89816974E+02</pdfrwt>
<totfact> 0.85139149E+04</totfact>
</mgrwt>
</event>
<event>
 7    1  0.2911475E-009  0.9189600E+02  0.7818608E-02  0.1298324E+00
         -1   -1    0    0    0  501 -0.00000000000E+00  0.00000000000E+00  0.57417956144E+02  0.57417956366E+02  0.50400000000E-02 0.  1.
          1   -1    0    0  501    0  0.00000000000E+00 -0.00000000000E+00 -0.36769314569E+02  0.36769314915E+02  0.50400000000E-02 0. -1.
         23    2    1    2    0    0  0.71054273576E-14  0.00000000000E+00  0.20648641575E+02  0.94187271280E+02  0.91896004659E+02 0.  0.
    9000005    2    3    3    0    0  0.43435006233E+02  0.92222137373E+01  0.95537737926E+00  0.45612857776E+02  0.10390912177E+02 0.  0.
         22    1    3    3    0    0 -0.43435006233E+02 -0.92222137373E+01  0.19693264196E+02  0.48574413505E+02  0.00000000000E+00 0.  1.
         22    1    4    4    0    0  0.94458483294E+00  0.60912987110E+00 -0.18531803029E+01  0.21673848163E+01  0.00000000000E+00 0. -1.
         22    1    4    4    0    0  0.42490421400E+02  0.86130838662E+01  0.28085576822E+01  0.43445472959E+02  0.00000000000E+00 0. -1.
<mgrwt>
<rscale>  0 0.91896005E+02</rscale>
<asrwt>0</asrwt>
<pdfrwt beam="2">  1        1 0.56568177E-02 0.91896005E+02</pdfrwt>
<pdfrwt beam="1">  1       -1 0.88335317E-02 0.91896005E+02</pdfrwt>
<totfact> 0.87527573E+04</totfact>
</mgrwt>
</event>
<event>
 7    1  0.2911475E-009  0.7771795E+02  0.7818608E-02  0.1335655E+00
          1   -1    0    0  501    0  0.00000000000E+00  0.00000000000E+00  0.95371368422E+02  0.95371368555E+02  0.50400000000E-02 0. -1.
         -1   -1    0    0    0  501 -0.00000000000E+00 -0.00000000000E+00 -0.15833051808E+02  0.15833052610E+02  0.50400000000E-02 0.  1.
         23    2    1    2    0    0 -0.35527136788E-14 -0.35527136788E-14  0.79538316614E+02  0.11120442117E+03  0.77717948228E+02 0.  0.
    9000005    2    3    3    0    0  0.23400174887E+02  0.29289736485E+02  0.38890106016E+02  0.55907641214E+02  0.14414130292E+02 0.  0.
         22    1    3    3    0    0 -0.23400174887E+02 -0.29289736485E+02  0.40648210598E+02  0.55296779951E+02  0.00000000000E+00 0. -1.
         22    1    4    4    0    0  0.31770990595E+01  0.13766173888E+02  0.18409365586E+02  0.23205737291E+02  0.00000000000E+00 0.  1.
         22    1    4    4    0    0  0.20223075827E+02  0.15523562597E+02  0.20480740431E+02  0.32701903923E+02  0.00000000000E+00 0.  1.
<mgrwt>
<rscale>  0 0.77717948E+02</rscale>
<asrwt>0</asrwt>
<pdfrwt beam="1">  1        1 0.14672519E-01 0.77717948E+02</pdfrwt>
<pdfrwt beam="2">  1       -1 0.24358542E-02 0.77717948E+02</pdfrwt>
<totfact> 0.15952023E+05</totfact>
</mgrwt>
</event>
<event>
 7    1  0.2911475E-009  0.8479721E+02  0.7818608E-02  0.1315964E+00
          1   -1    0    0  501    0  0.00000000000E+00  0.00000000000E+00  0.21144764549E+03  0.21144764555E+03  0.50400000000E-02 0. -1.
         -1   -1    0    0    0  501 -0.00000000000E+00 -0.00000000000E+00 -0.85015909954E+01  0.85015924893E+01  0.50400000000E-02 0.  1.
         23    2    1    2    0    0  0.00000000000E+00  0.00000000000E+00  0.20294605449E+03  0.21994923804E+03  0.84797206788E+02 0.  0.
    9000005    2    3    3    0    0 -0.33508200191E+02  0.21574592979E+02  0.13327820426E+03  0.13968796532E+03  0.12703754637E+02 0.  0.
         22    1    3    3    0    0  0.33508200191E+02 -0.21574592979E+02  0.69667850226E+02  0.80261272712E+02  0.00000000000E+00 0. -1.
         22    1    4    4    0    0 -0.58367227596E+01 -0.10838376509E+01  0.15442230876E+02  0.16544017984E+02  0.00000000000E+00 0.  1.
         22    1    4    4    0    0 -0.27671477432E+02  0.22658430630E+02  0.11783597339E+03  0.12314394734E+03  0.00000000000E+00 0.  1.
<mgrwt>
<rscale>  0 0.84797207E+02</rscale>
<asrwt>0</asrwt>
<pdfrwt beam="1">  1        1 0.32530406E-01 0.84797207E+02</pdfrwt>
<pdfrwt beam="2">  1       -1 0.13079373E-02 0.84797207E+02</pdfrwt>
<totfact> 0.14524176E+05</totfact>
</mgrwt>
</event>
<event>
 7    1  0.2911475E-009  0.9221077E+02  0.7818608E-02  0.1297585E+00
         -1   -1    0    0    0  501 -0.00000000000E+00  0.00000000000E+00  0.20470359080E+03  0.20470359086E+03  0.50400000000E-02 0.  1.
          1   -1    0    0  501    0  0.00000000000E+00 -0.00000000000E+00 -0.10384314442E+02  0.10384315665E+02  0.50400000000E-02 0. -1.
         23    2    1    2    0    0  0.00000000000E+00 -0.35527136788E-14  0.19431927636E+03  0.21508790653E+03  0.92210771442E+02 0.  0.
    9000005    2    3    3    0    0  0.27546441026E+02  0.31731425423E+02  0.57129883955E+02  0.71607527518E+02  0.99057853775E+01 0.  0.
         22    1    3    3    0    0 -0.27546441026E+02 -0.31731425423E+02  0.13718939241E+03  0.14348037901E+03  0.00000000000E+00 0.  1.
         22    1    4    4    0    0  0.11811594756E+02  0.19588861818E+02  0.25546682071E+02  0.34290964449E+02  0.00000000000E+00 0.  1.
         22    1    4    4    0    0  0.15734846270E+02  0.12142563605E+02  0.31583201884E+02  0.37316563069E+02  0.00000000000E+00 0.  1.
<mgrwt>
<rscale>  0 0.92210771E+02</rscale>
<asrwt>0</asrwt>
<pdfrwt beam="2">  1        1 0.15975870E-02 0.92210771E+02</pdfrwt>
<pdfrwt beam="1">  1       -1 0.31492858E-01 0.92210771E+02</pdfrwt>
<totfact> 0.66961212E+04</totfact>
</mgrwt>
</event>
<event>
 6    1  0.7006492E-009  0.1282687E+04  0.7818608E-02  0.9043409E-01
         -1   -1    0    0    0  501 -0.00000000000E+00  0.00000000000E+00  0.30654599242E+03  0.30654599246E+03  0.50400000000E-02 0.  1.
          1   -1    0    0  501    0  0.00000000000E+00 -0.00000000000E+00 -0.13417928747E+04  0.13417928747E+04  0.50400000000E-02 0. -1.
    9000005    2    1    2    0    0  0.34141603451E+03  0.46914996260E+03 -0.16680681942E+03  0.60389895085E+03  0.14241903108E+02 0.  0.
         22    1    1    2    0    0 -0.34141603451E+03 -0.46914996260E+03 -0.86844006283E+03  0.10444399163E+04  0.00000000000E+00 0. -1.
         22    1    3    3    0    0  0.26819546956E+03  0.35870595553E+03 -0.13029074100E+03  0.46644876419E+03  0.00000000000E+00 0. -1.
         22    1    3    3    0    0  0.73220564952E+02  0.11044400707E+03 -0.36516078417E+02  0.13745018666E+03  0.00000000000E+00 0. -1.
<mgrwt>
<rscale>  0 0.12826866E+04</rscale>
<asrwt>0</asrwt>
<pdfrwt beam="2">  1        1 0.20642967E+00 0.12826866E+04</pdfrwt>
<pdfrwt beam="1">  1       -1 0.47160923E-01 0.12826866E+04</pdfrwt>
<totfact> 0.37252236E+01</totfact>
</mgrwt>
</event>
<event>
 7    1  0.2911475E-009  0.9109373E+02  0.7818608E-02  0.1300224E+00
         -1   -1    0    0    0  501 -0.00000000000E+00  0.00000000000E+00  0.43945683370E+02  0.43945683659E+02  0.50400000000E-02 0.  1.
          1   -1    0    0  501    0  0.00000000000E+00 -0.00000000000E+00 -0.47206386337E+02  0.47206386606E+02  0.50400000000E-02 0. -1.
         23    2    1    2    0    0  0.00000000000E+00  0.00000000000E+00 -0.32607029675E+01  0.91152070265E+02  0.91093730463E+02 0.  0.
    9000005    2    3    3    0    0  0.84547567603E+01  0.82929457122E+01  0.41559871873E+02  0.44793254604E+02  0.11787995905E+02 0.  0.
         22    1    3    3    0    0 -0.84547567603E+01 -0.82929457122E+01 -0.44820574840E+02  0.46358815661E+02  0.00000000000E+00 0. -1.
         22    1    4    4    0    0  0.47534315440E+01  0.95904949543E+01  0.18263626638E+02  0.21169146484E+02  0.00000000000E+00 0. -1.
         22    1    4    4    0    0  0.37013252162E+01 -0.12975492421E+01  0.23296245235E+02  0.23624108120E+02  0.00000000000E+00 0. -1.
<mgrwt>
<rscale>  0 0.91093730E+02</rscale>
<asrwt>0</asrwt>
<pdfrwt beam="2">  1        1 0.72625210E-02 0.91093730E+02</pdfrwt>
<pdfrwt beam="1">  1       -1 0.67608744E-02 0.91093730E+02</pdfrwt>
<totfact> 0.93196250E+04</totfact>
</mgrwt>
</event>
<event>
 7    1  0.2911475E-009  0.9274905E+02  0.7818608E-02  0.1296328E+00
         -1   -1    0    0    0  501 -0.00000000000E+00  0.00000000000E+00  0.10377276700E+02  0.10377277924E+02  0.50400000000E-02 0.  1.
          1   -1    0    0  501    0  0.00000000000E+00 -0.00000000000E+00 -0.20724092691E+03  0.20724092697E+03  0.50400000000E-02 0. -1.
         23    2    1    2    0    0  0.00000000000E+00  0.00000000000E+00 -0.19686365020E+03  0.21761820489E+03  0.92749050280E+02 0.  0.
    9000005    2    3    3    0    0 -0.24232791133E+02  0.36782537691E+02 -0.75430118518E+02  0.88442797544E+02  0.13865151019E+02 0.  0.
         22    1    3    3    0    0  0.24232791133E+02 -0.36782537691E+02 -0.12143353169E+03  0.12917540735E+03  0.00000000000E+00 0. -1.
         22    1    4    4    0    0 -0.13330389891E+02  0.85550955252E+01 -0.23501549531E+02  0.28340991239E+02  0.00000000000E+00 0. -1.
         22    1    4    4    0    0 -0.10902401242E+02  0.28227442165E+02 -0.51928568987E+02  0.60101806305E+02  0.00000000000E+00 0. -1.
<mgrwt>
<rscale>  0 0.92749050E+02</rscale>
<asrwt>0</asrwt>
<pdfrwt beam="2">  1        1 0.31883216E-01 0.92749050E+02</pdfrwt>
<pdfrwt beam="1">  1       -1 0.15965044E-02 0.92749050E+02</pdfrwt>
<totfact> 0.11387823E+05</totfact>
</mgrwt>
</event>
<event>
 7    1  0.2911475E-009  0.9366267E+02  0.7818608E-02  0.1294217E+00
          1   -1    0    0  501    0  0.00000000000E+00  0.00000000000E+00  0.35231339065E+01  0.35231375115E+01  0.50400000000E-02 0. -1.
         -1   -1    0    0    0  501 -0.00000000000E+00 -0.00000000000E+00 -0.62250628863E+03  0.62250628865E+03  0.50400000000E-02 0.  1.
         23    2    1    2    0    0  0.00000000000E+00  0.88817841970E-15 -0.61898315472E+03  0.62602942616E+03  0.93662674472E+02 0.  0.
    9000005    2    3    3    0    0  0.34739186635E+02  0.25414962286E+01 -0.51501523042E+03  0.51638181071E+03  0.14007732593E+02 0.  0.
         22    1    3    3    0    0 -0.34739186635E+02 -0.25414962286E+01 -0.10396792430E+03  0.10964761545E+03  0.00000000000E+00 0. -1.
         22    1    4    4    0    0  0.21167572907E+02  0.83801254931E+01 -0.31542616728E+03  0.31624667532E+03  0.00000000000E+00 0.  1.
         22    1    4    4    0    0  0.13571613728E+02 -0.58386292645E+01 -0.19958906314E+03  0.20013513538E+03  0.00000000000E+00 0.  1.
<mgrwt>
<rscale>  0 0.93662674E+02</rscale>
<asrwt>0</asrwt>
<pdfrwt beam="1">  1        1 0.54202137E-03 0.93662674E+02</pdfrwt>
<pdfrwt beam="2">  1       -1 0.95770111E-01 0.93662674E+02</pdfrwt>
<totfact> 0.37726111E+04</totfact>
</mgrwt>
</event>
<event>
 7    1  0.2911475E-009  0.9175698E+02  0.7818608E-02  0.1298652E+00
          1   -1    0    0  501    0  0.00000000000E+00  0.00000000000E+00  0.13471459329E+03  0.13471459338E+03  0.50400000000E-02 0. -1.
         -1   -1    0    0    0  501 -0.00000000000E+00 -0.00000000000E+00 -0.15624409549E+02  0.15624410362E+02  0.50400000000E-02 0.  1.
         23    2    1    2    0    0  0.71054273576E-14  0.00000000000E+00  0.11909018374E+03  0.15033900374E+03  0.91756984385E+02 0.  0.
    9000005    2    3    3    0    0 -0.38709520318E+02 -0.89226561259E+01  0.21952934523E+02  0.45392894045E+02  0.73670886734E+00 0.  0.
         22    1    3    3    0    0  0.38709520318E+02  0.89226561259E+01  0.97137249214E+02  0.10494610970E+03  0.00000000000E+00 0. -1.
         22    1    4    4    0    0 -0.38589165697E+01 -0.10584496196E+01  0.23821034893E+01  0.46568197005E+01  0.00000000000E+00 0.  1.
         22    1    4    4    0    0 -0.34850603749E+02 -0.78642065063E+01  0.19570831034E+02  0.40736074344E+02  0.00000000000E+00 0.  1.
<mgrwt>
<rscale>  0 0.91756984E+02</rscale>
<asrwt>0</asrwt>
<pdfrwt beam="1">  1        1 0.20725322E-01 0.91756984E+02</pdfrwt>
<pdfrwt beam="2">  1       -1 0.24037554E-02 0.91756984E+02</pdfrwt>
<totfact> 0.10809216E+05</totfact>
</mgrwt>
</event>
<event>
 7    1  0.2911475E-009  0.8748744E+02  0.7818608E-02  0.1309053E+00
          1   -1    0    0  501    0  0.00000000000E+00  0.00000000000E+00  0.39126070389E+02  0.39126070713E+02  0.50400000000E-02 0. -1.
         -1   -1    0    0    0  501 -0.00000000000E+00 -0.00000000000E+00 -0.48906343061E+02  0.48906343320E+02  0.50400000000E-02 0.  1.
         23    2    1    2    0    0  0.00000000000E+00  0.00000000000E+00 -0.97802726722E+01  0.88032414034E+02  0.87487440167E+02 0.  0.
    9000005    2    3    3    0    0 -0.35369546810E+02 -0.11143030769E+01 -0.29420758351E+02  0.47560260760E+02  0.12006284549E+02 0.  0.
         22    1    3    3    0    0  0.35369546810E+02  0.11143030769E+01  0.19640485679E+02  0.40472153274E+02  0.00000000000E+00 0. -1.
         22    1    4    4    0    0 -0.15650774653E+02 -0.56294576847E+01 -0.94283902433E+01  0.19118893369E+02  0.00000000000E+00 0.  1.
         22    1    4    4    0    0 -0.19718772158E+02  0.45151546078E+01 -0.19992368108E+02  0.28441367391E+02  0.00000000000E+00 0.  1.
<mgrwt>
<rscale>  0 0.87487440E+02</rscale>
<asrwt>0</asrwt>
<pdfrwt beam="1">  1        1 0.60193955E-02 0.87487440E+02</pdfrwt>
<pdfrwt beam="2">  1       -1 0.75240528E-02 0.87487440E+02</pdfrwt>
<totfact> 0.10150337E+05</totfact>
</mgrwt>
</event>
<event>
 7    1  0.2911475E-009  0.9258054E+02  0.7818608E-02  0.1296720E+00
         -1   -1    0    0    0  501 -0.00000000000E+00  0.00000000000E+00  0.48045633828E+02  0.48045634092E+02  0.50400000000E-02 0.  1.
          1   -1    0    0  501    0  0.00000000000E+00 -0.00000000000E+00 -0.44599041597E+02  0.44599041882E+02  0.50400000000E-02 0. -1.
         23    2    1    2    0    0  0.00000000000E+00  0.00000000000E+00  0.34465922309E+01  0.92644675974E+02  0.92580543249E+02 0.  0.
    9000005    2    3    3    0    0  0.22474902990E+02  0.32444771863E+02 -0.20494489568E+02  0.46482354939E+02  0.13520382108E+02 0.  0.
         22    1    3    3    0    0 -0.22474902990E+02 -0.32444771863E+02  0.23941081799E+02  0.46162321035E+02  0.00000000000E+00 0.  1.
         22    1    4    4    0    0  0.16405386368E+02  0.14880903066E+02 -0.16112691868E+02  0.27389721013E+02  0.00000000000E+00 0. -1.
         22    1    4    4    0    0  0.60695166226E+01  0.17563868797E+02 -0.43817977001E+01  0.19092633926E+02  0.00000000000E+00 0. -1.
<mgrwt>
<rscale>  0 0.92580543E+02</rscale>
<asrwt>0</asrwt>
<pdfrwt beam="2">  1        1 0.68613911E-02 0.92580543E+02</pdfrwt>
<pdfrwt beam="1">  1       -1 0.73916360E-02 0.92580543E+02</pdfrwt>
<totfact> 0.88286202E+04</totfact>
</mgrwt>
</event>
<event>
 7    1  0.2911475E-009  0.9147895E+02  0.7818608E-02  0.1299309E+00
          1   -1    0    0  501    0  0.00000000000E+00  0.00000000000E+00  0.97003244641E+03  0.97003244642E+03  0.50400000000E-02 0. -1.
         -1   -1    0    0    0  501 -0.00000000000E+00 -0.00000000000E+00 -0.21567287665E+01  0.21567346554E+01  0.50400000000E-02 0.  1.
         23    2    1    2    0    0  0.00000000000E+00  0.00000000000E+00  0.96787571764E+03  0.97218918107E+03  0.91478953875E+02 0.  0.
    9000005    2    3    3    0    0 -0.25139815849E+02  0.56482377786E+01  0.88411586912E+03  0.88455571056E+03  0.10678113974E+02 0.  0.
         22    1    3    3    0    0  0.25139815849E+02 -0.56482377786E+01  0.83759848520E+02  0.87633470518E+02  0.00000000000E+00 0.  1.
         22    1    4    4    0    0 -0.14899111425E+02  0.73412771757E+01  0.64636332702E+03  0.64657669954E+03  0.00000000000E+00 0.  1.
         22    1    4    4    0    0 -0.10240704424E+02 -0.16930393971E+01  0.23775254210E+03  0.23797901102E+03  0.00000000000E+00 0.  1.
<mgrwt>
<rscale>  0 0.91478954E+02</rscale>
<asrwt>0</asrwt>
<pdfrwt beam="1">  1        1 0.14923574E+00 0.91478954E+02</pdfrwt>
<pdfrwt beam="2">  1       -1 0.33180492E-03 0.91478954E+02</pdfrwt>
<totfact> 0.13586609E+05</totfact>
</mgrwt>
</event>
<event>
 7    1  0.2911475E-009  0.8818590E+02  0.7818608E-02  0.1307305E+00
         -1   -1    0    0    0  501 -0.00000000000E+00  0.00000000000E+00  0.15817306481E+02  0.15817307284E+02  0.50400000000E-02 0.  1.
          1   -1    0    0  501    0  0.00000000000E+00 -0.00000000000E+00 -0.12291524479E+03  0.12291524490E+03  0.50400000000E-02 0. -1.
         23    2    1    2    0    0  0.00000000000E+00  0.00000000000E+00 -0.10709793831E+03  0.13873255218E+03  0.88185898213E+02 0.  0.
    9000005    2    3    3    0    0  0.80431783718E+01 -0.38767770800E+02 -0.82723285412E+02  0.92237859202E+02  0.98512917798E+01 0.  0.
         22    1    3    3    0    0 -0.80431783718E+01  0.38767770800E+02 -0.24374652900E+02  0.46494692978E+02  0.00000000000E+00 0. -1.
         22    1    4    4    0    0  0.52529874739E+01 -0.14609839887E+02 -0.42350781017E+02  0.45106872554E+02  0.00000000000E+00 0. -1.
         22    1    4    4    0    0  0.27901908979E+01 -0.24157930913E+02 -0.40372504396E+02  0.47130986648E+02  0.00000000000E+00 0. -1.
<mgrwt>
<rscale>  0 0.88185898E+02</rscale>
<asrwt>0</asrwt>
<pdfrwt beam="2">  1        1 0.18910037E-01 0.88185898E+02</pdfrwt>
<pdfrwt beam="1">  1       -1 0.24334319E-02 0.88185898E+02</pdfrwt>
<totfact> 0.11839766E+05</totfact>
</mgrwt>
</event>
<event>
 7    1  0.2911475E-009  0.9309113E+02  0.7818608E-02  0.1295534E+00
          1   -1    0    0  501    0  0.00000000000E+00  0.00000000000E+00  0.25109457338E+02  0.25109457844E+02  0.50400000000E-02 0. -1.
         -1   -1    0    0    0  501 -0.00000000000E+00 -0.00000000000E+00 -0.86281817306E+02  0.86281817453E+02  0.50400000000E-02 0.  1.
         23    2    1    2    0    0 -0.22204460493E-15  0.00000000000E+00 -0.61172359968E+02  0.11139127530E+03  0.93091130556E+02 0.  0.
    9000005    2    3    3    0    0  0.13497852121E+01  0.44594145054E+02 -0.21103391993E+02  0.51424768913E+02  0.14446245565E+02 0.  0.
         22    1    3    3    0    0 -0.13497852121E+01 -0.44594145054E+02 -0.40068967975E+02  0.59966506383E+02  0.00000000000E+00 0.  1.
         22    1    4    4    0    0 -0.39932523574E+01  0.32174651454E+02 -0.19439388222E+02  0.37802699309E+02  0.00000000000E+00 0.  1.
         22    1    4    4    0    0  0.53430375694E+01  0.12419493600E+02 -0.16640037705E+01  0.13622069604E+02  0.00000000000E+00 0.  1.
<mgrwt>
<rscale>  0 0.93091131E+02</rscale>
<asrwt>0</asrwt>
<pdfrwt beam="1">  1        1 0.38629935E-02 0.93091131E+02</pdfrwt>
<pdfrwt beam="2">  1       -1 0.13274126E-01 0.93091131E+02</pdfrwt>
<totfact> 0.79217010E+04</totfact>
</mgrwt>
</event>
<event>
 7    1  0.2911475E-009  0.9224554E+02  0.7818608E-02  0.1297503E+00
          1   -1    0    0  501    0  0.00000000000E+00  0.00000000000E+00  0.20254686351E+03  0.20254686357E+03  0.50400000000E-02 0. -1.
         -1   -1    0    0    0  501 -0.00000000000E+00 -0.00000000000E+00 -0.10502802546E+02  0.10502803755E+02  0.50400000000E-02 0.  1.
         23    2    1    2    0    0 -0.35527136788E-14  0.00000000000E+00  0.19204406097E+03  0.21304966733E+03  0.92245538629E+02 0.  0.
    9000005    2    3    3    0    0 -0.23428232111E+02  0.21615715711E+02  0.17153113284E+03  0.17514318443E+03  0.15365034771E+02 0.  0.
         22    1    3    3    0    0  0.23428232111E+02 -0.21615715711E+02  0.20512928128E+02  0.37906482901E+02  0.00000000000E+00 0.  1.
         22    1    4    4    0    0 -0.20928085403E+02  0.22338304385E+02  0.16794773925E+03  0.17071446254E+03  0.00000000000E+00 0.  1.
         22    1    4    4    0    0 -0.25001467077E+01 -0.72258867441E+00  0.35833935895E+01  0.44287218890E+01  0.00000000000E+00 0.  1.
<mgrwt>
<rscale>  0 0.92245539E+02</rscale>
<asrwt>0</asrwt>
<pdfrwt beam="1">  1        1 0.31161055E-01 0.92245539E+02</pdfrwt>
<pdfrwt beam="2">  1       -1 0.16158159E-02 0.92245539E+02</pdfrwt>
<totfact> 0.11504077E+05</totfact>
</mgrwt>
</event>
<event>
 7    1  0.2911475E-009  0.8968031E+02  0.7818608E-02  0.1303628E+00
         -1   -1    0    0    0  501 -0.00000000000E+00  0.00000000000E+00  0.32010064893E+03  0.32010064896E+03  0.50400000000E-02 0.  1.
          1   -1    0    0  501    0  0.00000000000E+00 -0.00000000000E+00 -0.62812711078E+01  0.62812731298E+01  0.50400000000E-02 0. -1.
         23    2    1    2    0    0  0.00000000000E+00  0.00000000000E+00  0.31381937782E+03  0.32638192209E+03  0.89680305400E+02 0.  0.
    9000005    2    3    3    0    0 -0.34615208068E+02 -0.20757395545E+02  0.94058829780E+02  0.10294562116E+03  0.11029748777E+02 0.  0.
         22    1    3    3    0    0  0.34615208068E+02  0.20757395545E+02  0.21976054804E+03  0.22343630093E+03  0.00000000000E+00 0.  1.
         22    1    4    4    0    0 -0.17101921094E+02 -0.13388767921E+02  0.38188486079E+02  0.43932849675E+02  0.00000000000E+00 0.  1.
         22    1    4    4    0    0 -0.17513286974E+02 -0.73686276243E+01  0.55870343701E+02  0.59012771490E+02  0.00000000000E+00 0.  1.
<mgrwt>
<rscale>  0 0.89680305E+02</rscale>
<asrwt>0</asrwt>
<pdfrwt beam="2">  1        1 0.96634930E-03 0.89680305E+02</pdfrwt>
<pdfrwt beam="1">  1       -1 0.49246267E-01 0.89680305E+02</pdfrwt>
<totfact> 0.61626674E+04</totfact>
</mgrwt>
</event>
<event>
 7    1  0.2911475E-009  0.8517727E+02  0.7818608E-02  0.1314970E+00
          1   -1    0    0  501    0  0.00000000000E+00  0.00000000000E+00  0.37155361470E+03  0.37155361474E+03  0.50400000000E-02 0. -1.
         -1   -1    0    0    0  501 -0.00000000000E+00 -0.00000000000E+00 -0.48816405248E+01  0.48816431266E+01  0.50400000000E-02 0.  1.
         23    2    1    2    0    0  0.00000000000E+00  0.00000000000E+00  0.36667197418E+03  0.37643525786E+03  0.85177266423E+02 0.  0.
    9000005    2    3    3    0    0  0.16590740005E+02 -0.32318143377E+02  0.27803397781E+03  0.28064168060E+03  0.11710893500E+02 0.  0.
         22    1    3    3    0    0 -0.16590740005E+02  0.32318143377E+02  0.88637996366E+02  0.95793577264E+02  0.00000000000E+00 0.  1.
         22    1    4    4    0    0  0.47983326081E+00 -0.11846981904E+02  0.72450316818E+02  0.73414096924E+02  0.00000000000E+00 0.  1.
         22    1    4    4    0    0  0.16110906744E+02 -0.20471161472E+02  0.20558366099E+03  0.20722758367E+03  0.00000000000E+00 0.  1.
<mgrwt>
<rscale>  0 0.85177266E+02</rscale>
<asrwt>0</asrwt>
<pdfrwt beam="1">  1        1 0.57162095E-01 0.85177266E+02</pdfrwt>
<pdfrwt beam="2">  1       -1 0.75102181E-03 0.85177266E+02</pdfrwt>
<totfact> 0.15952466E+05</totfact>
</mgrwt>
</event>
<event>
 7    1  0.2911475E-009  0.8991104E+02  0.7818608E-02  0.1303067E+00
          1   -1    0    0  501    0  0.00000000000E+00  0.00000000000E+00  0.44818526234E+02  0.44818526517E+02  0.50400000000E-02 0. -1.
         -1   -1    0    0    0  501 -0.00000000000E+00 -0.00000000000E+00 -0.45092933436E+02  0.45092933717E+02  0.50400000000E-02 0.  1.
         23    2    1    2    0    0  0.71054273576E-14  0.00000000000E+00 -0.27440720161E+00  0.89911460235E+02  0.89911041492E+02 0.  0.
    9000005    2    3    3    0    0  0.41128745403E+02  0.99960057883E+01  0.11026499096E+02  0.46102736066E+02  0.14573426513E+02 0.  0.
         22    1    3    3    0    0 -0.41128745403E+02 -0.99960057883E+01 -0.11300906298E+02  0.43808724169E+02  0.00000000000E+00 0. -1.
         22    1    4    4    0    0  0.35512870383E+02  0.65642696543E+01  0.37770208972E+01  0.36311423626E+02  0.00000000000E+00 0.  1.
         22    1    4    4    0    0  0.56158750202E+01  0.34317361340E+01  0.72494781991E+01  0.97913124399E+01  0.00000000000E+00 0.  1.
<mgrwt>
<rscale>  0 0.89911041E+02</rscale>
<asrwt>0</asrwt>
<pdfrwt beam="1">  1        1 0.68951579E-02 0.89911041E+02</pdfrwt>
<pdfrwt beam="2">  1       -1 0.69373744E-02 0.89911041E+02</pdfrwt>
<totfact> 0.95922792E+04</totfact>
</mgrwt>
</event>
<event>
 7    1  0.2911475E-009  0.8661086E+02  0.7818608E-02  0.1311273E+00
         -1   -1    0    0    0  501 -0.00000000000E+00  0.00000000000E+00  0.61883897953E+01  0.61883918477E+01  0.50400000000E-02 0.  1.
          1   -1    0    0  501    0  0.00000000000E+00 -0.00000000000E+00 -0.30304492509E+03  0.30304492513E+03  0.50400000000E-02 0. -1.
         23    2    1    2    0    0  0.35527136788E-14  0.00000000000E+00 -0.29685653529E+03  0.30923331698E+03  0.86610864116E+02 0.  0.
    9000005    2    3    3    0    0 -0.21773259969E+02 -0.33552752308E+02 -0.89416113389E+02  0.97971889650E+02  0.18405952424E+01 0.  0.
         22    1    3    3    0    0  0.21773259969E+02  0.33552752308E+02 -0.20744042190E+03  0.21126142733E+03  0.00000000000E+00 0. -1.
         22    1    4    4    0    0 -0.16348289400E+02 -0.24919398894E+02 -0.68507597514E+02  0.74709664199E+02  0.00000000000E+00 0.  1.
         22    1    4    4    0    0 -0.54249705686E+01 -0.86333534131E+01 -0.20908515875E+02  0.23262225451E+02  0.00000000000E+00 0.  1.
<mgrwt>
<rscale>  0 0.86610864E+02</rscale>
<asrwt>0</asrwt>
<pdfrwt beam="2">  1        1 0.46622285E-01 0.86610864E+02</pdfrwt>
<pdfrwt beam="1">  1       -1 0.95206036E-03 0.86610864E+02</pdfrwt>
<totfact> 0.14713451E+05</totfact>
</mgrwt>
</event>
<event>
 7    1  0.2911475E-009  0.9391496E+02  0.7818608E-02  0.1293639E+00
         -1   -1    0    0    0  501 -0.00000000000E+00  0.00000000000E+00  0.13464989761E+02  0.13464990704E+02  0.50400000000E-02 0.  1.
          1   -1    0    0  501    0  0.00000000000E+00 -0.00000000000E+00 -0.16375836829E+03  0.16375836837E+03  0.50400000000E-02 0. -1.
         23    2    1    2    0    0  0.35527136788E-14  0.00000000000E+00 -0.15029337853E+03  0.17722335907E+03  0.93914958185E+02 0.  0.
    9000005    2    3    3    0    0  0.31479977157E+02 -0.34144103019E+02 -0.67302126884E+02  0.82121536889E+02  0.75869496588E+01 0.  0.
         22    1    3    3    0    0 -0.31479977157E+02  0.34144103019E+02 -0.82991251646E+02  0.95101822183E+02  0.00000000000E+00 0. -1.
         22    1    4    4    0    0  0.19635238749E+02 -0.21173112350E+02 -0.48058267634E+02  0.56066392566E+02  0.00000000000E+00 0. -1.
         22    1    4    4    0    0  0.11844738408E+02 -0.12970990669E+02 -0.19243859250E+02  0.26055144324E+02  0.00000000000E+00 0. -1.
<mgrwt>
<rscale>  0 0.93914958E+02</rscale>
<asrwt>0</asrwt>
<pdfrwt beam="2">  1        1 0.25193594E-01 0.93914958E+02</pdfrwt>
<pdfrwt beam="1">  1       -1 0.20715371E-02 0.93914958E+02</pdfrwt>
<totfact> 0.10522427E+05</totfact>
</mgrwt>
</event>
<event>
 7    1  0.2911475E-009  0.8667415E+02  0.7818608E-02  0.1311112E+00
          1   -1    0    0  501    0  0.00000000000E+00  0.00000000000E+00  0.27993751199E+03  0.27993751203E+03  0.50400000000E-02 0. -1.
         -1   -1    0    0    0  501 -0.00000000000E+00 -0.00000000000E+00 -0.67090032488E+01  0.67090051419E+01  0.50400000000E-02 0.  1.
         23    2    1    2    0    0  0.71054273576E-14  0.00000000000E+00  0.27322850874E+03  0.28664651717E+03  0.86674147362E+02 0.  0.
    9000005    2    3    3    0    0 -0.36333433351E+02  0.52245272977E+01  0.66138637183E+02  0.76328593627E+02  0.10213756023E+02 0.  0.
         22    1    3    3    0    0  0.36333433351E+02 -0.52245272977E+01  0.20708987155E+03  0.21031792355E+03  0.00000000000E+00 0. -1.
         22    1    4    4    0    0 -0.12050165226E+02  0.59746362483E+01  0.28739955739E+02  0.31731495649E+02  0.00000000000E+00 0. -1.
         22    1    4    4    0    0 -0.24283268125E+02 -0.75010895063E+00  0.37398681445E+02  0.44597097978E+02  0.00000000000E+00 0. -1.
<mgrwt>
<rscale>  0 0.86674147E+02</rscale>
<asrwt>0</asrwt>
<pdfrwt beam="1">  1        1 0.43067307E-01 0.86674147E+02</pdfrwt>
<pdfrwt beam="2">  1       -1 0.10321546E-02 0.86674147E+02</pdfrwt>
<totfact> 0.14464998E+05</totfact>
</mgrwt>
</event>
<event>
 7    1  0.2911475E-009  0.9278547E+02  0.7818608E-02  0.1296243E+00
          1   -1    0    0  501    0  0.00000000000E+00  0.00000000000E+00  0.18334922453E+02  0.18334923145E+02  0.50400000000E-02 0. -1.
         -1   -1    0    0    0  501 -0.00000000000E+00 -0.00000000000E+00 -0.11738724121E+03  0.11738724132E+03  0.50400000000E-02 0.  1.
         23    2    1    2    0    0  0.00000000000E+00 -0.35527136788E-14 -0.99052318755E+02  0.13572216446E+03  0.92785473406E+02 0.  0.
    9000005    2    3    3    0    0  0.38058547731E+02  0.25652481591E+02 -0.40447228391E+02  0.61283871334E+02  0.36375450544E+01 0.  0.
         22    1    3    3    0    0 -0.38058547731E+02 -0.25652481591E+02 -0.58605090364E+02  0.74438293127E+02  0.00000000000E+00 0. -1.
         22    1    4    4    0    0  0.25083941722E+02  0.18908172261E+02 -0.27151263698E+02  0.41520046134E+02  0.00000000000E+00 0. -1.
         22    1    4    4    0    0  0.12974606008E+02  0.67443093293E+01 -0.13295964693E+02  0.19763825200E+02  0.00000000000E+00 0. -1.
<mgrwt>
<rscale>  0 0.92785473E+02</rscale>
<asrwt>0</asrwt>
<pdfrwt beam="1">  1        1 0.28207574E-02 0.92785473E+02</pdfrwt>
<pdfrwt beam="2">  1       -1 0.18059575E-01 0.92785473E+02</pdfrwt>
<totfact> 0.75392906E+04</totfact>
</mgrwt>
</event>
<event>
 7    1  0.2911475E-009  0.9170309E+02  0.7818608E-02  0.1298779E+00
         -1   -1    0    0    0  501 -0.00000000000E+00  0.00000000000E+00  0.32711076143E+02  0.32711076532E+02  0.50400000000E-02 0.  1.
          1   -1    0    0  501    0  0.00000000000E+00 -0.00000000000E+00 -0.64270705239E+02  0.64270705437E+02  0.50400000000E-02 0. -1.
         23    2    1    2    0    0  0.00000000000E+00  0.35527136788E-14 -0.31559629096E+02  0.96981781968E+02  0.91703085254E+02 0.  0.
    9000005    2    3    3    0    0  0.30545479907E+02  0.29307091391E+02 -0.33866752633E+02  0.54587740317E+02  0.63978520153E+01 0.  0.
         22    1    3    3    0    0 -0.30545479907E+02 -0.29307091391E+02  0.23071235370E+01  0.42394041652E+02  0.00000000000E+00 0.  1.
         22    1    4    4    0    0  0.13108444775E+02  0.16685515119E+02 -0.18344134074E+02  0.28048974921E+02  0.00000000000E+00 0. -1.
         22    1    4    4    0    0  0.17437035132E+02  0.12621576272E+02 -0.15522618559E+02  0.26538765396E+02  0.00000000000E+00 0. -1.
<mgrwt>
<rscale>  0 0.91703085E+02</rscale>
<asrwt>0</asrwt>
<pdfrwt beam="2">  1        1 0.98878008E-02 0.91703085E+02</pdfrwt>
<pdfrwt beam="1">  1       -1 0.50324733E-02 0.91703085E+02</pdfrwt>
<totfact> 0.95842692E+04</totfact>
</mgrwt>
</event>
<event>
 7    1  0.2911475E-009  0.9307371E+02  0.7818608E-02  0.1295574E+00
          1   -1    0    0  501    0  0.00000000000E+00  0.00000000000E+00  0.52674719242E+01  0.52674743353E+01  0.50400000000E-02 0. -1.
         -1   -1    0    0    0  501 -0.00000000000E+00 -0.00000000000E+00 -0.41114193068E+03  0.41114193071E+03  0.50400000000E-02 0.  1.
         23    2    1    2    0    0  0.00000000000E+00  0.00000000000E+00 -0.40587445876E+03  0.41640940505E+03  0.93073714553E+02 0.  0.
    9000005    2    3    3    0    0  0.44400442923E+01  0.43304388867E+02 -0.26784817851E+03  0.27168125255E+03  0.13155689410E+02 0.  0.
         22    1    3    3    0    0 -0.44400442923E+01 -0.43304388867E+02 -0.13802628024E+03  0.14472815250E+03  0.00000000000E+00 0. -1.
         22    1    4    4    0    0  0.76490029733E+01  0.13682194885E+02 -0.90381834402E+02  0.91731050867E+02  0.00000000000E+00 0.  1.
         22    1    4    4    0    0 -0.32089586810E+01  0.29622193982E+02 -0.17746634411E+03  0.17995020168E+03  0.00000000000E+00 0.  1.
<mgrwt>
<rscale>  0 0.93073715E+02</rscale>
<asrwt>0</asrwt>
<pdfrwt beam="1">  1        1 0.81038081E-03 0.93073715E+02</pdfrwt>
<pdfrwt beam="2">  1       -1 0.63252579E-01 0.93073715E+02</pdfrwt>
<totfact> 0.49782945E+04</totfact>
</mgrwt>
</event>
<event>
 7    1  0.2911475E-009  0.9028967E+02  0.7818608E-02  0.1302152E+00
         -1   -1    0    0    0  501 -0.00000000000E+00  0.00000000000E+00  0.41166430684E+01  0.41166461536E+01  0.50400000000E-02 0.  1.
          1   -1    0    0  501    0  0.00000000000E+00 -0.00000000000E+00 -0.49507705910E+03  0.49507705913E+03  0.50400000000E-02 0. -1.
         23    2    1    2    0    0 -0.35527136788E-14 -0.71054273576E-14 -0.49096041603E+03  0.49919370528E+03  0.90289674274E+02 0.  0.
    9000005    2    3    3    0    0 -0.24945220289E+02 -0.32668110394E+02 -0.33887499192E+03  0.34165181980E+03  0.14150490255E+02 0.  0.
         22    1    3    3    0    0  0.24945220289E+02  0.32668110394E+02 -0.15208542411E+03  0.15754188548E+03  0.00000000000E+00 0.  1.
         22    1    4    4    0    0 -0.21521018110E+02 -0.33409624284E+02 -0.30033739710E+03  0.30295529260E+03  0.00000000000E+00 0. -1.
         22    1    4    4    0    0 -0.34242021787E+01  0.74151389001E+00 -0.38537594817E+02  0.38696527204E+02  0.00000000000E+00 0. -1.
<mgrwt>
<rscale>  0 0.90289674E+02</rscale>
<asrwt>0</asrwt>
<pdfrwt beam="2">  1        1 0.76165654E-01 0.90289674E+02</pdfrwt>
<pdfrwt beam="1">  1       -1 0.63333034E-03 0.90289674E+02</pdfrwt>
<totfact> 0.14274949E+05</totfact>
</mgrwt>
</event>
<event>
 7    1  0.2911475E-009  0.9793080E+02  0.7818608E-02  0.1284708E+00
         -1   -1    0    0    0  501 -0.00000000000E+00  0.00000000000E+00  0.18585328839E+03  0.18585328846E+03  0.50400000000E-02 0.  1.
          1   -1    0    0  501    0  0.00000000000E+00 -0.00000000000E+00 -0.12900553782E+02  0.12900554766E+02  0.50400000000E-02 0. -1.
         23    2    1    2    0    0  0.00000000000E+00  0.00000000000E+00  0.17295273461E+03  0.19875384322E+03  0.97930801019E+02 0.  0.
    9000005    2    3    3    0    0  0.17886100837E+02 -0.43875889710E+02  0.74858778431E+02  0.89816106239E+02  0.14767868190E+02 0.  0.
         22    1    3    3    0    0 -0.17886100837E+02  0.43875889710E+02  0.98093956177E+02  0.10893773698E+03  0.00000000000E+00 0.  1.
         22    1    4    4    0    0 -0.11306753770E+00 -0.14144186041E+02  0.15135203958E+02  0.20715819604E+02  0.00000000000E+00 0. -1.
         22    1    4    4    0    0  0.17999168374E+02 -0.29731703669E+02  0.59723574473E+02  0.69100286635E+02  0.00000000000E+00 0. -1.
<mgrwt>
<rscale>  0 0.97930801E+02</rscale>
<asrwt>0</asrwt>
<pdfrwt beam="2">  1        1 0.19847006E-02 0.97930801E+02</pdfrwt>
<pdfrwt beam="1">  1       -1 0.28592814E-01 0.97930801E+02</pdfrwt>
<totfact> 0.58802394E+04</totfact>
</mgrwt>
</event>
<event>
 7    1  0.2911475E-009  0.9096808E+02  0.7818608E-02  0.1300524E+00
          1   -1    0    0  501    0  0.00000000000E+00  0.00000000000E+00  0.59727726869E+01  0.59727748134E+01  0.50400000000E-02 0. -1.
         -1   -1    0    0    0  501 -0.00000000000E+00 -0.00000000000E+00 -0.34637135523E+03  0.34637135527E+03  0.50400000000E-02 0.  1.
         23    2    1    2    0    0  0.35527136788E-14  0.00000000000E+00 -0.34039858255E+03  0.35234413008E+03  0.90968076844E+02 0.  0.
    9000005    2    3    3    0    0  0.30601292292E+02  0.33615473884E+02 -0.16556572245E+03  0.17169815547E+03  0.13449784805E+01 0.  0.
         22    1    3    3    0    0 -0.30601292292E+02 -0.33615473884E+02 -0.17483286010E+03  0.18064597461E+03  0.00000000000E+00 0. -1.
         22    1    4    4    0    0  0.12819116917E+02  0.14614561963E+02 -0.72918199003E+02  0.75465084150E+02  0.00000000000E+00 0.  1.
         22    1    4    4    0    0  0.17782175376E+02  0.19000911921E+02 -0.92647523448E+02  0.96233071321E+02  0.00000000000E+00 0.  1.
<mgrwt>
<rscale>  0 0.90968077E+02</rscale>
<asrwt>0</asrwt>
<pdfrwt beam="1">  1        1 0.91888854E-03 0.90968077E+02</pdfrwt>
<pdfrwt beam="2">  1       -1 0.53287885E-01 0.90968077E+02</pdfrwt>
<totfact> 0.57395108E+04</totfact>
</mgrwt>
</event>
<event>
 7    1  0.2911475E-009  0.9142281E+02  0.7818608E-02  0.1299442E+00
         -1   -1    0    0    0  501 -0.00000000000E+00  0.00000000000E+00  0.22414259633E+02  0.22414260199E+02  0.50400000000E-02 0.  1.
          1   -1    0    0  501    0  0.00000000000E+00 -0.00000000000E+00 -0.93223364396E+02  0.93223364532E+02  0.50400000000E-02 0. -1.
         23    2    1    2    0    0  0.35527136788E-14  0.00000000000E+00 -0.70809104763E+02  0.11563762473E+03  0.91422814090E+02 0.  0.
    9000005    2    3    3    0    0  0.26936127152E+02 -0.21897305507E+02 -0.72921484062E+02  0.80859627654E+02  0.39610114946E+01 0.  0.
         22    1    3    3    0    0 -0.26936127152E+02  0.21897305507E+02  0.21123792984E+01  0.34777997078E+02  0.00000000000E+00 0.  1.
         22    1    4    4    0    0  0.13918861999E+02 -0.13846668838E+02 -0.41098606128E+02  0.45547342215E+02  0.00000000000E+00 0.  1.
         22    1    4    4    0    0  0.13017265154E+02 -0.80506366694E+01 -0.31822877934E+02  0.35312285438E+02  0.00000000000E+00 0.  1.
<mgrwt>
<rscale>  0 0.91422814E+02</rscale>
<asrwt>0</asrwt>
<pdfrwt beam="2">  1        1 0.14342056E-01 0.91422814E+02</pdfrwt>
<pdfrwt beam="1">  1       -1 0.34483477E-02 0.91422814E+02</pdfrwt>
<totfact> 0.10249234E+05</totfact>
</mgrwt>
</event>
<event>
 7    1  0.2911475E-009  0.9205844E+02  0.7818608E-02  0.1297942E+00
         -1   -1    0    0    0  501 -0.00000000000E+00  0.00000000000E+00  0.53117294650E+01  0.53117318561E+01  0.50400000000E-02 0.  1.
          1   -1    0    0  501    0  0.00000000000E+00 -0.00000000000E+00 -0.39886979717E+03  0.39886979720E+03  0.50400000000E-02 0. -1.
         23    2    1    2    0    0  0.00000000000E+00  0.00000000000E+00 -0.39355806771E+03  0.40418152906E+03  0.92058436745E+02 0.  0.
    9000005    2    3    3    0    0 -0.18086106092E+02  0.40905339471E+02 -0.22018737859E+03  0.22513474781E+03  0.14241451843E+02 0.  0.
         22    1    3    3    0    0  0.18086106092E+02 -0.40905339471E+02 -0.17337068912E+03  0.17904678125E+03  0.00000000000E+00 0. -1.
         22    1    4    4    0    0 -0.69273796165E+01  0.62039778743E+01 -0.27497673278E+02  0.29027572505E+02  0.00000000000E+00 0.  1.
         22    1    4    4    0    0 -0.11158726476E+02  0.34701361597E+02 -0.19268970531E+03  0.19610717530E+03  0.00000000000E+00 0.  1.
<mgrwt>
<rscale>  0 0.92058437E+02</rscale>
<asrwt>0</asrwt>
<pdfrwt beam="2">  1        1 0.61364561E-01 0.92058437E+02</pdfrwt>
<pdfrwt beam="1">  1       -1 0.81718965E-03 0.92058437E+02</pdfrwt>
<totfact> 0.13142418E+05</totfact>
</mgrwt>
</event>
<event>
 7    1  0.2911475E-009  0.9183910E+02  0.7818608E-02  0.1298458E+00
         -1   -1    0    0    0  501 -0.00000000000E+00  0.00000000000E+00  0.20762123874E+03  0.20762123880E+03  0.50400000000E-02 0.  1.
          1   -1    0    0  501    0  0.00000000000E+00 -0.00000000000E+00 -0.10156018256E+02  0.10156019507E+02  0.50400000000E-02 0. -1.
         23    2    1    2    0    0  0.00000000000E+00 -0.71054273576E-14  0.19746522048E+03  0.21777725831E+03  0.91839103520E+02 0.  0.
    9000005    2    3    3    0    0 -0.58038999151E+01 -0.33649697327E+02  0.16997505065E+03  0.17394009574E+03  0.14058864776E+02 0.  0.
         22    1    3    3    0    0  0.58038999151E+01  0.33649697327E+02  0.27490169835E+02  0.43837162567E+02  0.00000000000E+00 0. -1.
         22    1    4    4    0    0  0.23189349946E+01 -0.21854247862E+02  0.11793947534E+03  0.11996960220E+03  0.00000000000E+00 0.  1.
         22    1    4    4    0    0 -0.81228349097E+01 -0.11795449465E+02  0.52035575310E+02  0.53970493539E+02  0.00000000000E+00 0.  1.
<mgrwt>
<rscale>  0 0.91839104E+02</rscale>
<asrwt>0</asrwt>
<pdfrwt beam="2">  1        1 0.15624646E-02 0.91839104E+02</pdfrwt>
<pdfrwt beam="1">  1       -1 0.31941726E-01 0.91839104E+02</pdfrwt>
<totfact> 0.67390971E+04</totfact>
</mgrwt>
</event>
<event>
 7    1  0.2911475E-009  0.9784742E+02  0.7818608E-02  0.1284889E+00
         -1   -1    0    0    0  501 -0.00000000000E+00  0.00000000000E+00  0.47233999103E+02  0.47233999372E+02  0.50400000000E-02 0.  1.
          1   -1    0    0  501    0  0.00000000000E+00 -0.00000000000E+00 -0.50673868068E+02  0.50673868319E+02  0.50400000000E-02 0. -1.
         23    2    1    2    0    0  0.00000000000E+00  0.00000000000E+00 -0.34398689651E+01  0.97907867690E+02  0.97847421311E+02 0.  0.
    9000005    2    3    3    0    0  0.46134636610E+02 -0.12726886678E+02  0.74371581388E+01  0.48829480815E+02  0.62151858996E+01 0.  0.
         22    1    3    3    0    0 -0.46134636610E+02  0.12726886678E+02 -0.10877027104E+02  0.49078386876E+02  0.00000000000E+00 0.  1.
         22    1    4    4    0    0  0.37795577646E+02 -0.12594033981E+02  0.72131579110E+01  0.40486356079E+02  0.00000000000E+00 0.  1.
         22    1    4    4    0    0  0.83390589643E+01 -0.13285269647E+00  0.22400022773E+00  0.83431247354E+01  0.00000000000E+00 0.  1.
<mgrwt>
<rscale>  0 0.97847421E+02</rscale>
<asrwt>0</asrwt>
<pdfrwt beam="2">  1        1 0.77959797E-02 0.97847421E+02</pdfrwt>
<pdfrwt beam="1">  1       -1 0.72667691E-02 0.97847421E+02</pdfrwt>
<totfact> 0.77035443E+04</totfact>
</mgrwt>
</event>
<event>
 7    1  0.2911475E-009  0.7092561E+02  0.7818608E-02  0.1356973E+00
         -1   -1    0    0    0  501 -0.00000000000E+00  0.00000000000E+00  0.17122317477E+02  0.17122318219E+02  0.50400000000E-02 0.  1.
          1   -1    0    0  501    0  0.00000000000E+00 -0.00000000000E+00 -0.73448607606E+02  0.73448607779E+02  0.50400000000E-02 0. -1.
         23    2    1    2    0    0  0.00000000000E+00  0.00000000000E+00 -0.56326290128E+02  0.90570925998E+02  0.70925606635E+02 0.  0.
    9000005    2    3    3    0    0  0.97478576168E+01  0.33349023382E+02 -0.32102739098E+02  0.48215778576E+02  0.93272373946E+01 0.  0.
         22    1    3    3    0    0 -0.97478576168E+01 -0.33349023382E+02 -0.24223551030E+02  0.42355147422E+02  0.00000000000E+00 0.  1.
         22    1    4    4    0    0  0.11135692571E+02  0.23721249383E+02 -0.22354952924E+02  0.34444814436E+02  0.00000000000E+00 0. -1.
         22    1    4    4    0    0 -0.13878349537E+01  0.96277739992E+01 -0.97477861743E+01  0.13770964140E+02  0.00000000000E+00 0. -1.
<mgrwt>
<rscale>  0 0.70925607E+02</rscale>
<asrwt>0</asrwt>
<pdfrwt beam="2">  1        1 0.11299786E-01 0.70925607E+02</pdfrwt>
<pdfrwt beam="1">  1       -1 0.26342028E-02 0.70925607E+02</pdfrwt>
<totfact> 0.19604008E+05</totfact>
</mgrwt>
</event>
<event>
 7    1  0.2911475E-009  0.8976493E+02  0.7818608E-02  0.1303422E+00
          1   -1    0    0  501    0  0.00000000000E+00  0.00000000000E+00  0.36610507310E+01  0.36610542002E+01  0.50400000000E-02 0. -1.
         -1   -1    0    0    0  501 -0.00000000000E+00 -0.00000000000E+00 -0.55023400809E+03  0.55023400811E+03  0.50400000000E-02 0.  1.
         23    2    1    2    0    0  0.00000000000E+00  0.44408920985E-15 -0.54657295736E+03  0.55389506231E+03  0.89764928223E+02 0.  0.
    9000005    2    3    3    0    0  0.43424934305E+02 -0.29123599324E+01 -0.29934502592E+03  0.30286546875E+03  0.15028002519E+02 0.  0.
         22    1    3    3    0    0 -0.43424934305E+02  0.29123599324E+01 -0.24722793144E+03  0.25102959356E+03  0.00000000000E+00 0.  1.
         22    1    4    4    0    0  0.45006547892E+01 -0.51867413679E+01 -0.35927739998E+02  0.36578144853E+02  0.00000000000E+00 0. -1.
         22    1    4    4    0    0  0.38924279516E+02  0.22743814355E+01 -0.26341728592E+03  0.26628732390E+03  0.00000000000E+00 0. -1.
<mgrwt>
<rscale>  0 0.89764928E+02</rscale>
<asrwt>0</asrwt>
<pdfrwt beam="1">  1        1 0.56323928E-03 0.89764928E+02</pdfrwt>
<pdfrwt beam="2">  1       -1 0.84651321E-01 0.89764928E+02</pdfrwt>
<totfact> 0.46072605E+04</totfact>
</mgrwt>
</event>
<event>
 7    1  0.2911475E-009  0.8902476E+02  0.7818608E-02  0.1305231E+00
          1   -1    0    0  501    0  0.00000000000E+00  0.00000000000E+00  0.13406975054E+04  0.13406975055E+04  0.50400000000E-02 0. -1.
         -1   -1    0    0    0  501 -0.00000000000E+00 -0.00000000000E+00 -0.14778474307E+01  0.14778560248E+01  0.50400000000E-02 0.  1.
         23    2    1    2    0    0  0.00000000000E+00  0.00000000000E+00  0.13392196580E+04  0.13421753615E+04  0.89024763691E+02 0.  0.
    9000005    2    3    3    0    0 -0.17221290325E+02  0.14889491190E+02  0.12452066050E+04  0.12454452011E+04  0.87172264862E+01 0.  0.
         22    1    3    3    0    0  0.17221290325E+02 -0.14889491190E+02  0.94013052988E+02  0.96730160346E+02  0.00000000000E+00 0.  1.
         22    1    4    4    0    0 -0.76944884000E+01  0.52239305999E+01  0.73239207236E+03  0.73245111936E+03  0.00000000000E+00 0. -1.
         22    1    4    4    0    0 -0.95268019250E+01  0.96655605904E+01  0.51281453267E+03  0.51299408177E+03  0.00000000000E+00 0. -1.
<mgrwt>
<rscale>  0 0.89024764E+02</rscale>
<asrwt>0</asrwt>
<pdfrwt beam="1">  1        1 0.20626043E+00 0.89024764E+02</pdfrwt>
<pdfrwt beam="2">  1       -1 0.22736261E-03 0.89024764E+02</pdfrwt>
<totfact> 0.12762773E+05</totfact>
</mgrwt>
</event>
<event>
 7    1  0.2911475E-009  0.9283410E+02  0.7818608E-02  0.1296130E+00
          1   -1    0    0  501    0  0.00000000000E+00  0.00000000000E+00  0.17781270829E+03  0.17781270836E+03  0.50400000000E-02 0. -1.
         -1   -1    0    0    0  501 -0.00000000000E+00 -0.00000000000E+00 -0.12116920841E+02  0.12116921889E+02  0.50400000000E-02 0.  1.
         23    2    1    2    0    0 -0.88817841970E-15  0.35527136788E-14  0.16569578745E+03  0.18992963025E+03  0.92834101861E+02 0.  0.
    9000005    2    3    3    0    0  0.75549574348E+01  0.30120473545E+02  0.16288687508E+02  0.37329493221E+02  0.12800367766E+02 0.  0.
         22    1    3    3    0    0 -0.75549574348E+01 -0.30120473545E+02  0.14940709994E+03  0.15260013703E+03  0.00000000000E+00 0. -1.
         22    1    4    4    0    0 -0.52281285396E+00  0.22420909003E+02  0.11056758908E+02  0.25004447831E+02  0.00000000000E+00 0.  1.
         22    1    4    4    0    0  0.80777702888E+01  0.76995645428E+01  0.52319286001E+01  0.12325045390E+02  0.00000000000E+00 0.  1.
<mgrwt>
<rscale>  0 0.92834102E+02</rscale>
<asrwt>0</asrwt>
<pdfrwt beam="1">  1        1 0.27355801E-01 0.92834102E+02</pdfrwt>
<pdfrwt beam="2">  1       -1 0.18641418E-02 0.92834102E+02</pdfrwt>
<totfact> 0.11027489E+05</totfact>
</mgrwt>
</event>
<event>
 7    1  0.2911475E-009  0.9121922E+02  0.7818608E-02  0.1299926E+00
          1   -1    0    0  501    0  0.00000000000E+00  0.00000000000E+00  0.49522050642E+03  0.49522050644E+03  0.50400000000E-02 0. -1.
         -1   -1    0    0    0  501 -0.00000000000E+00 -0.00000000000E+00 -0.42006255825E+01  0.42006286060E+01  0.50400000000E-02 0.  1.
         23    2    1    2    0    0  0.00000000000E+00  0.00000000000E+00  0.49101988083E+03  0.49942113505E+03  0.91219223624E+02 0.  0.
    9000005    2    3    3    0    0  0.38150228883E+02  0.11337598149E+02  0.36089792789E+03  0.36334871414E+03  0.13820007654E+02 0.  0.
         22    1    3    3    0    0 -0.38150228883E+02 -0.11337598149E+02  0.13012195294E+03  0.13607242091E+03  0.00000000000E+00 0.  1.
         22    1    4    4    0    0  0.20057538878E+02  0.81881602693E+01  0.13739374906E+03  0.13909131215E+03  0.00000000000E+00 0.  1.
         22    1    4    4    0    0  0.18092690005E+02  0.31494378799E+01  0.22350417883E+03  0.22425740199E+03  0.00000000000E+00 0.  1.
<mgrwt>
<rscale>  0 0.91219224E+02</rscale>
<asrwt>0</asrwt>
<pdfrwt beam="1">  1        1 0.76187721E-01 0.91219224E+02</pdfrwt>
<pdfrwt beam="2">  1       -1 0.64625075E-03 0.91219224E+02</pdfrwt>
<totfact> 0.13893434E+05</totfact>
</mgrwt>
</event>
<event>
 7    1  0.2911475E-009  0.9277212E+02  0.7818608E-02  0.1296274E+00
         -1   -1    0    0    0  501 -0.00000000000E+00  0.00000000000E+00  0.48306215061E+02  0.48306215324E+02  0.50400000000E-02 0.  1.
          1   -1    0    0  501    0  0.00000000000E+00 -0.00000000000E+00 -0.44542231846E+02  0.44542232131E+02  0.50400000000E-02 0. -1.
         23    2    1    2    0    0  0.00000000000E+00  0.00000000000E+00  0.37639832158E+01  0.92848447455E+02  0.92772122026E+02 0.  0.
    9000005    2    3    3    0    0  0.72393447814E+01 -0.20652525829E+02  0.42061169031E+02  0.48739385151E+02  0.11289410467E+02 0.  0.
         22    1    3    3    0    0 -0.72393447814E+01  0.20652525829E+02 -0.38297185815E+02  0.44109062304E+02  0.00000000000E+00 0. -1.
         22    1    4    4    0    0  0.10161565129E+02 -0.17790186303E+02  0.33889641468E+02  0.39601211262E+02  0.00000000000E+00 0.  1.
         22    1    4    4    0    0 -0.29222203476E+01 -0.28623395258E+01  0.81715275628E+01  0.91381738892E+01  0.00000000000E+00 0.  1.
<mgrwt>
<rscale>  0 0.92772122E+02</rscale>
<asrwt>0</asrwt>
<pdfrwt beam="2">  1        1 0.68526511E-02 0.92772122E+02</pdfrwt>
<pdfrwt beam="1">  1       -1 0.74317254E-02 0.92772122E+02</pdfrwt>
<totfact> 0.87755946E+04</totfact>
</mgrwt>
</event>
<event>
 7    1  0.2911475E-009  0.8989535E+02  0.7818608E-02  0.1303105E+00
         -1   -1    0    0    0  501 -0.00000000000E+00  0.00000000000E+00  0.66758636041E+02  0.66758636232E+02  0.50400000000E-02 0.  1.
          1   -1    0    0  501    0  0.00000000000E+00 -0.00000000000E+00 -0.30262655687E+02  0.30262656106E+02  0.50400000000E-02 0. -1.
         23    2    1    2    0    0  0.71054273576E-14  0.00000000000E+00  0.36495980355E+02  0.97021292338E+02  0.89895353522E+02 0.  0.
    9000005    2    3    3    0    0 -0.41564219271E+02 -0.76703482342E+01  0.45303526628E+01  0.44028652100E+02  0.11470812740E+02 0.  0.
         22    1    3    3    0    0  0.41564219271E+02  0.76703482342E+01  0.31965627692E+02  0.52992640238E+02  0.00000000000E+00 0. -1.
         22    1    4    4    0    0 -0.18895735191E+02 -0.62659775840E+01  0.71797399908E+01  0.21162701856E+02  0.00000000000E+00 0.  1.
         22    1    4    4    0    0 -0.22668484079E+02 -0.14043706501E+01 -0.26493873280E+01  0.22865950245E+02  0.00000000000E+00 0.  1.
<mgrwt>
<rscale>  0 0.89895354E+02</rscale>
<asrwt>0</asrwt>
<pdfrwt beam="2">  1        1 0.46557933E-02 0.89895354E+02</pdfrwt>
<pdfrwt beam="1">  1       -1 0.10270559E-01 0.89895354E+02</pdfrwt>
<totfact> 0.90396928E+04</totfact>
</mgrwt>
</event>
<event>
 7    1  0.2911475E-009  0.9272798E+02  0.7818608E-02  0.1296377E+00
          1   -1    0    0  501    0  0.00000000000E+00  0.00000000000E+00  0.11507744120E+02  0.11507745224E+02  0.50400000000E-02 0. -1.
         -1   -1    0    0    0  501 -0.00000000000E+00 -0.00000000000E+00 -0.18679765248E+03  0.18679765254E+03  0.50400000000E-02 0.  1.
         23    2    1    2    0    0  0.00000000000E+00  0.00000000000E+00 -0.17528990836E+03  0.19830539777E+03  0.92727982898E+02 0.  0.
    9000005    2    3    3    0    0  0.45262617964E+02 -0.19798280733E+01 -0.10805871188E+03  0.11723346623E+03  0.37915809617E+01 0.  0.
         22    1    3    3    0    0 -0.45262617964E+02  0.19798280733E+01 -0.67231196472E+02  0.81071931537E+02  0.00000000000E+00 0.  1.
         22    1    4    4    0    0  0.11949532154E+02 -0.71665958814E+00 -0.24439509522E+02  0.27213866784E+02  0.00000000000E+00 0.  1.
         22    1    4    4    0    0  0.33313085810E+02 -0.12631684851E+01 -0.83619202362E+02  0.90019599447E+02  0.00000000000E+00 0.  1.
<mgrwt>
<rscale>  0 0.92727983E+02</rscale>
<asrwt>0</asrwt>
<pdfrwt beam="1">  1        1 0.17704224E-02 0.92727983E+02</pdfrwt>
<pdfrwt beam="2">  1       -1 0.28738098E-01 0.92727983E+02</pdfrwt>
<totfact> 0.67716531E+04</totfact>
</mgrwt>
</event>
<event>
 7    1  0.2911475E-009  0.9209329E+02  0.7818608E-02  0.1297860E+00
         -1   -1    0    0    0  501 -0.00000000000E+00  0.00000000000E+00  0.45375389183E+03  0.45375389186E+03  0.50400000000E-02 0.  1.
          1   -1    0    0  501    0  0.00000000000E+00 -0.00000000000E+00 -0.46727812652E+01  0.46727839833E+01  0.50400000000E-02 0. -1.
         23    2    1    2    0    0  0.00000000000E+00  0.00000000000E+00  0.44908111057E+03  0.45842667584E+03  0.92093285623E+02 0.  0.
    9000005    2    3    3    0    0  0.14095735740E+02 -0.25438577404E+01  0.44204144945E+03  0.44246679467E+03  0.13079005353E+02 0.  0.
         22    1    3    3    0    0 -0.14095735740E+02  0.25438577404E+01  0.70396611187E+01  0.15959881169E+02  0.00000000000E+00 0. -1.
         22    1    4    4    0    0 -0.99373494015E+00 -0.10907208357E+01  0.16793241479E+03  0.16793889698E+03  0.00000000000E+00 0. -1.
         22    1    4    4    0    0  0.15089470680E+02 -0.14531369047E+01  0.27410903465E+03  0.27452789769E+03  0.00000000000E+00 0. -1.
<mgrwt>
<rscale>  0 0.92093286E+02</rscale>
<asrwt>0</asrwt>
<pdfrwt beam="2">  1        1 0.71888975E-03 0.92093286E+02</pdfrwt>
<pdfrwt beam="1">  1       -1 0.69808280E-01 0.92093286E+02</pdfrwt>
<totfact> 0.48526811E+04</totfact>
</mgrwt>
</event>
<event>
 7    1  0.2911475E-009  0.8979331E+02  0.7818608E-02  0.1303353E+00
          1   -1    0    0  501    0  0.00000000000E+00  0.00000000000E+00  0.10206359949E+03  0.10206359961E+03  0.50400000000E-02 0. -1.
         -1   -1    0    0    0  501 -0.00000000000E+00 -0.00000000000E+00 -0.19749545138E+02  0.19749545781E+02  0.50400000000E-02 0.  1.
         23    2    1    2    0    0  0.00000000000E+00  0.00000000000E+00  0.82314054350E+02  0.12181314539E+03  0.89793311817E+02 0.  0.
    9000005    2    3    3    0    0  0.23766710274E+02 -0.22615285354E+02  0.82536401737E+02  0.89005263913E+02  0.57768281520E+01 0.  0.
         22    1    3    3    0    0 -0.23766710274E+02  0.22615285354E+02 -0.22234738744E+00  0.32807881481E+02  0.00000000000E+00 0.  1.
         22    1    4    4    0    0  0.13518266992E+02 -0.16205843314E+02  0.56035631979E+02  0.59877917058E+02  0.00000000000E+00 0.  1.
         22    1    4    4    0    0  0.10248443282E+02 -0.64094420404E+01  0.26500769758E+02  0.29127346854E+02  0.00000000000E+00 0.  1.
<mgrwt>
<rscale>  0 0.89793312E+02</rscale>
<asrwt>0</asrwt>
<pdfrwt beam="1">  1        1 0.15702092E-01 0.89793312E+02</pdfrwt>
<pdfrwt beam="2">  1       -1 0.30383917E-02 0.89793312E+02</pdfrwt>
<totfact> 0.10925839E+05</totfact>
</mgrwt>
</event>
<event>
 7    1  0.2911475E-009  0.9065061E+02  0.7818608E-02  0.1301284E+00
         -1   -1    0    0    0  501 -0.00000000000E+00  0.00000000000E+00  0.24595978926E+02  0.24595979442E+02  0.50400000000E-02 0.  1.
          1   -1    0    0  501    0  0.00000000000E+00 -0.00000000000E+00 -0.83525157533E+02  0.83525157685E+02  0.50400000000E-02 0. -1.
         23    2    1    2    0    0  0.00000000000E+00  0.00000000000E+00 -0.58929178607E+02  0.10812113713E+03  0.90650605086E+02 0.  0.
    9000005    2    3    3    0    0  0.45568126985E+01  0.22562319690E+02  0.16188386715E+02  0.29556059443E+02  0.90373654125E+01 0.  0.
         22    1    3    3    0    0 -0.45568126985E+01 -0.22562319690E+02 -0.75117565322E+02  0.78565077685E+02  0.00000000000E+00 0. -1.
         22    1    4    4    0    0  0.10490516854E+01  0.14255478992E+02  0.49048008676E+01  0.15112123024E+02  0.00000000000E+00 0. -1.
         22    1    4    4    0    0  0.35077610131E+01  0.83068406974E+01  0.11283585847E+02  0.14443936419E+02  0.00000000000E+00 0. -1.
<mgrwt>
<rscale>  0 0.90650605E+02</rscale>
<asrwt>0</asrwt>
<pdfrwt beam="2">  1        1 0.12850024E-01 0.90650605E+02</pdfrwt>
<pdfrwt beam="1">  1       -1 0.37839968E-02 0.90650605E+02</pdfrwt>
<totfact> 0.10305604E+05</totfact>
</mgrwt>
</event>
<event>
 7    1  0.2911475E-009  0.8698660E+02  0.7818608E-02  0.1310318E+00
          1   -1    0    0  501    0  0.00000000000E+00  0.00000000000E+00  0.41843403113E+03  0.41843403116E+03  0.50400000000E-02 0. -1.
         -1   -1    0    0    0  501 -0.00000000000E+00 -0.00000000000E+00 -0.45208242637E+01  0.45208270731E+01  0.50400000000E-02 0.  1.
         23    2    1    2    0    0 -0.44408920985E-15  0.00000000000E+00  0.41391320686E+03  0.42295485823E+03  0.86986604054E+02 0.  0.
    9000005    2    3    3    0    0  0.21769686412E+01  0.29970956837E+02  0.35733226919E+03  0.35888926720E+03  0.14565646573E+02 0.  0.
         22    1    3    3    0    0 -0.21769686412E+01 -0.29970956837E+02  0.56580937672E+02  0.64065591030E+02  0.00000000000E+00 0.  1.
         22    1    4    4    0    0  0.46676238704E+01  0.65406658797E+01  0.15146412678E+03  0.15167711997E+03  0.00000000000E+00 0. -1.
         22    1    4    4    0    0 -0.24906552292E+01  0.23430290957E+02  0.20586814241E+03  0.20721214723E+03  0.00000000000E+00 0. -1.
<mgrwt>
<rscale>  0 0.86986604E+02</rscale>
<asrwt>0</asrwt>
<pdfrwt beam="1">  1        1 0.64374479E-01 0.86986604E+02</pdfrwt>
<pdfrwt beam="2">  1       -1 0.69551151E-03 0.86986604E+02</pdfrwt>
<totfact> 0.15388682E+05</totfact>
</mgrwt>
</event>
<event>
 7    1  0.2911475E-009  0.9343977E+02  0.7818608E-02  0.1294729E+00
         -1   -1    0    0    0  501 -0.00000000000E+00  0.00000000000E+00  0.61541195842E+02  0.61541196048E+02  0.50400000000E-02 0.  1.
          1   -1    0    0  501    0  0.00000000000E+00 -0.00000000000E+00 -0.35468076303E+02  0.35468076661E+02  0.50400000000E-02 0. -1.
         23    2    1    2    0    0  0.17763568394E-14  0.00000000000E+00  0.26073119539E+02  0.97009272709E+02  0.93439774342E+02 0.  0.
    9000005    2    3    3    0    0 -0.12378415197E+02  0.16915089731E+02  0.56130566959E+02  0.60365097609E+02  0.73456816433E+01 0.  0.
         22    1    3    3    0    0  0.12378415197E+02 -0.16915089731E+02 -0.30057447420E+02  0.36644175100E+02  0.00000000000E+00 0. -1.
         22    1    4    4    0    0 -0.19066758648E+01  0.85468953845E+01  0.24161726297E+02  0.25699685820E+02  0.00000000000E+00 0.  1.
         22    1    4    4    0    0 -0.10471739333E+02  0.83681943464E+01  0.31968840662E+02  0.34665411789E+02  0.00000000000E+00 0.  1.
<mgrwt>
<rscale>  0 0.93439774E+02</rscale>
<asrwt>0</asrwt>
<pdfrwt beam="2">  1        1 0.54566272E-02 0.93439774E+02</pdfrwt>
<pdfrwt beam="1">  1       -1 0.94678762E-02 0.93439774E+02</pdfrwt>
<totfact> 0.82996335E+04</totfact>
</mgrwt>
</event>
<event>
 7    1  0.2911475E-009  0.9392384E+02  0.7818608E-02  0.1293618E+00
          1   -1    0    0  501    0  0.00000000000E+00  0.00000000000E+00  0.34614079064E+03  0.34614079068E+03  0.50400000000E-02 0. -1.
         -1   -1    0    0    0  501 -0.00000000000E+00 -0.00000000000E+00 -0.63714577966E+01  0.63714597900E+01  0.50400000000E-02 0.  1.
         23    2    1    2    0    0 -0.35527136788E-14  0.17763568394E-14  0.33976933284E+03  0.35251225047E+03  0.93923837167E+02 0.  0.
    9000005    2    3    3    0    0 -0.31236484881E+02  0.14211804500E+02  0.28967176071E+03  0.29178778992E+03  0.72589268833E+01 0.  0.
         22    1    3    3    0    0  0.31236484881E+02 -0.14211804500E+02  0.50097572133E+02  0.60724460545E+02  0.00000000000E+00 0.  1.
         22    1    4    4    0    0 -0.26896056745E+02  0.97300281492E+01  0.24956634250E+03  0.25119998134E+03  0.00000000000E+00 0.  1.
         22    1    4    4    0    0 -0.43404281351E+01  0.44817763512E+01  0.40105418205E+02  0.40587808576E+02  0.00000000000E+00 0.  1.
<mgrwt>
<rscale>  0 0.93923837E+02</rscale>
<asrwt>0</asrwt>
<pdfrwt beam="1">  1        1 0.53252440E-01 0.93923837E+02</pdfrwt>
<pdfrwt beam="2">  1       -1 0.98022423E-03 0.93923837E+02</pdfrwt>
<totfact> 0.12156387E+05</totfact>
</mgrwt>
</event>
<event>
 7    1  0.2911475E-009  0.8412618E+02  0.7818608E-02  0.1317734E+00
          1   -1    0    0  501    0  0.00000000000E+00  0.00000000000E+00  0.88206507601E+01  0.88206522000E+01  0.50400000000E-02 0. -1.
         -1   -1    0    0    0  501 -0.00000000000E+00 -0.00000000000E+00 -0.20058648696E+03  0.20058648703E+03  0.50400000000E-02 0.  1.
         23    2    1    2    0    0 -0.88817841970E-15  0.00000000000E+00 -0.19176583620E+03  0.20940713923E+03  0.84126179185E+02 0.  0.
    9000005    2    3    3    0    0 -0.59057122891E+01 -0.36948835939E+02 -0.56949452022E+02  0.69494483049E+02  0.13643649579E+02 0.  0.
         22    1    3    3    0    0  0.59057122891E+01  0.36948835939E+02 -0.13481638418E+03  0.13991265618E+03  0.00000000000E+00 0.  1.
         22    1    4    4    0    0 -0.66352385399E+01 -0.23490537252E+02 -0.46210496566E+02  0.52261283220E+02  0.00000000000E+00 0.  1.
         22    1    4    4    0    0  0.72952625081E+00 -0.13458298687E+02 -0.10738955456E+02  0.17233199830E+02  0.00000000000E+00 0.  1.
<mgrwt>
<rscale>  0 0.84126179E+02</rscale>
<asrwt>0</asrwt>
<pdfrwt beam="1">  1        1 0.13570235E-02 0.84126179E+02</pdfrwt>
<pdfrwt beam="2">  1       -1 0.30859456E-01 0.84126179E+02</pdfrwt>
<totfact> 0.85495790E+04</totfact>
</mgrwt>
</event>
<event>
 7    1  0.2911475E-009  0.8915558E+02  0.7818608E-02  0.1304910E+00
         -1   -1    0    0    0  501 -0.00000000000E+00  0.00000000000E+00  0.68411230868E+02  0.68411231053E+02  0.50400000000E-02 0.  1.
          1   -1    0    0  501    0  0.00000000000E+00 -0.00000000000E+00 -0.29047556888E+02  0.29047557326E+02  0.50400000000E-02 0. -1.
         23    2    1    2    0    0 -0.35527136788E-14  0.00000000000E+00  0.39363673979E+02  0.97458788379E+02  0.89155575278E+02 0.  0.
    9000005    2    3    3    0    0 -0.22015037712E+02  0.33993894502E+02 -0.14577500873E+00  0.40879257555E+02  0.55538904412E+01 0.  0.
         22    1    3    3    0    0  0.22015037712E+02 -0.33993894502E+02  0.39509448988E+02  0.56579530824E+02  0.00000000000E+00 0.  1.
         22    1    4    4    0    0 -0.21082196637E+01  0.64365352412E+01 -0.11451937417E+01  0.68691371196E+01  0.00000000000E+00 0.  1.
         22    1    4    4    0    0 -0.19906818049E+02  0.27557359261E+02  0.99941873292E+00  0.34010120436E+02  0.00000000000E+00 0.  1.
<mgrwt>
<rscale>  0 0.89155575E+02</rscale>
<asrwt>0</asrwt>
<pdfrwt beam="2">  1        1 0.44688550E-02 0.89155575E+02</pdfrwt>
<pdfrwt beam="1">  1       -1 0.10524805E-01 0.89155575E+02</pdfrwt>
<totfact> 0.91959345E+04</totfact>
</mgrwt>
</event>
<event>
 6    1  0.2911475E-009  0.5307628E+02  0.7818608E-02  0.1429422E+00
         -1   -1    0    0    0  501 -0.00000000000E+00  0.00000000000E+00  0.60824754617E+00  0.60826842678E+00  0.50400000000E-02 0.  1.
          1   -1    0    0  501    0  0.00000000000E+00 -0.00000000000E+00 -0.11578522797E+04  0.11578522797E+04  0.50400000000E-02 0. -1.
    9000005    2    1    2    0    0 -0.11806825058E+02 -0.39427387389E+01 -0.10880455569E+04  0.10881514073E+04  0.86836069238E+01 0.  0.
         22    1    1    2    0    0  0.11806825058E+02  0.39427387389E+01 -0.69198475209E+02  0.70309140785E+02  0.00000000000E+00 0.  1.
         22    1    3    3    0    0 -0.13040936793E+02 -0.41005738451E+01 -0.92385084715E+03  0.92395198388E+03  0.00000000000E+00 0.  1.
         22    1    3    3    0    0  0.12341117358E+01  0.15783510614E+00 -0.16419470975E+03  0.16419942343E+03  0.00000000000E+00 0.  1.
<mgrwt>
<rscale>  0 0.53076281E+02</rscale>
<asrwt>0</asrwt>
<pdfrwt beam="2">  1        1 0.17812936E+00 0.53076281E+02</pdfrwt>
<pdfrwt beam="1">  1       -1 0.93579079E-04 0.53076281E+02</pdfrwt>
<totfact> 0.52057127E+05</totfact>
</mgrwt>
</event>
<event>
 7    1  0.2911475E-009  0.9056230E+02  0.7818608E-02  0.1301496E+00
         -1   -1    0    0    0  501 -0.00000000000E+00  0.00000000000E+00  0.99138799449E+01  0.99138812260E+01  0.50400000000E-02 0. -1.
          1   -1    0    0  501    0  0.00000000000E+00 -0.00000000000E+00 -0.20681937585E+03  0.20681937591E+03  0.50400000000E-02 0.  1.
         23    2    1    2    0    0  0.00000000000E+00 -0.71054273576E-14 -0.19690549591E+03  0.21673325714E+03  0.90562301383E+02 0.  0.
    9000005    2    3    3    0    0 -0.24908871740E+02  0.37243846446E+02 -0.11225584057E+03  0.12095685013E+03  0.46507917366E+01 0.  0.
         22    1    3    3    0    0  0.24908871740E+02 -0.37243846446E+02 -0.84649655340E+02  0.95776407004E+02  0.00000000000E+00 0. -1.
         22    1    4    4    0    0 -0.24076862604E+02  0.36342034980E+02 -0.10659977391E+03  0.11516922599E+03  0.00000000000E+00 0. -1.
         22    1    4    4    0    0 -0.83200913612E+00  0.90181146614E+00 -0.56560666600E+01  0.57876241400E+01  0.00000000000E+00 0. -1.
<mgrwt>
<rscale>  0 0.90562301E+02</rscale>
<asrwt>0</asrwt>
<pdfrwt beam="2">  1        1 0.31818362E-01 0.90562301E+02</pdfrwt>
<pdfrwt beam="1">  1       -1 0.15252126E-02 0.90562301E+02</pdfrwt>
<totfact> 0.12135787E+05</totfact>
</mgrwt>
</event>
<event>
 7    1  0.2911475E-009  0.9020731E+02  0.7818608E-02  0.1302350E+00
          1   -1    0    0  501    0  0.00000000000E+00  0.00000000000E+00  0.17367562684E+03  0.17367562691E+03  0.50400000000E-02 0. -1.
         -1   -1    0    0    0  501 -0.00000000000E+00 -0.00000000000E+00 -0.11713441916E+02  0.11713443000E+02  0.50400000000E-02 0.  1.
         23    2    1    2    0    0  0.00000000000E+00  0.00000000000E+00  0.16196218492E+03  0.18538906991E+03  0.90207305125E+02 0.  0.
    9000005    2    3    3    0    0 -0.35762287184E+02  0.21667972568E+02  0.11037329820E+03  0.11898232739E+03  0.15036191475E+02 0.  0.
         22    1    3    3    0    0  0.35762287184E+02 -0.21667972568E+02  0.51588886716E+02  0.66406742523E+02  0.00000000000E+00 0.  1.
         22    1    4    4    0    0 -0.37107059000E+02  0.21772173959E+02  0.10797712558E+03  0.11623261605E+03  0.00000000000E+00 0.  1.
         22    1    4    4    0    0  0.13447718152E+01 -0.10420139003E+00  0.23961726253E+01  0.27497113330E+01  0.00000000000E+00 0.  1.
<mgrwt>
<rscale>  0 0.90207305E+02</rscale>
<asrwt>0</asrwt>
<pdfrwt beam="1">  1        1 0.26719327E-01 0.90207305E+02</pdfrwt>
<pdfrwt beam="2">  1       -1 0.18020681E-02 0.90207305E+02</pdfrwt>
<totfact> 0.11859649E+05</totfact>
</mgrwt>
</event>
<event>
 7    1  0.2911475E-009  0.9545116E+02  0.7818608E-02  0.1290163E+00
          1   -1    0    0  501    0  0.00000000000E+00  0.00000000000E+00  0.32723915604E+03  0.32723915608E+03  0.50400000000E-02 0. -1.
         -1   -1    0    0    0  501 -0.00000000000E+00 -0.00000000000E+00 -0.69604465337E+01  0.69604483585E+01  0.50400000000E-02 0.  1.
         23    2    1    2    0    0  0.00000000000E+00 -0.38857805862E-15  0.32027870951E+03  0.33419960444E+03  0.95451159464E+02 0.  0.
    9000005    2    3    3    0    0 -0.46316139056E+02 -0.26203954387E+00  0.14952966172E+03  0.15728015745E+03  0.15253681263E+02 0.  0.
         22    1    3    3    0    0  0.46316139056E+02  0.26203954387E+00  0.17074904779E+03  0.17691944699E+03  0.00000000000E+00 0. -1.
         22    1    4    4    0    0 -0.11911806121E+02 -0.60638984480E+01  0.52261774556E+02  0.53943999381E+02  0.00000000000E+00 0.  1.
         22    1    4    4    0    0 -0.34404332936E+02  0.58018589042E+01  0.97267887162E+02  0.10333615807E+03  0.00000000000E+00 0.  1.
<mgrwt>
<rscale>  0 0.95451159E+02</rscale>
<asrwt>0</asrwt>
<pdfrwt beam="1">  1        1 0.50344466E-01 0.95451159E+02</pdfrwt>
<pdfrwt beam="2">  1       -1 0.10708385E-02 0.95451159E+02</pdfrwt>
<totfact> 0.11524105E+05</totfact>
</mgrwt>
</event>
<event>
 7    1  0.2911475E-009  0.9236790E+02  0.7818608E-02  0.1297217E+00
          1   -1    0    0  501    0  0.00000000000E+00  0.00000000000E+00  0.88725192987E+02  0.88725193130E+02  0.50400000000E-02 0. -1.
         -1   -1    0    0    0  501 -0.00000000000E+00 -0.00000000000E+00 -0.24040041978E+02  0.24040042506E+02  0.50400000000E-02 0.  1.
         23    2    1    2    0    0  0.00000000000E+00  0.00000000000E+00  0.64685151009E+02  0.11276523564E+03  0.92367903555E+02 0.  0.
    9000005    2    3    3    0    0  0.23652253319E+02  0.20359048498E+01 -0.13952125631E+02  0.30622705404E+02  0.13398293961E+02 0.  0.
         22    1    3    3    0    0 -0.23652253319E+02 -0.20359048498E+01  0.78637276640E+02  0.82142530232E+02  0.00000000000E+00 0. -1.
         22    1    4    4    0    0  0.12583378879E+02 -0.44163917426E+01 -0.27776515425E+01  0.13622088244E+02  0.00000000000E+00 0.  1.
         22    1    4    4    0    0  0.11068874439E+02  0.64522965924E+01 -0.11174474089E+02  0.17000617160E+02  0.00000000000E+00 0.  1.
<mgrwt>
<rscale>  0 0.92367904E+02</rscale>
<asrwt>0</asrwt>
<pdfrwt beam="1">  1        1 0.13650030E-01 0.92367904E+02</pdfrwt>
<pdfrwt beam="2">  1       -1 0.36984680E-02 0.92367904E+02</pdfrwt>
<totfact> 0.98844297E+04</totfact>
</mgrwt>
</event>
<event>
 7    1  0.2911475E-009  0.9263607E+02  0.7818608E-02  0.1296591E+00
         -1   -1    0    0    0  501 -0.00000000000E+00  0.00000000000E+00  0.58198417576E+02  0.58198417794E+02  0.50400000000E-02 0. -1.
          1   -1    0    0  501    0  0.00000000000E+00 -0.00000000000E+00 -0.36862860621E+02  0.36862860965E+02  0.50400000000E-02 0.  1.
         23    2    1    2    0    0  0.00000000000E+00  0.00000000000E+00  0.21335556955E+02  0.95061278759E+02  0.92636066026E+02 0.  0.
    9000005    2    3    3    0    0  0.15047404403E+02 -0.70272393679E+00 -0.32831206828E+02  0.38838894436E+02  0.14270717537E+02 0.  0.
         22    1    3    3    0    0 -0.15047404403E+02  0.70272393679E+00  0.54166763783E+02  0.56222384323E+02  0.00000000000E+00 0. -1.
         22    1    4    4    0    0  0.28108734058E+00  0.34219002158E+01 -0.11124790529E+01  0.36091579105E+01  0.00000000000E+00 0. -1.
         22    1    4    4    0    0  0.14766317062E+02 -0.41246241526E+01 -0.31718727775E+02  0.35229736526E+02  0.00000000000E+00 0. -1.
<mgrwt>
<rscale>  0 0.92636066E+02</rscale>
<asrwt>0</asrwt>
<pdfrwt beam="2">  1        1 0.56712094E-02 0.92636066E+02</pdfrwt>
<pdfrwt beam="1">  1       -1 0.89536027E-02 0.92636066E+02</pdfrwt>
<totfact> 0.85586146E+04</totfact>
</mgrwt>
</event>
<event>
 7    1  0.2911475E-009  0.9214445E+02  0.7818608E-02  0.1297740E+00
          1   -1    0    0  501    0  0.00000000000E+00  0.00000000000E+00  0.57035356480E+02  0.57035356703E+02  0.50400000000E-02 0. -1.
         -1   -1    0    0    0  501 -0.00000000000E+00 -0.00000000000E+00 -0.37216385942E+02  0.37216386283E+02  0.50400000000E-02 0.  1.
         23    2    1    2    0    0  0.00000000000E+00  0.35527136788E-14  0.19818970538E+02  0.94251742986E+02  0.92144448898E+02 0.  0.
    9000005    2    3    3    0    0 -0.19288352784E+02  0.27955400576E+02 -0.19560660267E+02  0.42248855597E+02  0.15773439531E+02 0.  0.
         22    1    3    3    0    0  0.19288352784E+02 -0.27955400576E+02  0.39379630805E+02  0.52002887389E+02  0.00000000000E+00 0. -1.
         22    1    4    4    0    0 -0.20020711646E+02  0.16996123335E+02 -0.15750119025E+02  0.30622922011E+02  0.00000000000E+00 0. -1.
         22    1    4    4    0    0  0.73235886252E+00  0.10959277242E+02 -0.38105412424E+01  0.11625933585E+02  0.00000000000E+00 0. -1.
<mgrwt>
<rscale>  0 0.92144449E+02</rscale>
<asrwt>0</asrwt>
<pdfrwt beam="1">  1        1 0.87746702E-02 0.92144449E+02</pdfrwt>
<pdfrwt beam="2">  1       -1 0.57255979E-02 0.92144449E+02</pdfrwt>
<totfact> 0.92866555E+04</totfact>
</mgrwt>
</event>
<event>
 7    1  0.2911475E-009  0.9032120E+02  0.7818608E-02  0.1302076E+00
         -1   -1    0    0    0  501 -0.00000000000E+00  0.00000000000E+00  0.34926581081E+03  0.34926581084E+03  0.50400000000E-02 0.  1.
          1   -1    0    0  501    0  0.00000000000E+00 -0.00000000000E+00 -0.58393326989E+01  0.58393348740E+01  0.50400000000E-02 0. -1.
         23    2    1    2    0    0  0.35527136788E-14  0.35527136788E-14  0.34342647811E+03  0.35510514572E+03  0.90321197120E+02 0.  0.
    9000005    2    3    3    0    0  0.18111991041E+02  0.16387143913E+02  0.32066437362E+03  0.32171808077E+03  0.89610423355E+01 0.  0.
         22    1    3    3    0    0 -0.18111991041E+02 -0.16387143913E+02  0.22762104488E+02  0.33387064948E+02  0.00000000000E+00 0. -1.
         22    1    4    4    0    0  0.14071582801E+02  0.71479979722E+01  0.21207923126E+03  0.21266570869E+03  0.00000000000E+00 0.  1.
         22    1    4    4    0    0  0.40404082395E+01  0.92391459412E+01  0.10858514236E+03  0.10905237209E+03  0.00000000000E+00 0.  1.
<mgrwt>
<rscale>  0 0.90321197E+02</rscale>
<asrwt>0</asrwt>
<pdfrwt beam="2">  1        1 0.89835891E-03 0.90321197E+02</pdfrwt>
<pdfrwt beam="1">  1       -1 0.53733210E-01 0.90321197E+02</pdfrwt>
<totfact> 0.58259799E+04</totfact>
</mgrwt>
</event>
<event>
 7    1  0.2911475E-009  0.9341777E+02  0.7818608E-02  0.1294780E+00
          1   -1    0    0  501    0  0.00000000000E+00  0.00000000000E+00  0.32269805923E+02  0.32269806317E+02  0.50400000000E-02 0. -1.
         -1   -1    0    0    0  501 -0.00000000000E+00 -0.00000000000E+00 -0.67608709622E+02  0.67608709810E+02  0.50400000000E-02 0.  1.
         23    2    1    2    0    0  0.00000000000E+00  0.71054273576E-14 -0.35338903699E+02  0.99878516127E+02  0.93417770628E+02 0.  0.
    9000005    2    3    3    0    0 -0.21334600208E+02 -0.20542686340E+02 -0.55002418998E+02  0.64328256466E+02  0.15352242708E+02 0.  0.
         22    1    3    3    0    0  0.21334600208E+02  0.20542686340E+02  0.19663515299E+02  0.35550259661E+02  0.00000000000E+00 0. -1.
         22    1    4    4    0    0 -0.19531758041E+02 -0.16331018621E+02 -0.53908580452E+02  0.59618174978E+02  0.00000000000E+00 0.  1.
         22    1    4    4    0    0 -0.18028421669E+01 -0.42116677191E+01 -0.10938385462E+01  0.47100814876E+01  0.00000000000E+00 0.  1.
<mgrwt>
<rscale>  0 0.93417771E+02</rscale>
<asrwt>0</asrwt>
<pdfrwt beam="1">  1        1 0.49645856E-02 0.93417771E+02</pdfrwt>
<pdfrwt beam="2">  1       -1 0.10401340E-01 0.93417771E+02</pdfrwt>
<totfact> 0.81801562E+04</totfact>
</mgrwt>
</event>
<event>
 7    1  0.2911475E-009  0.9078977E+02  0.7818608E-02  0.1300950E+00
         -1   -1    0    0    0  501 -0.00000000000E+00  0.00000000000E+00  0.22223979371E+02  0.22223979943E+02  0.50400000000E-02 0.  1.
          1   -1    0    0  501    0  0.00000000000E+00 -0.00000000000E+00 -0.92723960215E+02  0.92723960352E+02  0.50400000000E-02 0. -1.
         23    2    1    2    0    0  0.00000000000E+00  0.00000000000E+00 -0.70499980844E+02  0.11494794029E+03  0.90789766378E+02 0.  0.
    9000005    2    3    3    0    0  0.12761498580E+02 -0.17852412149E+02 -0.84838861106E+02  0.88734051748E+02  0.13947584746E+02 0.  0.
         22    1    3    3    0    0 -0.12761498580E+02  0.17852412149E+02  0.14338880262E+02  0.26213888547E+02  0.00000000000E+00 0.  1.
         22    1    4    4    0    0  0.80605199083E+01 -0.37284743168E+01 -0.15955668249E+02  0.18260800946E+02  0.00000000000E+00 0.  1.
         22    1    4    4    0    0  0.47009786719E+01 -0.14123937833E+02 -0.68883192857E+02  0.70473250802E+02  0.00000000000E+00 0.  1.
<mgrwt>
<rscale>  0 0.90789766E+02</rscale>
<asrwt>0</asrwt>
<pdfrwt beam="2">  1        1 0.14265224E-01 0.90789766E+02</pdfrwt>
<pdfrwt beam="1">  1       -1 0.34190739E-02 0.90789766E+02</pdfrwt>
<totfact> 0.10436512E+05</totfact>
</mgrwt>
</event>
<event>
 7    1  0.2911475E-009  0.9375912E+02  0.7818608E-02  0.1293996E+00
         -1   -1    0    0    0  501 -0.00000000000E+00  0.00000000000E+00  0.10235040109E+03  0.10235040121E+03  0.50400000000E-02 0.  1.
          1   -1    0    0  501    0  0.00000000000E+00 -0.00000000000E+00 -0.21472247089E+02  0.21472247681E+02  0.50400000000E-02 0. -1.
         23    2    1    2    0    0  0.88817841970E-15  0.35527136788E-14  0.80878153996E+02  0.12382264889E+03  0.93759120007E+02 0.  0.
    9000005    2    3    3    0    0 -0.75362061786E+01 -0.30303160856E+02 -0.56386296376E+01  0.31843141326E+02  0.26674976825E+01 0.  0.
         22    1    3    3    0    0  0.75362061786E+01  0.30303160856E+02  0.86516783634E+02  0.91979507564E+02  0.00000000000E+00 0.  1.
         22    1    4    4    0    0 -0.72580671771E+01 -0.28135746475E+02 -0.45819676029E+01  0.29415883396E+02  0.00000000000E+00 0.  1.
         22    1    4    4    0    0 -0.27813900150E+00 -0.21674143809E+01 -0.10566620347E+01  0.24272579299E+01  0.00000000000E+00 0.  1.
<mgrwt>
<rscale>  0 0.93759120E+02</rscale>
<asrwt>0</asrwt>
<pdfrwt beam="2">  1        1 0.33034227E-02 0.93759120E+02</pdfrwt>
<pdfrwt beam="1">  1       -1 0.15746216E-01 0.93759120E+02</pdfrwt>
<totfact> 0.75385149E+04</totfact>
</mgrwt>
</event>
<event>
 7    1  0.2911475E-009  0.9323903E+02  0.7818608E-02  0.1295192E+00
          1   -1    0    0  501    0  0.00000000000E+00  0.00000000000E+00  0.18328430231E+02  0.18328430924E+02  0.50400000000E-02 0. -1.
         -1   -1    0    0    0  501 -0.00000000000E+00 -0.00000000000E+00 -0.11857967146E+03  0.11857967157E+03  0.50400000000E-02 0.  1.
         23    2    1    2    0    0 -0.22204460493E-15  0.71054273576E-14 -0.10025124123E+03  0.13690810249E+03  0.93239032384E+02 0.  0.
    9000005    2    3    3    0    0 -0.15294424716E+01  0.42132320713E+02 -0.21989340176E+02  0.48012676291E+02  0.66493879670E+01 0.  0.
         22    1    3    3    0    0  0.15294424716E+01 -0.42132320713E+02 -0.78261901055E+02  0.88895426202E+02  0.00000000000E+00 0.  1.
         22    1    4    4    0    0 -0.30147495162E+01  0.10277593658E+02 -0.68348193645E+01  0.12705605133E+02  0.00000000000E+00 0. -1.
         22    1    4    4    0    0  0.14853070446E+01  0.31854727054E+02 -0.15154520811E+02  0.35307071158E+02  0.00000000000E+00 0. -1.
<mgrwt>
<rscale>  0 0.93239032E+02</rscale>
<asrwt>0</asrwt>
<pdfrwt beam="1">  1        1 0.28197586E-02 0.93239032E+02</pdfrwt>
<pdfrwt beam="2">  1       -1 0.18243026E-01 0.93239032E+02</pdfrwt>
<totfact> 0.74294174E+04</totfact>
</mgrwt>
</event>
<event>
 7    1  0.2911475E-009  0.9280858E+02  0.7818608E-02  0.1296189E+00
         -1   -1    0    0    0  501 -0.00000000000E+00  0.00000000000E+00  0.92023714694E+02  0.92023714832E+02  0.50400000000E-02 0.  1.
          1   -1    0    0  501    0  0.00000000000E+00 -0.00000000000E+00 -0.23400035338E+02  0.23400035881E+02  0.50400000000E-02 0. -1.
         23    2    1    2    0    0  0.00000000000E+00  0.00000000000E+00  0.68623679356E+02  0.11542375071E+03  0.92808581824E+02 0.  0.
    9000005    2    3    3    0    0 -0.26172075624E+02 -0.24794006312E+02  0.84416843577E-01  0.37981186207E+02  0.11951698121E+02 0.  0.
         22    1    3    3    0    0  0.26172075624E+02  0.24794006312E+02  0.68539262512E+02  0.77442564506E+02  0.00000000000E+00 0.  1.
         22    1    4    4    0    0 -0.13935129390E+02 -0.58754791512E+01 -0.24040356322E+01  0.15313016479E+02  0.00000000000E+00 0. -1.
         22    1    4    4    0    0 -0.12236946234E+02 -0.18918527161E+02  0.24884524758E+01  0.22668169727E+02  0.00000000000E+00 0. -1.
<mgrwt>
<rscale>  0 0.92808582E+02</rscale>
<asrwt>0</asrwt>
<pdfrwt beam="2">  1        1 0.36000054E-02 0.92808582E+02</pdfrwt>
<pdfrwt beam="1">  1       -1 0.14157495E-01 0.92808582E+02</pdfrwt>
<totfact> 0.78928253E+04</totfact>
</mgrwt>
</event>
<event>
 6    1  0.2911475E-009  0.1759050E+03  0.7818608E-02  0.1171826E+00
         -1   -1    0    0    0  501 -0.00000000000E+00  0.00000000000E+00  0.17954785071E+03  0.17954785078E+03  0.50400000000E-02 0.  1.
          1   -1    0    0  501    0  0.00000000000E+00 -0.00000000000E+00 -0.43084013093E+02  0.43084013387E+02  0.50400000000E-02 0. -1.
    9000005    2    1    2    0    0 -0.65744281261E+02  0.42844657338E+02  0.11729851986E+03  0.14185263054E+03  0.14326578358E+02 0.  0.
         22    1    1    2    0    0  0.65744281261E+02 -0.42844657338E+02  0.19165317752E+02  0.80779233627E+02  0.00000000000E+00 0.  1.
         22    1    3    3    0    0 -0.23200629777E+02  0.86528480751E+01  0.30041112387E+02  0.38930828854E+02  0.00000000000E+00 0.  1.
         22    1    3    3    0    0 -0.42543651485E+02  0.34191809262E+02  0.87257407475E+02  0.10292180168E+03  0.00000000000E+00 0.  1.
<mgrwt>
<rscale>  0 0.17590500E+03</rscale>
<asrwt>0</asrwt>
<pdfrwt beam="2">  1        1 0.66283098E-02 0.17590500E+03</pdfrwt>
<pdfrwt beam="1">  1       -1 0.27622746E-01 0.17590500E+03</pdfrwt>
<totfact> 0.12676569E+04</totfact>
</mgrwt>
</event>
<event>
 7    1  0.2911475E-009  0.9178629E+02  0.7818608E-02  0.1298583E+00
         -1   -1    0    0    0  501 -0.00000000000E+00  0.00000000000E+00  0.39051017463E+02  0.39051017788E+02  0.50400000000E-02 0.  1.
          1   -1    0    0  501    0  0.00000000000E+00 -0.00000000000E+00 -0.53934084823E+02  0.53934085058E+02  0.50400000000E-02 0. -1.
         23    2    1    2    0    0  0.00000000000E+00  0.00000000000E+00 -0.14883067360E+02  0.92985102846E+02  0.91786293406E+02 0.  0.
    9000005    2    3    3    0    0 -0.14699159144E+02 -0.38037694397E+02  0.12027787281E+02  0.44126883761E+02  0.11814513490E+02 0.  0.
         22    1    3    3    0    0  0.14699159144E+02  0.38037694397E+02 -0.26910854641E+02  0.48858219085E+02  0.00000000000E+00 0. -1.
         22    1    4    4    0    0 -0.10515288931E+02 -0.11870939250E+02  0.30564280964E+01  0.16150301938E+02  0.00000000000E+00 0. -1.
         22    1    4    4    0    0 -0.41838702132E+01 -0.26166755147E+02  0.89713591843E+01  0.27976581823E+02  0.00000000000E+00 0. -1.
<mgrwt>
<rscale>  0 0.91786293E+02</rscale>
<asrwt>0</asrwt>
<pdfrwt beam="2">  1        1 0.82975515E-02 0.91786293E+02</pdfrwt>
<pdfrwt beam="1">  1       -1 0.60078489E-02 0.91786293E+02</pdfrwt>
<totfact> 0.93089481E+04</totfact>
</mgrwt>
</event>
<event>
 7    1  0.2911475E-009  0.9130583E+02  0.7818608E-02  0.1299720E+00
          1   -1    0    0  501    0  0.00000000000E+00  0.00000000000E+00  0.69675868669E+03  0.69675868671E+03  0.50400000000E-02 0. -1.
         -1   -1    0    0    0  501 -0.00000000000E+00 -0.00000000000E+00 -0.29912611443E+01  0.29912653902E+01  0.50400000000E-02 0.  1.
         23    2    1    2    0    0  0.00000000000E+00 -0.44408920985E-15  0.69376742555E+03  0.69974995210E+03  0.91305830665E+02 0.  0.
    9000005    2    3    3    0    0  0.20290844481E+02  0.26214380695E+01  0.65844862078E+03  0.65893318743E+03  0.14824607702E+02 0.  0.
         22    1    3    3    0    0 -0.20290844481E+02 -0.26214380695E+01  0.35318804772E+02  0.40816764666E+02  0.00000000000E+00 0.  1.
         22    1    4    4    0    0  0.97758724121E+01  0.59457332048E+01  0.48464769228E+03  0.48478274005E+03  0.00000000000E+00 0.  1.
         22    1    4    4    0    0  0.10514972069E+02 -0.33242951354E+01  0.17380092850E+03  0.17415044738E+03  0.00000000000E+00 0.  1.
<mgrwt>
<rscale>  0 0.91305831E+02</rscale>
<asrwt>0</asrwt>
<pdfrwt beam="1">  1        1 0.10719367E+00 0.91305831E+02</pdfrwt>
<pdfrwt beam="2">  1       -1 0.46019425E-03 0.91305831E+02</pdfrwt>
<totfact> 0.14164965E+05</totfact>
</mgrwt>
</event>
<event>
 6    1  0.2911475E-009  0.1700172E+03  0.7818608E-02  0.1177830E+00
          1   -1    0    0  501    0  0.00000000000E+00  0.00000000000E+00  0.29378999712E+02  0.29379000145E+02  0.50400000000E-02 0. -1.
         -1   -1    0    0    0  501 -0.00000000000E+00 -0.00000000000E+00 -0.24597370534E+03  0.24597370539E+03  0.50400000000E-02 0.  1.
    9000005    2    1    2    0    0 -0.37791356511E+02  0.20514102747E+02 -0.22667914199E+03  0.23118585263E+03  0.14644111581E+02 0.  0.
         22    1    1    2    0    0  0.37791356511E+02 -0.20514102747E+02  0.10084436367E+02  0.44166852903E+02  0.00000000000E+00 0. -1.
         22    1    3    3    0    0 -0.22194209897E+02  0.19735443338E+02 -0.15600675631E+03  0.15880862285E+03  0.00000000000E+00 0. -1.
         22    1    3    3    0    0 -0.15597146615E+02  0.77865940907E+00 -0.70672385680E+02  0.72377229781E+02  0.00000000000E+00 0. -1.
<mgrwt>
<rscale>  0 0.17001719E+03</rscale>
<asrwt>0</asrwt>
<pdfrwt beam="1">  1        1 0.45198463E-02 0.17001719E+03</pdfrwt>
<pdfrwt beam="2">  1       -1 0.37842107E-01 0.17001719E+03</pdfrwt>
<totfact> 0.12483242E+04</totfact>
</mgrwt>
</event>
<event>
 6    1  0.2911475E-009  0.4051500E+03  0.7818608E-02  0.1042011E+00
          1   -1    0    0  501    0  0.00000000000E+00  0.00000000000E+00  0.33072212554E+03  0.33072212558E+03  0.50400000000E-02 0. -1.
         -1   -1    0    0    0  501 -0.00000000000E+00 -0.00000000000E+00 -0.12408191485E+03  0.12408191496E+03  0.50400000000E-02 0.  1.
    9000005    2    1    2    0    0 -0.99213261716E+02 -0.42723217767E+02  0.29567330385E+03  0.31482034037E+03  0.45386631339E+01 0.  0.
         22    1    1    2    0    0  0.99213261716E+02  0.42723217767E+02 -0.89033093158E+02  0.13998370017E+03  0.00000000000E+00 0.  1.
         22    1    3    3    0    0 -0.54694489803E+02 -0.22475056256E+02  0.15589464286E+03  0.16673258542E+03  0.00000000000E+00 0.  1.
         22    1    3    3    0    0 -0.44518771914E+02 -0.20248161510E+02  0.13977866099E+03  0.14808775495E+03  0.00000000000E+00 0.  1.
<mgrwt>
<rscale>  0 0.40515002E+03</rscale>
<asrwt>0</asrwt>
<pdfrwt beam="1">  1        1 0.50880327E-01 0.40515002E+03</pdfrwt>
<pdfrwt beam="2">  1       -1 0.19089525E-01 0.40515002E+03</pdfrwt>
<totfact> 0.16922536E+03</totfact>
</mgrwt>
</event>
<event>
 7    1  0.2911475E-009  0.9365103E+02  0.7818608E-02  0.1294244E+00
          1   -1    0    0  501    0  0.00000000000E+00  0.00000000000E+00  0.16650429772E+03  0.16650429780E+03  0.50400000000E-02 0. -1.
         -1   -1    0    0    0  501 -0.00000000000E+00 -0.00000000000E+00 -0.13168601000E+02  0.13168601964E+02  0.50400000000E-02 0.  1.
         23    2    1    2    0    0  0.00000000000E+00 -0.22204460493E-15  0.15333569672E+03  0.17967289976E+03  0.93651027863E+02 0.  0.
    9000005    2    3    3    0    0  0.43243952796E+02 -0.16991163113E+01  0.45780609299E+02  0.63737472562E+02  0.96785727817E+01 0.  0.
         22    1    3    3    0    0 -0.43243952796E+02  0.16991163113E+01  0.10755508742E+03  0.11593542720E+03  0.00000000000E+00 0.  1.
         22    1    4    4    0    0  0.29073956452E+02 -0.18519489884E+01  0.23964505551E+02  0.37722966282E+02  0.00000000000E+00 0.  1.
         22    1    4    4    0    0  0.14169996344E+02  0.15283267712E+00  0.21816103748E+02  0.26014506280E+02  0.00000000000E+00 0.  1.
<mgrwt>
<rscale>  0 0.93651028E+02</rscale>
<asrwt>0</asrwt>
<pdfrwt beam="1">  1        1 0.25616044E-01 0.93651028E+02</pdfrwt>
<pdfrwt beam="2">  1       -1 0.20259388E-02 0.93651028E+02</pdfrwt>
<totfact> 0.10636163E+05</totfact>
</mgrwt>
</event>
<event>
 7    1  0.2911475E-009  0.9143432E+02  0.7818608E-02  0.1299415E+00
          1   -1    0    0  501    0  0.00000000000E+00  0.00000000000E+00  0.11175699057E+02  0.11175700194E+02  0.50400000000E-02 0. -1.
         -1   -1    0    0    0  501 -0.00000000000E+00 -0.00000000000E+00 -0.18701813622E+03  0.18701813629E+03  0.50400000000E-02 0.  1.
         23    2    1    2    0    0  0.35527136788E-14  0.00000000000E+00 -0.17584243716E+03  0.19819383648E+03  0.91434315835E+02 0.  0.
    9000005    2    3    3    0    0  0.20966438053E+02 -0.20971448646E+02 -0.14927831821E+02  0.34569561403E+02  0.96343774967E+01 0.  0.
         22    1    3    3    0    0 -0.20966438053E+02  0.20971448646E+02 -0.16091460534E+03  0.16362427508E+03  0.00000000000E+00 0.  1.
         22    1    4    4    0    0 -0.75915626694E+00 -0.23635175227E+01 -0.50201733686E+00  0.25326971244E+01  0.00000000000E+00 0. -1.
         22    1    4    4    0    0  0.21725594320E+02 -0.18607931123E+02 -0.14425814484E+02  0.32036864278E+02  0.00000000000E+00 0. -1.
<mgrwt>
<rscale>  0 0.91434316E+02</rscale>
<asrwt>0</asrwt>
<pdfrwt beam="1">  1        1 0.17193385E-02 0.91434316E+02</pdfrwt>
<pdfrwt beam="2">  1       -1 0.28772019E-01 0.91434316E+02</pdfrwt>
<totfact> 0.70220036E+04</totfact>
</mgrwt>
</event>
<event>
 7    1  0.2911475E-009  0.9032928E+02  0.7818608E-02  0.1302056E+00
          1   -1    0    0  501    0  0.00000000000E+00  0.00000000000E+00  0.31025603708E+02  0.31025604118E+02  0.50400000000E-02 0. -1.
         -1   -1    0    0    0  501 -0.00000000000E+00 -0.00000000000E+00 -0.65747144560E+02  0.65747144753E+02  0.50400000000E-02 0.  1.
         23    2    1    2    0    0  0.00000000000E+00  0.00000000000E+00 -0.34721540851E+02  0.96772748871E+02  0.90329283872E+02 0.  0.
    9000005    2    3    3    0    0 -0.34549516119E+02 -0.16451170897E+02 -0.40760511272E+02  0.58032856619E+02  0.15559019257E+02 0.  0.
         22    1    3    3    0    0  0.34549516119E+02  0.16451170897E+02  0.60389704211E+01  0.38739892252E+02  0.00000000000E+00 0. -1.
         22    1    4    4    0    0 -0.28894019096E+02 -0.73402781612E+01 -0.34577066423E+02  0.45654326689E+02  0.00000000000E+00 0. -1.
         22    1    4    4    0    0 -0.56554970225E+01 -0.91108927360E+01 -0.61834448497E+01  0.12378529930E+02  0.00000000000E+00 0. -1.
<mgrwt>
<rscale>  0 0.90329284E+02</rscale>
<asrwt>0</asrwt>
<pdfrwt beam="1">  1        1 0.47731699E-02 0.90329284E+02</pdfrwt>
<pdfrwt beam="2">  1       -1 0.10114945E-01 0.90329284E+02</pdfrwt>
<totfact> 0.89513446E+04</totfact>
</mgrwt>
</event>
<event>
 7    1  0.2911475E-009  0.1008260E+03  0.7818608E-02  0.1278568E+00
          1   -1    0    0  501    0  0.00000000000E+00  0.00000000000E+00  0.20589812293E+02  0.20589812910E+02  0.50400000000E-02 0.  1.
         -1   -1    0    0    0  501 -0.00000000000E+00 -0.00000000000E+00 -0.12343345899E+03  0.12343345910E+03  0.50400000000E-02 0. -1.
         23    2    1    2    0    0 -0.35527136788E-14  0.88817841970E-15 -0.10284364670E+03  0.14402327201E+03  0.10082602448E+03 0.  0.
    9000005    2    3    3    0    0  0.16550412282E+02 -0.79863550655E+01 -0.11839509941E+03  0.11994951669E+03  0.57261658070E+01 0.  0.
         22    1    3    3    0    0 -0.16550412282E+02  0.79863550655E+01  0.15551452709E+02  0.24073755322E+02  0.00000000000E+00 0.  1.
         22    1    4    4    0    0  0.30491424017E+01 -0.26809216743E+01 -0.41495039021E+02  0.41693199370E+02  0.00000000000E+00 0. -1.
         22    1    4    4    0    0  0.13501269880E+02 -0.53054333911E+01 -0.76900060389E+02  0.78256317315E+02  0.00000000000E+00 0. -1.
<mgrwt>
<rscale>  0 0.10082602E+03</rscale>
<asrwt>0</asrwt>
<pdfrwt beam="1">  1        1 0.31676636E-02 0.10082602E+03</pdfrwt>
<pdfrwt beam="2">  1       -1 0.18989763E-01 0.10082602E+03</pdfrwt>
<totfact> 0.60147377E+04</totfact>
</mgrwt>
</event>
<event>
 7    1  0.2911475E-009  0.9181851E+02  0.7818608E-02  0.1298507E+00
         -1   -1    0    0    0  501 -0.00000000000E+00  0.00000000000E+00  0.26773219637E+01  0.26773267076E+01  0.50400000000E-02 0.  1.
          1   -1    0    0  501    0  0.00000000000E+00 -0.00000000000E+00 -0.78722615031E+03  0.78722615033E+03  0.50400000000E-02 0. -1.
         23    2    1    2    0    0 -0.33306690739E-15  0.35527136788E-14 -0.78454882835E+03  0.78990347703E+03  0.91818511045E+02 0.  0.
    9000005    2    3    3    0    0 -0.87068277761E+00 -0.25978771182E+02 -0.71546506647E+03  0.71609141301E+03  0.14865927670E+02 0.  0.
         22    1    3    3    0    0  0.87068277761E+00  0.25978771182E+02 -0.69083761878E+02  0.73812064026E+02  0.00000000000E+00 0.  1.
         22    1    4    4    0    0 -0.46843329889E+01 -0.26108191134E+01 -0.76457111903E+02  0.76644956211E+02  0.00000000000E+00 0. -1.
         22    1    4    4    0    0  0.38136502113E+01 -0.23367952069E+02 -0.63900795457E+03  0.63944645680E+03  0.00000000000E+00 0. -1.
<mgrwt>
<rscale>  0 0.91818511E+02</rscale>
<asrwt>0</asrwt>
<pdfrwt beam="2">  1        1 0.12111153E+00 0.91818511E+02</pdfrwt>
<pdfrwt beam="1">  1       -1 0.41189668E-03 0.91818511E+02</pdfrwt>
<totfact> 0.13888522E+05</totfact>
</mgrwt>
</event>
<event>
 7    1  0.2911475E-009  0.8843200E+02  0.7818608E-02  0.1306694E+00
          1   -1    0    0  501    0  0.00000000000E+00  0.00000000000E+00  0.15135296204E+02  0.15135297043E+02  0.50400000000E-02 0. -1.
         -1   -1    0    0    0  501 -0.00000000000E+00 -0.00000000000E+00 -0.12917186656E+03  0.12917186666E+03  0.50400000000E-02 0.  1.
         23    2    1    2    0    0  0.00000000000E+00  0.00000000000E+00 -0.11403657035E+03  0.14430716370E+03  0.88431997132E+02 0.  0.
    9000005    2    3    3    0    0  0.40418784060E+02  0.85516692861E+01 -0.77343416737E+02  0.89051424859E+02  0.15535218195E+02 0.  0.
         22    1    3    3    0    0 -0.40418784060E+02 -0.85516692861E+01 -0.36693153617E+02  0.55255738840E+02  0.00000000000E+00 0.  1.
         22    1    4    4    0    0  0.34237495765E+02  0.55371030076E+01 -0.49964636874E+02  0.60822122324E+02  0.00000000000E+00 0.  1.
         22    1    4    4    0    0  0.61812882945E+01  0.30145662785E+01 -0.27378779863E+02  0.28229302535E+02  0.00000000000E+00 0.  1.
<mgrwt>
<rscale>  0 0.88431997E+02</rscale>
<asrwt>0</asrwt>
<pdfrwt beam="1">  1        1 0.23285073E-02 0.88431997E+02</pdfrwt>
<pdfrwt beam="2">  1       -1 0.19872594E-01 0.88431997E+02</pdfrwt>
<totfact> 0.83688647E+04</totfact>
</mgrwt>
</event>
<event>
 7    1  0.2911475E-009  0.9087325E+02  0.7818608E-02  0.1300751E+00
         -1   -1    0    0    0  501 -0.00000000000E+00  0.00000000000E+00  0.24519853630E+02  0.24519854148E+02  0.50400000000E-02 0.  1.
          1   -1    0    0  501    0  0.00000000000E+00 -0.00000000000E+00 -0.84196538860E+02  0.84196539011E+02  0.50400000000E-02 0. -1.
         23    2    1    2    0    0  0.00000000000E+00  0.00000000000E+00 -0.59676685230E+02  0.10871639316E+03  0.90873248988E+02 0.  0.
    9000005    2    3    3    0    0 -0.41698119700E+02 -0.11348440585E+02 -0.19735364424E+02  0.49870582791E+02  0.15168062787E+02 0.  0.
         22    1    3    3    0    0  0.41698119700E+02  0.11348440585E+02 -0.39941320806E+02  0.58845810369E+02  0.00000000000E+00 0.  1.
         22    1    4    4    0    0 -0.30177818025E+02 -0.53344795038E+01 -0.65112555692E+01  0.31329759358E+02  0.00000000000E+00 0. -1.
         22    1    4    4    0    0 -0.11520301675E+02 -0.60139610809E+01 -0.13224108855E+02  0.18540823433E+02  0.00000000000E+00 0. -1.
<mgrwt>
<rscale>  0 0.90873249E+02</rscale>
<asrwt>0</asrwt>
<pdfrwt beam="2">  1        1 0.12953314E-01 0.90873249E+02</pdfrwt>
<pdfrwt beam="1">  1       -1 0.37722853E-02 0.90873249E+02</pdfrwt>
<totfact> 0.10249711E+05</totfact>
</mgrwt>
</event>
<event>
 7    1  0.2911475E-009  0.8935433E+02  0.7818608E-02  0.1304423E+00
         -1   -1    0    0    0  501 -0.00000000000E+00  0.00000000000E+00  0.15959270065E+03  0.15959270073E+03  0.50400000000E-02 0.  1.
          1   -1    0    0  501    0  0.00000000000E+00 -0.00000000000E+00 -0.12507144557E+02  0.12507145573E+02  0.50400000000E-02 0. -1.
         23    2    1    2    0    0 -0.35527136788E-14  0.00000000000E+00  0.14708555609E+03  0.17209984630E+03  0.89354329980E+02 0.  0.
    9000005    2    3    3    0    0  0.23382653870E+02  0.36942542301E+02  0.74254037829E+02  0.87153216079E+02  0.13058369169E+02 0.  0.
         22    1    3    3    0    0 -0.23382653870E+02 -0.36942542301E+02  0.72831518265E+02  0.84946630224E+02  0.00000000000E+00 0. -1.
         22    1    4    4    0    0  0.35625490629E+01  0.66766434377E+00  0.27086467225E+01  0.45248534306E+01  0.00000000000E+00 0.  1.
         22    1    4    4    0    0  0.19820104807E+02  0.36274877957E+02  0.71545391106E+02  0.82628362648E+02  0.00000000000E+00 0.  1.
<mgrwt>
<rscale>  0 0.89354330E+02</rscale>
<asrwt>0</asrwt>
<pdfrwt beam="2">  1        1 0.19241762E-02 0.89354330E+02</pdfrwt>
<pdfrwt beam="1">  1       -1 0.24552723E-01 0.89354330E+02</pdfrwt>
<totfact> 0.77652002E+04</totfact>
</mgrwt>
</event>
<event>
 7    1  0.2911475E-009  0.9581587E+02  0.7818608E-02  0.1289349E+00
          1   -1    0    0  501    0  0.00000000000E+00  0.00000000000E+00  0.18555523835E+02  0.18555524520E+02  0.50400000000E-02 0. -1.
         -1   -1    0    0    0  501 -0.00000000000E+00 -0.00000000000E+00 -0.12369202854E+03  0.12369202865E+03  0.50400000000E-02 0.  1.
         23    2    1    2    0    0  0.00000000000E+00  0.00000000000E+00 -0.10513650471E+03  0.14224755317E+03  0.95815874256E+02 0.  0.
    9000005    2    3    3    0    0 -0.21541944695E+02 -0.41206433394E+02 -0.47239327107E+02  0.67990508325E+02  0.15137029514E+02 0.  0.
         22    1    3    3    0    0  0.21541944695E+02  0.41206433394E+02 -0.57897177603E+02  0.74257044842E+02  0.00000000000E+00 0.  1.
         22    1    4    4    0    0 -0.85518053431E-01 -0.81030509939E+01 -0.14978354687E+02  0.17029910684E+02  0.00000000000E+00 0.  1.
         22    1    4    4    0    0 -0.21456426641E+02 -0.33103382400E+02 -0.32260972420E+02  0.50960597642E+02  0.00000000000E+00 0.  1.
<mgrwt>
<rscale>  0 0.95815874E+02</rscale>
<asrwt>0</asrwt>
<pdfrwt beam="1">  1        1 0.28546961E-02 0.95815874E+02</pdfrwt>
<pdfrwt beam="2">  1       -1 0.19029542E-01 0.95815874E+02</pdfrwt>
<totfact> 0.68623194E+04</totfact>
</mgrwt>
</event>
<event>
 7    1  0.2911475E-009  0.8921401E+02  0.7818608E-02  0.1304766E+00
         -1   -1    0    0    0  501 -0.00000000000E+00  0.00000000000E+00  0.89510089524E+01  0.89510103713E+01  0.50400000000E-02 0.  1.
          1   -1    0    0  501    0  0.00000000000E+00 -0.00000000000E+00 -0.22229726003E+03  0.22229726009E+03  0.50400000000E-02 0. -1.
         23    2    1    2    0    0  0.00000000000E+00  0.00000000000E+00 -0.21334625108E+03  0.23124827046E+03  0.89214010901E+02 0.  0.
    9000005    2    3    3    0    0 -0.18960880778E+02  0.11870491927E+02 -0.20640861035E+03  0.20782703144E+03  0.93347196149E+01 0.  0.
         22    1    3    3    0    0  0.18960880778E+02 -0.11870491927E+02 -0.69376407265E+01  0.23421239022E+02  0.00000000000E+00 0.  1.
         22    1    4    4    0    0 -0.11288132375E+02  0.29072188450E+01 -0.12883820016E+03  0.12936442971E+03  0.00000000000E+00 0. -1.
         22    1    4    4    0    0 -0.76727484026E+01  0.89632730816E+01 -0.77570410188E+02  0.78462601723E+02  0.00000000000E+00 0. -1.
<mgrwt>
<rscale>  0 0.89214011E+02</rscale>
<asrwt>0</asrwt>
<pdfrwt beam="2">  1        1 0.34199575E-01 0.89214011E+02</pdfrwt>
<pdfrwt beam="1">  1       -1 0.13770786E-02 0.89214011E+02</pdfrwt>
<totfact> 0.12810514E+05</totfact>
</mgrwt>
</event>
<event>
 7    1  0.2911475E-009  0.8795358E+02  0.7818608E-02  0.1307884E+00
          1   -1    0    0  501    0  0.00000000000E+00  0.00000000000E+00  0.13120270781E+02  0.13120271749E+02  0.50400000000E-02 0. -1.
         -1   -1    0    0    0  501 -0.00000000000E+00 -0.00000000000E+00 -0.14740229471E+03  0.14740229480E+03  0.50400000000E-02 0.  1.
         23    2    1    2    0    0  0.00000000000E+00  0.35527136788E-14 -0.13428202393E+03  0.16052256655E+03  0.87953581053E+02 0.  0.
    9000005    2    3    3    0    0  0.35707805555E+02 -0.24436703973E+02 -0.72054975754E+02  0.84730710762E+02  0.10731912072E+02 0.  0.
         22    1    3    3    0    0 -0.35707805555E+02  0.24436703973E+02 -0.62227048176E+02  0.75791855785E+02  0.00000000000E+00 0.  1.
         22    1    4    4    0    0  0.72937006315E+01 -0.75459040730E+01 -0.10407502789E+02  0.14780218249E+02  0.00000000000E+00 0.  1.
         22    1    4    4    0    0  0.28414104923E+02 -0.16890799900E+02 -0.61647472965E+02  0.69950492513E+02  0.00000000000E+00 0.  1.
<mgrwt>
<rscale>  0 0.87953581E+02</rscale>
<asrwt>0</asrwt>
<pdfrwt beam="1">  1        1 0.20185034E-02 0.87953581E+02</pdfrwt>
<pdfrwt beam="2">  1       -1 0.22677275E-01 0.87953581E+02</pdfrwt>
<totfact> 0.82431349E+04</totfact>
</mgrwt>
</event>
<event>
 7    1  0.2911475E-009  0.9155311E+02  0.7818608E-02  0.1299134E+00
          1   -1    0    0  501    0  0.00000000000E+00  0.00000000000E+00  0.61560400357E+03  0.61560400359E+03  0.50400000000E-02 0. -1.
         -1   -1    0    0    0  501 -0.00000000000E+00 -0.00000000000E+00 -0.34039607064E+01  0.34039644376E+01  0.50400000000E-02 0.  1.
         23    2    1    2    0    0  0.00000000000E+00  0.00000000000E+00  0.61220004286E+03  0.61900796802E+03  0.91553110271E+02 0.  0.
    9000005    2    3    3    0    0 -0.29140650683E+02 -0.15664128041E+02  0.51985917515E+03  0.52091934341E+03  0.29762259219E+01 0.  0.
         22    1    3    3    0    0  0.29140650683E+02  0.15664128041E+02  0.92340867708E+02  0.98088624614E+02  0.00000000000E+00 0.  1.
         22    1    4    4    0    0 -0.11862142595E+01 -0.23492305944E+00  0.13301981254E+02  0.13356833397E+02  0.00000000000E+00 0. -1.
         22    1    4    4    0    0 -0.27954436423E+02 -0.15429204981E+02  0.50655719390E+03  0.50756251001E+03  0.00000000000E+00 0. -1.
<mgrwt>
<rscale>  0 0.91553110E+02</rscale>
<asrwt>0</asrwt>
<pdfrwt beam="1">  1        1 0.94708264E-01 0.91553110E+02</pdfrwt>
<pdfrwt beam="2">  1       -1 0.52368679E-03 0.91553110E+02</pdfrwt>
<totfact> 0.14024883E+05</totfact>
</mgrwt>
</event>
<event>
 7    1  0.2911475E-009  0.1226050E+03  0.7818608E-02  0.1238860E+00
         -1   -1    0    0    0  501 -0.00000000000E+00  0.00000000000E+00  0.18060467051E+02  0.18060467754E+02  0.50400000000E-02 0.  1.
          1   -1    0    0  501    0  0.00000000000E+00 -0.00000000000E+00 -0.20807865964E+03  0.20807865970E+03  0.50400000000E-02 0. -1.
         23    2    1    2    0    0  0.00000000000E+00  0.00000000000E+00 -0.19001819259E+03  0.22613912746E+03  0.12260502213E+03 0.  0.
    9000005    2    3    3    0    0  0.50099035014E+01  0.35866208068E+02 -0.70279519729E+01  0.39599822817E+02  0.14396869240E+02 0.  0.
         22    1    3    3    0    0 -0.50099035014E+01 -0.35866208068E+02 -0.18299024062E+03  0.18653930464E+03  0.00000000000E+00 0. -1.
         22    1    4    4    0    0  0.45934783000E+01  0.35883518396E+02 -0.92490570826E+01  0.37339951691E+02  0.00000000000E+00 0. -1.
         22    1    4    4    0    0  0.41642520141E+00 -0.17310328175E-01  0.22211051097E+01  0.22598711256E+01  0.00000000000E+00 0. -1.
<mgrwt>
<rscale>  0 0.12260502E+03</rscale>
<asrwt>0</asrwt>
<pdfrwt beam="2">  1        1 0.32012100E-01 0.12260502E+03</pdfrwt>
<pdfrwt beam="1">  1       -1 0.27785336E-02 0.12260502E+03</pdfrwt>
<totfact> 0.53216157E+04</totfact>
</mgrwt>
</event>
<event>
 7    1  0.2911475E-009  0.9254941E+02  0.7818608E-02  0.1296793E+00
         -1   -1    0    0    0  501 -0.00000000000E+00  0.00000000000E+00  0.14775441483E+02  0.14775442342E+02  0.50400000000E-02 0. -1.
          1   -1    0    0  501    0  0.00000000000E+00 -0.00000000000E+00 -0.14492617879E+03  0.14492617888E+03  0.50400000000E-02 0.  1.
         23    2    1    2    0    0  0.00000000000E+00  0.71054273576E-14 -0.13015073731E+03  0.15970162122E+03  0.92549410580E+02 0.  0.
    9000005    2    3    3    0    0 -0.31256302358E+02  0.33485817308E+02 -0.54351618176E+02  0.71136600704E+02  0.28392188328E+01 0.  0.
         22    1    3    3    0    0  0.31256302358E+02 -0.33485817308E+02 -0.75799119133E+02  0.88565020517E+02  0.00000000000E+00 0.  1.
         22    1    4    4    0    0 -0.27289473690E+02  0.28924027115E+02 -0.48562031687E+02  0.62766118570E+02  0.00000000000E+00 0.  1.
         22    1    4    4    0    0 -0.39668286678E+01  0.45617901925E+01 -0.57895864889E+01  0.83704821339E+01  0.00000000000E+00 0.  1.
<mgrwt>
<rscale>  0 0.92549411E+02</rscale>
<asrwt>0</asrwt>
<pdfrwt beam="2">  1        1 0.22296334E-01 0.92549411E+02</pdfrwt>
<pdfrwt beam="1">  1       -1 0.22731450E-02 0.92549411E+02</pdfrwt>
<totfact> 0.10701508E+05</totfact>
</mgrwt>
</event>
<event>
 7    1  0.2911475E-009  0.9041899E+02  0.7818608E-02  0.1301840E+00
          1   -1    0    0  501    0  0.00000000000E+00  0.00000000000E+00  0.20948555585E+02  0.20948556191E+02  0.50400000000E-02 0. -1.
         -1   -1    0    0    0  501 -0.00000000000E+00 -0.00000000000E+00 -0.97567504141E+02  0.97567504271E+02  0.50400000000E-02 0.  1.
         23    2    1    2    0    0  0.00000000000E+00  0.00000000000E+00 -0.76618948556E+02  0.11851606046E+03  0.90418987550E+02 0.  0.
    9000005    2    3    3    0    0 -0.36401413083E+01 -0.36860427127E+02 -0.66345502439E+01  0.39334258740E+02  0.11455345345E+02 0.  0.
         22    1    3    3    0    0  0.36401413083E+01  0.36860427127E+02 -0.69984398312E+02  0.79181801721E+02  0.00000000000E+00 0.  1.
         22    1    4    4    0    0 -0.17073511543E+01 -0.96560629420E+01  0.32422763338E+01  0.10327969565E+02  0.00000000000E+00 0. -1.
         22    1    4    4    0    0 -0.19327901540E+01 -0.27204364185E+02 -0.98768265776E+01  0.29006289175E+02  0.00000000000E+00 0. -1.
<mgrwt>
<rscale>  0 0.90418988E+02</rscale>
<asrwt>0</asrwt>
<pdfrwt beam="1">  1        1 0.32228548E-02 0.90418988E+02</pdfrwt>
<pdfrwt beam="2">  1       -1 0.15010385E-01 0.90418988E+02</pdfrwt>
<totfact> 0.83515413E+04</totfact>
</mgrwt>
</event>
<event>
 7    1  0.2911475E-009  0.1097445E+03  0.7818608E-02  0.1261044E+00
          1   -1    0    0  501    0  0.00000000000E+00  0.00000000000E+00  0.57196987627E+02  0.57196987849E+02  0.50400000000E-02 0. -1.
         -1   -1    0    0    0  501 -0.00000000000E+00 -0.00000000000E+00 -0.52642012749E+02  0.52642012990E+02  0.50400000000E-02 0.  1.
         23    2    1    2    0    0  0.00000000000E+00  0.00000000000E+00  0.45549748783E+01  0.10983900084E+03  0.10974451380E+03 0.  0.
    9000005    2    3    3    0    0  0.32542850745E+02  0.91852196014E+01 -0.40600030223E+02  0.53426414660E+02  0.79128967899E+01 0.  0.
         22    1    3    3    0    0 -0.32542850745E+02 -0.91852196014E+01  0.45155005101E+02  0.56412586179E+02  0.00000000000E+00 0. -1.
         22    1    4    4    0    0  0.98711768576E+01  0.42821202145E+01 -0.79623924387E+01  0.13385678146E+02  0.00000000000E+00 0.  1.
         22    1    4    4    0    0  0.22671673888E+02  0.49030993869E+01 -0.32637637784E+02  0.40040736514E+02  0.00000000000E+00 0.  1.
<mgrwt>
<rscale>  0 0.10974451E+03</rscale>
<asrwt>0</asrwt>
<pdfrwt beam="1">  1        1 0.87995366E-02 0.10974451E+03</pdfrwt>
<pdfrwt beam="2">  1       -1 0.80987712E-02 0.10974451E+03</pdfrwt>
<totfact> 0.56716321E+04</totfact>
</mgrwt>
</event>
<event>
 7    1  0.2911475E-009  0.9179384E+02  0.7818608E-02  0.1298565E+00
         -1   -1    0    0    0  501 -0.00000000000E+00  0.00000000000E+00  0.89169267103E+02  0.89169267245E+02  0.50400000000E-02 0.  1.
          1   -1    0    0  501    0  0.00000000000E+00 -0.00000000000E+00 -0.23623915550E+02  0.23623916088E+02  0.50400000000E-02 0. -1.
         23    2    1    2    0    0  0.00000000000E+00  0.00000000000E+00  0.65545351552E+02  0.11279318333E+03  0.91793840187E+02 0.  0.
    9000005    2    3    3    0    0  0.24200799188E+02 -0.31778045361E+02  0.59988283772E+02  0.72464485727E+02  0.75488180243E+01 0.  0.
         22    1    3    3    0    0 -0.24200799188E+02  0.31778045361E+02  0.55570677806E+01  0.40328697606E+02  0.00000000000E+00 0. -1.
         22    1    4    4    0    0  0.58688529460E+01 -0.13005785033E+02  0.24104715188E+02  0.28011268688E+02  0.00000000000E+00 0. -1.
         22    1    4    4    0    0  0.18331946242E+02 -0.18772260328E+02  0.35883568584E+02  0.44453217039E+02  0.00000000000E+00 0. -1.
<mgrwt>
<rscale>  0 0.91793840E+02</rscale>
<asrwt>0</asrwt>
<pdfrwt beam="2">  1        1 0.36344486E-02 0.91793840E+02</pdfrwt>
<pdfrwt beam="1">  1       -1 0.13718349E-01 0.91793840E+02</pdfrwt>
<totfact> 0.81650459E+04</totfact>
</mgrwt>
</event>
<event>
 6    1  0.2911475E-009  0.2005075E+03  0.7818608E-02  0.1149311E+00
         -1   -1    0    0    0  501 -0.00000000000E+00  0.00000000000E+00  0.53151677291E+02  0.53151677530E+02  0.50400000000E-02 0.  1.
          1   -1    0    0  501    0  0.00000000000E+00 -0.00000000000E+00 -0.18909692907E+03  0.18909692913E+03  0.50400000000E-02 0. -1.
    9000005    2    1    2    0    0  0.29954625242E+02 -0.92937138602E+02 -0.93277047091E+02  0.13568798075E+03  0.13267603401E+02 0.  0.
         22    1    1    2    0    0 -0.29954625242E+02  0.92937138602E+02 -0.42668204684E+02  0.10656062592E+03  0.00000000000E+00 0.  1.
         22    1    3    3    0    0  0.14210139446E+02 -0.51498825717E+02 -0.59448125640E+02  0.79925820330E+02  0.00000000000E+00 0. -1.
         22    1    3    3    0    0  0.15744485796E+02 -0.41438312885E+02 -0.33828921451E+02  0.55762160416E+02  0.00000000000E+00 0. -1.
<mgrwt>
<rscale>  0 0.20050755E+03</rscale>
<asrwt>0</asrwt>
<pdfrwt beam="2">  1        1 0.29091835E-01 0.20050755E+03</pdfrwt>
<pdfrwt beam="1">  1       -1 0.81771812E-02 0.20050755E+03</pdfrwt>
<totfact> 0.12689168E+04</totfact>
</mgrwt>
</event>
<event>
 7    1  0.2911475E-009  0.9159704E+02  0.7818608E-02  0.1299030E+00
          1   -1    0    0  501    0  0.00000000000E+00  0.00000000000E+00  0.76528969371E+01  0.76528985967E+01  0.50400000000E-02 0. -1.
         -1   -1    0    0    0  501 -0.00000000000E+00 -0.00000000000E+00 -0.27407976369E+03  0.27407976373E+03  0.50400000000E-02 0.  1.
         23    2    1    2    0    0  0.00000000000E+00  0.00000000000E+00 -0.26642686675E+03  0.28173266233E+03  0.91597039785E+02 0.  0.
    9000005    2    3    3    0    0  0.41555347001E+02 -0.43224046683E+01 -0.84819319348E+02  0.95381297109E+02  0.12559651948E+02 0.  0.
         22    1    3    3    0    0 -0.41555347001E+02  0.43224046683E+01 -0.18160754740E+03  0.18635136522E+03  0.00000000000E+00 0. -1.
         22    1    4    4    0    0  0.91413564845E+01 -0.57102353739E+01 -0.15919542688E+02  0.19225062439E+02  0.00000000000E+00 0. -1.
         22    1    4    4    0    0  0.32413990516E+02  0.13878307056E+01 -0.68899776660E+02  0.76156234669E+02  0.00000000000E+00 0. -1.
<mgrwt>
<rscale>  0 0.91597040E+02</rscale>
<asrwt>0</asrwt>
<pdfrwt beam="1">  1        1 0.11773691E-02 0.91597040E+02</pdfrwt>
<pdfrwt beam="2">  1       -1 0.42166110E-01 0.91597040E+02</pdfrwt>
<totfact> 0.61950643E+04</totfact>
</mgrwt>
</event>
<event>
 7    1  0.2911475E-009  0.9108840E+02  0.7818608E-02  0.1300237E+00
         -1   -1    0    0    0  501 -0.00000000000E+00  0.00000000000E+00  0.32597844949E+02  0.32597845339E+02  0.50400000000E-02 0.  1.
          1   -1    0    0  501    0  0.00000000000E+00 -0.00000000000E+00 -0.63632241738E+02  0.63632241937E+02  0.50400000000E-02 0. -1.
         23    2    1    2    0    0  0.00000000000E+00  0.71054273576E-14 -0.31034396788E+02  0.96230087276E+02  0.91088396150E+02 0.  0.
    9000005    2    3    3    0    0  0.82465205176E+01  0.33239227110E+02 -0.46298124936E+02  0.58735651469E+02  0.11554612124E+02 0.  0.
         22    1    3    3    0    0 -0.82465205176E+01 -0.33239227110E+02  0.15263728148E+02  0.37494435807E+02  0.00000000000E+00 0.  1.
         22    1    4    4    0    0  0.57432619515E+01  0.54928667473E+01 -0.13856313423E+02  0.15973542644E+02  0.00000000000E+00 0.  1.
         22    1    4    4    0    0  0.25032585662E+01  0.27746360363E+02 -0.32441811513E+02  0.42762108825E+02  0.00000000000E+00 0.  1.
<mgrwt>
<rscale>  0 0.91088396E+02</rscale>
<asrwt>0</asrwt>
<pdfrwt beam="2">  1        1 0.97895757E-02 0.91088396E+02</pdfrwt>
<pdfrwt beam="1">  1       -1 0.50150531E-02 0.91088396E+02</pdfrwt>
<totfact> 0.97496768E+04</totfact>
</mgrwt>
</event>
<event>
 7    1  0.2911475E-009  0.9206831E+02  0.7818608E-02  0.1297919E+00
         -1   -1    0    0    0  501 -0.00000000000E+00  0.00000000000E+00  0.46672309635E+01  0.46672336848E+01  0.50400000000E-02 0.  1.
          1   -1    0    0  501    0  0.00000000000E+00 -0.00000000000E+00 -0.45404713879E+03  0.45404713881E+03  0.50400000000E-02 0. -1.
         23    2    1    2    0    0  0.00000000000E+00  0.00000000000E+00 -0.44937990782E+03  0.45871437250E+03  0.92068311500E+02 0.  0.
    9000005    2    3    3    0    0  0.22654088053E+02  0.16564432089E+02 -0.40546165294E+03  0.40659526633E+03  0.11531282708E+02 0.  0.
         22    1    3    3    0    0 -0.22654088053E+02 -0.16564432089E+02 -0.43918254882E+02  0.52119106169E+02  0.00000000000E+00 0.  1.
         22    1    4    4    0    0  0.22149122060E+02  0.17170952334E+02 -0.34751142900E+03  0.34863966857E+03  0.00000000000E+00 0.  1.
         22    1    4    4    0    0  0.50496599297E+00 -0.60652024518E+00 -0.57950223938E+02  0.57955597762E+02  0.00000000000E+00 0.  1.
<mgrwt>
<rscale>  0 0.92068311E+02</rscale>
<asrwt>0</asrwt>
<pdfrwt beam="2">  1        1 0.69853371E-01 0.92068311E+02</pdfrwt>
<pdfrwt beam="1">  1       -1 0.71803610E-03 0.92068311E+02</pdfrwt>
<totfact> 0.13402516E+05</totfact>
</mgrwt>
</event>
<event>
 7    1  0.2911475E-009  0.9062363E+02  0.7818608E-02  0.1301348E+00
         -1   -1    0    0    0  501 -0.00000000000E+00  0.00000000000E+00  0.55657194247E+01  0.55657217066E+01  0.50400000000E-02 0.  1.
          1   -1    0    0  501    0  0.00000000000E+00 -0.00000000000E+00 -0.36889391561E+03  0.36889391564E+03  0.50400000000E-02 0. -1.
         23    2    1    2    0    0  0.00000000000E+00  0.00000000000E+00 -0.36332819618E+03  0.37445963735E+03  0.90623627503E+02 0.  0.
    9000005    2    3    3    0    0  0.25531436082E+02 -0.88692177631E+01 -0.33185096335E+03  0.33297068172E+03  0.37277015678E+01 0.  0.
         22    1    3    3    0    0 -0.25531436082E+02  0.88692177631E+01 -0.31477232837E+02  0.41488955629E+02  0.00000000000E+00 0.  1.
         22    1    4    4    0    0  0.10116186087E+02 -0.26423446342E+01 -0.14842687143E+03  0.14879467521E+03  0.00000000000E+00 0.  1.
         22    1    4    4    0    0  0.15415249994E+02 -0.62268731288E+01 -0.18342409191E+03  0.18417600651E+03  0.00000000000E+00 0.  1.
<mgrwt>
<rscale>  0 0.90623628E+02</rscale>
<asrwt>0</asrwt>
<pdfrwt beam="2">  1        1 0.56752891E-01 0.90623628E+02</pdfrwt>
<pdfrwt beam="1">  1       -1 0.85626499E-03 0.90623628E+02</pdfrwt>
<totfact> 0.13522471E+05</totfact>
</mgrwt>
</event>
<event>
 7    1  0.2911475E-009  0.9115399E+02  0.7818608E-02  0.1300081E+00
         -1   -1    0    0    0  501 -0.00000000000E+00  0.00000000000E+00  0.10571525450E+02  0.10571526651E+02  0.50400000000E-02 0.  1.
          1   -1    0    0  501    0  0.00000000000E+00 -0.00000000000E+00 -0.19649598916E+03  0.19649598923E+03  0.50400000000E-02 0. -1.
         23    2    1    2    0    0  0.00000000000E+00  0.22204460493E-15 -0.18592446371E+03  0.20706751588E+03  0.91153990176E+02 0.  0.
    9000005    2    3    3    0    0 -0.22963401970E+02  0.17968461277E+01 -0.18212155304E+03  0.18372209629E+03  0.74163400476E+01 0.  0.
         22    1    3    3    0    0  0.22963401970E+02 -0.17968461277E+01 -0.38029106772E+01  0.23345419586E+02  0.00000000000E+00 0.  1.
         22    1    4    4    0    0 -0.40252065126E+00 -0.94599126867E+00 -0.18644259860E+02  0.18672582791E+02  0.00000000000E+00 0. -1.
         22    1    4    4    0    0 -0.22560881319E+02  0.27428373963E+01 -0.16347729318E+03  0.16504951350E+03  0.00000000000E+00 0. -1.
<mgrwt>
<rscale>  0 0.91153990E+02</rscale>
<asrwt>0</asrwt>
<pdfrwt beam="2">  1        1 0.30230150E-01 0.91153990E+02</pdfrwt>
<pdfrwt beam="1">  1       -1 0.16263888E-02 0.91153990E+02</pdfrwt>
<totfact> 0.11808063E+05</totfact>
</mgrwt>
</event>
<event>
 7    1  0.2911475E-009  0.9325691E+02  0.7818608E-02  0.1295151E+00
         -1   -1    0    0    0  501 -0.00000000000E+00  0.00000000000E+00  0.78140882593E+02  0.78140882755E+02  0.50400000000E-02 0.  1.
          1   -1    0    0  501    0  0.00000000000E+00 -0.00000000000E+00 -0.27824267864E+02  0.27824268320E+02  0.50400000000E-02 0. -1.
         23    2    1    2    0    0  0.00000000000E+00  0.17763568394E-14  0.50316614729E+02  0.10596515108E+03  0.93256911404E+02 0.  0.
    9000005    2    3    3    0    0 -0.34159058133E+02 -0.12903081871E+02 -0.69295403646E+01  0.38064834086E+02  0.82208448493E+01 0.  0.
         22    1    3    3    0    0  0.34159058133E+02  0.12903081871E+02  0.57246155093E+02  0.67900316989E+02  0.00000000000E+00 0.  1.
         22    1    4    4    0    0 -0.52422016207E+01 -0.27866452213E+01 -0.42725968150E+01  0.73144482338E+01  0.00000000000E+00 0. -1.
         22    1    4    4    0    0 -0.28916856512E+02 -0.10116436649E+02 -0.26569435496E+01  0.30750385852E+02  0.00000000000E+00 0. -1.
<mgrwt>
<rscale>  0 0.93256911E+02</rscale>
<asrwt>0</asrwt>
<pdfrwt beam="2">  1        1 0.42806567E-02 0.93256911E+02</pdfrwt>
<pdfrwt beam="1">  1       -1 0.12021674E-01 0.93256911E+02</pdfrwt>
<totfact> 0.80215618E+04</totfact>
</mgrwt>
</event>
<event>
 7    1  0.2911475E-009  0.8454485E+02  0.7818608E-02  0.1316627E+00
         -1   -1    0    0    0  501 -0.00000000000E+00  0.00000000000E+00  0.75172164723E+02  0.75172164892E+02  0.50400000000E-02 0.  1.
          1   -1    0    0  501    0  0.00000000000E+00 -0.00000000000E+00 -0.23771538799E+02  0.23771539334E+02  0.50400000000E-02 0. -1.
         23    2    1    2    0    0  0.00000000000E+00  0.00000000000E+00  0.51400625924E+02  0.98943704226E+02  0.84544853543E+02 0.  0.
    9000005    2    3    3    0    0  0.29063336259E+02 -0.14422463506E+02  0.57091192653E+02  0.66003341177E+02  0.66597146959E+01 0.  0.
         22    1    3    3    0    0 -0.29063336259E+02  0.14422463506E+02 -0.56905667290E+01  0.32940363049E+02  0.00000000000E+00 0. -1.
         22    1    4    4    0    0 -0.61601319998E-01 -0.90519097610E+00  0.85762023879E+00  0.12484702238E+01  0.00000000000E+00 0. -1.
         22    1    4    4    0    0  0.29124937579E+02 -0.13517272530E+02  0.56233572414E+02  0.64754870953E+02  0.00000000000E+00 0. -1.
<mgrwt>
<rscale>  0 0.84544854E+02</rscale>
<asrwt>0</asrwt>
<pdfrwt beam="2">  1        1 0.36571599E-02 0.84544854E+02</pdfrwt>
<pdfrwt beam="1">  1       -1 0.11564948E-01 0.84544854E+02</pdfrwt>
<totfact> 0.10370865E+05</totfact>
</mgrwt>
</event>
<event>
 7    1  0.2911475E-009  0.9117329E+02  0.7818608E-02  0.1300035E+00
          1   -1    0    0  501    0  0.00000000000E+00  0.00000000000E+00  0.76083506497E+02  0.76083506664E+02  0.50400000000E-02 0. -1.
         -1   -1    0    0    0  501 -0.00000000000E+00 -0.00000000000E+00 -0.27313961429E+02  0.27313961894E+02  0.50400000000E-02 0.  1.
         23    2    1    2    0    0  0.00000000000E+00  0.00000000000E+00  0.48769545068E+02  0.10339746856E+03  0.91173285441E+02 0.  0.
    9000005    2    3    3    0    0  0.27671465264E+02  0.75292811902E+01 -0.14520284700E+02  0.33913638661E+02  0.10811852494E+02 0.  0.
         22    1    3    3    0    0 -0.27671465264E+02 -0.75292811902E+01  0.63289829768E+02  0.69483829897E+02  0.00000000000E+00 0. -1.
         22    1    4    4    0    0  0.26163584677E+02  0.38237599414E+01 -0.13876683717E+02  0.29861625110E+02  0.00000000000E+00 0.  1.
         22    1    4    4    0    0  0.15078805869E+01  0.37055212488E+01 -0.64360098303E+00  0.40520135507E+01  0.00000000000E+00 0.  1.
<mgrwt>
<rscale>  0 0.91173285E+02</rscale>
<asrwt>0</asrwt>
<pdfrwt beam="1">  1        1 0.11705155E-01 0.91173285E+02</pdfrwt>
<pdfrwt beam="2">  1       -1 0.42021480E-02 0.91173285E+02</pdfrwt>
<totfact> 0.99963756E+04</totfact>
</mgrwt>
</event>
<event>
 7    1  0.2911475E-009  0.8395342E+02  0.7818608E-02  0.1318192E+00
          1   -1    0    0  501    0  0.00000000000E+00  0.00000000000E+00  0.13405091261E+04  0.13405091262E+04  0.50400000000E-02 0. -1.
         -1   -1    0    0    0  501 -0.00000000000E+00 -0.00000000000E+00 -0.13144541340E+01  0.13144637964E+01  0.50400000000E-02 0.  1.
         23    2    1    2    0    0  0.00000000000E+00  0.00000000000E+00  0.13391946720E+04  0.13418235899E+04  0.83953421647E+02 0.  0.
    9000005    2    3    3    0    0  0.33892080380E+00 -0.22606431132E+02  0.12332287477E+04  0.12334725737E+04  0.95016027247E+01 0.  0.
         22    1    3    3    0    0 -0.33892080380E+00  0.22606431132E+02  0.10596592433E+03  0.10835101621E+03  0.00000000000E+00 0.  1.
         22    1    4    4    0    0 -0.25464755219E+01 -0.20041970996E+02  0.11085357304E+04  0.11087198161E+04  0.00000000000E+00 0.  1.
         22    1    4    4    0    0  0.28853963257E+01 -0.25644601358E+01  0.12469301728E+03  0.12475275759E+03  0.00000000000E+00 0.  1.
<mgrwt>
<rscale>  0 0.83953422E+02</rscale>
<asrwt>0</asrwt>
<pdfrwt beam="1">  1        1 0.20623196E+00 0.83953422E+02</pdfrwt>
<pdfrwt beam="2">  1       -1 0.20222466E-03 0.83953422E+02</pdfrwt>
<totfact> 0.14895525E+05</totfact>
</mgrwt>
</event>
<event>
 7    1  0.2911475E-009  0.9087299E+02  0.7818608E-02  0.1300751E+00
         -1   -1    0    0    0  501 -0.00000000000E+00  0.00000000000E+00  0.15824444303E+01  0.15824524564E+01  0.50400000000E-02 0.  1.
          1   -1    0    0  501    0  0.00000000000E+00 -0.00000000000E+00 -0.13046080057E+04  0.13046080057E+04  0.50400000000E-02 0. -1.
         23    2    1    2    0    0  0.00000000000E+00 -0.35527136788E-14 -0.13030255613E+04  0.13061904582E+04  0.90872986537E+02 0.  0.
    9000005    2    3    3    0    0 -0.15998323255E+02  0.19831991863E+02 -0.11881044215E+04  0.11884784256E+04  0.15478935581E+02 0.  0.
         22    1    3    3    0    0  0.15998323255E+02 -0.19831991863E+02 -0.11492113976E+03  0.11771203257E+03  0.00000000000E+00 0.  1.
         22    1    4    4    0    0  0.18539485562E+01 -0.12083713973E+01 -0.81626452327E+02  0.81656444976E+02  0.00000000000E+00 0. -1.
         22    1    4    4    0    0 -0.17852271811E+02  0.21040363260E+02 -0.11064779692E+04  0.11068219806E+04  0.00000000000E+00 0. -1.
<mgrwt>
<rscale>  0 0.90872987E+02</rscale>
<asrwt>0</asrwt>
<pdfrwt beam="2">  1        1 0.20070806E+00 0.90872987E+02</pdfrwt>
<pdfrwt beam="1">  1       -1 0.24345465E-03 0.90872987E+02</pdfrwt>
<totfact> 0.12289716E+05</totfact>
</mgrwt>
</event>
<event>
 7    1  0.2911475E-009  0.9253092E+02  0.7818608E-02  0.1296836E+00
          1   -1    0    0  501    0  0.00000000000E+00  0.00000000000E+00  0.16448657098E+02  0.16448657870E+02  0.50400000000E-02 0. -1.
         -1   -1    0    0    0  501 -0.00000000000E+00 -0.00000000000E+00 -0.13013176107E+03  0.13013176116E+03  0.50400000000E-02 0.  1.
         23    2    1    2    0    0  0.00000000000E+00  0.00000000000E+00 -0.11368310397E+03  0.14658041903E+03  0.92530919786E+02 0.  0.
    9000005    2    3    3    0    0 -0.12836678345E+02  0.41672105055E+02 -0.79165866271E+02  0.90967611616E+02  0.10321207775E+02 0.  0.
         22    1    3    3    0    0  0.12836678345E+02 -0.41672105055E+02 -0.34517237696E+02  0.55612807417E+02  0.00000000000E+00 0. -1.
         22    1    4    4    0    0 -0.29685470152E+01  0.19548829391E+02 -0.27144988695E+02  0.33583022693E+02  0.00000000000E+00 0. -1.
         22    1    4    4    0    0 -0.98681313299E+01  0.22123275665E+02 -0.52020877576E+02  0.57384588923E+02  0.00000000000E+00 0. -1.
<mgrwt>
<rscale>  0 0.92530920E+02</rscale>
<asrwt>0</asrwt>
<pdfrwt beam="1">  1        1 0.25305628E-02 0.92530920E+02</pdfrwt>
<pdfrwt beam="2">  1       -1 0.20020270E-01 0.92530920E+02</pdfrwt>
<totfact> 0.74312954E+04</totfact>
</mgrwt>
</event>
<event>
 7    1  0.2911475E-009  0.8946621E+02  0.7818608E-02  0.1304150E+00
         -1   -1    0    0    0  501 -0.00000000000E+00  0.00000000000E+00  0.38732048917E+02  0.38732049244E+02  0.50400000000E-02 0.  1.
          1   -1    0    0  501    0  0.00000000000E+00 -0.00000000000E+00 -0.51663949880E+02  0.51663950126E+02  0.50400000000E-02 0. -1.
         23    2    1    2    0    0  0.88817841970E-15  0.35527136788E-14 -0.12931900964E+02  0.90395999371E+02  0.89466209485E+02 0.  0.
    9000005    2    3    3    0    0 -0.64591118198E+01 -0.23041496450E+02 -0.44609657233E+02  0.50695735815E+02  0.27212914552E+01 0.  0.
         22    1    3    3    0    0  0.64591118198E+01  0.23041496450E+02  0.31677756270E+02  0.39700263556E+02  0.00000000000E+00 0.  1.
         22    1    4    4    0    0  0.24641527892E+00 -0.74560563668E+00 -0.18160236482E+01  0.19785323212E+01  0.00000000000E+00 0.  1.
         22    1    4    4    0    0 -0.67055270988E+01 -0.22295890813E+02 -0.42793633585E+02  0.48717203494E+02  0.00000000000E+00 0.  1.
<mgrwt>
<rscale>  0 0.89466209E+02</rscale>
<asrwt>0</asrwt>
<pdfrwt beam="2">  1        1 0.79483000E-02 0.89466209E+02</pdfrwt>
<pdfrwt beam="1">  1       -1 0.59587768E-02 0.89466209E+02</pdfrwt>
<totfact> 0.99328451E+04</totfact>
</mgrwt>
</event>
<event>
 7    1  0.4383158E-009  0.8977050E+02  0.7818608E-02  0.1303408E+00
          1   -1    0    0  501    0  0.00000000000E+00  0.00000000000E+00  0.33231352159E+03  0.33231352163E+03  0.50400000000E-02 0. -1.
         -1   -1    0    0    0  501 -0.00000000000E+00 -0.00000000000E+00 -0.60626042770E+01  0.60626063720E+01  0.50400000000E-02 0.  1.
         23    2    1    2    0    0  0.00000000000E+00  0.00000000000E+00  0.32625091732E+03  0.33837612800E+03  0.89770501574E+02 0.  0.
    9000005    2    3    3    0    0 -0.33122685588E+02 -0.19784243625E+02  0.24585024326E+03  0.24919767217E+03  0.12984956955E+02 0.  0.
         22    1    3    3    0    0  0.33122685588E+02  0.19784243625E+02  0.80400674060E+02  0.89178455838E+02  0.00000000000E+00 0.  1.
         22    1    4    4    0    0 -0.19777319786E+02 -0.18330004790E+02  0.14883158567E+03  0.15125466058E+03  0.00000000000E+00 0. -1.
         22    1    4    4    0    0 -0.13345365801E+02 -0.14542388350E+01  0.97018657587E+02  0.97943011588E+02  0.00000000000E+00 0. -1.
<mgrwt>
<rscale>  0 0.89770502E+02</rscale>
<asrwt>0</asrwt>
<pdfrwt beam="1">  1        1 0.51125176E-01 0.89770502E+02</pdfrwt>
<pdfrwt beam="2">  1       -1 0.93270818E-03 0.89770502E+02</pdfrwt>
<totfact> 0.13610863E+05</totfact>
</mgrwt>
</event>
<event>
 7    1  0.2911475E-009  0.1058725E+03  0.7818608E-02  0.1268410E+00
          1   -1    0    0  501    0  0.00000000000E+00  0.00000000000E+00  0.44060996742E+02  0.44060997030E+02  0.50400000000E-02 0. -1.
         -1   -1    0    0    0  501 -0.00000000000E+00 -0.00000000000E+00 -0.63599208356E+02  0.63599208556E+02  0.50400000000E-02 0.  1.
         23    2    1    2    0    0  0.00000000000E+00  0.00000000000E+00 -0.19538211614E+02  0.10766020559E+03  0.10587246173E+03 0.  0.
    9000005    2    3    3    0    0 -0.16773209246E+02 -0.39837716570E+02 -0.39228498307E+02  0.60161872984E+02  0.14566800321E+02 0.  0.
         22    1    3    3    0    0  0.16773209246E+02  0.39837716570E+02  0.19690286693E+02  0.47498332602E+02  0.00000000000E+00 0. -1.
         22    1    4    4    0    0  0.16422460173E+01 -0.81062684921E+01 -0.11541072377E+02  0.14198764470E+02  0.00000000000E+00 0.  1.
         22    1    4    4    0    0 -0.18415455264E+02 -0.31731448078E+02 -0.27687425930E+02  0.45963108514E+02  0.00000000000E+00 0.  1.
<mgrwt>
<rscale>  0 0.10587246E+03</rscale>
<asrwt>0</asrwt>
<pdfrwt beam="1">  1        1 0.67786150E-02 0.10587246E+03</pdfrwt>
<pdfrwt beam="2">  1       -1 0.97844936E-02 0.10587246E+03</pdfrwt>
<totfact> 0.60100358E+04</totfact>
</mgrwt>
</event>
<event>
 7    1  0.2911475E-009  0.9189258E+02  0.7818608E-02  0.1298332E+00
          1   -1    0    0  501    0  0.00000000000E+00  0.00000000000E+00  0.65643578569E+03  0.65643578571E+03  0.50400000000E-02 0. -1.
         -1   -1    0    0    0  501 -0.00000000000E+00 -0.00000000000E+00 -0.32159436291E+01  0.32159475784E+01  0.50400000000E-02 0.  1.
         23    2    1    2    0    0  0.00000000000E+00 -0.35527136788E-14  0.65321984206E+03  0.65965173328E+03  0.91892584942E+02 0.  0.
    9000005    2    3    3    0    0 -0.30195540044E+02  0.31137912189E+02  0.43280694242E+03  0.43501160655E+03  0.56487352029E+01 0.  0.
         22    1    3    3    0    0  0.30195540044E+02 -0.31137912189E+02  0.22041289963E+03  0.22464012673E+03  0.00000000000E+00 0.  1.
         22    1    4    4    0    0 -0.36352124957E+01  0.49892474770E+01  0.45833238788E+02  0.46247087888E+02  0.00000000000E+00 0. -1.
         22    1    4    4    0    0 -0.26560327548E+02  0.26148664712E+02  0.38697370364E+03  0.38876451866E+03  0.00000000000E+00 0. -1.
<mgrwt>
<rscale>  0 0.91892585E+02</rscale>
<asrwt>0</asrwt>
<pdfrwt beam="1">  1        1 0.10099007E+00 0.91892585E+02</pdfrwt>
<pdfrwt beam="2">  1       -1 0.49476114E-03 0.91892585E+02</pdfrwt>
<totfact> 0.13920417E+05</totfact>
</mgrwt>
</event>
<event>
 7    1  0.2911475E-009  0.9226891E+02  0.7818608E-02  0.1297448E+00
          1   -1    0    0  501    0  0.00000000000E+00  0.00000000000E+00  0.30918237209E+03  0.30918237213E+03  0.50400000000E-02 0. -1.
         -1   -1    0    0    0  501 -0.00000000000E+00 -0.00000000000E+00 -0.68839233061E+01  0.68839251511E+01  0.50400000000E-02 0.  1.
         23    2    1    2    0    0  0.00000000000E+00  0.66613381478E-15  0.30229844878E+03  0.31606629728E+03  0.92268912102E+02 0.  0.
    9000005    2    3    3    0    0  0.43873078732E+02 -0.14636924067E+01  0.11382904361E+03  0.12255219930E+03  0.11618990932E+02 0.  0.
         22    1    3    3    0    0 -0.43873078732E+02  0.14636924067E+01  0.18846940517E+03  0.19351409798E+03  0.00000000000E+00 0. -1.
         22    1    4    4    0    0  0.19051988715E+02  0.50076757486E+01  0.52565448253E+02  0.56135384923E+02  0.00000000000E+00 0.  1.
         22    1    4    4    0    0  0.24821090016E+02 -0.64713681553E+01  0.61263595361E+02  0.66416814377E+02  0.00000000000E+00 0.  1.
<mgrwt>
<rscale>  0 0.92268912E+02</rscale>
<asrwt>0</asrwt>
<pdfrwt beam="1">  1        1 0.47566516E-01 0.92268912E+02</pdfrwt>
<pdfrwt beam="2">  1       -1 0.10590653E-02 0.92268912E+02</pdfrwt>
<totfact> 0.12482989E+05</totfact>
</mgrwt>
</event>
<event>
 7    1  0.2911475E-009  0.9453720E+02  0.7818608E-02  0.1292222E+00
         -1   -1    0    0    0  501 -0.00000000000E+00  0.00000000000E+00  0.10944756254E+01  0.10944872298E+01  0.50400000000E-02 0.  1.
          1   -1    0    0  501    0  0.00000000000E+00 -0.00000000000E+00 -0.20414421092E+04  0.20414421092E+04  0.50400000000E-02 0. -1.
         23    2    1    2    0    0  0.00000000000E+00 -0.88817841970E-15 -0.20403476336E+04  0.20425365964E+04  0.94537198749E+02 0.  0.
    9000005    2    3    3    0    0 -0.12036388459E+02 -0.59413720412E+01 -0.19989699775E+04  0.19990361945E+04  0.91957221287E+01 0.  0.
         22    1    3    3    0    0  0.12036388459E+02  0.59413720412E+01 -0.41377656047E+02  0.43500401938E+02  0.00000000000E+00 0.  1.
         22    1    4    4    0    0 -0.13468401573E+02 -0.56471643717E+01 -0.18897716579E+04  0.18898280894E+04  0.00000000000E+00 0.  1.
         22    1    4    4    0    0  0.14320131133E+01 -0.29420766951E+00 -0.10919831958E+03  0.10920810509E+03  0.00000000000E+00 0.  1.
<mgrwt>
<rscale>  0 0.94537199E+02</rscale>
<asrwt>0</asrwt>
<pdfrwt beam="2">  1        1 0.31406497E+00 0.94537199E+02</pdfrwt>
<pdfrwt beam="1">  1       -1 0.16838339E-03 0.94537199E+02</pdfrwt>
<totfact> 0.70173470E+04</totfact>
</mgrwt>
</event>
<event>
 7    1  0.2911475E-009  0.9989131E+02  0.7818608E-02  0.1280525E+00
         -1   -1    0    0    0  501 -0.00000000000E+00  0.00000000000E+00  0.27379594592E+03  0.27379594596E+03  0.50400000000E-02 0.  1.
          1   -1    0    0  501    0  0.00000000000E+00 -0.00000000000E+00 -0.91110493073E+01  0.91110507013E+01  0.50400000000E-02 0. -1.
         23    2    1    2    0    0  0.17763568394E-14  0.00000000000E+00  0.26468489661E+03  0.28290699666E+03  0.99891312277E+02 0.  0.
    9000005    2    3    3    0    0 -0.10854746199E+02 -0.24287315968E+01  0.27020601124E+03  0.27048898720E+03  0.54110472250E+01 0.  0.
         22    1    3    3    0    0  0.10854746199E+02  0.24287315968E+01 -0.55211146352E+01  0.12418009463E+02  0.00000000000E+00 0. -1.
         22    1    4    4    0    0 -0.74576589061E+01 -0.75634721716E+00  0.22494849463E+03  0.22507335243E+03  0.00000000000E+00 0. -1.
         22    1    4    4    0    0 -0.33970872929E+01 -0.16723843796E+01  0.45257516611E+02  0.45415634768E+02  0.00000000000E+00 0. -1.
<mgrwt>
<rscale>  0 0.99891312E+02</rscale>
<asrwt>0</asrwt>
<pdfrwt beam="2">  1        1 0.14016998E-02 0.99891312E+02</pdfrwt>
<pdfrwt beam="1">  1       -1 0.42122460E-01 0.99891312E+02</pdfrwt>
<totfact> 0.49371962E+04</totfact>
</mgrwt>
</event>
<event>
 7    1  0.2911475E-009  0.8525982E+02  0.7818608E-02  0.1314754E+00
         -1   -1    0    0    0  501 -0.00000000000E+00  0.00000000000E+00  0.33471913792E+02  0.33471914172E+02  0.50400000000E-02 0.  1.
          1   -1    0    0  501    0  0.00000000000E+00 -0.00000000000E+00 -0.54293560853E+02  0.54293561087E+02  0.50400000000E-02 0. -1.
         23    2    1    2    0    0  0.00000000000E+00  0.00000000000E+00 -0.20821647061E+02  0.87765475259E+02  0.85259824426E+02 0.  0.
    9000005    2    3    3    0    0  0.35342949845E+02  0.44215705567E+01  0.13040988387E+02  0.38619239702E+02  0.72597456673E+01 0.  0.
         22    1    3    3    0    0 -0.35342949845E+02 -0.44215705567E+01 -0.33862635448E+02  0.49146235557E+02  0.00000000000E+00 0. -1.
         22    1    4    4    0    0  0.15315417769E+02  0.40211813726E+01  0.88995135421E+01  0.18164065139E+02  0.00000000000E+00 0.  1.
         22    1    4    4    0    0  0.20027532076E+02  0.40038918418E+00  0.41414748449E+01  0.20455174564E+02  0.00000000000E+00 0.  1.
<mgrwt>
<rscale>  0 0.85259824E+02</rscale>
<asrwt>0</asrwt>
<pdfrwt beam="2">  1        1 0.83528556E-02 0.85259824E+02</pdfrwt>
<pdfrwt beam="1">  1       -1 0.51495252E-02 0.85259824E+02</pdfrwt>
<totfact> 0.11430930E+05</totfact>
</mgrwt>
</event>
<event>
 7    1  0.2911475E-009  0.8458779E+02  0.7818608E-02  0.1316514E+00
         -1   -1    0    0    0  501 -0.00000000000E+00  0.00000000000E+00  0.63159689868E+01  0.63159709977E+01  0.50400000000E-02 0.  1.
          1   -1    0    0  501    0  0.00000000000E+00 -0.00000000000E+00 -0.28321439640E+03  0.28321439644E+03  0.50400000000E-02 0. -1.
         23    2    1    2    0    0 -0.22204460493E-15  0.00000000000E+00 -0.27689842741E+03  0.28953036744E+03  0.84587792070E+02 0.  0.
    9000005    2    3    3    0    0  0.99781664064E+00 -0.24156720253E+02 -0.25671057310E+03  0.25803287178E+03  0.98031527350E+01 0.  0.
         22    1    3    3    0    0 -0.99781664064E+00  0.24156720253E+02 -0.20187854306E+02  0.31497495661E+02  0.00000000000E+00 0.  1.
         22    1    4    4    0    0  0.47000934376E+01 -0.68766311611E+01 -0.92402331262E+02  0.92776989373E+02  0.00000000000E+00 0. -1.
         22    1    4    4    0    0 -0.37022767970E+01 -0.17280089092E+02 -0.16430824184E+03  0.16525588240E+03  0.00000000000E+00 0. -1.
<mgrwt>
<rscale>  0 0.84587792E+02</rscale>
<asrwt>0</asrwt>
<pdfrwt beam="2">  1        1 0.43571436E-01 0.84587792E+02</pdfrwt>
<pdfrwt beam="1">  1       -1 0.97168791E-03 0.84587792E+02</pdfrwt>
<totfact> 0.15463626E+05</totfact>
</mgrwt>
</event>
<event>
 7    1  0.2911475E-009  0.9234606E+02  0.7818608E-02  0.1297268E+00
          1   -1    0    0  501    0  0.00000000000E+00  0.00000000000E+00  0.13107349260E+03  0.13107349269E+03  0.50400000000E-02 0. -1.
         -1   -1    0    0    0  501 -0.00000000000E+00 -0.00000000000E+00 -0.16265293066E+02  0.16265293847E+02  0.50400000000E-02 0.  1.
         23    2    1    2    0    0  0.00000000000E+00  0.00000000000E+00  0.11480819953E+03  0.14733878654E+03  0.92346062936E+02 0.  0.
    9000005    2    3    3    0    0  0.64792151576E+01  0.19651349544E+02  0.12317211193E+03  0.12502039057E+03  0.55292978812E+01 0.  0.
         22    1    3    3    0    0 -0.64792151576E+01 -0.19651349544E+02 -0.83639123953E+01  0.22318395966E+02  0.00000000000E+00 0.  1.
         22    1    4    4    0    0  0.12274414092E+01  0.52302117420E+01  0.19830533831E+02  0.20545359557E+02  0.00000000000E+00 0.  1.
         22    1    4    4    0    0  0.52517737484E+01  0.14421137802E+02  0.10334157810E+03  0.10447503102E+03  0.00000000000E+00 0.  1.
<mgrwt>
<rscale>  0 0.92346063E+02</rscale>
<asrwt>0</asrwt>
<pdfrwt beam="1">  1        1 0.20165153E-01 0.92346063E+02</pdfrwt>
<pdfrwt beam="2">  1       -1 0.25023528E-02 0.92346063E+02</pdfrwt>
<totfact> 0.10571220E+05</totfact>
</mgrwt>
</event>
<event>
 7    1  0.2911475E-009  0.9246421E+02  0.7818608E-02  0.1296992E+00
          1   -1    0    0  501    0  0.00000000000E+00  0.00000000000E+00  0.22047423746E+02  0.22047424322E+02  0.50400000000E-02 0. -1.
         -1   -1    0    0    0  501 -0.00000000000E+00 -0.00000000000E+00 -0.96945915378E+02  0.96945915509E+02  0.50400000000E-02 0.  1.
         23    2    1    2    0    0  0.11102230246E-15  0.00000000000E+00 -0.74898491632E+02  0.11899333983E+03  0.92464214026E+02 0.  0.
    9000005    2    3    3    0    0  0.58361435443E+00  0.27468787343E+02 -0.84815904852E+02  0.89783239372E+02  0.10602710619E+02 0.  0.
         22    1    3    3    0    0 -0.58361435443E+00 -0.27468787343E+02  0.99174132206E+01  0.29210100459E+02  0.00000000000E+00 0. -1.
         22    1    4    4    0    0  0.17118521658E+01  0.20190542209E+02 -0.73805655749E+02  0.76536679135E+02  0.00000000000E+00 0. -1.
         22    1    4    4    0    0 -0.11282378113E+01  0.72782451348E+01 -0.11010249103E+02  0.13246560237E+02  0.00000000000E+00 0. -1.
<mgrwt>
<rscale>  0 0.92464214E+02</rscale>
<asrwt>0</asrwt>
<pdfrwt beam="1">  1        1 0.33919115E-02 0.92464214E+02</pdfrwt>
<pdfrwt beam="2">  1       -1 0.14914756E-01 0.92464214E+02</pdfrwt>
<totfact> 0.78934455E+04</totfact>
</mgrwt>
</event>
<event>
 7    1  0.2911475E-009  0.8779404E+02  0.7818608E-02  0.1308283E+00
          1   -1    0    0  501    0  0.00000000000E+00  0.00000000000E+00  0.14692831571E+02  0.14692832436E+02  0.50400000000E-02 0. -1.
         -1   -1    0    0    0  501 -0.00000000000E+00 -0.00000000000E+00 -0.13114886574E+03  0.13114886584E+03  0.50400000000E-02 0.  1.
         23    2    1    2    0    0  0.00000000000E+00  0.00000000000E+00 -0.11645603417E+03  0.14584169827E+03  0.87794037730E+02 0.  0.
    9000005    2    3    3    0    0 -0.19554495592E+02  0.20978462719E+02 -0.49446368749E+01  0.30701497116E+02  0.97805058879E+01 0.  0.
         22    1    3    3    0    0  0.19554495592E+02 -0.20978462719E+02 -0.11151139730E+03  0.11514020116E+03  0.00000000000E+00 0.  1.
         22    1    4    4    0    0 -0.35106442978E+01  0.10651742427E+02 -0.21091982980E+01  0.11411965544E+02  0.00000000000E+00 0.  1.
         22    1    4    4    0    0 -0.16043851295E+02  0.10326720292E+02 -0.28354385769E+01  0.19289531572E+02  0.00000000000E+00 0.  1.
<mgrwt>
<rscale>  0 0.87794038E+02</rscale>
<asrwt>0</asrwt>
<pdfrwt beam="1">  1        1 0.22604358E-02 0.87794038E+02</pdfrwt>
<pdfrwt beam="2">  1       -1 0.20176748E-01 0.87794038E+02</pdfrwt>
<totfact> 0.84993154E+04</totfact>
</mgrwt>
</event>
<event>
 7    1  0.3438392E-009  0.9076081E+02  0.7818608E-02  0.1301020E+00
         -1   -1    0    0    0  501 -0.00000000000E+00  0.00000000000E+00  0.12596022234E+01  0.12596123065E+01  0.50400000000E-02 0.  1.
          1   -1    0    0  501    0  0.00000000000E+00 -0.00000000000E+00 -0.16349392190E+04  0.16349392190E+04  0.50400000000E-02 0. -1.
         23    2    1    2    0    0  0.00000000000E+00  0.44408920985E-15 -0.16336796168E+04  0.16361988313E+04  0.90760813807E+02 0.  0.
    9000005    2    3    3    0    0 -0.16893113166E+02  0.14182278220E+01 -0.15741536789E+04  0.15743059729E+04  0.13860118294E+02 0.  0.
         22    1    3    3    0    0  0.16893113166E+02 -0.14182278220E+01 -0.59525937934E+02  0.61892858469E+02  0.00000000000E+00 0.  1.
         22    1    4    4    0    0 -0.16547369561E+02  0.57259858165E+01 -0.12110922328E+04  0.12112188071E+04  0.00000000000E+00 0.  1.
         22    1    4    4    0    0 -0.34574360468E+00 -0.43077579945E+01 -0.36306144607E+03  0.36308716576E+03  0.00000000000E+00 0.  1.
<mgrwt>
<rscale>  0 0.90760814E+02</rscale>
<asrwt>0</asrwt>
<pdfrwt beam="2">  1        1 0.25152741E+00 0.90760814E+02</pdfrwt>
<pdfrwt beam="1">  1       -1 0.19378704E-03 0.90760814E+02</pdfrwt>
<totfact> 0.10348863E+05</totfact>
</mgrwt>
</event>
<event>
 7    1  0.2911475E-009  0.9330041E+02  0.7818608E-02  0.1295051E+00
          1   -1    0    0  501    0  0.00000000000E+00  0.00000000000E+00  0.66030964627E+03  0.66030964628E+03  0.50400000000E-02 0. -1.
         -1   -1    0    0    0  501 -0.00000000000E+00 -0.00000000000E+00 -0.32957873515E+01  0.32957912051E+01  0.50400000000E-02 0.  1.
         23    2    1    2    0    0  0.35527136788E-14  0.00000000000E+00  0.65701385891E+03  0.66360543749E+03  0.93300406543E+02 0.  0.
    9000005    2    3    3    0    0  0.24733526031E+02  0.33888651950E+02  0.46867783131E+03  0.47065298912E+03  0.97538996679E+01 0.  0.
         22    1    3    3    0    0 -0.24733526031E+02 -0.33888651950E+02  0.18833602760E+03  0.19295244837E+03  0.00000000000E+00 0. -1.
         22    1    4    4    0    0  0.25078720786E+02  0.29719308849E+02  0.42480895480E+03  0.42658507667E+03  0.00000000000E+00 0.  1.
         22    1    4    4    0    0 -0.34519475502E+00  0.41693431013E+01  0.43868876514E+02  0.44067912452E+02  0.00000000000E+00 0.  1.
<mgrwt>
<rscale>  0 0.93300407E+02</rscale>
<asrwt>0</asrwt>
<pdfrwt beam="1">  1        1 0.10158599E+00 0.93300407E+02</pdfrwt>
<pdfrwt beam="2">  1       -1 0.50704506E-03 0.93300407E+02</pdfrwt>
<totfact> 0.13372304E+05</totfact>
</mgrwt>
</event>
<event>
 7    1  0.2911475E-009  0.9155301E+02  0.7818608E-02  0.1299134E+00
         -1   -1    0    0    0  501 -0.00000000000E+00  0.00000000000E+00  0.21168849964E+02  0.21168850564E+02  0.50400000000E-02 0.  1.
          1   -1    0    0  501    0  0.00000000000E+00 -0.00000000000E+00 -0.98989230006E+02  0.98989230134E+02  0.50400000000E-02 0. -1.
         23    2    1    2    0    0  0.00000000000E+00 -0.35527136788E-14 -0.77820380041E+02  0.12015808070E+03  0.91553005452E+02 0.  0.
    9000005    2    3    3    0    0  0.36861300478E+02 -0.25743132879E+02 -0.30858395554E+02  0.55143525787E+02  0.81916723988E+01 0.  0.
         22    1    3    3    0    0 -0.36861300478E+02  0.25743132879E+02 -0.46961984487E+02  0.65014554911E+02  0.00000000000E+00 0.  1.
         22    1    4    4    0    0  0.25407560732E+02 -0.18340442227E+02 -0.16791159516E+02  0.35550794666E+02  0.00000000000E+00 0.  1.
         22    1    4    4    0    0  0.11453739746E+02 -0.74026906520E+01 -0.14067236038E+02  0.19592731122E+02  0.00000000000E+00 0.  1.
<mgrwt>
<rscale>  0 0.91553005E+02</rscale>
<asrwt>0</asrwt>
<pdfrwt beam="2">  1        1 0.15229112E-01 0.91553005E+02</pdfrwt>
<pdfrwt beam="1">  1       -1 0.32567463E-02 0.91553005E+02</pdfrwt>
<totfact> 0.10311010E+05</totfact>
</mgrwt>
</event>
<event>
 7    1  0.2911475E-009  0.9916488E+02  0.7818608E-02  0.1282062E+00
          1   -1    0    0  501    0  0.00000000000E+00  0.00000000000E+00  0.41556104549E+02  0.41556104855E+02  0.50400000000E-02 0. -1.
         -1   -1    0    0    0  501 -0.00000000000E+00 -0.00000000000E+00 -0.59159023122E+02  0.59159023336E+02  0.50400000000E-02 0.  1.
         23    2    1    2    0    0  0.00000000000E+00  0.17763568394E-14 -0.17602918572E+02  0.10071512819E+03  0.99164884431E+02 0.  0.
    9000005    2    3    3    0    0  0.46184696047E+02 -0.12074225763E+02  0.30667053541E+01  0.48695454701E+02  0.91120552046E+01 0.  0.
         22    1    3    3    0    0 -0.46184696047E+02  0.12074225763E+02 -0.20669623927E+02  0.52019673490E+02  0.00000000000E+00 0.  1.
         22    1    4    4    0    0  0.15886120802E+02 -0.75069199259E-02  0.24698239045E+01  0.16076968639E+02  0.00000000000E+00 0.  1.
         22    1    4    4    0    0  0.30298575245E+02 -0.12066718843E+02  0.59688144960E+00  0.32618486062E+02  0.00000000000E+00 0.  1.
<mgrwt>
<rscale>  0 0.99164884E+02</rscale>
<asrwt>0</asrwt>
<pdfrwt beam="1">  1        1 0.63932469E-02 0.99164884E+02</pdfrwt>
<pdfrwt beam="2">  1       -1 0.91013883E-02 0.99164884E+02</pdfrwt>
<totfact> 0.71827357E+04</totfact>
</mgrwt>
</event>
<event>
 7    1  0.2911475E-009  0.9162078E+02  0.7818608E-02  0.1298974E+00
          1   -1    0    0  501    0  0.00000000000E+00  0.00000000000E+00  0.73865010599E+02  0.73865010771E+02  0.50400000000E-02 0. -1.
         -1   -1    0    0    0  501 -0.00000000000E+00 -0.00000000000E+00 -0.28411173718E+02  0.28411174165E+02  0.50400000000E-02 0.  1.
         23    2    1    2    0    0  0.00000000000E+00  0.00000000000E+00  0.45453836881E+02  0.10227618494E+03  0.91620776671E+02 0.  0.
    9000005    2    3    3    0    0  0.67956007870E+01  0.44648567009E+02  0.17986856538E+02  0.49416845788E+02  0.88782269327E+01 0.  0.
         22    1    3    3    0    0 -0.67956007870E+01 -0.44648567009E+02  0.27466980343E+02  0.52859339148E+02  0.00000000000E+00 0. -1.
         22    1    4    4    0    0  0.26740347889E+01  0.34074874146E+02  0.16556489728E+02  0.37978478935E+02  0.00000000000E+00 0. -1.
         22    1    4    4    0    0  0.41215659980E+01  0.10573692863E+02  0.14303668096E+01  0.11438366853E+02  0.00000000000E+00 0. -1.
<mgrwt>
<rscale>  0 0.91620777E+02</rscale>
<asrwt>0</asrwt>
<pdfrwt beam="1">  1        1 0.11363848E-01 0.91620777E+02</pdfrwt>
<pdfrwt beam="2">  1       -1 0.43709499E-02 0.91620777E+02</pdfrwt>
<totfact> 0.98169317E+04</totfact>
</mgrwt>
</event>
<event>
 7    1  0.2911475E-009  0.9197685E+02  0.7818608E-02  0.1298134E+00
          1   -1    0    0  501    0  0.00000000000E+00  0.00000000000E+00  0.64512577454E+03  0.64512577456E+03  0.50400000000E-02 0. -1.
         -1   -1    0    0    0  501 -0.00000000000E+00 -0.00000000000E+00 -0.32783282218E+01  0.32783320959E+01  0.50400000000E-02 0.  1.
         23    2    1    2    0    0  0.00000000000E+00  0.00000000000E+00  0.64184744632E+03  0.64840410666E+03  0.91976851341E+02 0.  0.
    9000005    2    3    3    0    0 -0.94135625958E+01  0.18266355226E+02  0.61084971492E+03  0.61121359381E+03  0.47337242439E+01 0.  0.
         22    1    3    3    0    0  0.94135625958E+01 -0.18266355226E+02  0.30997731401E+02  0.37190512850E+02  0.00000000000E+00 0. -1.
         22    1    4    4    0    0 -0.76224223868E+00  0.40110120715E+01  0.82721488200E+02  0.82822182059E+02  0.00000000000E+00 0.  1.
         22    1    4    4    0    0 -0.86513203571E+01  0.14255343155E+02  0.52812822672E+03  0.52839141175E+03  0.00000000000E+00 0.  1.
<mgrwt>
<rscale>  0 0.91976851E+02</rscale>
<asrwt>0</asrwt>
<pdfrwt beam="1">  1        1 0.99250106E-01 0.91976851E+02</pdfrwt>
<pdfrwt beam="2">  1       -1 0.50435855E-03 0.91976851E+02</pdfrwt>
<totfact> 0.13880429E+05</totfact>
</mgrwt>
</event>
<event>
 7    1  0.2911475E-009  0.9175253E+02  0.7818608E-02  0.1298662E+00
         -1   -1    0    0    0  501 -0.00000000000E+00  0.00000000000E+00  0.22361622290E+03  0.22361622296E+03  0.50400000000E-02 0.  1.
          1   -1    0    0  501    0  0.00000000000E+00 -0.00000000000E+00 -0.94118021544E+01  0.94118035039E+01  0.50400000000E-02 0. -1.
         23    2    1    2    0    0  0.44408920985E-15  0.00000000000E+00  0.21420442075E+03  0.23302802646E+03  0.91752532658E+02 0.  0.
    9000005    2    3    3    0    0  0.23359743755E+01 -0.23129877794E+02  0.20678562516E+03  0.20862543334E+03  0.14960903703E+02 0.  0.
         22    1    3    3    0    0 -0.23359743755E+01  0.23129877794E+02  0.74187955826E+01  0.24402593120E+02  0.00000000000E+00 0. -1.
         22    1    4    4    0    0  0.33703299450E+01 -0.18254315761E+02  0.99039206513E+02  0.10076380101E+03  0.00000000000E+00 0.  1.
         22    1    4    4    0    0 -0.10343555695E+01 -0.48755620335E+01  0.10774641865E+03  0.10786163233E+03  0.00000000000E+00 0.  1.
<mgrwt>
<rscale>  0 0.91752533E+02</rscale>
<asrwt>0</asrwt>
<pdfrwt beam="2">  1        1 0.14479698E-02 0.91752533E+02</pdfrwt>
<pdfrwt beam="1">  1       -1 0.34402493E-01 0.91752533E+02</pdfrwt>
<totfact> 0.66057528E+04</totfact>
</mgrwt>
</event>
<event>
 7    1  0.2911475E-009  0.9133022E+02  0.7818608E-02  0.1299662E+00
          1   -1    0    0  501    0  0.00000000000E+00  0.00000000000E+00  0.10795590133E+04  0.10795590133E+04  0.50400000000E-02 0. -1.
         -1   -1    0    0    0  501 -0.00000000000E+00 -0.00000000000E+00 -0.19316208881E+01  0.19316274633E+01  0.50400000000E-02 0.  1.
         23    2    1    2    0    0  0.35527136788E-14  0.00000000000E+00  0.10776273924E+04  0.10814906408E+04  0.91330220671E+02 0.  0.
    9000005    2    3    3    0    0 -0.21197763834E+02  0.61083681113E+01  0.10110642175E+04  0.10113670812E+04  0.11218898321E+02 0.  0.
         22    1    3    3    0    0  0.21197763834E+02 -0.61083681113E+01  0.66563174888E+02  0.70123559548E+02  0.00000000000E+00 0.  1.
         22    1    4    4    0    0 -0.24054224732E+00 -0.21934179270E+01  0.87627018016E+02  0.87654795814E+02  0.00000000000E+00 0.  1.
         22    1    4    4    0    0 -0.20957221587E+02  0.83017860384E+01  0.92343719952E+03  0.92371228542E+03  0.00000000000E+00 0.  1.
<mgrwt>
<rscale>  0 0.91330221E+02</rscale>
<asrwt>0</asrwt>
<pdfrwt beam="1">  1        1 0.16608569E+00 0.91330221E+02</pdfrwt>
<pdfrwt beam="2">  1       -1 0.29717350E-03 0.91330221E+02</pdfrwt>
<totfact> 0.13229320E+05</totfact>
</mgrwt>
</event>
<event>
 7    1  0.3258487E-009  0.8531370E+02  0.7818608E-02  0.1314614E+00
          1   -1    0    0  501    0  0.00000000000E+00  0.00000000000E+00  0.49753724478E+03  0.49753724481E+03  0.50400000000E-02 0. -1.
         -1   -1    0    0    0  501 -0.00000000000E+00 -0.00000000000E+00 -0.36572260792E+01  0.36572295519E+01  0.50400000000E-02 0.  1.
         23    2    1    2    0    0 -0.71054273576E-14  0.00000000000E+00  0.49388001870E+03  0.50119447436E+03  0.85313704963E+02 0.  0.
    9000005    2    3    3    0    0 -0.38933533602E+02  0.14794125145E+02  0.26508762238E+03  0.26864201406E+03  0.12743547387E+02 0.  0.
         22    1    3    3    0    0  0.38933533602E+02 -0.14794125145E+02  0.22879239632E+03  0.23255246030E+03  0.00000000000E+00 0.  1.
         22    1    4    4    0    0 -0.27396177142E+00  0.14499415239E+01  0.26183655902E+01  0.30055322056E+01  0.00000000000E+00 0.  1.
         22    1    4    4    0    0 -0.38659571831E+02  0.13344183621E+02  0.26246925679E+03  0.26563648186E+03  0.00000000000E+00 0.  1.
<mgrwt>
<rscale>  0 0.85313705E+02</rscale>
<asrwt>0</asrwt>
<pdfrwt beam="1">  1        1 0.76544094E-01 0.85313705E+02</pdfrwt>
<pdfrwt beam="2">  1       -1 0.56265115E-03 0.85313705E+02</pdfrwt>
<totfact> 0.16588629E+05</totfact>
</mgrwt>
</event>
<event>
 7    1  0.2911475E-009  0.9109726E+02  0.7818608E-02  0.1300216E+00
          1   -1    0    0  501    0  0.00000000000E+00  0.00000000000E+00  0.19587675473E+02  0.19587676121E+02  0.50400000000E-02 0. -1.
         -1   -1    0    0    0  501 -0.00000000000E+00 -0.00000000000E+00 -0.10591750577E+03  0.10591750589E+03  0.50400000000E-02 0.  1.
         23    2    1    2    0    0  0.00000000000E+00  0.00000000000E+00 -0.86329830296E+02  0.12550518201E+03  0.91097261828E+02 0.  0.
    9000005    2    3    3    0    0  0.31465302030E+02  0.17453885128E+02 -0.70982849983E+01  0.38485982358E+02  0.11665412563E+02 0.  0.
         22    1    3    3    0    0 -0.31465302030E+02 -0.17453885128E+02 -0.79231545297E+02  0.87019199652E+02  0.00000000000E+00 0.  1.
         22    1    4    4    0    0  0.11843704685E+02  0.46216918233E+00 -0.27582004885E+01  0.12169412925E+02  0.00000000000E+00 0. -1.
         22    1    4    4    0    0  0.19621597345E+02  0.16991715946E+02 -0.43400845098E+01  0.26316569433E+02  0.00000000000E+00 0. -1.
<mgrwt>
<rscale>  0 0.91097262E+02</rscale>
<asrwt>0</asrwt>
<pdfrwt beam="1">  1        1 0.30134886E-02 0.91097262E+02</pdfrwt>
<pdfrwt beam="2">  1       -1 0.16295001E-01 0.91097262E+02</pdfrwt>
<totfact> 0.80674788E+04</totfact>
</mgrwt>
</event>
<event>
 7    1  0.2933755E-009  0.9247750E+02  0.7818608E-02  0.1296961E+00
         -1   -1    0    0    0  501 -0.00000000000E+00  0.00000000000E+00  0.67611262683E+01  0.67611281468E+01  0.50400000000E-02 0.  1.
          1   -1    0    0  501    0  0.00000000000E+00 -0.00000000000E+00 -0.31622270953E+03  0.31622270957E+03  0.50400000000E-02 0. -1.
         23    2    1    2    0    0  0.71054273576E-14  0.00000000000E+00 -0.30946158326E+03  0.32298383772E+03  0.92477499488E+02 0.  0.
    9000005    2    3    3    0    0 -0.36837908768E+02 -0.20801461340E+02 -0.21784938225E+03  0.22207532623E+03  0.83285567395E+01 0.  0.
         22    1    3    3    0    0  0.36837908768E+02  0.20801461340E+02 -0.91612201013E+02  0.10090851149E+03  0.00000000000E+00 0.  1.
         22    1    4    4    0    0 -0.10319060248E+02 -0.17559151283E+01 -0.52440081354E+02  0.53474558201E+02  0.00000000000E+00 0.  1.
         22    1    4    4    0    0 -0.26518848520E+02 -0.19045546211E+02 -0.16540930090E+03  0.16860076803E+03  0.00000000000E+00 0.  1.
<mgrwt>
<rscale>  0 0.92477499E+02</rscale>
<asrwt>0</asrwt>
<pdfrwt beam="2">  1        1 0.48649636E-01 0.92477499E+02</pdfrwt>
<pdfrwt beam="1">  1       -1 0.10401737E-02 0.92477499E+02</pdfrwt>
<totfact> 0.12460796E+05</totfact>
</mgrwt>
</event>
<event>
 6    1  0.2911475E-009  0.2359358E+03  0.7818608E-02  0.1122530E+00
          1   -1    0    0  501    0  0.00000000000E+00  0.00000000000E+00  0.18010171990E+03  0.18010171997E+03  0.50400000000E-02 0. -1.
         -1   -1    0    0    0  501 -0.00000000000E+00 -0.00000000000E+00 -0.77269790868E+02  0.77269791032E+02  0.50400000000E-02 0.  1.
    9000005    2    1    2    0    0 -0.20370584105E+02 -0.92665514369E+01  0.17765315275E+03  0.17927512702E+03  0.88373533309E+01 0.  0.
         22    1    1    2    0    0  0.20370584105E+02  0.92665514369E+01 -0.74821223718E+02  0.78096383982E+02  0.00000000000E+00 0.  1.
         22    1    3    3    0    0 -0.16629873580E+02 -0.47634692641E+01  0.10802366537E+03  0.10939997996E+03  0.00000000000E+00 0.  1.
         22    1    3    3    0    0 -0.37407105248E+01 -0.45030821728E+01  0.69629487378E+02  0.69875147061E+02  0.00000000000E+00 0.  1.
<mgrwt>
<rscale>  0 0.23593577E+03</rscale>
<asrwt>0</asrwt>
<pdfrwt beam="1">  1        1 0.27707957E-01 0.23593577E+03</pdfrwt>
<pdfrwt beam="2">  1       -1 0.11887660E-01 0.23593577E+03</pdfrwt>
<totfact> 0.76584199E+03</totfact>
</mgrwt>
</event>
<event>
 7    1  0.2911475E-009  0.9068931E+02  0.7818608E-02  0.1301191E+00
          1   -1    0    0  501    0  0.00000000000E+00  0.00000000000E+00  0.53408458542E+01  0.53408482322E+01  0.50400000000E-02 0. -1.
         -1   -1    0    0    0  501 -0.00000000000E+00 -0.00000000000E+00 -0.38498341709E+03  0.38498341712E+03  0.50400000000E-02 0.  1.
         23    2    1    2    0    0  0.00000000000E+00  0.00000000000E+00 -0.37964257124E+03  0.39032426536E+03  0.90689306043E+02 0.  0.
    9000005    2    3    3    0    0 -0.37693366186E+02 -0.10825337470E+02 -0.28558755154E+03  0.28842075945E+03  0.93971858376E+01 0.  0.
         22    1    3    3    0    0  0.37693366186E+02  0.10825337470E+02 -0.94055019699E+02  0.10190350591E+03  0.00000000000E+00 0. -1.
         22    1    4    4    0    0 -0.13743042722E+01 -0.27934189849E+01 -0.24428469150E+02  0.24626043265E+02  0.00000000000E+00 0. -1.
         22    1    4    4    0    0 -0.36319061913E+02 -0.80319184848E+01 -0.26115908239E+03  0.26379471618E+03  0.00000000000E+00 0. -1.
<mgrwt>
<rscale>  0 0.90689306E+02</rscale>
<asrwt>0</asrwt>
<pdfrwt beam="1">  1        1 0.82166908E-03 0.90689306E+02</pdfrwt>
<pdfrwt beam="2">  1       -1 0.59228196E-01 0.90689306E+02</pdfrwt>
<totfact> 0.55080293E+04</totfact>
</mgrwt>
</event>
<event>
 7    1  0.2911475E-009  0.8994459E+02  0.7818608E-02  0.1302986E+00
         -1   -1    0    0    0  501 -0.00000000000E+00  0.00000000000E+00  0.62406864959E+03  0.62406864961E+03  0.50400000000E-02 0.  1.
          1   -1    0    0  501    0  0.00000000000E+00 -0.00000000000E+00 -0.32408391404E+01  0.32408430594E+01  0.50400000000E-02 0. -1.
         23    2    1    2    0    0  0.00000000000E+00  0.00000000000E+00  0.62082781045E+03  0.62730949267E+03  0.89944590532E+02 0.  0.
    9000005    2    3    3    0    0 -0.14292832210E+02 -0.19268667998E+02  0.57497679700E+03  0.57556123614E+03  0.98413843414E+01 0.  0.
         22    1    3    3    0    0  0.14292832210E+02  0.19268667998E+02  0.45851013451E+02  0.51748256526E+02  0.00000000000E+00 0. -1.
         22    1    4    4    0    0  0.15989139468E-01 -0.64737685481E+01  0.18344635366E+03  0.18356054752E+03  0.00000000000E+00 0.  1.
         22    1    4    4    0    0 -0.14308821349E+02 -0.12794899450E+02  0.39153044334E+03  0.39200068862E+03  0.00000000000E+00 0.  1.
<mgrwt>
<rscale>  0 0.89944591E+02</rscale>
<asrwt>0</asrwt>
<pdfrwt beam="2">  1        1 0.49859037E-03 0.89944591E+02</pdfrwt>
<pdfrwt beam="1">  1       -1 0.96010671E-01 0.89944591E+02</pdfrwt>
<totfact> 0.41882493E+04</totfact>
</mgrwt>
</event>
<event>
 7    1  0.2911475E-009  0.8919053E+02  0.7818608E-02  0.1304824E+00
         -1   -1    0    0    0  501 -0.00000000000E+00  0.00000000000E+00  0.20466222799E+02  0.20466223420E+02  0.50400000000E-02 0.  1.
          1   -1    0    0  501    0  0.00000000000E+00 -0.00000000000E+00 -0.97171693698E+02  0.97171693829E+02  0.50400000000E-02 0. -1.
         23    2    1    2    0    0 -0.35527136788E-14  0.00000000000E+00 -0.76705470898E+02  0.11763791725E+03  0.89190528134E+02 0.  0.
    9000005    2    3    3    0    0 -0.24123237394E+02 -0.27790684375E+02 -0.70434126364E+02  0.80307199566E+02  0.11577021430E+02 0.  0.
         22    1    3    3    0    0  0.24123237394E+02  0.27790684375E+02 -0.62713445349E+01  0.37330717682E+02  0.00000000000E+00 0.  1.
         22    1    4    4    0    0 -0.12686968730E+02 -0.16828413773E+02 -0.51338165301E+02  0.55495602548E+02  0.00000000000E+00 0. -1.
         22    1    4    4    0    0 -0.11436268664E+02 -0.10962270602E+02 -0.19095961062E+02  0.24811597018E+02  0.00000000000E+00 0. -1.
<mgrwt>
<rscale>  0 0.89190528E+02</rscale>
<asrwt>0</asrwt>
<pdfrwt beam="2">  1        1 0.14949491E-01 0.89190528E+02</pdfrwt>
<pdfrwt beam="1">  1       -1 0.31486498E-02 0.89190528E+02</pdfrwt>
<totfact> 0.11038031E+05</totfact>
</mgrwt>
</event>
<event>
 7    1  0.2911475E-009  0.9010855E+02  0.7818608E-02  0.1302589E+00
          1   -1    0    0  501    0  0.00000000000E+00  0.00000000000E+00  0.55304016151E+02  0.55304016380E+02  0.50400000000E-02 0. -1.
         -1   -1    0    0    0  501 -0.00000000000E+00 -0.00000000000E+00 -0.36704165632E+02  0.36704165978E+02  0.50400000000E-02 0.  1.
         23    2    1    2    0    0  0.88817841970E-15  0.00000000000E+00  0.18599850519E+02  0.92008182358E+02  0.90108552211E+02 0.  0.
    9000005    2    3    3    0    0  0.50341661690E+01 -0.39616101284E+02 -0.94999049561E+01  0.43178124323E+02  0.13391187993E+02 0.  0.
         22    1    3    3    0    0 -0.50341661690E+01  0.39616101284E+02  0.28099755475E+02  0.48830058036E+02  0.00000000000E+00 0. -1.
         22    1    4    4    0    0 -0.77119532304E+00 -0.15234920456E+02 -0.97680740186E+01  0.18113884552E+02  0.00000000000E+00 0. -1.
         22    1    4    4    0    0  0.58053614920E+01 -0.24381180829E+02  0.26816906250E+00  0.25064239771E+02  0.00000000000E+00 0. -1.
<mgrwt>
<rscale>  0 0.90108552E+02</rscale>
<asrwt>0</asrwt>
<pdfrwt beam="1">  1        1 0.85083102E-02 0.90108552E+02</pdfrwt>
<pdfrwt beam="2">  1       -1 0.56467948E-02 0.90108552E+02</pdfrwt>
<totfact> 0.98362699E+04</totfact>
</mgrwt>
</event>
<event>
 7    1  0.2911475E-009  0.9450078E+02  0.7818608E-02  0.1292304E+00
          1   -1    0    0  501    0  0.00000000000E+00  0.00000000000E+00  0.36665346194E+03  0.36665346198E+03  0.50400000000E-02 0. -1.
         -1   -1    0    0    0  501 -0.00000000000E+00 -0.00000000000E+00 -0.60891253483E+01  0.60891274341E+01  0.50400000000E-02 0.  1.
         23    2    1    2    0    0  0.00000000000E+00 -0.17763568394E-14  0.36056433659E+03  0.37274258941E+03  0.94500778501E+02 0.  0.
    9000005    2    3    3    0    0  0.11978063572E+02  0.12688423784E+02  0.35331500927E+03  0.35384754107E+03  0.84921399882E+01 0.  0.
         22    1    3    3    0    0 -0.11978063572E+02 -0.12688423784E+02  0.72493273213E+01  0.18895048337E+02  0.00000000000E+00 0.  1.
         22    1    4    4    0    0  0.87975966959E+01  0.13383627086E+02  0.30766005132E+03  0.30807665663E+03  0.00000000000E+00 0. -1.
         22    1    4    4    0    0  0.31804668760E+01 -0.69520330213E+00  0.45654957948E+02  0.45770884440E+02  0.00000000000E+00 0. -1.
<mgrwt>
<rscale>  0 0.94500779E+02</rscale>
<asrwt>0</asrwt>
<pdfrwt beam="1">  1        1 0.56408219E-01 0.94500779E+02</pdfrwt>
<pdfrwt beam="2">  1       -1 0.93678879E-03 0.94500779E+02</pdfrwt>
<totfact> 0.12082385E+05</totfact>
</mgrwt>
</event>
<event>
 7    1  0.2911475E-009  0.9192100E+02  0.7818608E-02  0.1298265E+00
         -1   -1    0    0    0  501 -0.00000000000E+00  0.00000000000E+00  0.11874264753E+03  0.11874264764E+03  0.50400000000E-02 0.  1.
          1   -1    0    0  501    0  0.00000000000E+00 -0.00000000000E+00 -0.17789459863E+02  0.17789460576E+02  0.50400000000E-02 0. -1.
         23    2    1    2    0    0  0.88817841970E-15 -0.71054273576E-14  0.10095318767E+03  0.13653210821E+03  0.91921001262E+02 0.  0.
    9000005    2    3    3    0    0 -0.66888466348E+01  0.33860852704E+02  0.95027372586E+02  0.10151192404E+03  0.91198227348E+01 0.  0.
         22    1    3    3    0    0  0.66888466348E+01 -0.33860852704E+02  0.59258150817E+01  0.35020184173E+02  0.00000000000E+00 0. -1.
         22    1    4    4    0    0 -0.47799344295E+01  0.71349533094E+01  0.17687482566E+02  0.19662206676E+02  0.00000000000E+00 0. -1.
         22    1    4    4    0    0 -0.19089122054E+01  0.26725899394E+02  0.77339890020E+02  0.81849717364E+02  0.00000000000E+00 0. -1.
<mgrwt>
<rscale>  0 0.91921001E+02</rscale>
<asrwt>0</asrwt>
<pdfrwt beam="2">  1        1 0.27368400E-02 0.91921001E+02</pdfrwt>
<pdfrwt beam="1">  1       -1 0.18268100E-01 0.91921001E+02</pdfrwt>
<totfact> 0.77061499E+04</totfact>
</mgrwt>
</event>
<event>
 7    1  0.2911475E-009  0.9259982E+02  0.7818608E-02  0.1296675E+00
         -1   -1    0    0    0  501 -0.00000000000E+00  0.00000000000E+00  0.31284130816E+01  0.31284171415E+01  0.50400000000E-02 0.  1.
          1   -1    0    0  501    0  0.00000000000E+00 -0.00000000000E+00 -0.68522924467E+03  0.68522924469E+03  0.50400000000E-02 0. -1.
         23    2    1    2    0    0  0.88817841970E-15  0.35527136788E-14 -0.68210083159E+03  0.68835766183E+03  0.92599817206E+02 0.  0.
    9000005    2    3    3    0    0 -0.50691834740E+01 -0.20898560682E+02 -0.64451717963E+03  0.64505665313E+03  0.15272342762E+02 0.  0.
         22    1    3    3    0    0  0.50691834740E+01  0.20898560682E+02 -0.37583651962E+02  0.43301008700E+02  0.00000000000E+00 0.  1.
         22    1    4    4    0    0 -0.86092377699E+01 -0.11230112565E+02 -0.48569173054E+03  0.48589782004E+03  0.00000000000E+00 0.  1.
         22    1    4    4    0    0  0.35400542959E+01 -0.96684481175E+01 -0.15882544909E+03  0.15915883310E+03  0.00000000000E+00 0.  1.
<mgrwt>
<rscale>  0 0.92599817E+02</rscale>
<asrwt>0</asrwt>
<pdfrwt beam="2">  1        1 0.10541976E+00 0.92599817E+02</pdfrwt>
<pdfrwt beam="1">  1       -1 0.48129518E-03 0.92599817E+02</pdfrwt>
<totfact> 0.13647478E+05</totfact>
</mgrwt>
</event>
<event>
 7    1  0.2911475E-009  0.9247396E+02  0.7818608E-02  0.1296969E+00
         -1   -1    0    0    0  501 -0.00000000000E+00  0.00000000000E+00  0.34797499460E+03  0.34797499464E+03  0.50400000000E-02 0.  1.
          1   -1    0    0  501    0  0.00000000000E+00 -0.00000000000E+00 -0.61437113647E+01  0.61437134319E+01  0.50400000000E-02 0. -1.
         23    2    1    2    0    0  0.00000000000E+00  0.00000000000E+00  0.34183128324E+03  0.35411870807E+03  0.92473959609E+02 0.  0.
    9000005    2    3    3    0    0  0.17687268757E+02  0.41884661262E+02  0.16156116151E+03  0.16820345557E+03  0.11100866261E+02 0.  0.
         22    1    3    3    0    0 -0.17687268757E+02 -0.41884661262E+02  0.18027012173E+03  0.18591525250E+03  0.00000000000E+00 0.  1.
         22    1    4    4    0    0  0.26471515537E+01  0.14222261840E+01  0.53345310348E+01  0.61226922206E+01  0.00000000000E+00 0.  1.
         22    1    4    4    0    0  0.15040117203E+02  0.40462435078E+02  0.15622663048E+03  0.16208076335E+03  0.00000000000E+00 0.  1.
<mgrwt>
<rscale>  0 0.92473960E+02</rscale>
<asrwt>0</asrwt>
<pdfrwt beam="2">  1        1 0.94518640E-03 0.92473960E+02</pdfrwt>
<pdfrwt beam="1">  1       -1 0.53534622E-01 0.92473960E+02</pdfrwt>
<totfact> 0.54865389E+04</totfact>
</mgrwt>
</event>
<event>
 7    1  0.2911475E-009  0.9762338E+02  0.7818608E-02  0.1285375E+00
          1   -1    0    0  501    0  0.00000000000E+00  0.00000000000E+00  0.36762503373E+03  0.36762503377E+03  0.50400000000E-02 0. -1.
         -1   -1    0    0    0  501 -0.00000000000E+00 -0.00000000000E+00 -0.64810072705E+01  0.64810092302E+01  0.50400000000E-02 0.  1.
         23    2    1    2    0    0  0.00000000000E+00  0.00000000000E+00  0.36114402646E+03  0.37410604300E+03  0.97623376083E+02 0.  0.
    9000005    2    3    3    0    0 -0.65219682050E+01 -0.86529788142E+01  0.36272486191E+03  0.36315573924E+03  0.13976959035E+02 0.  0.
         22    1    3    3    0    0  0.65219682050E+01  0.86529788142E+01 -0.15808354493E+01  0.10950303756E+02  0.00000000000E+00 0.  1.
         22    1    4    4    0    0  0.38455878477E+01 -0.34108191364E+01  0.17241751559E+03  0.17249412140E+03  0.00000000000E+00 0.  1.
         22    1    4    4    0    0 -0.10367556053E+02 -0.52421596777E+01  0.19030734632E+03  0.19066161785E+03  0.00000000000E+00 0.  1.
<mgrwt>
<rscale>  0 0.97623376E+02</rscale>
<asrwt>0</asrwt>
<pdfrwt beam="1">  1        1 0.56557727E-01 0.97623376E+02</pdfrwt>
<pdfrwt beam="2">  1       -1 0.99707768E-03 0.97623376E+02</pdfrwt>
<totfact> 0.11082016E+05</totfact>
</mgrwt>
</event>
<event>
 7    1  0.2911475E-009  0.9043291E+02  0.7818608E-02  0.1301807E+00
         -1   -1    0    0    0  501 -0.00000000000E+00  0.00000000000E+00  0.19422374365E+02  0.19422375019E+02  0.50400000000E-02 0.  1.
          1   -1    0    0  501    0  0.00000000000E+00 -0.00000000000E+00 -0.10526661237E+03  0.10526661249E+03  0.50400000000E-02 0. -1.
         23    2    1    2    0    0  0.00000000000E+00  0.00000000000E+00 -0.85844238006E+02  0.12468898751E+03  0.90432905557E+02 0.  0.
    9000005    2    3    3    0    0 -0.27118798174E+02  0.24908655832E+02 -0.82966338841E+01  0.38843188225E+02  0.91699938904E+01 0.  0.
         22    1    3    3    0    0  0.27118798174E+02 -0.24908655832E+02 -0.77547604122E+02  0.85845799285E+02  0.00000000000E+00 0. -1.
         22    1    4    4    0    0 -0.19528414335E+02  0.12198914189E+02 -0.65355856483E+01  0.23935044466E+02  0.00000000000E+00 0.  1.
         22    1    4    4    0    0 -0.75903838389E+01  0.12709741643E+02 -0.17610482358E+01  0.14908143759E+02  0.00000000000E+00 0.  1.
<mgrwt>
<rscale>  0 0.90432906E+02</rscale>
<asrwt>0</asrwt>
<pdfrwt beam="2">  1        1 0.16194863E-01 0.90432906E+02</pdfrwt>
<pdfrwt beam="1">  1       -1 0.29880577E-02 0.90432906E+02</pdfrwt>
<totfact> 0.10772576E+05</totfact>
</mgrwt>
</event>
<event>
 7    1  0.2911475E-009  0.9218930E+02  0.7818608E-02  0.1297635E+00
         -1   -1    0    0    0  501 -0.00000000000E+00  0.00000000000E+00  0.20343547268E+02  0.20343547893E+02  0.50400000000E-02 0.  1.
          1   -1    0    0  501    0  0.00000000000E+00 -0.00000000000E+00 -0.10444179093E+03  0.10444179105E+03  0.50400000000E-02 0. -1.
         23    2    1    2    0    0  0.71054273576E-14  0.00000000000E+00 -0.84098243663E+02  0.12478533895E+03  0.92189295629E+02 0.  0.
    9000005    2    3    3    0    0  0.43115529367E+02 -0.82716335986E+01 -0.60322668469E+02  0.74858925387E+02  0.61372293395E+01 0.  0.
         22    1    3    3    0    0 -0.43115529367E+02  0.82716335986E+01 -0.23775575194E+02  0.49926413558E+02  0.00000000000E+00 0.  1.
         22    1    4    4    0    0  0.30335046623E+02 -0.67513176538E+01 -0.37978775922E+02  0.49073238779E+02  0.00000000000E+00 0.  1.
         22    1    4    4    0    0  0.12780482743E+02 -0.15203159448E+01 -0.22343892547E+02  0.25785686609E+02  0.00000000000E+00 0.  1.
<mgrwt>
<rscale>  0 0.92189296E+02</rscale>
<asrwt>0</asrwt>
<pdfrwt beam="2">  1        1 0.16067968E-01 0.92189296E+02</pdfrwt>
<pdfrwt beam="1">  1       -1 0.31297766E-02 0.92189296E+02</pdfrwt>
<totfact> 0.10209184E+05</totfact>
</mgrwt>
</event>
<event>
 7    1  0.2911475E-009  0.9350742E+02  0.7818608E-02  0.1294574E+00
         -1   -1    0    0    0  501 -0.00000000000E+00  0.00000000000E+00  0.40721701883E+03  0.40721701886E+03  0.50400000000E-02 0.  1.
          1   -1    0    0  501    0  0.00000000000E+00 -0.00000000000E+00 -0.53679216395E+01  0.53679240056E+01  0.50400000000E-02 0. -1.
         23    2    1    2    0    0  0.00000000000E+00  0.00000000000E+00  0.40184909719E+03  0.41258494287E+03  0.93507423061E+02 0.  0.
    9000005    2    3    3    0    0 -0.67178964399E+01  0.22753040188E+02  0.37801685030E+03  0.37895746954E+03  0.12214484840E+02 0.  0.
         22    1    3    3    0    0  0.67178964399E+01 -0.22753040188E+02  0.23832246889E+02  0.33627473324E+02  0.00000000000E+00 0. -1.
         22    1    4    4    0    0 -0.56299855408E+01  0.22552190937E+02  0.28884724321E+03  0.28978100000E+03  0.00000000000E+00 0.  1.
         22    1    4    4    0    0 -0.10879108991E+01  0.20084925164E+00  0.89169607092E+02  0.89176469540E+02  0.00000000000E+00 0.  1.
<mgrwt>
<rscale>  0 0.93507423E+02</rscale>
<asrwt>0</asrwt>
<pdfrwt beam="2">  1        1 0.82583400E-03 0.93507423E+02</pdfrwt>
<pdfrwt beam="1">  1       -1 0.62648793E-01 0.93507423E+02</pdfrwt>
<totfact> 0.49422743E+04</totfact>
</mgrwt>
</event>
<event>
 7    1  0.2911475E-009  0.9216077E+02  0.7818608E-02  0.1297702E+00
         -1   -1    0    0    0  501 -0.00000000000E+00  0.00000000000E+00  0.64606281384E+02  0.64606281580E+02  0.50400000000E-02 0.  1.
          1   -1    0    0  501    0  0.00000000000E+00 -0.00000000000E+00 -0.32866798522E+02  0.32866798908E+02  0.50400000000E-02 0. -1.
         23    2    1    2    0    0  0.00000000000E+00 -0.71054273576E-14  0.31739482862E+02  0.97473080488E+02  0.92160765229E+02 0.  0.
    9000005    2    3    3    0    0 -0.55351328210E+01 -0.32846614006E+02  0.49218100837E+02  0.59856065278E+02  0.71266649649E+01 0.  0.
         22    1    3    3    0    0  0.55351328210E+01  0.32846614006E+02 -0.17478617975E+02  0.37617015210E+02  0.00000000000E+00 0. -1.
         22    1    4    4    0    0  0.16165395714E+01 -0.97127726077E+01  0.13862298985E+02  0.17003366875E+02  0.00000000000E+00 0. -1.
         22    1    4    4    0    0 -0.71516723924E+01 -0.23133841398E+02  0.35355801852E+02  0.42852698403E+02  0.00000000000E+00 0. -1.
<mgrwt>
<rscale>  0 0.92160765E+02</rscale>
<asrwt>0</asrwt>
<pdfrwt beam="2">  1        1 0.50564306E-02 0.92160765E+02</pdfrwt>
<pdfrwt beam="1">  1       -1 0.99394279E-02 0.92160765E+02</pdfrwt>
<totfact> 0.85294425E+04</totfact>
</mgrwt>
</event>
<event>
 7    1  0.2911475E-009  0.9272008E+02  0.7818608E-02  0.1296395E+00
         -1   -1    0    0    0  501 -0.00000000000E+00  0.00000000000E+00  0.97153288297E+01  0.97153301370E+01  0.50400000000E-02 0.  1.
          1   -1    0    0  501    0  0.00000000000E+00 -0.00000000000E+00 -0.22122289547E+03  0.22122289553E+03  0.50400000000E-02 0. -1.
         23    2    1    2    0    0  0.00000000000E+00  0.35527136788E-14 -0.21150756664E+03  0.23093822567E+03  0.92720080495E+02 0.  0.
    9000005    2    3    3    0    0 -0.32023375354E+02 -0.17210127037E+02 -0.39742822359E+02  0.55368261207E+02  0.12824483551E+02 0.  0.
         22    1    3    3    0    0  0.32023375354E+02  0.17210127037E+02 -0.17176474428E+03  0.17556996446E+03  0.00000000000E+00 0. -1.
         22    1    4    4    0    0 -0.28479253717E+02 -0.19301896065E+02 -0.34780967392E+02  0.48921843554E+02  0.00000000000E+00 0. -1.
         22    1    4    4    0    0 -0.35441216365E+01  0.20917690284E+01 -0.49618549672E+01  0.64464176531E+01  0.00000000000E+00 0. -1.
<mgrwt>
<rscale>  0 0.92720080E+02</rscale>
<asrwt>0</asrwt>
<pdfrwt beam="2">  1        1 0.34034288E-01 0.92720080E+02</pdfrwt>
<pdfrwt beam="1">  1       -1 0.14946662E-02 0.92720080E+02</pdfrwt>
<totfact> 0.11543966E+05</totfact>
</mgrwt>
</event>
<event>
 7    1  0.2911475E-009  0.9389158E+02  0.7818608E-02  0.1293692E+00
         -1   -1    0    0    0  501 -0.00000000000E+00  0.00000000000E+00  0.52492966867E+02  0.52492967109E+02  0.50400000000E-02 0.  1.
          1   -1    0    0  501    0  0.00000000000E+00 -0.00000000000E+00 -0.41984808859E+02  0.41984809162E+02  0.50400000000E-02 0. -1.
         23    2    1    2    0    0  0.00000000000E+00 -0.35527136788E-14  0.10508158007E+02  0.94477776270E+02  0.93891580157E+02 0.  0.
    9000005    2    3    3    0    0 -0.55889159238E+01  0.20707453584E+02  0.46480324806E+02  0.52596618224E+02  0.12080937026E+02 0.  0.
         22    1    3    3    0    0  0.55889159238E+01 -0.20707453584E+02 -0.35972166798E+02  0.41881158046E+02  0.00000000000E+00 0. -1.
         22    1    4    4    0    0 -0.30601010224E+01  0.21680295979E+01  0.18898522975E+02  0.19267037687E+02  0.00000000000E+00 0.  1.
         22    1    4    4    0    0 -0.25288149014E+01  0.18539423986E+02  0.27581801831E+02  0.33329580537E+02  0.00000000000E+00 0.  1.
<mgrwt>
<rscale>  0 0.93891580E+02</rscale>
<asrwt>0</asrwt>
<pdfrwt beam="2">  1        1 0.64592014E-02 0.93891580E+02</pdfrwt>
<pdfrwt beam="1">  1       -1 0.80758411E-02 0.93891580E+02</pdfrwt>
<totfact> 0.84060487E+04</totfact>
</mgrwt>
</event>
<event>
 7    1  0.2911475E-009  0.9230189E+02  0.7818608E-02  0.1297371E+00
         -1   -1    0    0    0  501 -0.00000000000E+00  0.00000000000E+00  0.33253122937E+03  0.33253122941E+03  0.50400000000E-02 0.  1.
          1   -1    0    0  501    0  0.00000000000E+00 -0.00000000000E+00 -0.64051414606E+01  0.64051434435E+01  0.50400000000E-02 0. -1.
         23    2    1    2    0    0  0.00000000000E+00 -0.22204460493E-15  0.32612608791E+03  0.33893637285E+03  0.92301893951E+02 0.  0.
    9000005    2    3    3    0    0 -0.45003636602E+02  0.19067687558E+01  0.17828933384E+03  0.18438971670E+03  0.13546881135E+02 0.  0.
         22    1    3    3    0    0  0.45003636602E+02 -0.19067687558E+01  0.14783675407E+03  0.15454665615E+03  0.00000000000E+00 0. -1.
         22    1    4    4    0    0 -0.21380256430E+02 -0.42977065297E+01  0.67317958028E+02  0.70762229469E+02  0.00000000000E+00 0.  1.
         22    1    4    4    0    0 -0.23623380171E+02  0.62044752855E+01  0.11097137582E+03  0.11362748723E+03  0.00000000000E+00 0.  1.
<mgrwt>
<rscale>  0 0.92301894E+02</rscale>
<asrwt>0</asrwt>
<pdfrwt beam="2">  1        1 0.98540665E-03 0.92301894E+02</pdfrwt>
<pdfrwt beam="1">  1       -1 0.51158645E-01 0.92301894E+02</pdfrwt>
<totfact> 0.56239957E+04</totfact>
</mgrwt>
</event>
<event>
 7    1  0.2911475E-009  0.8593141E+02  0.7818608E-02  0.1313015E+00
          1   -1    0    0  501    0  0.00000000000E+00  0.00000000000E+00  0.36195195533E+02  0.36195195884E+02  0.50400000000E-02 0. -1.
         -1   -1    0    0    0  501 -0.00000000000E+00 -0.00000000000E+00 -0.51002670698E+02  0.51002670947E+02  0.50400000000E-02 0.  1.
         23    2    1    2    0    0  0.00000000000E+00  0.00000000000E+00 -0.14807475165E+02  0.87197866831E+02  0.85931406710E+02 0.  0.
    9000005    2    3    3    0    0  0.13573381254E+02  0.38187783148E+02  0.52853073179E+01  0.41962224155E+02  0.95052786460E+01 0.  0.
         22    1    3    3    0    0 -0.13573381254E+02 -0.38187783148E+02 -0.20092782483E+02  0.45235642677E+02  0.00000000000E+00 0.  1.
         22    1    4    4    0    0  0.11793869494E+02  0.32687890363E+02  0.99716735054E+00  0.34764750491E+02  0.00000000000E+00 0. -1.
         22    1    4    4    0    0  0.17795117598E+01  0.54998927856E+01  0.42881399674E+01  0.71974736635E+01  0.00000000000E+00 0. -1.
<mgrwt>
<rscale>  0 0.85931407E+02</rscale>
<asrwt>0</asrwt>
<pdfrwt beam="1">  1        1 0.55684917E-02 0.85931407E+02</pdfrwt>
<pdfrwt beam="2">  1       -1 0.78465647E-02 0.85931407E+02</pdfrwt>
<totfact> 0.10554035E+05</totfact>
</mgrwt>
</event>
<event>
 7    1  0.2911475E-009  0.9192899E+02  0.7818608E-02  0.1298246E+00
         -1   -1    0    0    0  501 -0.00000000000E+00  0.00000000000E+00  0.33598914206E+01  0.33598952008E+01  0.50400000000E-02 0.  1.
          1   -1    0    0  501    0  0.00000000000E+00 -0.00000000000E+00 -0.62881005097E+03  0.62881005099E+03  0.50400000000E-02 0. -1.
         23    2    1    2    0    0  0.00000000000E+00 -0.17763568394E-14 -0.62545015955E+03  0.63216994619E+03  0.91928987739E+02 0.  0.
    9000005    2    3    3    0    0 -0.32453980992E+02  0.82473654120E+01 -0.52755285943E+03  0.52870419684E+03  0.97379845485E+01 0.  0.
         22    1    3    3    0    0  0.32453980992E+02 -0.82473654120E+01 -0.97897300119E+02  0.10346574935E+03  0.00000000000E+00 0.  1.
         22    1    4    4    0    0 -0.86530556715E+01  0.65793339092E+01 -0.18813801247E+03  0.18845178361E+03  0.00000000000E+00 0.  1.
         22    1    4    4    0    0 -0.23800925321E+02  0.16680315029E+01 -0.33941484696E+03  0.34025241323E+03  0.00000000000E+00 0.  1.
<mgrwt>
<rscale>  0 0.91928988E+02</rscale>
<asrwt>0</asrwt>
<pdfrwt beam="2">  1        1 0.96739915E-01 0.91928988E+02</pdfrwt>
<pdfrwt beam="1">  1       -1 0.51690716E-03 0.91928988E+02</pdfrwt>
<totfact> 0.13886903E+05</totfact>
</mgrwt>
</event>
<event>
 7    1  0.2911475E-009  0.9041220E+02  0.7818608E-02  0.1301857E+00
          1   -1    0    0  501    0  0.00000000000E+00  0.00000000000E+00  0.47731636522E+01  0.47731663131E+01  0.50400000000E-02 0. -1.
         -1   -1    0    0    0  501 -0.00000000000E+00 -0.00000000000E+00 -0.42814181093E+03  0.42814181096E+03  0.50400000000E-02 0.  1.
         23    2    1    2    0    0  0.00000000000E+00  0.00000000000E+00 -0.42336864728E+03  0.43291497727E+03  0.90412200777E+02 0.  0.
    9000005    2    3    3    0    0 -0.21612569054E+02 -0.22619051794E+02 -0.36606122054E+03  0.36762435157E+03  0.12966188343E+02 0.  0.
         22    1    3    3    0    0  0.21612569054E+02  0.22619051794E+02 -0.57307426739E+02  0.65290625703E+02  0.00000000000E+00 0. -1.
         22    1    4    4    0    0 -0.30696532402E+01 -0.81424309973E+01 -0.56007647168E+02  0.56679612691E+02  0.00000000000E+00 0.  1.
         22    1    4    4    0    0 -0.18542915814E+02 -0.14476620796E+02 -0.31005357337E+03  0.31094473888E+03  0.00000000000E+00 0.  1.
<mgrwt>
<rscale>  0 0.90412201E+02</rscale>
<asrwt>0</asrwt>
<pdfrwt beam="1">  1        1 0.73433341E-03 0.90412201E+02</pdfrwt>
<pdfrwt beam="2">  1       -1 0.65867941E-01 0.90412201E+02</pdfrwt>
<totfact> 0.52583777E+04</totfact>
</mgrwt>
</event>
<event>
 7    1  0.2911475E-009  0.8941854E+02  0.7818608E-02  0.1304266E+00
         -1   -1    0    0    0  501 -0.00000000000E+00  0.00000000000E+00  0.39904503472E+02  0.39904503791E+02  0.50400000000E-02 0.  1.
          1   -1    0    0  501    0  0.00000000000E+00 -0.00000000000E+00 -0.50092559300E+02  0.50092559554E+02  0.50400000000E-02 0. -1.
         23    2    1    2    0    0  0.71054273576E-14  0.00000000000E+00 -0.10188055828E+02  0.89997063344E+02  0.89418537950E+02 0.  0.
    9000005    2    3    3    0    0  0.33495659330E+02  0.21577978269E+02  0.14065600952E+02  0.43351503992E+02  0.96924418017E+01 0.  0.
         22    1    3    3    0    0 -0.33495659330E+02 -0.21577978269E+02 -0.24253656780E+02  0.46645559353E+02  0.00000000000E+00 0. -1.
         22    1    4    4    0    0  0.53871719554E+01  0.32875247751E+01  0.63234312600E+01  0.89339366309E+01  0.00000000000E+00 0. -1.
         22    1    4    4    0    0  0.28108487375E+02  0.18290453494E+02  0.77421696916E+01  0.34417567361E+02  0.00000000000E+00 0. -1.
<mgrwt>
<rscale>  0 0.89418538E+02</rscale>
<asrwt>0</asrwt>
<pdfrwt beam="2">  1        1 0.77065476E-02 0.89418538E+02</pdfrwt>
<pdfrwt beam="1">  1       -1 0.61391545E-02 0.89418538E+02</pdfrwt>
<totfact> 0.99023269E+04</totfact>
</mgrwt>
</event>
<event>
 7    1  0.2911475E-009  0.9324480E+02  0.7818608E-02  0.1295179E+00
         -1   -1    0    0    0  501 -0.00000000000E+00  0.00000000000E+00  0.85621696043E+02  0.85621696192E+02  0.50400000000E-02 0.  1.
          1   -1    0    0  501    0  0.00000000000E+00 -0.00000000000E+00 -0.25386648940E+02  0.25386649441E+02  0.50400000000E-02 0. -1.
         23    2    1    2    0    0  0.00000000000E+00  0.00000000000E+00  0.60235047103E+02  0.11100834563E+03  0.93244795568E+02 0.  0.
    9000005    2    3    3    0    0 -0.12215873467E+02 -0.12655147787E+02 -0.20867534440E+02  0.28020340095E+02  0.63486325577E+01 0.  0.
         22    1    3    3    0    0  0.12215873467E+02  0.12655147787E+02  0.81102581543E+02  0.82988005537E+02  0.00000000000E+00 0.  1.
         22    1    4    4    0    0 -0.55778791337E+01 -0.51101806150E+01 -0.13790591900E+02  0.15729180096E+02  0.00000000000E+00 0.  1.
         22    1    4    4    0    0 -0.66379943336E+01 -0.75449671718E+01 -0.70769425400E+01  0.12291159999E+02  0.00000000000E+00 0.  1.
<mgrwt>
<rscale>  0 0.93244796E+02</rscale>
<asrwt>0</asrwt>
<pdfrwt beam="2">  1        1 0.39056383E-02 0.93244796E+02</pdfrwt>
<pdfrwt beam="1">  1       -1 0.13172569E-01 0.93244796E+02</pdfrwt>
<totfact> 0.78988560E+04</totfact>
</mgrwt>
</event>
<event>
 7    1  0.2911475E-009  0.9141960E+02  0.7818608E-02  0.1299450E+00
          1   -1    0    0  501    0  0.00000000000E+00  0.00000000000E+00  0.10073519509E+03  0.10073519522E+03  0.50400000000E-02 0. -1.
         -1   -1    0    0    0  501 -0.00000000000E+00 -0.00000000000E+00 -0.20741369810E+02  0.20741370422E+02  0.50400000000E-02 0.  1.
         23    2    1    2    0    0  0.00000000000E+00  0.00000000000E+00  0.79993825283E+02  0.12147656564E+03  0.91419603568E+02 0.  0.
    9000005    2    3    3    0    0 -0.47478346157E+01 -0.29391413309E+02  0.85037472807E+02  0.91279951755E+02  0.14637646707E+02 0.  0.
         22    1    3    3    0    0  0.47478346157E+01  0.29391413309E+02 -0.50436475236E+01  0.30196613886E+02  0.00000000000E+00 0.  1.
         22    1    4    4    0    0 -0.71991934940E+00  0.16831255254E+01  0.52572345647E+01  0.55668402772E+01  0.00000000000E+00 0. -1.
         22    1    4    4    0    0 -0.40279152663E+01 -0.31074538835E+02  0.79780238242E+02  0.85713111478E+02  0.00000000000E+00 0. -1.
<mgrwt>
<rscale>  0 0.91419604E+02</rscale>
<asrwt>0</asrwt>
<pdfrwt beam="1">  1        1 0.15497722E-01 0.91419604E+02</pdfrwt>
<pdfrwt beam="2">  1       -1 0.31909801E-02 0.91419604E+02</pdfrwt>
<totfact> 0.10382312E+05</totfact>
</mgrwt>
</event>
<event>
 7    1  0.2911475E-009  0.9139046E+02  0.7818608E-02  0.1299519E+00
          1   -1    0    0  501    0  0.00000000000E+00  0.00000000000E+00  0.19391017543E+02  0.19391018198E+02  0.50400000000E-02 0. -1.
         -1   -1    0    0    0  501 -0.00000000000E+00 -0.00000000000E+00 -0.10768149762E+03  0.10768149774E+03  0.50400000000E-02 0.  1.
         23    2    1    2    0    0  0.00000000000E+00  0.00000000000E+00 -0.88290480079E+02  0.12707251594E+03  0.91390455926E+02 0.  0.
    9000005    2    3    3    0    0 -0.33941063893E+02 -0.24600139324E+02 -0.66607276948E+02  0.79877982665E+02  0.13667483282E+02 0.  0.
         22    1    3    3    0    0  0.33941063893E+02  0.24600139324E+02 -0.21683203131E+02  0.47194533274E+02  0.00000000000E+00 0. -1.
         22    1    4    4    0    0 -0.98483272681E+01 -0.99107766451E+01 -0.12028575401E+02  0.18436368131E+02  0.00000000000E+00 0.  1.
         22    1    4    4    0    0 -0.24092736625E+02 -0.14689362679E+02 -0.54578701546E+02  0.61441614533E+02  0.00000000000E+00 0.  1.
<mgrwt>
<rscale>  0 0.91390456E+02</rscale>
<asrwt>0</asrwt>
<pdfrwt beam="1">  1        1 0.29832336E-02 0.91390456E+02</pdfrwt>
<pdfrwt beam="2">  1       -1 0.16566384E-01 0.91390456E+02</pdfrwt>
<totfact> 0.79754790E+04</totfact>
</mgrwt>
</event>
<event>
 7    1  0.2911475E-009  0.9105394E+02  0.7818608E-02  0.1300319E+00
         -1   -1    0    0    0  501 -0.00000000000E+00  0.00000000000E+00  0.28127752169E+03  0.28127752174E+03  0.50400000000E-02 0.  1.
          1   -1    0    0  501    0  0.00000000000E+00 -0.00000000000E+00 -0.73688962335E+01  0.73688979570E+01  0.50400000000E-02 0. -1.
         23    2    1    2    0    0  0.00000000000E+00  0.35527136788E-14  0.27390862546E+03  0.28864641969E+03  0.91053942812E+02 0.  0.
    9000005    2    3    3    0    0 -0.39530605820E+02 -0.18372204294E+02  0.11948494085E+03  0.12818807290E+03  0.15978869088E+02 0.  0.
         22    1    3    3    0    0  0.39530605820E+02  0.18372204294E+02  0.15442368461E+03  0.16045834679E+03  0.00000000000E+00 0. -1.
         22    1    4    4    0    0 -0.40723555379E+02 -0.17967089256E+02  0.11070418508E+03  0.11931739544E+03  0.00000000000E+00 0. -1.
         22    1    4    4    0    0  0.11929495594E+01 -0.40511503791E+00  0.87807557672E+01  0.88706774651E+01  0.00000000000E+00 0. -1.
<mgrwt>
<rscale>  0 0.91053943E+02</rscale>
<asrwt>0</asrwt>
<pdfrwt beam="2">  1        1 0.11336767E-02 0.91053943E+02</pdfrwt>
<pdfrwt beam="1">  1       -1 0.43273457E-01 0.91053943E+02</pdfrwt>
<totfact> 0.62321780E+04</totfact>
</mgrwt>
</event>
<event>
 7    1  0.2911475E-009  0.9176313E+02  0.7818608E-02  0.1298637E+00
         -1   -1    0    0    0  501 -0.00000000000E+00  0.00000000000E+00  0.20730249519E+02  0.20730250131E+02  0.50400000000E-02 0.  1.
          1   -1    0    0  501    0  0.00000000000E+00 -0.00000000000E+00 -0.10154813246E+03  0.10154813259E+03  0.50400000000E-02 0. -1.
         23    2    1    2    0    0  0.00000000000E+00  0.71054273576E-14 -0.80817882946E+02  0.12227838272E+03  0.91763133540E+02 0.  0.
    9000005    2    3    3    0    0  0.80414564763E+01 -0.36421813963E+02 -0.65916108840E+01  0.39207611575E+02  0.10127878194E+02 0.  0.
         22    1    3    3    0    0 -0.80414564763E+01  0.36421813963E+02 -0.74226272062E+02  0.83070771146E+02  0.00000000000E+00 0. -1.
         22    1    4    4    0    0  0.50558683874E+01 -0.94010018499E+01 -0.54820361600E+01  0.11999723388E+02  0.00000000000E+00 0.  1.
         22    1    4    4    0    0  0.29855880888E+01 -0.27020812113E+02 -0.11095747241E+01  0.27207888187E+02  0.00000000000E+00 0.  1.
<mgrwt>
<rscale>  0 0.91763134E+02</rscale>
<asrwt>0</asrwt>
<pdfrwt beam="2">  1        1 0.15622789E-01 0.91763134E+02</pdfrwt>
<pdfrwt beam="1">  1       -1 0.31892693E-02 0.91763134E+02</pdfrwt>
<totfact> 0.10290381E+05</totfact>
</mgrwt>
</event>
<event>
 7    1  0.2911475E-009  0.8861566E+02  0.7818608E-02  0.1306239E+00
          1   -1    0    0  501    0  0.00000000000E+00  0.00000000000E+00  0.28920158905E+02  0.28920159344E+02  0.50400000000E-02 0. -1.
         -1   -1    0    0    0  501 -0.00000000000E+00 -0.00000000000E+00 -0.67882883192E+02  0.67882883379E+02  0.50400000000E-02 0.  1.
         23    2    1    2    0    0  0.00000000000E+00  0.00000000000E+00 -0.38962724287E+02  0.96803042723E+02  0.88615659996E+02 0.  0.
    9000005    2    3    3    0    0 -0.21513494761E+02 -0.10692394569E+02  0.20059638866E+02  0.33078658767E+02  0.10707511193E+02 0.  0.
         22    1    3    3    0    0  0.21513494761E+02  0.10692394569E+02 -0.59022363152E+02  0.63724383956E+02  0.00000000000E+00 0.  1.
         22    1    4    4    0    0 -0.15453006442E+02 -0.20032100860E+01  0.10335214181E+02  0.18698259569E+02  0.00000000000E+00 0. -1.
         22    1    4    4    0    0 -0.60604883197E+01 -0.86891844828E+01  0.97244246851E+01  0.14380399198E+02  0.00000000000E+00 0. -1.
<mgrwt>
<rscale>  0 0.88615660E+02</rscale>
<asrwt>0</asrwt>
<pdfrwt beam="1">  1        1 0.44492553E-02 0.88615660E+02</pdfrwt>
<pdfrwt beam="2">  1       -1 0.10443520E-01 0.88615660E+02</pdfrwt>
<totfact> 0.93506002E+04</totfact>
</mgrwt>
</event>
<event>
 7    1  0.2911475E-009  0.9157881E+02  0.7818608E-02  0.1299073E+00
          1   -1    0    0  501    0  0.00000000000E+00  0.00000000000E+00  0.79114192671E+03  0.79114192673E+03  0.50400000000E-02 0. -1.
         -1   -1    0    0    0  501 -0.00000000000E+00 -0.00000000000E+00 -0.26501790694E+01  0.26501838619E+01  0.50400000000E-02 0.  1.
         23    2    1    2    0    0  0.00000000000E+00  0.00000000000E+00  0.78849174764E+03  0.79379211059E+03  0.91578811602E+02 0.  0.
    9000005    2    3    3    0    0 -0.16270714921E+02 -0.36627882862E+02  0.57949511783E+03  0.58098720172E+03  0.11189236090E+02 0.  0.
         22    1    3    3    0    0  0.16270714921E+02  0.36627882862E+02  0.20899662981E+03  0.21280490887E+03  0.00000000000E+00 0.  1.
         22    1    4    4    0    0 -0.13245030857E+02 -0.26042147770E+02  0.47914257085E+03  0.48003252755E+03  0.00000000000E+00 0. -1.
         22    1    4    4    0    0 -0.30256840641E+01 -0.10585735092E+02  0.10035254698E+03  0.10095467417E+03  0.00000000000E+00 0. -1.
<mgrwt>
<rscale>  0 0.91578812E+02</rscale>
<asrwt>0</asrwt>
<pdfrwt beam="1">  1        1 0.12171433E+00 0.91578812E+02</pdfrwt>
<pdfrwt beam="2">  1       -1 0.40771961E-03 0.91578812E+02</pdfrwt>
<totfact> 0.13979452E+05</totfact>
</mgrwt>
</event>
<event>
 7    1  0.2911475E-009  0.9293650E+02  0.7818608E-02  0.1295892E+00
          1   -1    0    0  501    0  0.00000000000E+00  0.00000000000E+00  0.47651642006E+03  0.47651642009E+03  0.50400000000E-02 0. -1.
         -1   -1    0    0    0  501 -0.00000000000E+00 -0.00000000000E+00 -0.45314230158E+01  0.45314258186E+01  0.50400000000E-02 0.  1.
         23    2    1    2    0    0  0.00000000000E+00  0.00000000000E+00  0.47198499705E+03  0.48104784591E+03  0.92936497757E+02 0.  0.
    9000005    2    3    3    0    0  0.17408265675E+02  0.12980947419E+02  0.44817404923E+03  0.44882186345E+03  0.10465848904E+02 0.  0.
         22    1    3    3    0    0 -0.17408265675E+02 -0.12980947419E+02  0.23810947814E+02  0.32225982460E+02  0.00000000000E+00 0.  1.
         22    1    4    4    0    0  0.32578561509E+01  0.87492778315E+01  0.17359001723E+03  0.17384089729E+03  0.00000000000E+00 0.  1.
         22    1    4    4    0    0  0.14150409525E+02  0.42316695871E+01  0.27458403200E+03  0.27498096615E+03  0.00000000000E+00 0.  1.
<mgrwt>
<rscale>  0 0.92936498E+02</rscale>
<asrwt>0</asrwt>
<pdfrwt beam="1">  1        1 0.73310187E-01 0.92936498E+02</pdfrwt>
<pdfrwt beam="2">  1       -1 0.69714252E-03 0.92936498E+02</pdfrwt>
<totfact> 0.13158618E+05</totfact>
</mgrwt>
</event>
<event>
 7    1  0.2911475E-009  0.9233955E+02  0.7818608E-02  0.1297283E+00
         -1   -1    0    0    0  501 -0.00000000000E+00  0.00000000000E+00  0.15085480388E+02  0.15085481230E+02  0.50400000000E-02 0.  1.
          1   -1    0    0  501    0  0.00000000000E+00 -0.00000000000E+00 -0.14130462140E+03  0.14130462149E+03  0.50400000000E-02 0. -1.
         23    2    1    2    0    0 -0.71054273576E-14 -0.17763568394E-14 -0.12621914101E+03  0.15639010271E+03  0.92339550954E+02 0.  0.
    9000005    2    3    3    0    0 -0.42402600217E+02 -0.14869308223E+02 -0.45876537092E+02  0.64335712074E+02  0.39179535932E+01 0.  0.
         22    1    3    3    0    0  0.42402600217E+02  0.14869308223E+02 -0.80342603916E+02  0.92054390641E+02  0.00000000000E+00 0. -1.
         22    1    4    4    0    0 -0.21977770934E+02 -0.56367746322E+01 -0.22870425989E+02  0.32215710893E+02  0.00000000000E+00 0. -1.
         22    1    4    4    0    0 -0.20424829284E+02 -0.92325335909E+01 -0.23006111103E+02  0.32120001181E+02  0.00000000000E+00 0. -1.
<mgrwt>
<rscale>  0 0.92339551E+02</rscale>
<asrwt>0</asrwt>
<pdfrwt beam="2">  1        1 0.21739172E-01 0.92339551E+02</pdfrwt>
<pdfrwt beam="1">  1       -1 0.23208433E-02 0.92339551E+02</pdfrwt>
<totfact> 0.10717782E+05</totfact>
</mgrwt>
</event>
<event>
 7    1  0.3039885E-009  0.9467124E+02  0.7818608E-02  0.1291918E+00
         -1   -1    0    0    0  501 -0.00000000000E+00  0.00000000000E+00  0.34841586245E+01  0.34841622698E+01  0.50400000000E-02 0.  1.
          1   -1    0    0  501    0  0.00000000000E+00 -0.00000000000E+00 -0.64309926436E+03  0.64309926438E+03  0.50400000000E-02 0. -1.
         23    2    1    2    0    0  0.00000000000E+00 -0.71054273576E-14 -0.63961510573E+03  0.64658342665E+03  0.94671242375E+02 0.  0.
    9000005    2    3    3    0    0 -0.11359806488E+02  0.36012736699E+02 -0.51144295214E+03  0.51296432860E+03  0.11512893103E+02 0.  0.
         22    1    3    3    0    0  0.11359806488E+02 -0.36012736699E+02 -0.12817215359E+03  0.13361909805E+03  0.00000000000E+00 0.  1.
         22    1    4    4    0    0 -0.92646306541E+01  0.31205037043E+02 -0.47856147956E+03  0.47966725700E+03  0.00000000000E+00 0. -1.
         22    1    4    4    0    0 -0.20951758336E+01  0.48076996560E+01 -0.32881472586E+02  0.33297071601E+02  0.00000000000E+00 0. -1.
<mgrwt>
<rscale>  0 0.94671242E+02</rscale>
<asrwt>0</asrwt>
<pdfrwt beam="2">  1        1 0.98938255E-01 0.94671242E+02</pdfrwt>
<pdfrwt beam="1">  1       -1 0.53602519E-03 0.94671242E+02</pdfrwt>
<totfact> 0.12855897E+05</totfact>
</mgrwt>
</event>
<event>
 7    1  0.2911475E-009  0.9192968E+02  0.7818608E-02  0.1298245E+00
         -1   -1    0    0    0  501 -0.00000000000E+00  0.00000000000E+00  0.42918610852E+01  0.42918640445E+01  0.50400000000E-02 0.  1.
          1   -1    0    0  501    0  0.00000000000E+00 -0.00000000000E+00 -0.49227265789E+03  0.49227265792E+03  0.50400000000E-02 0. -1.
         23    2    1    2    0    0  0.00000000000E+00  0.00000000000E+00 -0.48798079681E+03  0.49656452196E+03  0.91929681928E+02 0.  0.
    9000005    2    3    3    0    0 -0.17332176699E+02 -0.42442036661E+02 -0.23149537632E+03  0.23601413960E+03  0.32915057394E+01 0.  0.
         22    1    3    3    0    0  0.17332176699E+02  0.42442036661E+02 -0.25648542049E+03  0.26055038236E+03  0.00000000000E+00 0.  1.
         22    1    4    4    0    0 -0.67149246662E+01 -0.19475866292E+02 -0.10992588044E+03  0.11183961182E+03  0.00000000000E+00 0.  1.
         22    1    4    4    0    0 -0.10617252033E+02 -0.22966170370E+02 -0.12156949588E+03  0.12417452778E+03  0.00000000000E+00 0.  1.
<mgrwt>
<rscale>  0 0.91929682E+02</rscale>
<asrwt>0</asrwt>
<pdfrwt beam="2">  1        1 0.75734211E-01 0.91929682E+02</pdfrwt>
<pdfrwt beam="1">  1       -1 0.66028694E-03 0.91929682E+02</pdfrwt>
<totfact> 0.13600600E+05</totfact>
</mgrwt>
</event>
<event>
 7    1  0.2911475E-009  0.1159642E+03  0.7818608E-02  0.1249907E+00
          1   -1    0    0  501    0  0.00000000000E+00  0.00000000000E+00  0.31472885032E+03  0.31472885036E+03  0.50400000000E-02 0. -1.
         -1   -1    0    0    0  501 -0.00000000000E+00 -0.00000000000E+00 -0.10681964854E+02  0.10681966043E+02  0.50400000000E-02 0.  1.
         23    2    1    2    0    0  0.17763568394E-14  0.71054273576E-14  0.30404688546E+03  0.32541081640E+03  0.11596417926E+03 0.  0.
    9000005    2    3    3    0    0 -0.12835701266E+02 -0.51060888269E+02  0.88328787729E+02  0.10336067065E+03  0.10463458210E+02 0.  0.
         22    1    3    3    0    0  0.12835701266E+02  0.51060888269E+02  0.21571809773E+03  0.22205014575E+03  0.00000000000E+00 0. -1.
         22    1    4    4    0    0 -0.10483413393E+02 -0.37772188931E+02  0.56278541400E+02  0.68585089014E+02  0.00000000000E+00 0.  1.
         22    1    4    4    0    0 -0.23522878726E+01 -0.13288699339E+02  0.32050246329E+02  0.34775581636E+02  0.00000000000E+00 0.  1.
<mgrwt>
<rscale>  0 0.11596418E+03</rscale>
<asrwt>0</asrwt>
<pdfrwt beam="1">  1        1 0.48419817E-01 0.11596418E+03</pdfrwt>
<pdfrwt beam="2">  1       -1 0.16433795E-02 0.11596418E+03</pdfrwt>
<totfact> 0.67588614E+04</totfact>
</mgrwt>
</event>
<event>
 7    1  0.2911475E-009  0.1081892E+03  0.7818608E-02  0.1263960E+00
         -1   -1    0    0    0  501 -0.00000000000E+00  0.00000000000E+00  0.39294837237E+01  0.39294869558E+01  0.50400000000E-02 0.  1.
          1   -1    0    0  501    0  0.00000000000E+00 -0.00000000000E+00 -0.74468381661E+03  0.74468381663E+03  0.50400000000E-02 0. -1.
         23    2    1    2    0    0  0.00000000000E+00  0.00000000000E+00 -0.74075433289E+03  0.74861330359E+03  0.10818917049E+03 0.  0.
    9000005    2    3    3    0    0  0.35858423794E+02 -0.26836607901E+02 -0.57853539191E+03  0.58032481648E+03  0.82257429465E+01 0.  0.
         22    1    3    3    0    0 -0.35858423794E+02  0.26836607901E+02 -0.16221894098E+03  0.16828848711E+03  0.00000000000E+00 0.  1.
         22    1    4    4    0    0  0.96624769927E+01 -0.76577830750E+01 -0.11663009021E+03  0.11727993454E+03  0.00000000000E+00 0.  1.
         22    1    4    4    0    0  0.26195946801E+02 -0.19178824826E+02 -0.46190530171E+03  0.46304488194E+03  0.00000000000E+00 0.  1.
<mgrwt>
<rscale>  0 0.10818917E+03</rscale>
<asrwt>0</asrwt>
<pdfrwt beam="2">  1        1 0.11456663E+00 0.10818917E+03</pdfrwt>
<pdfrwt beam="1">  1       -1 0.60453680E-03 0.10818917E+03</pdfrwt>
<totfact> 0.89960903E+04</totfact>
</mgrwt>
</event>
<event>
 7    1  0.2911475E-009  0.9182276E+02  0.7818608E-02  0.1298497E+00
          1   -1    0    0  501    0  0.00000000000E+00  0.00000000000E+00  0.24991760136E+02  0.24991760644E+02  0.50400000000E-02 0. -1.
         -1   -1    0    0    0  501 -0.00000000000E+00 -0.00000000000E+00 -0.84341991419E+02  0.84341991569E+02  0.50400000000E-02 0.  1.
         23    2    1    2    0    0  0.00000000000E+00 -0.35527136788E-14 -0.59350231283E+02  0.10933375221E+03  0.91822760902E+02 0.  0.
    9000005    2    3    3    0    0  0.35046680207E+02  0.26504672519E+02 -0.40287465798E+02  0.61436398561E+02  0.14852060763E+02 0.  0.
         22    1    3    3    0    0 -0.35046680207E+02 -0.26504672519E+02 -0.19062765485E+02  0.47897353652E+02  0.00000000000E+00 0. -1.
         22    1    4    4    0    0  0.21689966532E+02  0.85011608483E+01 -0.15322298959E+02  0.27883637304E+02  0.00000000000E+00 0.  1.
         22    1    4    4    0    0  0.13356713675E+02  0.18003511671E+02 -0.24965166839E+02  0.33552761257E+02  0.00000000000E+00 0.  1.
<mgrwt>
<rscale>  0 0.91822761E+02</rscale>
<asrwt>0</asrwt>
<pdfrwt beam="1">  1        1 0.38448863E-02 0.91822761E+02</pdfrwt>
<pdfrwt beam="2">  1       -1 0.12975691E-01 0.91822761E+02</pdfrwt>
<totfact> 0.82383672E+04</totfact>
</mgrwt>
</event>
<event>
 7    1  0.2911475E-009  0.9050872E+02  0.7818608E-02  0.1301624E+00
         -1   -1    0    0    0  501 -0.00000000000E+00  0.00000000000E+00  0.15254010008E+02  0.15254010841E+02  0.50400000000E-02 0.  1.
          1   -1    0    0  501    0  0.00000000000E+00 -0.00000000000E+00 -0.13425695363E+03  0.13425695372E+03  0.50400000000E-02 0. -1.
         23    2    1    2    0    0  0.00000000000E+00  0.00000000000E+00 -0.11900294362E+03  0.14951096456E+03  0.90508717450E+02 0.  0.
    9000005    2    3    3    0    0 -0.14716149786E+02 -0.23569816322E+02 -0.36980970574E+01  0.30905277740E+02  0.13013798999E+02 0.  0.
         22    1    3    3    0    0  0.14716149786E+02  0.23569816322E+02 -0.11530484656E+03  0.11860568682E+03  0.00000000000E+00 0. -1.
         22    1    4    4    0    0 -0.78313388200E+01 -0.15365006070E+02 -0.84300896675E+01  0.19195824833E+02  0.00000000000E+00 0. -1.
         22    1    4    4    0    0 -0.68848109658E+01 -0.82048102525E+01  0.47319926102E+01  0.11709452907E+02  0.00000000000E+00 0. -1.
<mgrwt>
<rscale>  0 0.90508717E+02</rscale>
<asrwt>0</asrwt>
<pdfrwt beam="2">  1        1 0.20654915E-01 0.90508717E+02</pdfrwt>
<pdfrwt beam="1">  1       -1 0.23467709E-02 0.90508717E+02</pdfrwt>
<totfact> 0.11210345E+05</totfact>
</mgrwt>
</event>
<event>
 7    1  0.2911475E-009  0.9065873E+02  0.7818608E-02  0.1301264E+00
          1   -1    0    0  501    0  0.00000000000E+00  0.00000000000E+00  0.17670836770E+03  0.17670836777E+03  0.50400000000E-02 0. -1.
         -1   -1    0    0    0  501 -0.00000000000E+00 -0.00000000000E+00 -0.11627922493E+02  0.11627923585E+02  0.50400000000E-02 0.  1.
         23    2    1    2    0    0  0.17763568394E-14  0.17763568394E-14  0.16508044521E+03  0.18833629136E+03  0.90658729599E+02 0.  0.
    9000005    2    3    3    0    0 -0.11261382122E+02 -0.10677395738E+02  0.17077269126E+03  0.17180670660E+03  0.10649265038E+02 0.  0.
         22    1    3    3    0    0  0.11261382122E+02  0.10677395738E+02 -0.56922460541E+01  0.16529584755E+02  0.00000000000E+00 0.  1.
         22    1    4    4    0    0 -0.63434815778E+01 -0.12107990151E+02  0.12843842175E+03  0.12916373858E+03  0.00000000000E+00 0.  1.
         22    1    4    4    0    0 -0.49179005445E+01  0.14305944130E+01  0.42334269516E+02  0.42642968021E+02  0.00000000000E+00 0.  1.
<mgrwt>
<rscale>  0 0.90658730E+02</rscale>
<asrwt>0</asrwt>
<pdfrwt beam="1">  1        1 0.27185900E-01 0.90658730E+02</pdfrwt>
<pdfrwt beam="2">  1       -1 0.17889114E-02 0.90658730E+02</pdfrwt>
<totfact> 0.11740143E+05</totfact>
</mgrwt>
</event>
<event>
 7    1  0.2911475E-009  0.9233518E+02  0.7818608E-02  0.1297293E+00
          1   -1    0    0  501    0  0.00000000000E+00  0.00000000000E+00  0.12789661641E+04  0.12789661641E+04  0.50400000000E-02 0. -1.
         -1   -1    0    0    0  501 -0.00000000000E+00 -0.00000000000E+00 -0.16665346900E+01  0.16665423111E+01  0.50400000000E-02 0.  1.
         23    2    1    2    0    0  0.00000000000E+00 -0.35527136788E-14  0.12772996294E+04  0.12806327064E+04  0.92335179993E+02 0.  0.
    9000005    2    3    3    0    0 -0.10122540068E+02 -0.18188379807E+02  0.12088350265E+04  0.12090737459E+04  0.11996615549E+02 0.  0.
         22    1    3    3    0    0  0.10122540068E+02  0.18188379807E+02  0.68464602910E+02  0.71558960509E+02  0.00000000000E+00 0.  1.
         22    1    4    4    0    0 -0.61672820050E+01 -0.10019760117E+02  0.36428319577E+03  0.36447315084E+03  0.00000000000E+00 0.  1.
         22    1    4    4    0    0 -0.39552580630E+01 -0.81686196895E+01  0.84455183071E+03  0.84460059506E+03  0.00000000000E+00 0.  1.
<mgrwt>
<rscale>  0 0.92335180E+02</rscale>
<asrwt>0</asrwt>
<pdfrwt beam="1">  1        1 0.19676385E+00 0.92335180E+02</pdfrwt>
<pdfrwt beam="2">  1       -1 0.25639077E-03 0.92335180E+02</pdfrwt>
<totfact> 0.11915889E+05</totfact>
</mgrwt>
</event>
<event>
 7    1  0.2911475E-009  0.9122684E+02  0.7818608E-02  0.1299908E+00
         -1   -1    0    0    0  501 -0.00000000000E+00  0.00000000000E+00  0.59491690977E+01  0.59491712326E+01  0.50400000000E-02 0.  1.
          1   -1    0    0  501    0  0.00000000000E+00 -0.00000000000E+00 -0.34972677655E+03  0.34972677659E+03  0.50400000000E-02 0. -1.
         23    2    1    2    0    0 -0.17763568394E-14  0.11102230246E-15 -0.34377760746E+03  0.35567594782E+03  0.91226840740E+02 0.  0.
    9000005    2    3    3    0    0 -0.12335743392E+02 -0.87471845245E+00 -0.34298083964E+03  0.34328358984E+03  0.74047954359E+01 0.  0.
         22    1    3    3    0    0  0.12335743392E+02  0.87471845245E+00 -0.79676781518E+00  0.12392357982E+02  0.00000000000E+00 0.  1.
         22    1    4    4    0    0 -0.43819287256E+01 -0.33086925660E+01 -0.91001096264E+02  0.91166596224E+02  0.00000000000E+00 0. -1.
         22    1    4    4    0    0 -0.79538146668E+01  0.24339741135E+01 -0.25197974338E+03  0.25211699362E+03  0.00000000000E+00 0. -1.
<mgrwt>
<rscale>  0 0.91226841E+02</rscale>
<asrwt>0</asrwt>
<pdfrwt beam="2">  1        1 0.53804103E-01 0.91226841E+02</pdfrwt>
<pdfrwt beam="1">  1       -1 0.91525723E-03 0.91226841E+02</pdfrwt>
<totfact> 0.13162196E+05</totfact>
</mgrwt>
</event>
<event>
 7    1  0.2911475E-009  0.9602868E+02  0.7818608E-02  0.1288876E+00
          1   -1    0    0  501    0  0.00000000000E+00  0.00000000000E+00  0.51102332230E+03  0.51102332233E+03  0.50400000000E-02 0. -1.
         -1   -1    0    0    0  501 -0.00000000000E+00 -0.00000000000E+00 -0.45112929220E+01  0.45112957374E+01  0.50400000000E-02 0.  1.
         23    2    1    2    0    0  0.00000000000E+00  0.00000000000E+00  0.50651202938E+03  0.51553461806E+03  0.96028675488E+02 0.  0.
    9000005    2    3    3    0    0  0.46102215158E+02  0.17613162068E+00  0.31886461707E+03  0.32230678205E+03  0.90317479109E+01 0.  0.
         22    1    3    3    0    0 -0.46102215158E+02 -0.17613162068E+00  0.18764741231E+03  0.19322783601E+03  0.00000000000E+00 0.  1.
         22    1    4    4    0    0  0.31915331764E+02  0.36873810897E+01  0.20358578274E+03  0.20610520643E+03  0.00000000000E+00 0. -1.
         22    1    4    4    0    0  0.14186883394E+02 -0.35112494690E+01  0.11527883433E+03  0.11620157562E+03  0.00000000000E+00 0. -1.
<mgrwt>
<rscale>  0 0.96028675E+02</rscale>
<asrwt>0</asrwt>
<pdfrwt beam="1">  1        1 0.78618972E-01 0.96028675E+02</pdfrwt>
<pdfrwt beam="2">  1       -1 0.69404529E-03 0.96028675E+02</pdfrwt>
<totfact> 0.12164782E+05</totfact>
</mgrwt>
</event>
<event>
 7    1  0.2911475E-009  0.9213940E+02  0.7818608E-02  0.1297752E+00
          1   -1    0    0  501    0  0.00000000000E+00  0.00000000000E+00  0.49895770027E+02  0.49895770282E+02  0.50400000000E-02 0. -1.
         -1   -1    0    0    0  501 -0.00000000000E+00 -0.00000000000E+00 -0.42537016973E+02  0.42537017272E+02  0.50400000000E-02 0.  1.
         23    2    1    2    0    0  0.00000000000E+00  0.00000000000E+00  0.73587530544E+01  0.92432787554E+02  0.92139399653E+02 0.  0.
    9000005    2    3    3    0    0  0.25468617236E+02  0.14713617733E+02 -0.30615026698E+02  0.44399997094E+02  0.12997648694E+02 0.  0.
         22    1    3    3    0    0 -0.25468617236E+02 -0.14713617733E+02  0.37973779752E+02  0.48032790460E+02  0.00000000000E+00 0. -1.
         22    1    4    4    0    0  0.10428868610E+02  0.10783321839E+02 -0.81243942526E+01  0.17060102941E+02  0.00000000000E+00 0. -1.
         22    1    4    4    0    0  0.15039748626E+02  0.39302958934E+01 -0.22490632445E+02  0.27339894153E+02  0.00000000000E+00 0. -1.
<mgrwt>
<rscale>  0 0.92139400E+02</rscale>
<asrwt>0</asrwt>
<pdfrwt beam="1">  1        1 0.76762724E-02 0.92139400E+02</pdfrwt>
<pdfrwt beam="2">  1       -1 0.65441565E-02 0.92139400E+02</pdfrwt>
<totfact> 0.91017861E+04</totfact>
</mgrwt>
</event>
<event>
 7    1  0.2911475E-009  0.9051542E+02  0.7818608E-02  0.1301608E+00
          1   -1    0    0  501    0  0.00000000000E+00  0.00000000000E+00  0.39528489561E+02  0.39528489882E+02  0.50400000000E-02 0. -1.
         -1   -1    0    0    0  501 -0.00000000000E+00 -0.00000000000E+00 -0.51817322420E+02  0.51817322666E+02  0.50400000000E-02 0.  1.
         23    2    1    2    0    0  0.35527136788E-14  0.00000000000E+00 -0.12288832860E+02  0.91345812547E+02  0.90515424414E+02 0.  0.
    9000005    2    3    3    0    0 -0.16511967381E+02 -0.37212513071E+02 -0.23614338681E+02  0.49088466701E+02  0.13950784059E+02 0.  0.
         22    1    3    3    0    0  0.16511967381E+02  0.37212513071E+02  0.11325505821E+02  0.42257345846E+02  0.00000000000E+00 0. -1.
         22    1    4    4    0    0 -0.12326791536E+02 -0.35908711835E+02 -0.18143773709E+02  0.42078282993E+02  0.00000000000E+00 0. -1.
         22    1    4    4    0    0 -0.41851758449E+01 -0.13038012366E+01 -0.54705649717E+01  0.70101837085E+01  0.00000000000E+00 0. -1.
<mgrwt>
<rscale>  0 0.90515424E+02</rscale>
<asrwt>0</asrwt>
<pdfrwt beam="1">  1        1 0.60813061E-02 0.90515424E+02</pdfrwt>
<pdfrwt beam="2">  1       -1 0.79718958E-02 0.90515424E+02</pdfrwt>
<totfact> 0.92379710E+04</totfact>
</mgrwt>
</event>
<event>
 7    1  0.2911475E-009  0.1004083E+03  0.7818608E-02  0.1279440E+00
          1   -1    0    0  501    0  0.00000000000E+00  0.00000000000E+00  0.11319410612E+02  0.11319411734E+02  0.50400000000E-02 0. -1.
         -1   -1    0    0    0  501 -0.00000000000E+00 -0.00000000000E+00 -0.22266674200E+03  0.22266674206E+03  0.50400000000E-02 0.  1.
         23    2    1    2    0    0  0.35527136788E-14  0.00000000000E+00 -0.21134733139E+03  0.23398615379E+03  0.10040829488E+03 0.  0.
    9000005    2    3    3    0    0 -0.28323032302E+02  0.37013275882E+02 -0.63212274429E+02  0.78692329540E+02  0.49511957830E+01 0.  0.
         22    1    3    3    0    0  0.28323032302E+02 -0.37013275882E+02 -0.14813505696E+03  0.15529382425E+03  0.00000000000E+00 0.  1.
         22    1    4    4    0    0 -0.13659286397E+02  0.17920631342E+02 -0.26419016501E+02  0.34723040844E+02  0.00000000000E+00 0. -1.
         22    1    4    4    0    0 -0.14663745905E+02  0.19092644539E+02 -0.36793257928E+02  0.43969288696E+02  0.00000000000E+00 0. -1.
<mgrwt>
<rscale>  0 0.10040829E+03</rscale>
<asrwt>0</asrwt>
<pdfrwt beam="1">  1        1 0.17414481E-02 0.10040829E+03</pdfrwt>
<pdfrwt beam="2">  1       -1 0.34256418E-01 0.10040829E+03</pdfrwt>
<totfact> 0.52240586E+04</totfact>
</mgrwt>
</event>
<event>
 7    1  0.2911475E-009  0.8795652E+02  0.7818608E-02  0.1307877E+00
          1   -1    0    0  501    0  0.00000000000E+00  0.00000000000E+00  0.74112043997E+02  0.74112044168E+02  0.50400000000E-02 0. -1.
         -1   -1    0    0    0  501 -0.00000000000E+00 -0.00000000000E+00 -0.26096803766E+02  0.26096804252E+02  0.50400000000E-02 0.  1.
         23    2    1    2    0    0  0.00000000000E+00  0.88817841970E-15  0.48015240231E+02  0.10020884842E+03  0.87956523392E+02 0.  0.
    9000005    2    3    3    0    0  0.25978863399E+02  0.21360158096E+01 -0.14763244761E+02  0.32233837682E+02  0.11899705408E+02 0.  0.
         22    1    3    3    0    0 -0.25978863399E+02 -0.21360158096E+01  0.62778484992E+02  0.67975010739E+02  0.00000000000E+00 0. -1.
         22    1    4    4    0    0  0.12094858469E+02 -0.29539692237E+01 -0.18216478613E+01  0.12582922414E+02  0.00000000000E+00 0. -1.
         22    1    4    4    0    0  0.13884004930E+02  0.50899850334E+01 -0.12941596900E+02  0.19650915267E+02  0.00000000000E+00 0. -1.
<mgrwt>
<rscale>  0 0.87956523E+02</rscale>
<asrwt>0</asrwt>
<pdfrwt beam="1">  1        1 0.11401853E-01 0.87956523E+02</pdfrwt>
<pdfrwt beam="2">  1       -1 0.40148929E-02 0.87956523E+02</pdfrwt>
<totfact> 0.10986219E+05</totfact>
</mgrwt>
</event>
<event>
 7    1  0.2911475E-009  0.8878209E+02  0.7818608E-02  0.1305828E+00
         -1   -1    0    0    0  501 -0.00000000000E+00  0.00000000000E+00  0.26542909585E+02  0.26542910064E+02  0.50400000000E-02 0.  1.
          1   -1    0    0  501    0  0.00000000000E+00 -0.00000000000E+00 -0.74240723949E+02  0.74240724120E+02  0.50400000000E-02 0. -1.
         23    2    1    2    0    0  0.71054273576E-14  0.00000000000E+00 -0.47697814364E+02  0.10078363418E+03  0.88782089547E+02 0.  0.
    9000005    2    3    3    0    0 -0.39876110458E+02 -0.22872037564E+01 -0.44596045603E+02  0.60721726395E+02  0.10148166668E+02 0.  0.
         22    1    3    3    0    0  0.39876110458E+02  0.22872037564E+01 -0.31017687607E+01  0.40061907789E+02  0.00000000000E+00 0. -1.
         22    1    4    4    0    0 -0.27717496524E+02  0.15780095779E+01 -0.35433628736E+02  0.45014350747E+02  0.00000000000E+00 0. -1.
         22    1    4    4    0    0 -0.12158613933E+02 -0.38652133343E+01 -0.91624168675E+01  0.15707375648E+02  0.00000000000E+00 0. -1.
<mgrwt>
<rscale>  0 0.88782090E+02</rscale>
<asrwt>0</asrwt>
<pdfrwt beam="2">  1        1 0.11421650E-01 0.88782090E+02</pdfrwt>
<pdfrwt beam="1">  1       -1 0.40835247E-02 0.88782090E+02</pdfrwt>
<totfact> 0.10711657E+05</totfact>
</mgrwt>
</event>
<event>
 7    1  0.2911475E-009  0.9202491E+02  0.7818608E-02  0.1298021E+00
          1   -1    0    0  501    0  0.00000000000E+00  0.00000000000E+00  0.19554959882E+03  0.19554959889E+03  0.50400000000E-02 0. -1.
         -1   -1    0    0    0  501 -0.00000000000E+00 -0.00000000000E+00 -0.10826644800E+02  0.10826645973E+02  0.50400000000E-02 0.  1.
         23    2    1    2    0    0  0.71054273576E-14  0.44408920985E-15  0.18472295402E+03  0.20637624486E+03  0.92024913473E+02 0.  0.
    9000005    2    3    3    0    0 -0.44898440232E+02 -0.39155756435E+01  0.90121142039E+02  0.10158738811E+03  0.12921900526E+02 0.  0.
         22    1    3    3    0    0  0.44898440232E+02  0.39155756435E+01  0.94601811982E+02  0.10478885675E+03  0.00000000000E+00 0. -1.
         22    1    4    4    0    0 -0.44658627461E+01 -0.39689942346E+01  0.73775444904E+01  0.94934191948E+01  0.00000000000E+00 0.  1.
         22    1    4    4    0    0 -0.40432577486E+02  0.53418591093E-01  0.82743597549E+02  0.92093968918E+02  0.00000000000E+00 0.  1.
<mgrwt>
<rscale>  0 0.92024913E+02</rscale>
<asrwt>0</asrwt>
<pdfrwt beam="1">  1        1 0.30084552E-01 0.92024913E+02</pdfrwt>
<pdfrwt beam="2">  1       -1 0.16656378E-02 0.92024913E+02</pdfrwt>
<totfact> 0.11499496E+05</totfact>
</mgrwt>
</event>
<event>
 7    1  0.2911475E-009  0.8926182E+02  0.7818608E-02  0.1304649E+00
         -1   -1    0    0    0  501 -0.00000000000E+00  0.00000000000E+00  0.74121236724E+03  0.74121236726E+03  0.50400000000E-02 0.  1.
          1   -1    0    0  501    0  0.00000000000E+00 -0.00000000000E+00 -0.26873758908E+01  0.26873806169E+01  0.50400000000E-02 0. -1.
         23    2    1    2    0    0  0.00000000000E+00  0.00000000000E+00  0.73852499135E+03  0.74389974788E+03  0.89261817368E+02 0.  0.
    9000005    2    3    3    0    0  0.70326710647E+01  0.23112971018E+02  0.68053893720E+03  0.68108215187E+03  0.12489382025E+02 0.  0.
         22    1    3    3    0    0 -0.70326710647E+01 -0.23112971018E+02  0.57986054153E+02  0.62817596005E+02  0.00000000000E+00 0. -1.
         22    1    4    4    0    0 -0.28626259175E+01  0.12040972097E+01  0.65519604965E+02  0.65593163607E+02  0.00000000000E+00 0.  1.
         22    1    4    4    0    0  0.98952969822E+01  0.21908873808E+02  0.61501933223E+03  0.61548898826E+03  0.00000000000E+00 0.  1.
<mgrwt>
<rscale>  0 0.89261817E+02</rscale>
<asrwt>0</asrwt>
<pdfrwt beam="2">  1        1 0.41344368E-03 0.89261817E+02</pdfrwt>
<pdfrwt beam="1">  1       -1 0.11403243E+00 0.89261817E+02</pdfrwt>
<totfact> 0.37063128E+04</totfact>
</mgrwt>
</event>
<event>
 7    1  0.2911475E-009  0.8923948E+02  0.7818608E-02  0.1304704E+00
         -1   -1    0    0    0  501 -0.00000000000E+00  0.00000000000E+00  0.98777663933E+01  0.98777676791E+01  0.50400000000E-02 0.  1.
          1   -1    0    0  501    0  0.00000000000E+00 -0.00000000000E+00 -0.20155581667E+03  0.20155581674E+03  0.50400000000E-02 0. -1.
         23    2    1    2    0    0  0.00000000000E+00  0.00000000000E+00 -0.19167805028E+03  0.21143358442E+03  0.89239484869E+02 0.  0.
    9000005    2    3    3    0    0  0.39253547212E+02  0.17211184373E+02 -0.85179814769E+02  0.96634019943E+02  0.15667390654E+02 0.  0.
         22    1    3    3    0    0 -0.39253547212E+02 -0.17211184373E+02 -0.10649823551E+03  0.11479956447E+03  0.00000000000E+00 0.  1.
         22    1    4    4    0    0  0.12020861826E+02  0.49267094760E+01 -0.12392008002E+02  0.17953702894E+02  0.00000000000E+00 0.  1.
         22    1    4    4    0    0  0.27232685386E+02  0.12284474897E+02 -0.72787806767E+02  0.78680317048E+02  0.00000000000E+00 0.  1.
<mgrwt>
<rscale>  0 0.89239485E+02</rscale>
<asrwt>0</asrwt>
<pdfrwt beam="2">  1        1 0.31008584E-01 0.89239485E+02</pdfrwt>
<pdfrwt beam="1">  1       -1 0.15196566E-02 0.89239485E+02</pdfrwt>
<totfact> 0.12560082E+05</totfact>
</mgrwt>
</event>
<event>
 7    1  0.2911475E-009  0.9103319E+02  0.7818608E-02  0.1300369E+00
          1   -1    0    0  501    0  0.00000000000E+00  0.00000000000E+00  0.16024938188E+02  0.16024938981E+02  0.50400000000E-02 0. -1.
         -1   -1    0    0    0  501 -0.00000000000E+00 -0.00000000000E+00 -0.12928350444E+03  0.12928350454E+03  0.50400000000E-02 0.  1.
         23    2    1    2    0    0  0.00000000000E+00  0.35527136788E-14 -0.11325856625E+03  0.14530844352E+03  0.91033185864E+02 0.  0.
    9000005    2    3    3    0    0  0.18927036655E+02  0.24586217281E+02 -0.36005366071E+01  0.31345299203E+02  0.26170826415E+01 0.  0.
         22    1    3    3    0    0 -0.18927036655E+02 -0.24586217281E+02 -0.10965802965E+03  0.11396314432E+03  0.00000000000E+00 0.  1.
         22    1    4    4    0    0  0.17566005191E+02  0.21493548994E+02 -0.32569330093E+01  0.27948967769E+02  0.00000000000E+00 0. -1.
         22    1    4    4    0    0  0.13610314647E+01  0.30926682870E+01 -0.34360359783E+00  0.33963314347E+01  0.00000000000E+00 0. -1.
<mgrwt>
<rscale>  0 0.91033186E+02</rscale>
<asrwt>0</asrwt>
<pdfrwt beam="1">  1        1 0.24653753E-02 0.91033186E+02</pdfrwt>
<pdfrwt beam="2">  1       -1 0.19889769E-01 0.91033186E+02</pdfrwt>
<totfact> 0.77632804E+04</totfact>
</mgrwt>
</event>
<event>
 7    1  0.2911475E-009  0.9732720E+02  0.7818608E-02  0.1286019E+00
         -1   -1    0    0    0  501 -0.00000000000E+00  0.00000000000E+00  0.13344954182E+02  0.13344955134E+02  0.50400000000E-02 0.  1.
          1   -1    0    0  501    0  0.00000000000E+00 -0.00000000000E+00 -0.17745627964E+03  0.17745627971E+03  0.50400000000E-02 0. -1.
         23    2    1    2    0    0  0.00000000000E+00 -0.27755575616E-15 -0.16411132546E+03  0.19080123485E+03  0.97327201106E+02 0.  0.
    9000005    2    3    3    0    0 -0.44424383239E+02 -0.18606878220E+00 -0.51205930557E+02  0.69470329279E+02  0.15182848159E+02 0.  0.
         22    1    3    3    0    0  0.44424383239E+02  0.18606878220E+00 -0.11290539490E+03  0.12133090557E+03  0.00000000000E+00 0. -1.
         22    1    4    4    0    0 -0.11095395051E+02 -0.61263721724E+01 -0.18287986450E+02  0.22250633154E+02  0.00000000000E+00 0. -1.
         22    1    4    4    0    0 -0.33328988188E+02  0.59403033902E+01 -0.32917944106E+02  0.47219696126E+02  0.00000000000E+00 0. -1.
<mgrwt>
<rscale>  0 0.97327201E+02</rscale>
<asrwt>0</asrwt>
<pdfrwt beam="2">  1        1 0.27300964E-01 0.97327201E+02</pdfrwt>
<pdfrwt beam="1">  1       -1 0.20530701E-02 0.97327201E+02</pdfrwt>
<totfact> 0.97015139E+04</totfact>
</mgrwt>
</event>
<event>
 7    1  0.2911475E-009  0.8949535E+02  0.7818608E-02  0.1304078E+00
          1   -1    0    0  501    0  0.00000000000E+00  0.00000000000E+00  0.37805594011E+02  0.37805594347E+02  0.50400000000E-02 0. -1.
         -1   -1    0    0    0  501 -0.00000000000E+00 -0.00000000000E+00 -0.52964498472E+02  0.52964498712E+02  0.50400000000E-02 0.  1.
         23    2    1    2    0    0  0.00000000000E+00  0.00000000000E+00 -0.15158904461E+02  0.90770093059E+02  0.89495348536E+02 0.  0.
    9000005    2    3    3    0    0  0.15826406663E+02  0.83446816676E+01 -0.48148249093E+02  0.53241361143E+02  0.14009988784E+02 0.  0.
         22    1    3    3    0    0 -0.15826406663E+02 -0.83446816676E+01  0.32989344632E+02  0.37528731916E+02  0.00000000000E+00 0. -1.
         22    1    4    4    0    0  0.13737203825E+02  0.12168963614E+02 -0.39639000702E+02  0.43681172386E+02  0.00000000000E+00 0. -1.
         22    1    4    4    0    0  0.20892028378E+01 -0.38242819462E+01 -0.85092483907E+01  0.95601887573E+01  0.00000000000E+00 0. -1.
<mgrwt>
<rscale>  0 0.89495349E+02</rscale>
<asrwt>0</asrwt>
<pdfrwt beam="1">  1        1 0.58162453E-02 0.89495349E+02</pdfrwt>
<pdfrwt beam="2">  1       -1 0.81483844E-02 0.89495349E+02</pdfrwt>
<totfact> 0.94741662E+04</totfact>
</mgrwt>
</event>
<event>
 7    1  0.2911475E-009  0.7016628E+02  0.7818608E-02  0.1359528E+00
          1   -1    0    0  501    0  0.00000000000E+00  0.00000000000E+00  0.23677614055E+02  0.23677614592E+02  0.50400000000E-02 0. -1.
         -1   -1    0    0    0  501 -0.00000000000E+00 -0.00000000000E+00 -0.51982722775E+02  0.51982723019E+02  0.50400000000E-02 0.  1.
         23    2    1    2    0    0  0.00000000000E+00  0.00000000000E+00 -0.28305108719E+02  0.75660337611E+02  0.70166284694E+02 0.  0.
    9000005    2    3    3    0    0  0.52322976837E+01  0.31544744395E+02  0.38706112512E+00  0.32698861282E+02  0.68277283776E+01 0.  0.
         22    1    3    3    0    0 -0.52322976837E+01 -0.31544744395E+02 -0.28692169845E+02  0.42961476329E+02  0.00000000000E+00 0.  1.
         22    1    4    4    0    0  0.11188463401E+01  0.15081194292E+02  0.33065513480E+01  0.15479906984E+02  0.00000000000E+00 0.  1.
         22    1    4    4    0    0  0.41134513437E+01  0.16463550103E+02 -0.29194902229E+01  0.17218954297E+02  0.00000000000E+00 0.  1.
<mgrwt>
<rscale>  0 0.70166285E+02</rscale>
<asrwt>0</asrwt>
<pdfrwt beam="1">  1        1 0.36427099E-02 0.70166285E+02</pdfrwt>
<pdfrwt beam="2">  1       -1 0.79973420E-02 0.70166285E+02</pdfrwt>
<totfact> 0.17523791E+05</totfact>
</mgrwt>
</event>
<event>
 7    1  0.2911475E-009  0.8933124E+02  0.7818608E-02  0.1304479E+00
         -1   -1    0    0    0  501 -0.00000000000E+00  0.00000000000E+00  0.28404968974E+02  0.28404969421E+02  0.50400000000E-02 0.  1.
          1   -1    0    0  501    0  0.00000000000E+00 -0.00000000000E+00 -0.70234810508E+02  0.70234810688E+02  0.50400000000E-02 0. -1.
         23    2    1    2    0    0  0.00000000000E+00  0.00000000000E+00 -0.41829841533E+02  0.98639780110E+02  0.89331240770E+02 0.  0.
    9000005    2    3    3    0    0  0.55642840540E+01  0.20148716947E+02  0.22037446591E+02  0.31438868331E+02  0.81130350699E+01 0.  0.
         22    1    3    3    0    0 -0.55642840540E+01 -0.20148716947E+02 -0.63867288124E+02  0.67200911779E+02  0.00000000000E+00 0. -1.
         22    1    4    4    0    0  0.31429784997E+00 -0.67842061619E+00  0.13024375456E+00  0.75894736746E+00  0.00000000000E+00 0.  1.
         22    1    4    4    0    0  0.52499862040E+01  0.20827137563E+02  0.21907202836E+02  0.30679920963E+02  0.00000000000E+00 0.  1.
<mgrwt>
<rscale>  0 0.89331241E+02</rscale>
<asrwt>0</asrwt>
<pdfrwt beam="2">  1        1 0.10805355E-01 0.89331241E+02</pdfrwt>
<pdfrwt beam="1">  1       -1 0.43699953E-02 0.89331241E+02</pdfrwt>
<totfact> 0.10443130E+05</totfact>
</mgrwt>
</event>
<event>
 7    1  0.4089035E-009  0.9196773E+02  0.7818608E-02  0.1298155E+00
          1   -1    0    0  501    0  0.00000000000E+00  0.00000000000E+00  0.46912466690E+03  0.46912466693E+03  0.50400000000E-02 0. -1.
         -1   -1    0    0    0  501 -0.00000000000E+00 -0.00000000000E+00 -0.45073631986E+01  0.45073660164E+01  0.50400000000E-02 0.  1.
         23    2    1    2    0    0  0.00000000000E+00 -0.17763568394E-14  0.46461730370E+03  0.47363203295E+03  0.91967732012E+02 0.  0.
    9000005    2    3    3    0    0  0.27479984277E+02  0.11647367792E+02  0.41053700242E+03  0.41186238263E+03  0.14113155679E+02 0.  0.
         22    1    3    3    0    0 -0.27479984277E+02 -0.11647367792E+02  0.54080301287E+02  0.61769650312E+02  0.00000000000E+00 0.  1.
         22    1    4    4    0    0  0.67425459084E+00  0.30760303383E+01  0.10088366393E+03  0.10093280056E+03  0.00000000000E+00 0. -1.
         22    1    4    4    0    0  0.26805729687E+02  0.85713374535E+01  0.30965333849E+03  0.31092958207E+03  0.00000000000E+00 0. -1.
<mgrwt>
<rscale>  0 0.91967732E+02</rscale>
<asrwt>0</asrwt>
<pdfrwt beam="1">  1        1 0.72173015E-01 0.91967732E+02</pdfrwt>
<pdfrwt beam="2">  1       -1 0.69344082E-03 0.91967732E+02</pdfrwt>
<totfact> 0.13502022E+05</totfact>
</mgrwt>
</event>
<event>
 7    1  0.2911475E-009  0.9386819E+02  0.7818608E-02  0.1293746E+00
         -1   -1    0    0    0  501 -0.00000000000E+00  0.00000000000E+00  0.17012864371E+02  0.17012865118E+02  0.50400000000E-02 0.  1.
          1   -1    0    0  501    0  0.00000000000E+00 -0.00000000000E+00 -0.12947903551E+03  0.12947903560E+03  0.50400000000E-02 0. -1.
         23    2    1    2    0    0  0.00000000000E+00 -0.35527136788E-14 -0.11246617113E+03  0.14649190072E+03  0.93868191244E+02 0.  0.
    9000005    2    3    3    0    0  0.34686230910E+02  0.17196498395E+02 -0.97017895686E+02  0.10480853010E+03  0.85733148216E+01 0.  0.
         22    1    3    3    0    0 -0.34686230910E+02 -0.17196498395E+02 -0.15448275447E+02  0.41683370619E+02  0.00000000000E+00 0.  1.
         22    1    4    4    0    0  0.25758595218E+01  0.34222862779E+01 -0.16290952552E+02  0.16844649913E+02  0.00000000000E+00 0. -1.
         22    1    4    4    0    0  0.32110371389E+02  0.13774212118E+02 -0.80726943134E+02  0.87963880189E+02  0.00000000000E+00 0. -1.
<mgrwt>
<rscale>  0 0.93868191E+02</rscale>
<asrwt>0</asrwt>
<pdfrwt beam="2">  1        1 0.19919851E-01 0.93868191E+02</pdfrwt>
<pdfrwt beam="1">  1       -1 0.26173639E-02 0.93868191E+02</pdfrwt>
<totfact> 0.10089992E+05</totfact>
</mgrwt>
</event>
<event>
 7    1  0.2911475E-009  0.9205190E+02  0.7818608E-02  0.1297957E+00
         -1   -1    0    0    0  501 -0.00000000000E+00  0.00000000000E+00  0.15346689837E+01  0.15346772596E+01  0.50400000000E-02 0.  1.
          1   -1    0    0  501    0  0.00000000000E+00 -0.00000000000E+00 -0.13803512278E+04  0.13803512278E+04  0.50400000000E-02 0. -1.
         23    2    1    2    0    0  0.00000000000E+00  0.00000000000E+00 -0.13788165589E+04  0.13818859051E+04  0.92051897114E+02 0.  0.
    9000005    2    3    3    0    0 -0.11058678518E+02  0.17005905352E+02 -0.13093136044E+04  0.13094831713E+04  0.57066642462E+01 0.  0.
         22    1    3    3    0    0  0.11058678518E+02 -0.17005905352E+02 -0.69502954453E+02  0.72402733823E+02  0.00000000000E+00 0.  1.
         22    1    4    4    0    0 -0.11001292565E+02  0.15814882336E+02 -0.11189329369E+04  0.11190987697E+04  0.00000000000E+00 0. -1.
         22    1    4    4    0    0 -0.57385953775E-01  0.11910230156E+01 -0.19038066748E+03  0.19038440161E+03  0.00000000000E+00 0. -1.
<mgrwt>
<rscale>  0 0.92051897E+02</rscale>
<asrwt>0</asrwt>
<pdfrwt beam="2">  1        1 0.21236074E+00 0.92051897E+02</pdfrwt>
<pdfrwt beam="1">  1       -1 0.23610466E-03 0.92051897E+02</pdfrwt>
<totfact> 0.11463119E+05</totfact>
</mgrwt>
</event>
<event>
 7    1  0.2911475E-009  0.9466230E+02  0.7818608E-02  0.1291938E+00
         -1   -1    0    0    0  501 -0.00000000000E+00  0.00000000000E+00  0.25201231047E+02  0.25201231551E+02  0.50400000000E-02 0.  1.
          1   -1    0    0  501    0  0.00000000000E+00 -0.00000000000E+00 -0.88893976640E+02  0.88893976783E+02  0.50400000000E-02 0. -1.
         23    2    1    2    0    0  0.00000000000E+00  0.00000000000E+00 -0.63692745593E+02  0.11409520833E+03  0.94662298322E+02 0.  0.
    9000005    2    3    3    0    0 -0.12665946568E+02 -0.19579233003E+02 -0.81208049066E+02  0.84930873553E+02  0.86448529164E+01 0.  0.
         22    1    3    3    0    0  0.12665946568E+02  0.19579233003E+02  0.17515303473E+02  0.29164334781E+02  0.00000000000E+00 0.  1.
         22    1    4    4    0    0 -0.80355415885E+01 -0.18412379177E+02 -0.66284527178E+02  0.69261996642E+02  0.00000000000E+00 0. -1.
         22    1    4    4    0    0 -0.46304049799E+01 -0.11668538263E+01 -0.14923521888E+02  0.15668876911E+02  0.00000000000E+00 0. -1.
<mgrwt>
<rscale>  0 0.94662298E+02</rscale>
<asrwt>0</asrwt>
<pdfrwt beam="2">  1        1 0.13675996E-01 0.94662298E+02</pdfrwt>
<pdfrwt beam="1">  1       -1 0.38771126E-02 0.94662298E+02</pdfrwt>
<totfact> 0.92429984E+04</totfact>
</mgrwt>
</event>
<event>
 7    1  0.2911475E-009  0.9221607E+02  0.7818608E-02  0.1297572E+00
         -1   -1    0    0    0  501 -0.00000000000E+00  0.00000000000E+00  0.48233503481E+01  0.48233529813E+01  0.50400000000E-02 0.  1.
          1   -1    0    0  501    0  0.00000000000E+00 -0.00000000000E+00 -0.44076213979E+03  0.44076213981E+03  0.50400000000E-02 0. -1.
         23    2    1    2    0    0  0.00000000000E+00  0.88817841970E-15 -0.43593878944E+03  0.44558549280E+03  0.92216068306E+02 0.  0.
    9000005    2    3    3    0    0  0.22922118098E+02  0.45487428768E+01 -0.40954133106E+03  0.41033013336E+03  0.10030051901E+02 0.  0.
         22    1    3    3    0    0 -0.22922118098E+02 -0.45487428768E+01 -0.26397458381E+02  0.35255359434E+02  0.00000000000E+00 0.  1.
         22    1    4    4    0    0  0.25687862269E+01 -0.12181318371E+01 -0.11274939051E+03  0.11278522761E+03  0.00000000000E+00 0. -1.
         22    1    4    4    0    0  0.20353331871E+02  0.57668747139E+01 -0.29679194055E+03  0.29754490575E+03  0.00000000000E+00 0. -1.
<mgrwt>
<rscale>  0 0.92216068E+02</rscale>
<asrwt>0</asrwt>
<pdfrwt beam="2">  1        1 0.67809529E-01 0.92216068E+02</pdfrwt>
<pdfrwt beam="1">  1       -1 0.74205445E-03 0.92216068E+02</pdfrwt>
<totfact> 0.13288511E+05</totfact>
</mgrwt>
</event>
<event>
 7    1  0.2911475E-009  0.9097112E+02  0.7818608E-02  0.1300517E+00
         -1   -1    0    0    0  501 -0.00000000000E+00  0.00000000000E+00  0.27381089296E+02  0.27381089760E+02  0.50400000000E-02 0.  1.
          1   -1    0    0  501    0  0.00000000000E+00 -0.00000000000E+00 -0.75560762139E+02  0.75560762307E+02  0.50400000000E-02 0. -1.
         23    2    1    2    0    0 -0.71054273576E-14  0.17763568394E-14 -0.48179672843E+02  0.10294185207E+03  0.90971116470E+02 0.  0.
    9000005    2    3    3    0    0 -0.40900395501E+02  0.10858653723E+02 -0.95544416830E+01  0.45647339285E+02  0.14199982925E+02 0.  0.
         22    1    3    3    0    0  0.40900395501E+02 -0.10858653723E+02 -0.38625231160E+02  0.57294512783E+02  0.00000000000E+00 0. -1.
         22    1    4    4    0    0 -0.35070759899E+02  0.46684291146E+01 -0.10938114106E+02  0.37032347623E+02  0.00000000000E+00 0.  1.
         22    1    4    4    0    0 -0.58296356022E+01  0.61902246080E+01  0.13836724227E+01  0.86149916614E+01  0.00000000000E+00 0.  1.
<mgrwt>
<rscale>  0 0.90971116E+02</rscale>
<asrwt>0</asrwt>
<pdfrwt beam="2">  1        1 0.11624733E-01 0.90971116E+02</pdfrwt>
<pdfrwt beam="1">  1       -1 0.42124753E-02 0.90971116E+02</pdfrwt>
<totfact> 0.10046777E+05</totfact>
</mgrwt>
</event>
<event>
 7    1  0.2911475E-009  0.9160036E+02  0.7818608E-02  0.1299022E+00
         -1   -1    0    0    0  501 -0.00000000000E+00  0.00000000000E+00  0.31956676149E+03  0.31956676153E+03  0.50400000000E-02 0.  1.
          1   -1    0    0  501    0  0.00000000000E+00 -0.00000000000E+00 -0.65640620641E+01  0.65640639990E+01  0.50400000000E-02 0. -1.
         23    2    1    2    0    0  0.88817841970E-15  0.00000000000E+00  0.31300269942E+03  0.32613082553E+03  0.91600357598E+02 0.  0.
    9000005    2    3    3    0    0 -0.78346673100E+01 -0.43127713841E+02  0.20331905892E+03  0.20801273755E+03  0.30459071090E+01 0.  0.
         22    1    3    3    0    0  0.78346673100E+01  0.43127713841E+02  0.10968364050E+03  0.11811808798E+03  0.00000000000E+00 0. -1.
         22    1    4    4    0    0 -0.44517124093E+01 -0.16654323166E+02  0.77471301877E+02  0.79366156754E+02  0.00000000000E+00 0. -1.
         22    1    4    4    0    0 -0.33829549007E+01 -0.26473390675E+02  0.12584775704E+03  0.12864658079E+03  0.00000000000E+00 0. -1.
<mgrwt>
<rscale>  0 0.91600358E+02</rscale>
<asrwt>0</asrwt>
<pdfrwt beam="2">  1        1 0.10098560E-02 0.91600358E+02</pdfrwt>
<pdfrwt beam="1">  1       -1 0.49164111E-01 0.91600358E+02</pdfrwt>
<totfact> 0.58346429E+04</totfact>
</mgrwt>
</event>
<event>
 7    1  0.2911475E-009  0.9153194E+02  0.7818608E-02  0.1299184E+00
          1   -1    0    0  501    0  0.00000000000E+00  0.00000000000E+00  0.26525994220E+02  0.26525994698E+02  0.50400000000E-02 0. -1.
         -1   -1    0    0    0  501 -0.00000000000E+00 -0.00000000000E+00 -0.78961187899E+02  0.78961188060E+02  0.50400000000E-02 0.  1.
         23    2    1    2    0    0  0.00000000000E+00  0.88817841970E-15 -0.52435193679E+02  0.10548718276E+03  0.91531940819E+02 0.  0.
    9000005    2    3    3    0    0  0.43323533594E+02 -0.54802697869E+01 -0.40713755554E+02  0.60272649346E+02  0.82595670485E+01 0.  0.
         22    1    3    3    0    0 -0.43323533594E+02  0.54802697869E+01 -0.11721438125E+02  0.45214533412E+02  0.00000000000E+00 0. -1.
         22    1    4    4    0    0  0.29354575842E+02 -0.57759728882E+01 -0.31995313311E+02  0.43803573593E+02  0.00000000000E+00 0.  1.
         22    1    4    4    0    0  0.13968957751E+02  0.29570310124E+00 -0.87184422435E+01  0.16469075752E+02  0.00000000000E+00 0.  1.
<mgrwt>
<rscale>  0 0.91531941E+02</rscale>
<asrwt>0</asrwt>
<pdfrwt beam="1">  1        1 0.40809223E-02 0.91531941E+02</pdfrwt>
<pdfrwt beam="2">  1       -1 0.12147875E-01 0.91531941E+02</pdfrwt>
<totfact> 0.83996888E+04</totfact>
</mgrwt>
</event>
<event>
 7    1  0.2911475E-009  0.9446923E+02  0.7818608E-02  0.1292376E+00
         -1   -1    0    0    0  501 -0.00000000000E+00  0.00000000000E+00  0.54579798582E+02  0.54579798815E+02  0.50400000000E-02 0.  1.
          1   -1    0    0  501    0  0.00000000000E+00 -0.00000000000E+00 -0.40877919561E+02  0.40877919871E+02  0.50400000000E-02 0. -1.
         23    2    1    2    0    0  0.00000000000E+00  0.17763568394E-14  0.13701879022E+02  0.95457718686E+02  0.94469225508E+02 0.  0.
    9000005    2    3    3    0    0 -0.35389565448E+02 -0.11046469863E+02  0.35631420483E+02  0.52383937477E+02  0.10001646910E+02 0.  0.
         22    1    3    3    0    0  0.35389565448E+02  0.11046469863E+02 -0.21929541461E+02  0.43073781210E+02  0.00000000000E+00 0. -1.
         22    1    4    4    0    0  0.43092453492E+00 -0.31873480559E+00 -0.22175775946E+00  0.58005545852E+00  0.00000000000E+00 0. -1.
         22    1    4    4    0    0 -0.35820489983E+02 -0.10727735058E+02  0.35853178242E+02  0.51803882018E+02  0.00000000000E+00 0. -1.
<mgrwt>
<rscale>  0 0.94469226E+02</rscale>
<asrwt>0</asrwt>
<pdfrwt beam="2">  1        1 0.62889107E-02 0.94469226E+02</pdfrwt>
<pdfrwt beam="1">  1       -1 0.83968922E-02 0.94469226E+02</pdfrwt>
<totfact> 0.82266441E+04</totfact>
</mgrwt>
</event>
<event>
 7    1  0.2911475E-009  0.7150484E+02  0.7818608E-02  0.1355049E+00
         -1   -1    0    0    0  501 -0.00000000000E+00  0.00000000000E+00  0.73569417034E+01  0.73569434298E+01  0.50400000000E-02 0.  1.
          1   -1    0    0  501    0  0.00000000000E+00 -0.00000000000E+00 -0.17374547138E+03  0.17374547145E+03  0.50400000000E-02 0. -1.
         23    2    1    2    0    0  0.00000000000E+00 -0.35527136788E-14 -0.16638852967E+03  0.18110241488E+03  0.71504838077E+02 0.  0.
    9000005    2    3    3    0    0 -0.21121851906E+02 -0.26664185007E+02 -0.99299105379E+02  0.10588205698E+03  0.13913528374E+02 0.  0.
         22    1    3    3    0    0  0.21121851906E+02  0.26664185007E+02 -0.67089424294E+02  0.75220357897E+02  0.00000000000E+00 0. -1.
         22    1    4    4    0    0  0.12071514270E+01 -0.61315205348E+01 -0.21082666337E+02  0.21989351480E+02  0.00000000000E+00 0.  1.
         22    1    4    4    0    0 -0.22329003333E+02 -0.20532664472E+02 -0.78216439043E+02  0.83892705503E+02  0.00000000000E+00 0.  1.
<mgrwt>
<rscale>  0 0.71504838E+02</rscale>
<asrwt>0</asrwt>
<pdfrwt beam="2">  1        1 0.26730070E-01 0.71504838E+02</pdfrwt>
<pdfrwt beam="1">  1       -1 0.11318375E-02 0.71504838E+02</pdfrwt>
<totfact> 0.21951711E+05</totfact>
</mgrwt>
</event>
<event>
 7    1  0.2911475E-009  0.9603675E+02  0.7818608E-02  0.1288858E+00
         -1   -1    0    0    0  501 -0.00000000000E+00  0.00000000000E+00  0.16840496279E+01  0.16840571697E+01  0.50400000000E-02 0.  1.
          1   -1    0    0  501    0  0.00000000000E+00 -0.00000000000E+00 -0.13691752693E+04  0.13691752694E+04  0.50400000000E-02 0. -1.
         23    2    1    2    0    0  0.00000000000E+00 -0.35527136788E-14 -0.13674912197E+04  0.13708593265E+04  0.96036748771E+02 0.  0.
    9000005    2    3    3    0    0 -0.17504992541E+02  0.19233477542E+02 -0.12573601061E+04  0.12576992028E+04  0.13285210000E+02 0.  0.
         22    1    3    3    0    0  0.17504992541E+02 -0.19233477542E+02 -0.11013111360E+03  0.11316012374E+03  0.00000000000E+00 0.  1.
         22    1    4    4    0    0 -0.13240413837E+01  0.12982546622E+01 -0.38569964683E+03  0.38570410436E+03  0.00000000000E+00 0. -1.
         22    1    4    4    0    0 -0.16180951157E+02  0.17935222880E+02 -0.87166045929E+03  0.87199509843E+03  0.00000000000E+00 0. -1.
<mgrwt>
<rscale>  0 0.96036749E+02</rscale>
<asrwt>0</asrwt>
<pdfrwt beam="2">  1        1 0.21064146E+00 0.96036749E+02</pdfrwt>
<pdfrwt beam="1">  1       -1 0.25908623E-03 0.96036749E+02</pdfrwt>
<totfact> 0.10299690E+05</totfact>
</mgrwt>
</event>
<event>
 7    1  0.4265890E-009  0.9244135E+02  0.7818608E-02  0.1297045E+00
          1   -1    0    0  501    0  0.00000000000E+00  0.00000000000E+00  0.43412823048E+02  0.43412823341E+02  0.50400000000E-02 0. -1.
         -1   -1    0    0    0  501 -0.00000000000E+00 -0.00000000000E+00 -0.49210131185E+02  0.49210131443E+02  0.50400000000E-02 0.  1.
         23    2    1    2    0    0  0.00000000000E+00  0.00000000000E+00 -0.57973081368E+01  0.92622954784E+02  0.92441348818E+02 0.  0.
    9000005    2    3    3    0    0  0.18495563470E+02 -0.40863547804E+02 -0.15037825704E+01  0.47563552114E+02  0.15751657705E+02 0.  0.
         22    1    3    3    0    0 -0.18495563470E+02  0.40863547804E+02 -0.42935255663E+01  0.45059402670E+02  0.00000000000E+00 0. -1.
         22    1    4    4    0    0  0.10185124460E+02 -0.26304585916E+02  0.65611380054E+01  0.28960603109E+02  0.00000000000E+00 0. -1.
         22    1    4    4    0    0  0.83104390100E+01 -0.14558961888E+02 -0.80649205758E+01  0.18602949005E+02  0.00000000000E+00 0. -1.
<mgrwt>
<rscale>  0 0.92441349E+02</rscale>
<asrwt>0</asrwt>
<pdfrwt beam="1">  1        1 0.66788959E-02 0.92441349E+02</pdfrwt>
<pdfrwt beam="2">  1       -1 0.75707895E-02 0.92441349E+02</pdfrwt>
<totfact> 0.88297726E+04</totfact>
</mgrwt>
</event>
<event>
 7    1  0.2911475E-009  0.9082021E+02  0.7818608E-02  0.1300878E+00
          1   -1    0    0  501    0  0.00000000000E+00  0.00000000000E+00  0.31044951235E+03  0.31044951239E+03  0.50400000000E-02 0. -1.
         -1   -1    0    0    0  501 -0.00000000000E+00 -0.00000000000E+00 -0.66422304713E+01  0.66422323834E+01  0.50400000000E-02 0.  1.
         23    2    1    2    0    0  0.00000000000E+00  0.00000000000E+00  0.30380728188E+03  0.31709174477E+03  0.90820207451E+02 0.  0.
    9000005    2    3    3    0    0 -0.40207850942E+02  0.15932042217E+02  0.11213302159E+03  0.12059868306E+03  0.99863195009E+01 0.  0.
         22    1    3    3    0    0  0.40207850942E+02 -0.15932042217E+02  0.19167426028E+03  0.19649306172E+03  0.00000000000E+00 0.  1.
         22    1    4    4    0    0 -0.33697638487E+02  0.10672424236E+02  0.97919964727E+02  0.10410451945E+03  0.00000000000E+00 0. -1.
         22    1    4    4    0    0 -0.65102124549E+01  0.52596179804E+01  0.14213056867E+02  0.16494163604E+02  0.00000000000E+00 0. -1.
<mgrwt>
<rscale>  0 0.90820207E+02</rscale>
<asrwt>0</asrwt>
<pdfrwt beam="1">  1        1 0.47761458E-01 0.90820207E+02</pdfrwt>
<pdfrwt beam="2">  1       -1 0.10218819E-02 0.90820207E+02</pdfrwt>
<totfact> 0.13030911E+05</totfact>
</mgrwt>
</event>
<event>
 7    1  0.2911475E-009  0.8970415E+02  0.7818608E-02  0.1303570E+00
         -1   -1    0    0    0  501 -0.00000000000E+00  0.00000000000E+00  0.20505627345E+02  0.20505627964E+02  0.50400000000E-02 0.  1.
          1   -1    0    0  501    0  0.00000000000E+00 -0.00000000000E+00 -0.98105205483E+02  0.98105205613E+02  0.50400000000E-02 0. -1.
         23    2    1    2    0    0  0.00000000000E+00 -0.17763568394E-14 -0.77599578138E+02  0.11861083358E+03  0.89704154389E+02 0.  0.
    9000005    2    3    3    0    0 -0.32209785486E+02 -0.15008030168E+02 -0.74621368455E+02  0.82951599380E+02  0.70645565334E+01 0.  0.
         22    1    3    3    0    0  0.32209785486E+02  0.15008030168E+02 -0.29782096837E+01  0.35659234197E+02  0.00000000000E+00 0.  1.
         22    1    4    4    0    0 -0.68536100287E+01 -0.23057024076E+01 -0.22236010073E+02  0.23382223547E+02  0.00000000000E+00 0. -1.
         22    1    4    4    0    0 -0.25356175458E+02 -0.12702327761E+02 -0.52385358382E+02  0.59569375833E+02  0.00000000000E+00 0. -1.
<mgrwt>
<rscale>  0 0.89704154E+02</rscale>
<asrwt>0</asrwt>
<pdfrwt beam="2">  1        1 0.15093108E-01 0.89704154E+02</pdfrwt>
<pdfrwt beam="1">  1       -1 0.31547120E-02 0.89704154E+02</pdfrwt>
<totfact> 0.10884080E+05</totfact>
</mgrwt>
</event>
<event>
 6    1  0.2911475E-009  0.1511845E+03  0.7818608E-02  0.1199025E+00
         -1   -1    0    0    0  501 -0.00000000000E+00  0.00000000000E+00  0.19464815044E+03  0.19464815050E+03  0.50400000000E-02 0. -1.
          1   -1    0    0  501    0  0.00000000000E+00 -0.00000000000E+00 -0.29356502889E+02  0.29356503321E+02  0.50400000000E-02 0.  1.
    9000005    2    1    2    0    0  0.35727803956E+02 -0.55382364881E+02  0.30423752853E+02  0.73894589755E+02  0.13824736600E+02 0.  0.
         22    1    1    2    0    0 -0.35727803956E+02  0.55382364881E+02  0.13486789469E+03  0.15011006407E+03  0.00000000000E+00 0. -1.
         22    1    3    3    0    0  0.24789968816E+02 -0.28296677731E+02  0.21601951495E+02  0.43380742650E+02  0.00000000000E+00 0. -1.
         22    1    3    3    0    0  0.10937835141E+02 -0.27085687150E+02  0.88218013586E+01  0.30513847105E+02  0.00000000000E+00 0. -1.
<mgrwt>
<rscale>  0 0.15118451E+03</rscale>
<asrwt>0</asrwt>
<pdfrwt beam="2">  1        1 0.45163848E-02 0.15118451E+03</pdfrwt>
<pdfrwt beam="1">  1       -1 0.29945871E-01 0.15118451E+03</pdfrwt>
<totfact> 0.18462017E+04</totfact>
</mgrwt>
</event>
<event>
 7    1  0.2911475E-009  0.9129795E+02  0.7818608E-02  0.1299739E+00
         -1   -1    0    0    0  501 -0.00000000000E+00  0.00000000000E+00  0.16798772862E+01  0.16798848467E+01  0.50400000000E-02 0.  1.
          1   -1    0    0  501    0  0.00000000000E+00 -0.00000000000E+00 -0.12404620429E+04  0.12404620429E+04  0.50400000000E-02 0. -1.
         23    2    1    2    0    0  0.00000000000E+00  0.00000000000E+00 -0.12387821656E+04  0.12421419277E+04  0.91297945480E+02 0.  0.
    9000005    2    3    3    0    0 -0.23796681339E+02 -0.65249840867E+01 -0.11412200191E+04  0.11415077889E+04  0.69312906904E+01 0.  0.
         22    1    3    3    0    0  0.23796681339E+02  0.65249840867E+01 -0.97562146530E+02  0.10063413882E+03  0.00000000000E+00 0.  1.
         22    1    4    4    0    0 -0.73659352870E+01  0.60764697182E+00 -0.25649256576E+03  0.25659903064E+03  0.00000000000E+00 0.  1.
         22    1    4    4    0    0 -0.16430746052E+02 -0.71326310585E+01 -0.88472745329E+03  0.88490875826E+03  0.00000000000E+00 0.  1.
<mgrwt>
<rscale>  0 0.91297945E+02</rscale>
<asrwt>0</asrwt>
<pdfrwt beam="2">  1        1 0.19083958E+00 0.91297945E+02</pdfrwt>
<pdfrwt beam="1">  1       -1 0.25844423E-03 0.91297945E+02</pdfrwt>
<totfact> 0.12480195E+05</totfact>
</mgrwt>
</event>
<event>
 7    1  0.2911475E-009  0.9028917E+02  0.7818608E-02  0.1302153E+00
          1   -1    0    0  501    0  0.00000000000E+00  0.00000000000E+00  0.45385162731E+01  0.45385190715E+01  0.50400000000E-02 0. -1.
         -1   -1    0    0    0  501 -0.00000000000E+00 -0.00000000000E+00 -0.44905270808E+03  0.44905270811E+03  0.50400000000E-02 0.  1.
         23    2    1    2    0    0  0.00000000000E+00  0.00000000000E+00 -0.44451419181E+03  0.45359122718E+03  0.90289172422E+02 0.  0.
    9000005    2    3    3    0    0  0.14564260181E+02  0.36935640088E+02 -0.32753102042E+03  0.33005410089E+03  0.90984062273E+01 0.  0.
         22    1    3    3    0    0 -0.14564260181E+02 -0.36935640088E+02 -0.11698317139E+03  0.12353712629E+03  0.00000000000E+00 0. -1.
         22    1    4    4    0    0  0.11305542964E+02  0.35293112313E+02 -0.29480078227E+03  0.29712105328E+03  0.00000000000E+00 0.  1.
         22    1    4    4    0    0  0.32587172176E+01  0.16425277751E+01 -0.32730238153E+02  0.32933047611E+02  0.00000000000E+00 0.  1.
<mgrwt>
<rscale>  0 0.90289172E+02</rscale>
<asrwt>0</asrwt>
<pdfrwt beam="1">  1        1 0.69823385E-03 0.90289172E+02</pdfrwt>
<pdfrwt beam="2">  1       -1 0.69084997E-01 0.90289172E+02</pdfrwt>
<totfact> 0.51410784E+04</totfact>
</mgrwt>
</event>
<event>
 7    1  0.2911475E-009  0.8449498E+02  0.7818608E-02  0.1316759E+00
         -1   -1    0    0    0  501 -0.00000000000E+00  0.00000000000E+00  0.40988512356E+02  0.40988512666E+02  0.50400000000E-02 0.  1.
          1   -1    0    0  501    0  0.00000000000E+00 -0.00000000000E+00 -0.43545140605E+02  0.43545140896E+02  0.50400000000E-02 0. -1.
         23    2    1    2    0    0  0.00000000000E+00  0.00000000000E+00 -0.25566282490E+01  0.84533653562E+02  0.84494983499E+02 0.  0.
    9000005    2    3    3    0    0 -0.35821759708E+01  0.31815746801E+02 -0.28347640253E+02  0.43421003083E+02  0.75313393002E+01 0.  0.
         22    1    3    3    0    0  0.35821759708E+01 -0.31815746801E+02  0.25791012004E+02  0.41112650479E+02  0.00000000000E+00 0.  1.
         22    1    4    4    0    0  0.22740939009E+01  0.11711806503E+02 -0.11032180092E+02  0.16249520368E+02  0.00000000000E+00 0.  1.
         22    1    4    4    0    0 -0.58562698717E+01  0.20103940299E+02 -0.17315460161E+02  0.27171482715E+02  0.00000000000E+00 0.  1.
<mgrwt>
<rscale>  0 0.84494983E+02</rscale>
<asrwt>0</asrwt>
<pdfrwt beam="2">  1        1 0.66992525E-02 0.84494983E+02</pdfrwt>
<pdfrwt beam="1">  1       -1 0.63059250E-02 0.84494983E+02</pdfrwt>
<totfact> 0.11359036E+05</totfact>
</mgrwt>
</event>
<event>
 7    1  0.2911475E-009  0.8972036E+02  0.7818608E-02  0.1303530E+00
          1   -1    0    0  501    0  0.00000000000E+00  0.00000000000E+00  0.88237503627E+02  0.88237503771E+02  0.50400000000E-02 0. -1.
         -1   -1    0    0    0  501 -0.00000000000E+00 -0.00000000000E+00 -0.22807035567E+02  0.22807036123E+02  0.50400000000E-02 0.  1.
         23    2    1    2    0    0 -0.17763568394E-14  0.44408920985E-15  0.65430468060E+02  0.11104453989E+03  0.89720363852E+02 0.  0.
    9000005    2    3    3    0    0  0.13588352972E+02 -0.30402999410E+01  0.85341799421E+02  0.86747464416E+02  0.69291481344E+01 0.  0.
         22    1    3    3    0    0 -0.13588352972E+02  0.30402999410E+01 -0.19911331361E+02  0.24297075478E+02  0.00000000000E+00 0.  1.
         22    1    4    4    0    0  0.12166953747E+02  0.31226316827E-01  0.67287358477E+02  0.68378537198E+02  0.00000000000E+00 0. -1.
         22    1    4    4    0    0  0.14213992254E+01 -0.30715262578E+01  0.18054440945E+02  0.18368927218E+02  0.00000000000E+00 0. -1.
<mgrwt>
<rscale>  0 0.89720364E+02</rscale>
<asrwt>0</asrwt>
<pdfrwt beam="1">  1        1 0.13575001E-01 0.89720364E+02</pdfrwt>
<pdfrwt beam="2">  1       -1 0.35087747E-02 0.89720364E+02</pdfrwt>
<totfact> 0.10693345E+05</totfact>
</mgrwt>
</event>
<event>
 7    1  0.2911475E-009  0.9029379E+02  0.7818608E-02  0.1302142E+00
         -1   -1    0    0    0  501 -0.00000000000E+00  0.00000000000E+00  0.93254253309E+01  0.93254266929E+01  0.50400000000E-02 0.  1.
          1   -1    0    0  501    0  0.00000000000E+00 -0.00000000000E+00 -0.21856824109E+03  0.21856824115E+03  0.50400000000E-02 0. -1.
         23    2    1    2    0    0  0.00000000000E+00 -0.44408920985E-15 -0.20924281576E+03  0.22789366784E+03  0.90293786581E+02 0.  0.
    9000005    2    3    3    0    0  0.17766776668E+02  0.30700119008E+01 -0.20891837165E+03  0.20986068167E+03  0.83388472123E+01 0.  0.
         22    1    3    3    0    0 -0.17766776668E+02 -0.30700119008E+01 -0.32444411024E+00  0.18032986170E+02  0.00000000000E+00 0.  1.
         22    1    4    4    0    0  0.95719214054E+01  0.27066680412E-01 -0.67866746610E+02  0.68538439634E+02  0.00000000000E+00 0. -1.
         22    1    4    4    0    0  0.81948552621E+01  0.30429452204E+01 -0.14105162504E+03  0.14132224203E+03  0.00000000000E+00 0. -1.
<mgrwt>
<rscale>  0 0.90293787E+02</rscale>
<asrwt>0</asrwt>
<pdfrwt beam="2">  1        1 0.33625879E-01 0.90293787E+02</pdfrwt>
<pdfrwt beam="1">  1       -1 0.14346811E-02 0.90293787E+02</pdfrwt>
<totfact> 0.12364699E+05</totfact>
</mgrwt>
</event>
<event>
 7    1  0.2911475E-009  0.9113688E+02  0.7818608E-02  0.1300122E+00
         -1   -1    0    0    0  501 -0.00000000000E+00  0.00000000000E+00  0.18818864506E+02  0.18818865181E+02  0.50400000000E-02 0.  1.
          1   -1    0    0  501    0  0.00000000000E+00 -0.00000000000E+00 -0.11034049525E+03  0.11034049536E+03  0.50400000000E-02 0. -1.
         23    2    1    2    0    0 -0.35527136788E-14 -0.44408920985E-15 -0.91521630740E+02  0.12915936054E+03  0.91136883434E+02 0.  0.
    9000005    2    3    3    0    0  0.29977188172E+02 -0.28202427940E+01 -0.93100644616E+02  0.99008425814E+02  0.15111345871E+02 0.  0.
         22    1    3    3    0    0 -0.29977188172E+02  0.28202427940E+01  0.15790138763E+01  0.30150934727E+02  0.00000000000E+00 0.  1.
         22    1    4    4    0    0  0.58130646421E+01 -0.59571495923E+01 -0.35558679437E+02  0.36519844402E+02  0.00000000000E+00 0.  1.
         22    1    4    4    0    0  0.24164123530E+02  0.31369067984E+01 -0.57541965179E+02  0.62488581412E+02  0.00000000000E+00 0.  1.
<mgrwt>
<rscale>  0 0.91136883E+02</rscale>
<asrwt>0</asrwt>
<pdfrwt beam="2">  1        1 0.16975461E-01 0.91136883E+02</pdfrwt>
<pdfrwt beam="1">  1       -1 0.28952100E-02 0.91136883E+02</pdfrwt>
<totfact> 0.10632229E+05</totfact>
</mgrwt>
</event>
<event>
 7    1  0.2911475E-009  0.9153341E+02  0.7818608E-02  0.1299180E+00
          1   -1    0    0  501    0  0.00000000000E+00  0.00000000000E+00  0.63169731453E+02  0.63169731654E+02  0.50400000000E-02 0. -1.
         -1   -1    0    0    0  501 -0.00000000000E+00 -0.00000000000E+00 -0.33158144218E+02  0.33158144601E+02  0.50400000000E-02 0.  1.
         23    2    1    2    0    0  0.00000000000E+00  0.00000000000E+00  0.30011587235E+02  0.96327876255E+02  0.91533405790E+02 0.  0.
    9000005    2    3    3    0    0  0.29590736517E+02  0.13378812404E+02 -0.17348115842E+02  0.38903614967E+02  0.12567013377E+02 0.  0.
         22    1    3    3    0    0 -0.29590736517E+02 -0.13378812404E+02  0.47359703077E+02  0.57424261288E+02  0.00000000000E+00 0. -1.
         22    1    4    4    0    0  0.15083634173E+02  0.10779875479E+02 -0.15272280643E+02  0.24020081000E+02  0.00000000000E+00 0.  1.
         22    1    4    4    0    0  0.14507102345E+02  0.25989369251E+01 -0.20758351997E+01  0.14883533967E+02  0.00000000000E+00 0.  1.
<mgrwt>
<rscale>  0 0.91533406E+02</rscale>
<asrwt>0</asrwt>
<pdfrwt beam="1">  1        1 0.97184202E-02 0.91533406E+02</pdfrwt>
<pdfrwt beam="2">  1       -1 0.51012530E-02 0.91533406E+02</pdfrwt>
<totfact> 0.96081930E+04</totfact>
</mgrwt>
</event>
<event>
 7    1  0.2911475E-009  0.9315594E+02  0.7818608E-02  0.1295384E+00
          1   -1    0    0  501    0  0.00000000000E+00  0.00000000000E+00  0.46094066914E+02  0.46094067189E+02  0.50400000000E-02 0. -1.
         -1   -1    0    0    0  501 -0.00000000000E+00 -0.00000000000E+00 -0.47066955326E+02  0.47066955596E+02  0.50400000000E-02 0.  1.
         23    2    1    2    0    0  0.00000000000E+00  0.35527136788E-14 -0.97288841268E+00  0.93161022785E+02  0.93155942669E+02 0.  0.
    9000005    2    3    3    0    0 -0.52701674552E+01 -0.23067723078E+02  0.38035165249E+02  0.47537314437E+02  0.15913137822E+02 0.  0.
         22    1    3    3    0    0  0.52701674552E+01  0.23067723078E+02 -0.39008053662E+02  0.45623708349E+02  0.00000000000E+00 0.  1.
         22    1    4    4    0    0 -0.84057245049E+01 -0.14018535228E+02  0.32741013263E+02  0.36594391426E+02  0.00000000000E+00 0. -1.
         22    1    4    4    0    0  0.31355570498E+01 -0.90491878501E+01  0.52941519863E+01  0.10942923010E+02  0.00000000000E+00 0. -1.
<mgrwt>
<rscale>  0 0.93155943E+02</rscale>
<asrwt>0</asrwt>
<pdfrwt beam="1">  1        1 0.70913950E-02 0.93155943E+02</pdfrwt>
<pdfrwt beam="2">  1       -1 0.72410701E-02 0.93155943E+02</pdfrwt>
<totfact> 0.87196050E+04</totfact>
</mgrwt>
</event>
<event>
 7    1  0.2911475E-009  0.8691008E+02  0.7818608E-02  0.1310512E+00
         -1   -1    0    0    0  501 -0.00000000000E+00  0.00000000000E+00  0.44281665891E+03  0.44281665894E+03  0.50400000000E-02 0.  1.
          1   -1    0    0  501    0  0.00000000000E+00 -0.00000000000E+00 -0.42643834189E+01  0.42643863973E+01  0.50400000000E-02 0. -1.
         23    2    1    2    0    0  0.00000000000E+00  0.00000000000E+00  0.43855227549E+03  0.44708104533E+03  0.86910084341E+02 0.  0.
    9000005    2    3    3    0    0 -0.39182570180E+02  0.25309671602E+01  0.30376790573E+03  0.30669405900E+03  0.15640513844E+02 0.  0.
         22    1    3    3    0    0  0.39182570180E+02 -0.25309671602E+01  0.13478436976E+03  0.14038698633E+03  0.00000000000E+00 0.  1.
         22    1    4    4    0    0 -0.48053419839E+01 -0.23689244260E+01  0.86779501124E+02  0.86944723415E+02  0.00000000000E+00 0.  1.
         22    1    4    4    0    0 -0.34377228196E+02  0.48998915862E+01  0.21698840461E+03  0.21974933559E+03  0.00000000000E+00 0.  1.
<mgrwt>
<rscale>  0 0.86910084E+02</rscale>
<asrwt>0</asrwt>
<pdfrwt beam="2">  1        1 0.65605954E-03 0.86910084E+02</pdfrwt>
<pdfrwt beam="1">  1       -1 0.68125606E-01 0.86910084E+02</pdfrwt>
<totfact> 0.57246069E+04</totfact>
</mgrwt>
</event>
<event>
 7    1  0.2911475E-009  0.9217653E+02  0.7818608E-02  0.1297665E+00
         -1   -1    0    0    0  501 -0.00000000000E+00  0.00000000000E+00  0.41393051143E+01  0.41393081826E+01  0.50400000000E-02 0.  1.
          1   -1    0    0  501    0  0.00000000000E+00 -0.00000000000E+00 -0.51316035542E+03  0.51316035545E+03  0.50400000000E-02 0. -1.
         23    2    1    2    0    0  0.00000000000E+00  0.00000000000E+00 -0.50902105031E+03  0.51729966363E+03  0.92176528111E+02 0.  0.
    9000005    2    3    3    0    0  0.20854559156E+02 -0.35967415181E+02 -0.35966427536E+03  0.36226413927E+03  0.12179820770E+02 0.  0.
         22    1    3    3    0    0 -0.20854559156E+02  0.35967415181E+02 -0.14935677494E+03  0.15503552436E+03  0.00000000000E+00 0.  1.
         22    1    4    4    0    0  0.11950988815E+02 -0.11314622547E+02 -0.10939255614E+03  0.11062358770E+03  0.00000000000E+00 0.  1.
         22    1    4    4    0    0  0.89035703416E+01 -0.24652792634E+02 -0.25027171922E+03  0.25164055157E+03  0.00000000000E+00 0.  1.
<mgrwt>
<rscale>  0 0.92176528E+02</rscale>
<asrwt>0</asrwt>
<pdfrwt beam="2">  1        1 0.78947697E-01 0.92176528E+02</pdfrwt>
<pdfrwt beam="1">  1       -1 0.63681682E-03 0.92176528E+02</pdfrwt>
<totfact> 0.13569893E+05</totfact>
</mgrwt>
</event>
<event>
 7    1  0.2911475E-009  0.9274952E+02  0.7818608E-02  0.1296327E+00
          1   -1    0    0  501    0  0.00000000000E+00  0.00000000000E+00  0.14444378141E+02  0.14444379020E+02  0.50400000000E-02 0. -1.
         -1   -1    0    0    0  501 -0.00000000000E+00 -0.00000000000E+00 -0.14888962641E+03  0.14888962650E+03  0.50400000000E-02 0.  1.
         23    2    1    2    0    0  0.00000000000E+00  0.00000000000E+00 -0.13444524827E+03  0.16333400552E+03  0.92749515231E+02 0.  0.
    9000005    2    3    3    0    0 -0.14243118379E+02  0.33066045012E+01 -0.14428194256E+03  0.14571127562E+03  0.14166751186E+02 0.  0.
         22    1    3    3    0    0  0.14243118379E+02 -0.33066045012E+01  0.98366942895E+01  0.17622729897E+02  0.00000000000E+00 0. -1.
         22    1    4    4    0    0 -0.77223590639E+01 -0.17146251598E+01 -0.26842895116E+02  0.27984206030E+02  0.00000000000E+00 0.  1.
         22    1    4    4    0    0 -0.65207593154E+01  0.50212296609E+01 -0.11743904744E+03  0.11772706959E+03  0.00000000000E+00 0.  1.
<mgrwt>
<rscale>  0 0.92749515E+02</rscale>
<asrwt>0</asrwt>
<pdfrwt beam="1">  1        1 0.22222122E-02 0.92749515E+02</pdfrwt>
<pdfrwt beam="2">  1       -1 0.22906095E-01 0.92749515E+02</pdfrwt>
<totfact> 0.71661891E+04</totfact>
</mgrwt>
</event>
<event>
 7    1  0.2911475E-009  0.1075737E+03  0.7818608E-02  0.1265130E+00
         -1   -1    0    0    0  501 -0.00000000000E+00  0.00000000000E+00  0.39322627441E+01  0.39322659740E+01  0.50400000000E-02 0.  1.
          1   -1    0    0  501    0  0.00000000000E+00 -0.00000000000E+00 -0.73571482537E+03  0.73571482539E+03  0.50400000000E-02 0. -1.
         23    2    1    2    0    0  0.44408920985E-15 -0.71054273576E-14 -0.73178256263E+03  0.73964709136E+03  0.10757369937E+03 0.  0.
    9000005    2    3    3    0    0 -0.34546564088E+01  0.46519703071E+02 -0.54848260195E+03  0.55050457100E+03  0.67897441474E+01 0.  0.
         22    1    3    3    0    0  0.34546564088E+01 -0.46519703071E+02 -0.18329996068E+03  0.18914252036E+03  0.00000000000E+00 0.  1.
         22    1    4    4    0    0  0.53885889171E+00  0.16542788345E+01 -0.10869847253E+02  0.11008205425E+02  0.00000000000E+00 0.  1.
         22    1    4    4    0    0 -0.39935153005E+01  0.44865424237E+02 -0.53761275469E+03  0.53949636557E+03  0.00000000000E+00 0.  1.
<mgrwt>
<rscale>  0 0.10757370E+03</rscale>
<asrwt>0</asrwt>
<pdfrwt beam="2">  1        1 0.11318679E+00 0.10757370E+03</pdfrwt>
<pdfrwt beam="1">  1       -1 0.60496433E-03 0.10757370E+03</pdfrwt>
<totfact> 0.91391625E+04</totfact>
</mgrwt>
</event>
<event>
 7    1  0.2911475E-009  0.7458579E+02  0.7818608E-02  0.1345159E+00
          1   -1    0    0  501    0  0.00000000000E+00  0.00000000000E+00  0.10941760315E+02  0.10941761476E+02  0.50400000000E-02 0. -1.
         -1   -1    0    0    0  501 -0.00000000000E+00 -0.00000000000E+00 -0.12710569131E+03  0.12710569141E+03  0.50400000000E-02 0.  1.
         23    2    1    2    0    0 -0.71054273576E-14  0.44408920985E-15 -0.11616393100E+03  0.13804745289E+03  0.74585792106E+02 0.  0.
    9000005    2    3    3    0    0 -0.36194449308E+02  0.38684393897E+01 -0.47154673833E+02  0.60026426502E+02  0.73895622524E+01 0.  0.
         22    1    3    3    0    0  0.36194449308E+02 -0.38684393897E+01 -0.69009257162E+02  0.78021026385E+02  0.00000000000E+00 0.  1.
         22    1    4    4    0    0 -0.28055737697E+02  0.55752227868E+01 -0.33627879249E+02  0.44147953402E+02  0.00000000000E+00 0.  1.
         22    1    4    4    0    0 -0.81387116109E+01 -0.17067833971E+01 -0.13526794585E+02  0.15878473100E+02  0.00000000000E+00 0.  1.
<mgrwt>
<rscale>  0 0.74585792E+02</rscale>
<asrwt>0</asrwt>
<pdfrwt beam="1">  1        1 0.16833479E-02 0.74585792E+02</pdfrwt>
<pdfrwt beam="2">  1       -1 0.19554721E-01 0.74585792E+02</pdfrwt>
<totfact> 0.13012993E+05</totfact>
</mgrwt>
</event>
<event>
 7    1  0.2911475E-009  0.8927558E+02  0.7818608E-02  0.1304616E+00
          1   -1    0    0  501    0  0.00000000000E+00  0.00000000000E+00  0.96079012587E+01  0.96079025806E+01  0.50400000000E-02 0. -1.
         -1   -1    0    0    0  501 -0.00000000000E+00 -0.00000000000E+00 -0.20738476134E+03  0.20738476140E+03  0.50400000000E-02 0.  1.
         23    2    1    2    0    0  0.44408920985E-15  0.00000000000E+00 -0.19777686008E+03  0.21699266398E+03  0.89275583662E+02 0.  0.
    9000005    2    3    3    0    0  0.25949320696E+01  0.42919011482E+02 -0.76082608007E+02  0.87925758049E+02  0.96747335006E+01 0.  0.
         22    1    3    3    0    0 -0.25949320696E+01 -0.42919011482E+02 -0.12169425207E+03  0.12906690593E+03  0.00000000000E+00 0.  1.
         22    1    4    4    0    0 -0.57411100448E+00  0.36308651117E+02 -0.58207438259E+02  0.68605784144E+02  0.00000000000E+00 0. -1.
         22    1    4    4    0    0  0.31690430741E+01  0.66103603655E+01 -0.17875169748E+02  0.19319973905E+02  0.00000000000E+00 0. -1.
<mgrwt>
<rscale>  0 0.89275584E+02</rscale>
<asrwt>0</asrwt>
<pdfrwt beam="1">  1        1 0.14781389E-02 0.89275584E+02</pdfrwt>
<pdfrwt beam="2">  1       -1 0.31905345E-01 0.89275584E+02</pdfrwt>
<totfact> 0.72572418E+04</totfact>
</mgrwt>
</event>
<event>
 7    1  0.2911475E-009  0.8786479E+02  0.7818608E-02  0.1308106E+00
          1   -1    0    0  501    0  0.00000000000E+00  0.00000000000E+00  0.10715153081E+02  0.10715154266E+02  0.50400000000E-02 0. -1.
         -1   -1    0    0    0  501 -0.00000000000E+00 -0.00000000000E+00 -0.18012391901E+03  0.18012391908E+03  0.50400000000E-02 0.  1.
         23    2    1    2    0    0  0.00000000000E+00  0.00000000000E+00 -0.16940876593E+03  0.19083907335E+03  0.87864793529E+02 0.  0.
    9000005    2    3    3    0    0  0.91269410545E+01  0.38115351654E+02 -0.51238386738E+02  0.66338793817E+02  0.15471981284E+02 0.  0.
         22    1    3    3    0    0 -0.91269410545E+01 -0.38115351654E+02 -0.11817037919E+03  0.12450027953E+03  0.00000000000E+00 0.  1.
         22    1    4    4    0    0 -0.29079666351E+00  0.95171262624E+01 -0.40150702183E+01  0.10333491368E+02  0.00000000000E+00 0.  1.
         22    1    4    4    0    0  0.94177377180E+01  0.28598225391E+02 -0.47223316520E+02  0.56005302449E+02  0.00000000000E+00 0.  1.
<mgrwt>
<rscale>  0 0.87864794E+02</rscale>
<asrwt>0</asrwt>
<pdfrwt beam="1">  1        1 0.16484853E-02 0.87864794E+02</pdfrwt>
<pdfrwt beam="2">  1       -1 0.27711370E-01 0.87864794E+02</pdfrwt>
<totfact> 0.78664812E+04</totfact>
</mgrwt>
</event>
<event>
 7    1  0.2911475E-009  0.9214824E+02  0.7818608E-02  0.1297731E+00
         -1   -1    0    0    0  501 -0.00000000000E+00  0.00000000000E+00  0.51552170478E+01  0.51552195115E+01  0.50400000000E-02 0. -1.
          1   -1    0    0  501    0  0.00000000000E+00 -0.00000000000E+00 -0.41178167255E+03  0.41178167258E+03  0.50400000000E-02 0.  1.
         23    2    1    2    0    0  0.00000000000E+00  0.00000000000E+00 -0.40662645550E+03  0.41693689209E+03  0.92148237495E+02 0.  0.
    9000005    2    3    3    0    0  0.34525731300E+02  0.27778757456E+02 -0.15971308313E+03  0.16607856765E+03  0.10494580556E+02 0.  0.
         22    1    3    3    0    0 -0.34525731300E+02 -0.27778757456E+02 -0.24691337237E+03  0.25085832444E+03  0.00000000000E+00 0.  1.
         22    1    4    4    0    0  0.24106015179E+02  0.22471656994E+02 -0.10196451756E+03  0.10715800566E+03  0.00000000000E+00 0.  1.
         22    1    4    4    0    0  0.10419716121E+02  0.53071004622E+01 -0.57748565578E+02  0.58920561994E+02  0.00000000000E+00 0.  1.
<mgrwt>
<rscale>  0 0.92148237E+02</rscale>
<asrwt>0</asrwt>
<pdfrwt beam="2">  1        1 0.63351001E-01 0.92148237E+02</pdfrwt>
<pdfrwt beam="1">  1       -1 0.79311083E-03 0.92148237E+02</pdfrwt>
<totfact> 0.13176215E+05</totfact>
</mgrwt>
</event>
<event>
 7    1  0.2911475E-009  0.9186443E+02  0.7818608E-02  0.1298398E+00
         -1   -1    0    0    0  501 -0.00000000000E+00  0.00000000000E+00  0.85853640668E+02  0.85853640816E+02  0.50400000000E-02 0.  1.
          1   -1    0    0  501    0  0.00000000000E+00 -0.00000000000E+00 -0.24574013517E+02  0.24574014034E+02  0.50400000000E-02 0. -1.
         23    2    1    2    0    0  0.00000000000E+00  0.00000000000E+00  0.61279627150E+02  0.11042765485E+03  0.91864434097E+02 0.  0.
    9000005    2    3    3    0    0  0.14400616130E+02  0.11720956263E+02 -0.18546642783E+02  0.28470398111E+02  0.11037529135E+02 0.  0.
         22    1    3    3    0    0 -0.14400616130E+02 -0.11720956263E+02  0.79826269934E+02  0.81957256739E+02  0.00000000000E+00 0.  1.
         22    1    4    4    0    0  0.57347737627E+01 -0.10963839637E+01 -0.72740138285E+01  0.93274307868E+01  0.00000000000E+00 0. -1.
         22    1    4    4    0    0  0.86658423677E+01  0.12817340226E+02 -0.11272628955E+02  0.19142967324E+02  0.00000000000E+00 0. -1.
<mgrwt>
<rscale>  0 0.91864434E+02</rscale>
<asrwt>0</asrwt>
<pdfrwt beam="2">  1        1 0.37806176E-02 0.91864434E+02</pdfrwt>
<pdfrwt beam="1">  1       -1 0.13208252E-01 0.91864434E+02</pdfrwt>
<totfact> 0.82033998E+04</totfact>
</mgrwt>
</event>
<event>
 7    1  0.2911475E-009  0.1092361E+03  0.7818608E-02  0.1261991E+00
         -1   -1    0    0    0  501 -0.00000000000E+00  0.00000000000E+00  0.49213153293E+02  0.49213153551E+02  0.50400000000E-02 0.  1.
          1   -1    0    0  501    0  0.00000000000E+00 -0.00000000000E+00 -0.60616588249E+02  0.60616588459E+02  0.50400000000E-02 0. -1.
         23    2    1    2    0    0  0.00000000000E+00 -0.71054273576E-14 -0.11403434957E+02  0.10982974201E+03  0.10923613826E+03 0.  0.
    9000005    2    3    3    0    0  0.21633033989E+02 -0.45572982314E+02 -0.26029524732E+02  0.57305391669E+02  0.78413570255E+01 0.  0.
         22    1    3    3    0    0 -0.21633033989E+02  0.45572982314E+02  0.14626089776E+02  0.52524350340E+02  0.00000000000E+00 0.  1.
         22    1    4    4    0    0  0.25223744395E+01 -0.15381516191E+01 -0.23754604539E+01  0.37909227880E+01  0.00000000000E+00 0. -1.
         22    1    4    4    0    0  0.19110659550E+02 -0.44034830695E+02 -0.23654064278E+02  0.53514468881E+02  0.00000000000E+00 0. -1.
<mgrwt>
<rscale>  0 0.10923614E+03</rscale>
<asrwt>0</asrwt>
<pdfrwt beam="2">  1        1 0.93256290E-02 0.10923614E+03</pdfrwt>
<pdfrwt beam="1">  1       -1 0.75712544E-02 0.10923614E+03</pdfrwt>
<totfact> 0.58057918E+04</totfact>
</mgrwt>
</event>
<event>
 7    1  0.2911475E-009  0.8526048E+02  0.7818608E-02  0.1314753E+00
         -1   -1    0    0    0  501 -0.00000000000E+00  0.00000000000E+00  0.14583627658E+03  0.14583627666E+03  0.50400000000E-02 0.  1.
          1   -1    0    0  501    0  0.00000000000E+00 -0.00000000000E+00 -0.12461488906E+02  0.12461489925E+02  0.50400000000E-02 0. -1.
         23    2    1    2    0    0  0.00000000000E+00  0.00000000000E+00  0.13337478767E+03  0.15829776659E+03  0.85260476898E+02 0.  0.
    9000005    2    3    3    0    0 -0.12999225505E+02 -0.39680193881E+02  0.79058142733E+02  0.89786486004E+02  0.82416919657E+01 0.  0.
         22    1    3    3    0    0  0.12999225505E+02  0.39680193881E+02  0.54316644937E+02  0.68511280584E+02  0.00000000000E+00 0.  1.
         22    1    4    4    0    0 -0.10464205854E+02 -0.23534584269E+02  0.54605164130E+02  0.60374665304E+02  0.00000000000E+00 0. -1.
         22    1    4    4    0    0 -0.25350196509E+01 -0.16145609611E+02  0.24452978602E+02  0.29411820700E+02  0.00000000000E+00 0. -1.
<mgrwt>
<rscale>  0 0.85260477E+02</rscale>
<asrwt>0</asrwt>
<pdfrwt beam="2">  1        1 0.19171522E-02 0.85260477E+02</pdfrwt>
<pdfrwt beam="1">  1       -1 0.22436351E-01 0.85260477E+02</pdfrwt>
<totfact> 0.89552570E+04</totfact>
</mgrwt>
</event>
<event>
 7    1  0.2977427E-009  0.9103790E+02  0.7818608E-02  0.1300358E+00
         -1   -1    0    0    0  501 -0.00000000000E+00  0.00000000000E+00  0.21678847092E+01  0.21678905678E+01  0.50400000000E-02 0. -1.
          1   -1    0    0  501    0  0.00000000000E+00 -0.00000000000E+00 -0.95575754454E+03  0.95575754455E+03  0.50400000000E-02 0.  1.
         23    2    1    2    0    0  0.00000000000E+00  0.17763568394E-14 -0.95358965983E+03  0.95792543512E+03  0.91037903731E+02 0.  0.
    9000005    2    3    3    0    0 -0.26168095652E+02 -0.13401984276E+02 -0.83800491213E+03  0.83866011613E+03  0.15302784816E+02 0.  0.
         22    1    3    3    0    0  0.26168095652E+02  0.13401984276E+02 -0.11558474770E+03  0.11926531899E+03  0.00000000000E+00 0. -1.
         22    1    4    4    0    0 -0.12262263949E+02 -0.17185316094E+01 -0.51196718184E+03  0.51211689266E+03  0.00000000000E+00 0. -1.
         22    1    4    4    0    0 -0.13905831703E+02 -0.11683452666E+02 -0.32603773029E+03  0.32654322347E+03  0.00000000000E+00 0. -1.
<mgrwt>
<rscale>  0 0.91037904E+02</rscale>
<asrwt>0</asrwt>
<pdfrwt beam="2">  1        1 0.14703929E+00 0.91037904E+02</pdfrwt>
<pdfrwt beam="1">  1       -1 0.33352194E-03 0.91037904E+02</pdfrwt>
<totfact> 0.13808430E+05</totfact>
</mgrwt>
</event>
<event>
 7    1  0.2911475E-009  0.8946062E+02  0.7818608E-02  0.1304163E+00
          1   -1    0    0  501    0  0.00000000000E+00  0.00000000000E+00  0.89505673049E+03  0.89505673051E+03  0.50400000000E-02 0. -1.
         -1   -1    0    0    0  501 -0.00000000000E+00 -0.00000000000E+00 -0.22353870081E+01  0.22353926898E+01  0.50400000000E-02 0.  1.
         23    2    1    2    0    0  0.00000000000E+00  0.00000000000E+00  0.89282134348E+03  0.89729212320E+03  0.89460622449E+02 0.  0.
    9000005    2    3    3    0    0 -0.13155756912E+02 -0.29145757718E+02  0.75822687694E+03  0.75895116918E+03  0.87367704499E+01 0.  0.
         22    1    3    3    0    0  0.13155756912E+02  0.29145757718E+02  0.13459446655E+03  0.13834095402E+03  0.00000000000E+00 0.  1.
         22    1    4    4    0    0 -0.17540033599E+01  0.93423550841E-01  0.36348938005E+02  0.36391352679E+02  0.00000000000E+00 0. -1.
         22    1    4    4    0    0 -0.11401753552E+02 -0.29239181268E+02  0.72187793893E+03  0.72255981650E+03  0.00000000000E+00 0. -1.
<mgrwt>
<rscale>  0 0.89460622E+02</rscale>
<asrwt>0</asrwt>
<pdfrwt beam="1">  1        1 0.13770119E+00 0.89460622E+02</pdfrwt>
<pdfrwt beam="2">  1       -1 0.34390574E-03 0.89460622E+02</pdfrwt>
<totfact> 0.14647706E+05</totfact>
</mgrwt>
</event>
<event>
 7    1  0.2911475E-009  0.8987343E+02  0.7818608E-02  0.1303159E+00
          1   -1    0    0  501    0  0.00000000000E+00  0.00000000000E+00  0.19897296970E+03  0.19897296977E+03  0.50400000000E-02 0. -1.
         -1   -1    0    0    0  501 -0.00000000000E+00 -0.00000000000E+00 -0.10148655116E+02  0.10148656368E+02  0.50400000000E-02 0.  1.
         23    2    1    2    0    0  0.00000000000E+00  0.00000000000E+00  0.18882431459E+03  0.20912162614E+03  0.89873426206E+02 0.  0.
    9000005    2    3    3    0    0  0.11749052567E+02 -0.40592467033E+02  0.12623438512E+03  0.13360151036E+03  0.11333797592E+02 0.  0.
         22    1    3    3    0    0 -0.11749052567E+02  0.40592467033E+02  0.62589929472E+02  0.75520115779E+02  0.00000000000E+00 0. -1.
         22    1    4    4    0    0  0.10816924505E+02 -0.40755742144E+02  0.11790058063E+03  0.12521414970E+03  0.00000000000E+00 0. -1.
         22    1    4    4    0    0  0.93212806135E+00  0.16327511107E+00  0.83338044869E+01  0.83873606523E+01  0.00000000000E+00 0. -1.
<mgrwt>
<rscale>  0 0.89873426E+02</rscale>
<asrwt>0</asrwt>
<pdfrwt beam="1">  1        1 0.30611224E-01 0.89873426E+02</pdfrwt>
<pdfrwt beam="2">  1       -1 0.15613318E-02 0.89873426E+02</pdfrwt>
<totfact> 0.12293869E+05</totfact>
</mgrwt>
</event>
<event>
 7    1  0.2911475E-009  0.9115400E+02  0.7818608E-02  0.1300081E+00
         -1   -1    0    0    0  501 -0.00000000000E+00  0.00000000000E+00  0.88778748776E+01  0.88778763082E+01  0.50400000000E-02 0.  1.
          1   -1    0    0  501    0  0.00000000000E+00 -0.00000000000E+00 -0.23398197983E+03  0.23398197988E+03  0.50400000000E-02 0. -1.
         23    2    1    2    0    0  0.00000000000E+00  0.00000000000E+00 -0.22510410495E+03  0.24285985619E+03  0.91153999822E+02 0.  0.
    9000005    2    3    3    0    0  0.46539103470E+01  0.25300268985E+02 -0.21273062885E+03  0.21431400880E+03  0.37962385410E+01 0.  0.
         22    1    3    3    0    0 -0.46539103470E+01 -0.25300268985E+02 -0.12373476103E+02  0.28545847388E+02  0.00000000000E+00 0.  1.
         22    1    4    4    0    0  0.25173862618E+01  0.58403986095E+01 -0.59046436223E+02  0.59387954336E+02  0.00000000000E+00 0.  1.
         22    1    4    4    0    0  0.21365240852E+01  0.19459870376E+02 -0.15368419263E+03  0.15492605447E+03  0.00000000000E+00 0.  1.
<mgrwt>
<rscale>  0 0.91154000E+02</rscale>
<asrwt>0</asrwt>
<pdfrwt beam="2">  1        1 0.35997223E-01 0.91154000E+02</pdfrwt>
<pdfrwt beam="1">  1       -1 0.13658272E-02 0.91154000E+02</pdfrwt>
<totfact> 0.12216523E+05</totfact>
</mgrwt>
</event>
<event>
 7    1  0.2911475E-009  0.8670288E+02  0.7818608E-02  0.1311038E+00
         -1   -1    0    0    0  501 -0.00000000000E+00  0.00000000000E+00  0.67755729786E+02  0.67755729973E+02  0.50400000000E-02 0.  1.
          1   -1    0    0  501    0  0.00000000000E+00 -0.00000000000E+00 -0.27737096018E+02  0.27737096475E+02  0.50400000000E-02 0. -1.
         23    2    1    2    0    0  0.00000000000E+00  0.00000000000E+00  0.40018633768E+02  0.95492826449E+02  0.86702876852E+02 0.  0.
    9000005    2    3    3    0    0  0.26205114847E+02  0.94495271745E+01  0.56538151118E+02  0.63106161579E+02  0.31342446392E+01 0.  0.
         22    1    3    3    0    0 -0.26205114847E+02 -0.94495271745E+01 -0.16519517349E+02  0.32386664870E+02  0.00000000000E+00 0. -1.
         22    1    4    4    0    0  0.94919742528E+01  0.43079706020E+01  0.18325455293E+02  0.21082658694E+02  0.00000000000E+00 0.  1.
         22    1    4    4    0    0  0.16713140594E+02  0.51415565725E+01  0.38212695824E+02  0.42023502884E+02  0.00000000000E+00 0.  1.
<mgrwt>
<rscale>  0 0.86702877E+02</rscale>
<asrwt>0</asrwt>
<pdfrwt beam="2">  1        1 0.42672456E-02 0.86702877E+02</pdfrwt>
<pdfrwt beam="1">  1       -1 0.10423958E-01 0.86702877E+02</pdfrwt>
<totfact> 0.98870638E+04</totfact>
</mgrwt>
</event>
<event>
 7    1  0.2911475E-009  0.9027599E+02  0.7818608E-02  0.1302185E+00
         -1   -1    0    0    0  501 -0.00000000000E+00  0.00000000000E+00  0.46193968322E+01  0.46193995817E+01  0.50400000000E-02 0.  1.
          1   -1    0    0  501    0  0.00000000000E+00 -0.00000000000E+00 -0.44106147721E+03  0.44106147724E+03  0.50400000000E-02 0. -1.
         23    2    1    2    0    0  0.00000000000E+00 -0.17763568394E-14 -0.43644208038E+03  0.44568087683E+03  0.90275990380E+02 0.  0.
    9000005    2    3    3    0    0  0.43926517263E+02 -0.81192971073E+01 -0.22683192829E+03  0.23136364055E+03  0.89971424622E+01 0.  0.
         22    1    3    3    0    0 -0.43926517263E+02  0.81192971073E+01 -0.20961015209E+03  0.21431723627E+03  0.00000000000E+00 0.  1.
         22    1    4    4    0    0  0.25873814565E+02 -0.85646173071E+01 -0.14814604014E+03  0.15063218832E+03  0.00000000000E+00 0.  1.
         22    1    4    4    0    0  0.18052702698E+02  0.44532019984E+00 -0.78685888153E+02  0.80731452230E+02  0.00000000000E+00 0.  1.
<mgrwt>
<rscale>  0 0.90275990E+02</rscale>
<asrwt>0</asrwt>
<pdfrwt beam="2">  1        1 0.67855579E-01 0.90275990E+02</pdfrwt>
<pdfrwt beam="1">  1       -1 0.71067700E-03 0.90275990E+02</pdfrwt>
<totfact> 0.14061152E+05</totfact>
</mgrwt>
</event>
<event>
 7    1  0.2911475E-009  0.9022719E+02  0.7818608E-02  0.1302302E+00
          1   -1    0    0  501    0  0.00000000000E+00  0.00000000000E+00  0.38880871658E+03  0.38880871661E+03  0.50400000000E-02 0. -1.
         -1   -1    0    0    0  501 -0.00000000000E+00 -0.00000000000E+00 -0.52345429693E+01  0.52345453956E+01  0.50400000000E-02 0.  1.
         23    2    1    2    0    0  0.00000000000E+00  0.00000000000E+00  0.38357417361E+03  0.39404326200E+03  0.90227189211E+02 0.  0.
    9000005    2    3    3    0    0  0.47543002125E+01  0.44006750776E+02  0.16941932553E+03  0.17536199523E+03  0.94722765362E+01 0.  0.
         22    1    3    3    0    0 -0.47543002125E+01 -0.44006750776E+02  0.21415484808E+03  0.21868126678E+03  0.00000000000E+00 0. -1.
         22    1    4    4    0    0  0.76472691712E+00  0.78847592912E+01  0.46978130157E+02  0.47641357552E+02  0.00000000000E+00 0. -1.
         22    1    4    4    0    0  0.39895732954E+01  0.36121991484E+02  0.12244119537E+03  0.12772063767E+03  0.00000000000E+00 0. -1.
<mgrwt>
<rscale>  0 0.90227189E+02</rscale>
<asrwt>0</asrwt>
<pdfrwt beam="1">  1        1 0.59816726E-01 0.90227189E+02</pdfrwt>
<pdfrwt beam="2">  1       -1 0.80531449E-03 0.90227189E+02</pdfrwt>
<totfact> 0.13804091E+05</totfact>
</mgrwt>
</event>
<event>
 7    1  0.2911475E-009  0.9159915E+02  0.7818608E-02  0.1299025E+00
         -1   -1    0    0    0  501 -0.00000000000E+00  0.00000000000E+00  0.73224123330E+03  0.73224123332E+03  0.50400000000E-02 0.  1.
          1   -1    0    0  501    0  0.00000000000E+00 -0.00000000000E+00 -0.28646289577E+01  0.28646333914E+01  0.50400000000E-02 0. -1.
         23    2    1    2    0    0  0.00000000000E+00  0.00000000000E+00  0.72937660434E+03  0.73510586671E+03  0.91599150147E+02 0.  0.
    9000005    2    3    3    0    0  0.19060896671E+02  0.37822108366E+02  0.48673431953E+03  0.48879486809E+03  0.14706991421E+02 0.  0.
         22    1    3    3    0    0 -0.19060896671E+02 -0.37822108366E+02  0.24264228482E+03  0.24631099862E+03  0.00000000000E+00 0. -1.
         22    1    4    4    0    0  0.96501761187E+01  0.26274868912E+02  0.24322413059E+03  0.24482947603E+03  0.00000000000E+00 0. -1.
         22    1    4    4    0    0  0.94107205519E+01  0.11547239455E+02  0.24351018894E+03  0.24396539205E+03  0.00000000000E+00 0. -1.
<mgrwt>
<rscale>  0 0.91599150E+02</rscale>
<asrwt>0</asrwt>
<pdfrwt beam="2">  1        1 0.44071285E-03 0.91599150E+02</pdfrwt>
<pdfrwt beam="1">  1       -1 0.11265240E+00 0.91599150E+02</pdfrwt>
<totfact> 0.35008129E+04</totfact>
</mgrwt>
</event>
<event>
 7    1  0.2911475E-009  0.9186727E+02  0.7818608E-02  0.1298392E+00
         -1   -1    0    0    0  501 -0.00000000000E+00  0.00000000000E+00  0.18031365478E+02  0.18031366182E+02  0.50400000000E-02 0.  1.
          1   -1    0    0  501    0  0.00000000000E+00 -0.00000000000E+00 -0.11701270320E+03  0.11701270331E+03  0.50400000000E-02 0. -1.
         23    2    1    2    0    0  0.00000000000E+00  0.00000000000E+00 -0.98981337724E+02  0.13504406949E+03  0.91867271034E+02 0.  0.
    9000005    2    3    3    0    0 -0.45451946215E+01 -0.21772898457E+02  0.63586173456E+01  0.27381522451E+02  0.14649158877E+02 0.  0.
         22    1    3    3    0    0  0.45451946215E+01  0.21772898457E+02 -0.10533995507E+03  0.10766254704E+03  0.00000000000E+00 0. -1.
         22    1    4    4    0    0 -0.32941384440E+01 -0.16152189185E+02 -0.26434984350E+01  0.16695288184E+02  0.00000000000E+00 0.  1.
         22    1    4    4    0    0 -0.12510561775E+01 -0.56207092717E+01  0.90021157806E+01  0.10686234267E+02  0.00000000000E+00 0.  1.
<mgrwt>
<rscale>  0 0.91867271E+02</rscale>
<asrwt>0</asrwt>
<pdfrwt beam="2">  1        1 0.18001954E-01 0.91867271E+02</pdfrwt>
<pdfrwt beam="1">  1       -1 0.27740564E-02 0.91867271E+02</pdfrwt>
<totfact> 0.10509259E+05</totfact>
</mgrwt>
</event>
<event>
 6    1  0.2911475E-009  0.1388517E+03  0.7818608E-02  0.1214882E+00
         -1   -1    0    0    0  501 -0.00000000000E+00  0.00000000000E+00  0.12266736995E+02  0.12266738030E+02  0.50400000000E-02 0.  1.
          1   -1    0    0  501    0  0.00000000000E+00 -0.00000000000E+00 -0.39292829088E+03  0.39292829091E+03  0.50400000000E-02 0. -1.
    9000005    2    1    2    0    0  0.54787674792E+02 -0.31214852182E+02 -0.27415765810E+03  0.28142453115E+03  0.78287248949E+01 0.  0.
         22    1    1    2    0    0 -0.54787674792E+02  0.31214852182E+02 -0.10650389579E+03  0.12377049779E+03  0.00000000000E+00 0.  1.
         22    1    3    3    0    0  0.51466140396E+02 -0.29150146311E+02 -0.26388453466E+03  0.27043213986E+03  0.00000000000E+00 0.  1.
         22    1    3    3    0    0  0.33215343960E+01 -0.20647058710E+01 -0.10273123438E+02  0.10992391289E+02  0.00000000000E+00 0.  1.
<mgrwt>
<rscale>  0 0.13885169E+03</rscale>
<asrwt>0</asrwt>
<pdfrwt beam="2">  1        1 0.60450497E-01 0.13885169E+03</pdfrwt>
<pdfrwt beam="1">  1       -1 0.18871907E-02 0.13885169E+03</pdfrwt>
<totfact> 0.42950784E+04</totfact>
</mgrwt>
</event>
<event>
 7    1  0.2911475E-009  0.9176039E+02  0.7818608E-02  0.1298644E+00
         -1   -1    0    0    0  501 -0.00000000000E+00  0.00000000000E+00  0.18007745136E+02  0.18007745842E+02  0.50400000000E-02 0.  1.
          1   -1    0    0  501    0  0.00000000000E+00 -0.00000000000E+00 -0.11689370759E+03  0.11689370770E+03  0.50400000000E-02 0. -1.
         23    2    1    2    0    0 -0.35527136788E-14  0.00000000000E+00 -0.98885962458E+02  0.13490145354E+03  0.91760386863E+02 0.  0.
    9000005    2    3    3    0    0 -0.19088022880E+02 -0.33549028880E+02 -0.85870579278E+02  0.94167068124E+02  0.19468891408E+01 0.  0.
         22    1    3    3    0    0  0.19088022880E+02  0.33549028880E+02 -0.13015383180E+02  0.40734385421E+02  0.00000000000E+00 0.  1.
         22    1    4    4    0    0 -0.18457564598E+02 -0.32996759226E+02 -0.84133971731E+02  0.92238782567E+02  0.00000000000E+00 0. -1.
         22    1    4    4    0    0 -0.63045828222E+00 -0.55226965431E+00 -0.17366075471E+01  0.19282855570E+01  0.00000000000E+00 0. -1.
<mgrwt>
<rscale>  0 0.91760387E+02</rscale>
<asrwt>0</asrwt>
<pdfrwt beam="2">  1        1 0.17983647E-01 0.91760387E+02</pdfrwt>
<pdfrwt beam="1">  1       -1 0.27704225E-02 0.91760387E+02</pdfrwt>
<totfact> 0.10540716E+05</totfact>
</mgrwt>
</event>
<event>
 7    1  0.2911475E-009  0.9130024E+02  0.7818608E-02  0.1299733E+00
          1   -1    0    0  501    0  0.00000000000E+00  0.00000000000E+00  0.35175878524E+03  0.35175878528E+03  0.50400000000E-02 0. -1.
         -1   -1    0    0    0  501 -0.00000000000E+00 -0.00000000000E+00 -0.59243237307E+01  0.59243258745E+01  0.50400000000E-02 0.  1.
         23    2    1    2    0    0  0.00000000000E+00  0.35527136788E-14  0.34583446151E+03  0.35768311115E+03  0.91300236774E+02 0.  0.
    9000005    2    3    3    0    0  0.29339784127E+02  0.28869393588E+02  0.10815742729E+03  0.11646819160E+03  0.13135667390E+02 0.  0.
         22    1    3    3    0    0 -0.29339784127E+02 -0.28869393588E+02  0.23767703421E+03  0.24121491955E+03  0.00000000000E+00 0. -1.
         22    1    4    4    0    0  0.18004408528E+02  0.13696548964E+02  0.42654068798E+02  0.48281712532E+02  0.00000000000E+00 0. -1.
         22    1    4    4    0    0  0.11335375599E+02  0.15172844624E+02  0.65503358496E+02  0.68186479072E+02  0.00000000000E+00 0. -1.
<mgrwt>
<rscale>  0 0.91300237E+02</rscale>
<asrwt>0</asrwt>
<pdfrwt beam="1">  1        1 0.54116734E-01 0.91300237E+02</pdfrwt>
<pdfrwt beam="2">  1       -1 0.91143462E-03 0.91300237E+02</pdfrwt>
<totfact> 0.13147641E+05</totfact>
</mgrwt>
</event>
<event>
 7    1  0.2911475E-009  0.9611374E+02  0.7818608E-02  0.1288687E+00
         -1   -1    0    0    0  501 -0.00000000000E+00  0.00000000000E+00  0.66847261535E+01  0.66847280535E+01  0.50400000000E-02 0.  1.
          1   -1    0    0  501    0  0.00000000000E+00 -0.00000000000E+00 -0.34548348916E+03  0.34548348920E+03  0.50400000000E-02 0. -1.
         23    2    1    2    0    0  0.35527136788E-14  0.35527136788E-14 -0.33879876301E+03  0.35216821725E+03  0.96113742131E+02 0.  0.
    9000005    2    3    3    0    0  0.31080149515E+02  0.21342120137E+02 -0.27646352146E+03  0.27931806883E+03  0.12846909857E+02 0.  0.
         22    1    3    3    0    0 -0.31080149515E+02 -0.21342120137E+02 -0.62335241550E+02  0.72850148420E+02  0.00000000000E+00 0.  1.
         22    1    4    4    0    0  0.13385082893E+02  0.16931169471E+02 -0.15317469276E+03  0.15468778700E+03  0.00000000000E+00 0.  1.
         22    1    4    4    0    0  0.17695066621E+02  0.44109506654E+01 -0.12328882869E+03  0.12463028183E+03  0.00000000000E+00 0.  1.
<mgrwt>
<rscale>  0 0.96113742E+02</rscale>
<asrwt>0</asrwt>
<pdfrwt beam="2">  1        1 0.53151292E-01 0.96113742E+02</pdfrwt>
<pdfrwt beam="1">  1       -1 0.10284198E-02 0.96113742E+02</pdfrwt>
<totfact> 0.11426386E+05</totfact>
</mgrwt>
</event>
<event>
 7    1  0.2911475E-009  0.1092778E+03  0.7818608E-02  0.1261913E+00
          1   -1    0    0  501    0  0.00000000000E+00  0.00000000000E+00  0.67844382321E+02  0.67844382508E+02  0.50400000000E-02 0. -1.
         -1   -1    0    0    0  501 -0.00000000000E+00 -0.00000000000E+00 -0.44003798122E+02  0.44003798411E+02  0.50400000000E-02 0.  1.
         23    2    1    2    0    0  0.00000000000E+00  0.00000000000E+00  0.23840584199E+02  0.11184818092E+03  0.10927782081E+03 0.  0.
    9000005    2    3    3    0    0 -0.23425348661E+02  0.99008543462E+01 -0.36305807964E+02  0.46546095448E+02  0.14200472983E+02 0.  0.
         22    1    3    3    0    0  0.23425348661E+02 -0.99008543462E+01  0.60146392162E+02  0.65302085470E+02  0.00000000000E+00 0. -1.
         22    1    4    4    0    0 -0.23034039899E+02  0.11388379692E+02 -0.27616840479E+02  0.37722036850E+02  0.00000000000E+00 0.  1.
         22    1    4    4    0    0 -0.39130876193E+00 -0.14875253457E+01 -0.86889674849E+01  0.88240585988E+01  0.00000000000E+00 0.  1.
<mgrwt>
<rscale>  0 0.10927782E+03</rscale>
<asrwt>0</asrwt>
<pdfrwt beam="1">  1        1 0.10437597E-01 0.10927782E+03</pdfrwt>
<pdfrwt beam="2">  1       -1 0.67698152E-02 0.10927782E+03</pdfrwt>
<totfact> 0.59143105E+04</totfact>
</mgrwt>
</event>
<event>
 7    1  0.2911475E-009  0.9203383E+02  0.7818608E-02  0.1298000E+00
          1   -1    0    0  501    0  0.00000000000E+00  0.00000000000E+00  0.25946416811E+03  0.25946416816E+03  0.50400000000E-02 0. -1.
         -1   -1    0    0    0  501 -0.00000000000E+00 -0.00000000000E+00 -0.81612668057E+01  0.81612683619E+01  0.50400000000E-02 0.  1.
         23    2    1    2    0    0  0.00000000000E+00  0.00000000000E+00  0.25130290130E+03  0.26762543652E+03  0.92033831111E+02 0.  0.
    9000005    2    3    3    0    0 -0.24185099890E+02  0.98706554782E+01  0.23529328698E+03  0.23698793259E+03  0.10862798804E+02 0.  0.
         22    1    3    3    0    0  0.24185099890E+02 -0.98706554782E+01  0.16009614318E+02  0.30637503927E+02  0.00000000000E+00 0.  1.
         22    1    4    4    0    0 -0.44153831096E+01 -0.35340177407E+00  0.17173984415E+02  0.17736015379E+02  0.00000000000E+00 0. -1.
         22    1    4    4    0    0 -0.19769716781E+02  0.10224057252E+02  0.21811930257E+03  0.21925191721E+03  0.00000000000E+00 0. -1.
<mgrwt>
<rscale>  0 0.92033831E+02</rscale>
<asrwt>0</asrwt>
<pdfrwt beam="1">  1        1 0.39917570E-01 0.92033831E+02</pdfrwt>
<pdfrwt beam="2">  1       -1 0.12555795E-02 0.92033831E+02</pdfrwt>
<totfact> 0.12149280E+05</totfact>
</mgrwt>
</event>
<event>
 7    1  0.2911475E-009  0.9231202E+02  0.7818608E-02  0.1297347E+00
          1   -1    0    0  501    0  0.00000000000E+00  0.00000000000E+00  0.22142034400E+01  0.22142091760E+01  0.50400000000E-02 0. -1.
         -1   -1    0    0    0  501 -0.00000000000E+00 -0.00000000000E+00 -0.96214028086E+03  0.96214028088E+03  0.50400000000E-02 0.  1.
         23    2    1    2    0    0  0.00000000000E+00  0.17763568394E-14 -0.95992607742E+03  0.96435449005E+03  0.92312016375E+02 0.  0.
    9000005    2    3    3    0    0  0.31145042368E+02  0.84300676421E+01 -0.82078812015E+03  0.82152434317E+03  0.12962582131E+02 0.  0.
         22    1    3    3    0    0 -0.31145042368E+02 -0.84300676421E+01 -0.13913795727E+03  0.14283014688E+03  0.00000000000E+00 0. -1.
         22    1    4    4    0    0  0.19838093890E+02  0.11276742532E+02 -0.49057043838E+03  0.49110087548E+03  0.00000000000E+00 0. -1.
         22    1    4    4    0    0  0.11306948478E+02 -0.28466748895E+01 -0.33021768177E+03  0.33042346769E+03  0.00000000000E+00 0. -1.
<mgrwt>
<rscale>  0 0.92312016E+02</rscale>
<asrwt>0</asrwt>
<pdfrwt beam="1">  1        1 0.34064789E-03 0.92312016E+02</pdfrwt>
<pdfrwt beam="2">  1       -1 0.14802125E+00 0.92312016E+02</pdfrwt>
<totfact> 0.25986349E+04</totfact>
</mgrwt>
</event>
<event>
 7    1  0.2911475E-009  0.9197887E+02  0.7818608E-02  0.1298129E+00
         -1   -1    0    0    0  501 -0.00000000000E+00  0.00000000000E+00  0.90756401944E+01  0.90756415938E+01  0.50400000000E-02 0.  1.
          1   -1    0    0  501    0  0.00000000000E+00 -0.00000000000E+00 -0.23304450993E+03  0.23304450999E+03  0.50400000000E-02 0. -1.
         23    2    1    2    0    0  0.00000000000E+00  0.35527136788E-14 -0.22396886974E+03  0.24212015158E+03  0.91978873605E+02 0.  0.
    9000005    2    3    3    0    0 -0.25343692127E+02  0.27335588002E+02 -0.47499508646E+02  0.61756705987E+02  0.12967278461E+02 0.  0.
         22    1    3    3    0    0  0.25343692127E+02 -0.27335588002E+02 -0.17646936109E+03  0.18036344559E+03  0.00000000000E+00 0. -1.
         22    1    4    4    0    0 -0.19738693685E+02  0.27092239436E+02 -0.43248432235E+02  0.54717751752E+02  0.00000000000E+00 0.  1.
         22    1    4    4    0    0 -0.56049984425E+01  0.24334856595E+00 -0.42510764107E+01  0.70389542345E+01  0.00000000000E+00 0.  1.
<mgrwt>
<rscale>  0 0.91978874E+02</rscale>
<asrwt>0</asrwt>
<pdfrwt beam="2">  1        1 0.35852997E-01 0.91978874E+02</pdfrwt>
<pdfrwt beam="1">  1       -1 0.13962526E-02 0.91978874E+02</pdfrwt>
<totfact> 0.11916011E+05</totfact>
</mgrwt>
</event>
<event>
 7    1  0.2911475E-009  0.9335235E+02  0.7818608E-02  0.1294931E+00
          1   -1    0    0  501    0  0.00000000000E+00  0.00000000000E+00  0.23113326097E+03  0.23113326102E+03  0.50400000000E-02 0.  1.
         -1   -1    0    0    0  501 -0.00000000000E+00 -0.00000000000E+00 -0.94260123625E+01  0.94260137099E+01  0.50400000000E-02 0. -1.
         23    2    1    2    0    0  0.35527136788E-14 -0.35527136788E-14  0.22170724861E+03  0.24055927473E+03  0.93352346386E+02 0.  0.
    9000005    2    3    3    0    0 -0.29748313769E+02  0.30715159640E+02  0.15572958271E+03  0.16193716842E+03  0.11981668564E+02 0.  0.
         22    1    3    3    0    0  0.29748313769E+02 -0.30715159640E+02  0.65977665899E+02  0.78622106314E+02  0.00000000000E+00 0. -1.
         22    1    4    4    0    0 -0.81925893511E+01  0.16489488464E+02  0.71836959430E+02  0.74159089060E+02  0.00000000000E+00 0. -1.
         22    1    4    4    0    0 -0.21555724418E+02  0.14225671176E+02  0.83892623278E+02  0.87778079360E+02  0.00000000000E+00 0. -1.
<mgrwt>
<rscale>  0 0.93352346E+02</rscale>
<asrwt>0</asrwt>
<pdfrwt beam="1">  1        1 0.35558960E-01 0.93352346E+02</pdfrwt>
<pdfrwt beam="2">  1       -1 0.14501560E-02 0.93352346E+02</pdfrwt>
<totfact> 0.11433233E+05</totfact>
</mgrwt>
</event>
<event>
 7    1  0.2911475E-009  0.8972165E+02  0.7818608E-02  0.1303527E+00
          1   -1    0    0  501    0  0.00000000000E+00  0.00000000000E+00  0.32703804477E+02  0.32703804865E+02  0.50400000000E-02 0. -1.
         -1   -1    0    0    0  501 -0.00000000000E+00 -0.00000000000E+00 -0.61536985198E+02  0.61536985404E+02  0.50400000000E-02 0.  1.
         23    2    1    2    0    0  0.00000000000E+00 -0.71054273576E-14 -0.28833180721E+02  0.94240790269E+02  0.89721648670E+02 0.  0.
    9000005    2    3    3    0    0 -0.62515828554E+01  0.35906707313E+02  0.10294448954E+02  0.40767943681E+02  0.15088924232E+02 0.  0.
         22    1    3    3    0    0  0.62515828554E+01 -0.35906707313E+02 -0.39127629675E+02  0.53472846588E+02  0.00000000000E+00 0.  1.
         22    1    4    4    0    0 -0.54538576432E+01  0.29668058058E+02  0.18273432718E+01  0.30220480068E+02  0.00000000000E+00 0.  1.
         22    1    4    4    0    0 -0.79772521218E+00  0.62386492556E+01  0.84671056818E+01  0.10547463613E+02  0.00000000000E+00 0.  1.
<mgrwt>
<rscale>  0 0.89721649E+02</rscale>
<asrwt>0</asrwt>
<pdfrwt beam="1">  1        1 0.50313546E-02 0.89721649E+02</pdfrwt>
<pdfrwt beam="2">  1       -1 0.94672285E-02 0.89721649E+02</pdfrwt>
<totfact> 0.92008629E+04</totfact>
</mgrwt>
</event>
<event>
 7    1  0.2911475E-009  0.9091643E+02  0.7818608E-02  0.1300647E+00
          1   -1    0    0  501    0  0.00000000000E+00  0.00000000000E+00  0.11037767249E+03  0.11037767261E+03  0.50400000000E-02 0. -1.
         -1   -1    0    0    0  501 -0.00000000000E+00 -0.00000000000E+00 -0.18721623548E+02  0.18721624227E+02  0.50400000000E-02 0.  1.
         23    2    1    2    0    0 -0.17763568394E-14  0.00000000000E+00  0.91656048944E+02  0.12909929683E+03  0.90916429401E+02 0.  0.
    9000005    2    3    3    0    0  0.10347977607E+02 -0.40522996774E+02  0.23566813106E+02  0.49190987221E+02  0.10731478728E+02 0.  0.
         22    1    3    3    0    0 -0.10347977607E+02  0.40522996774E+02  0.68089235838E+02  0.79908309613E+02  0.00000000000E+00 0. -1.
         22    1    4    4    0    0  0.12182556363E+02 -0.38665020752E+02  0.21701779775E+02  0.45982233033E+02  0.00000000000E+00 0. -1.
         22    1    4    4    0    0 -0.18345787566E+01 -0.18579760222E+01  0.18650333306E+01  0.32087541877E+01  0.00000000000E+00 0. -1.
<mgrwt>
<rscale>  0 0.90916429E+02</rscale>
<asrwt>0</asrwt>
<pdfrwt beam="1">  1        1 0.16981180E-01 0.90916429E+02</pdfrwt>
<pdfrwt beam="2">  1       -1 0.28802498E-02 0.90916429E+02</pdfrwt>
<totfact> 0.10703046E+05</totfact>
</mgrwt>
</event>
<event>
 7    1  0.2911475E-009  0.9265459E+02  0.7818608E-02  0.1296548E+00
          1   -1    0    0  501    0  0.00000000000E+00  0.00000000000E+00  0.28105207551E+02  0.28105208003E+02  0.50400000000E-02 0. -1.
         -1   -1    0    0    0  501 -0.00000000000E+00 -0.00000000000E+00 -0.76363719451E+02  0.76363719617E+02  0.50400000000E-02 0.  1.
         23    2    1    2    0    0  0.00000000000E+00  0.00000000000E+00 -0.48258511899E+02  0.10446892762E+03  0.92654589025E+02 0.  0.
    9000005    2    3    3    0    0 -0.44723497439E+01  0.44712696509E+02 -0.31281012503E+02  0.56432872130E+02  0.13672606641E+02 0.  0.
         22    1    3    3    0    0  0.44723497439E+01 -0.44712696509E+02 -0.16977499396E+02  0.48036055490E+02  0.00000000000E+00 0.  1.
         22    1    4    4    0    0 -0.60327329059E+01  0.15849272630E+02 -0.17642097324E+02  0.24471144379E+02  0.00000000000E+00 0. -1.
         22    1    4    4    0    0  0.15603831620E+01  0.28863423879E+02 -0.13638915179E+02  0.31961727752E+02  0.00000000000E+00 0. -1.
<mgrwt>
<rscale>  0 0.92654589E+02</rscale>
<asrwt>0</asrwt>
<pdfrwt beam="1">  1        1 0.43238782E-02 0.92654589E+02</pdfrwt>
<pdfrwt beam="2">  1       -1 0.11748264E-01 0.92654589E+02</pdfrwt>
<totfact> 0.81874278E+04</totfact>
</mgrwt>
</event>
<event>
 7    1  0.2911475E-009  0.9090633E+02  0.7818608E-02  0.1300672E+00
          1   -1    0    0  501    0  0.00000000000E+00  0.00000000000E+00  0.32135068766E+02  0.32135069162E+02  0.50400000000E-02 0. -1.
         -1   -1    0    0    0  501 -0.00000000000E+00 -0.00000000000E+00 -0.64290821038E+02  0.64290821236E+02  0.50400000000E-02 0.  1.
         23    2    1    2    0    0  0.00000000000E+00  0.00000000000E+00 -0.32155752272E+02  0.96425890397E+02  0.90906325054E+02 0.  0.
    9000005    2    3    3    0    0  0.22650546469E+02 -0.95388923805E+01 -0.56125151105E+02  0.62095585947E+02  0.10089176594E+02 0.  0.
         22    1    3    3    0    0 -0.22650546469E+02  0.95388923805E+01  0.23969398833E+02  0.34330304450E+02  0.00000000000E+00 0. -1.
         22    1    4    4    0    0  0.18102497842E+02 -0.87377712423E+01 -0.52525428248E+02  0.56240285268E+02  0.00000000000E+00 0. -1.
         22    1    4    4    0    0  0.45480486274E+01 -0.80112113822E+00 -0.35997228572E+01  0.58553006792E+01  0.00000000000E+00 0. -1.
<mgrwt>
<rscale>  0 0.90906325E+02</rscale>
<asrwt>0</asrwt>
<pdfrwt beam="1">  1        1 0.49438568E-02 0.90906325E+02</pdfrwt>
<pdfrwt beam="2">  1       -1 0.98908955E-02 0.90906325E+02</pdfrwt>
<totfact> 0.88389685E+04</totfact>
</mgrwt>
</event>
<event>
 7    1  0.2911475E-009  0.9238473E+02  0.7818608E-02  0.1297177E+00
          1   -1    0    0  501    0  0.00000000000E+00  0.00000000000E+00  0.18057230642E+02  0.18057231345E+02  0.50400000000E-02 0. -1.
         -1   -1    0    0    0  501 -0.00000000000E+00 -0.00000000000E+00 -0.11816510199E+03  0.11816510209E+03  0.50400000000E-02 0.  1.
         23    2    1    2    0    0  0.00000000000E+00  0.88817841970E-15 -0.10010787134E+03  0.13622233344E+03  0.92384729379E+02 0.  0.
    9000005    2    3    3    0    0 -0.37097996641E+02  0.69065705773E+01 -0.88129617045E+02  0.96631417209E+02  0.12117727481E+02 0.  0.
         22    1    3    3    0    0  0.37097996641E+02 -0.69065705773E+01 -0.11978254299E+02  0.39590916230E+02  0.00000000000E+00 0. -1.
         22    1    4    4    0    0 -0.66800212902E+01  0.24416451299E+01 -0.30453549522E+02  0.31273039409E+02  0.00000000000E+00 0. -1.
         22    1    4    4    0    0 -0.30417975350E+02  0.44649254474E+01 -0.57676067523E+02  0.65358377800E+02  0.00000000000E+00 0. -1.
<mgrwt>
<rscale>  0 0.92384729E+02</rscale>
<asrwt>0</asrwt>
<pdfrwt beam="1">  1        1 0.27780356E-02 0.92384729E+02</pdfrwt>
<pdfrwt beam="2">  1       -1 0.18179246E-01 0.92384729E+02</pdfrwt>
<totfact> 0.76139960E+04</totfact>
</mgrwt>
</event>
<event>
 7    1  0.2911475E-009  0.9085461E+02  0.7818608E-02  0.1300795E+00
         -1   -1    0    0    0  501 -0.00000000000E+00  0.00000000000E+00  0.77196521018E+01  0.77196537471E+01  0.50400000000E-02 0.  1.
          1   -1    0    0  501    0  0.00000000000E+00 -0.00000000000E+00 -0.26732288344E+03  0.26732288349E+03  0.50400000000E-02 0. -1.
         23    2    1    2    0    0 -0.71054273576E-14 -0.35527136788E-14 -0.25960323134E+03  0.27504253724E+03  0.90854606748E+02 0.  0.
    9000005    2    3    3    0    0  0.33006736668E+02  0.15980740092E+02 -0.56887159092E+02  0.69036142513E+02  0.13601888991E+02 0.  0.
         22    1    3    3    0    0 -0.33006736668E+02 -0.15980740092E+02 -0.20271607225E+03  0.20600639472E+03  0.00000000000E+00 0.  1.
         22    1    4    4    0    0  0.13712419797E+02  0.97012902477E+01 -0.15114496540E+02  0.22596315956E+02  0.00000000000E+00 0. -1.
         22    1    4    4    0    0  0.19294316872E+02  0.62794498440E+01 -0.41772662552E+02  0.46439826556E+02  0.00000000000E+00 0. -1.
<mgrwt>
<rscale>  0 0.90854607E+02</rscale>
<asrwt>0</asrwt>
<pdfrwt beam="2">  1        1 0.41126591E-01 0.90854607E+02</pdfrwt>
<pdfrwt beam="1">  1       -1 0.11876391E-02 0.90854607E+02</pdfrwt>
<totfact> 0.12648769E+05</totfact>
</mgrwt>
</event>
<event>
 7    1  0.2911475E-009  0.9128049E+02  0.7818608E-02  0.1299780E+00
          1   -1    0    0  501    0  0.00000000000E+00  0.00000000000E+00  0.20575233728E+03  0.20575233734E+03  0.50400000000E-02 0. -1.
         -1   -1    0    0    0  501 -0.00000000000E+00 -0.00000000000E+00 -0.10123976081E+02  0.10123977336E+02  0.50400000000E-02 0.  1.
         23    2    1    2    0    0  0.00000000000E+00  0.35527136788E-14  0.19562836120E+03  0.21587631467E+03  0.91280488239E+02 0.  0.
    9000005    2    3    3    0    0  0.17410415261E+02  0.30742554344E+02  0.31006848997E+02  0.47506277299E+02  0.68698246634E+01 0.  0.
         22    1    3    3    0    0 -0.17410415261E+02 -0.30742554344E+02  0.16462151220E+03  0.16837003738E+03  0.00000000000E+00 0. -1.
         22    1    4    4    0    0  0.17187814958E+02  0.27644354571E+02  0.26213502602E+02  0.41794485777E+02  0.00000000000E+00 0. -1.
         22    1    4    4    0    0  0.22260030282E+00  0.30981997733E+01  0.47933463947E+01  0.57117915219E+01  0.00000000000E+00 0. -1.
<mgrwt>
<rscale>  0 0.91280488E+02</rscale>
<asrwt>0</asrwt>
<pdfrwt beam="1">  1        1 0.31654201E-01 0.91280488E+02</pdfrwt>
<pdfrwt beam="2">  1       -1 0.15575351E-02 0.91280488E+02</pdfrwt>
<totfact> 0.11869747E+05</totfact>
</mgrwt>
</event>
<event>
 7    1  0.2911475E-009  0.9070412E+02  0.7818608E-02  0.1301155E+00
          1   -1    0    0  501    0  0.00000000000E+00  0.00000000000E+00  0.19271649764E+02  0.19271650424E+02  0.50400000000E-02 0. -1.
         -1   -1    0    0    0  501 -0.00000000000E+00 -0.00000000000E+00 -0.10672719779E+03  0.10672719791E+03  0.50400000000E-02 0.  1.
         23    2    1    2    0    0  0.71054273576E-14  0.00000000000E+00 -0.87455548028E+02  0.12599884833E+03  0.90704117331E+02 0.  0.
    9000005    2    3    3    0    0  0.34989424632E+02 -0.22736491629E+02 -0.66800525593E+02  0.79438802808E+02  0.10344335864E+02 0.  0.
         22    1    3    3    0    0 -0.34989424632E+02  0.22736491629E+02 -0.20655022435E+02  0.46560045526E+02  0.00000000000E+00 0. -1.
         22    1    4    4    0    0  0.20254805627E+02 -0.82262251442E+01 -0.40034786869E+02  0.45614823147E+02  0.00000000000E+00 0.  1.
         22    1    4    4    0    0  0.14734619005E+02 -0.14510266484E+02 -0.26765738724E+02  0.33823979661E+02  0.00000000000E+00 0.  1.
<mgrwt>
<rscale>  0 0.90704117E+02</rscale>
<asrwt>0</asrwt>
<pdfrwt beam="1">  1        1 0.29648693E-02 0.90704117E+02</pdfrwt>
<pdfrwt beam="2">  1       -1 0.16419569E-01 0.90704117E+02</pdfrwt>
<totfact> 0.81460025E+04</totfact>
</mgrwt>
</event>
<event>
 6    1  0.2911475E-009  0.1522541E+03  0.7818608E-02  0.1197730E+00
         -1   -1    0    0    0  501 -0.00000000000E+00  0.00000000000E+00  0.15354583392E+02  0.15354584219E+02  0.50400000000E-02 0.  1.
          1   -1    0    0  501    0  0.00000000000E+00 -0.00000000000E+00 -0.37743318895E+03  0.37743318898E+03  0.50400000000E-02 0. -1.
    9000005    2    1    2    0    0  0.52033239085E+02 -0.20744743909E+02 -0.52156855687E+02  0.77844455426E+02  0.14199270258E+02 0.  0.
         22    1    1    2    0    0 -0.52033239085E+02  0.20744743909E+02 -0.30992174987E+03  0.31494331778E+03  0.00000000000E+00 0. -1.
         22    1    3    3    0    0  0.87765322748E+01 -0.38352180302E+01 -0.25975017589E+01  0.99238818764E+01  0.00000000000E+00 0.  1.
         22    1    3    3    0    0  0.43256706811E+02 -0.16909525879E+02 -0.49559353928E+02  0.67920573550E+02  0.00000000000E+00 0.  1.
<mgrwt>
<rscale>  0 0.15225412E+03</rscale>
<asrwt>0</asrwt>
<pdfrwt beam="2">  1        1 0.58066637E-01 0.15225412E+03</pdfrwt>
<pdfrwt beam="1">  1       -1 0.23622440E-02 0.15225412E+03</pdfrwt>
<totfact> 0.32968927E+04</totfact>
</mgrwt>
</event>
<event>
 7    1  0.2911475E-009  0.9200327E+02  0.7818608E-02  0.1298072E+00
          1   -1    0    0  501    0  0.00000000000E+00  0.00000000000E+00  0.37248159173E+01  0.37248193270E+01  0.50400000000E-02 0. -1.
         -1   -1    0    0    0  501 -0.00000000000E+00 -0.00000000000E+00 -0.56812183919E+03  0.56812183921E+03  0.50400000000E-02 0.  1.
         23    2    1    2    0    0  0.00000000000E+00  0.35527136788E-14 -0.56439702327E+03  0.57184665854E+03  0.92003266265E+02 0.  0.
    9000005    2    3    3    0    0 -0.32116398401E+02 -0.30897809269E+02 -0.30805312042E+03  0.31165762304E+03  0.15735670788E+02 0.  0.
         22    1    3    3    0    0  0.32116398401E+02  0.30897809269E+02 -0.25634390285E+03  0.26018903550E+03  0.00000000000E+00 0.  1.
         22    1    4    4    0    0 -0.24055520757E+02 -0.30936551456E+02 -0.25820086538E+03  0.26115785490E+03  0.00000000000E+00 0.  1.
         22    1    4    4    0    0 -0.80608776433E+01  0.38742187347E-01 -0.49852255037E+02  0.50499768134E+02  0.00000000000E+00 0.  1.
<mgrwt>
<rscale>  0 0.92003266E+02</rscale>
<asrwt>0</asrwt>
<pdfrwt beam="1">  1        1 0.57304932E-03 0.92003266E+02</pdfrwt>
<pdfrwt beam="2">  1       -1 0.87403292E-01 0.92003266E+02</pdfrwt>
<totfact> 0.42254129E+04</totfact>
</mgrwt>
</event>
<event>
 7    1  0.2911475E-009  0.9229954E+02  0.7818608E-02  0.1297377E+00
         -1   -1    0    0    0  501 -0.00000000000E+00  0.00000000000E+00  0.53812880045E+02  0.53812880281E+02  0.50400000000E-02 0.  1.
          1   -1    0    0  501    0  0.00000000000E+00 -0.00000000000E+00 -0.39577904813E+02  0.39577905133E+02  0.50400000000E-02 0. -1.
         23    2    1    2    0    0  0.00000000000E+00  0.00000000000E+00  0.14234975232E+02  0.93390785414E+02  0.92299535646E+02 0.  0.
    9000005    2    3    3    0    0 -0.11709074670E+02  0.18999572503E+01  0.51907473238E+02  0.53894844190E+02  0.83400350773E+01 0.  0.
         22    1    3    3    0    0  0.11709074670E+02 -0.18999572503E+01 -0.37672498006E+02  0.39495941224E+02  0.00000000000E+00 0. -1.
         22    1    4    4    0    0 -0.34345284196E+01  0.18412506498E+01  0.54133998661E+01  0.66701639808E+01  0.00000000000E+00 0. -1.
         22    1    4    4    0    0 -0.82745462507E+01  0.58706600436E-01  0.46494073372E+02  0.47224680209E+02  0.00000000000E+00 0. -1.
<mgrwt>
<rscale>  0 0.92299536E+02</rscale>
<asrwt>0</asrwt>
<pdfrwt beam="2">  1        1 0.60889085E-02 0.92299536E+02</pdfrwt>
<pdfrwt beam="1">  1       -1 0.82789046E-02 0.92299536E+02</pdfrwt>
<totfact> 0.87434060E+04</totfact>
</mgrwt>
</event>
<event>
 7    1  0.2911475E-009  0.9220721E+02  0.7818608E-02  0.1297593E+00
         -1   -1    0    0    0  501 -0.00000000000E+00  0.00000000000E+00  0.30426056060E+03  0.30426056064E+03  0.50400000000E-02 0.  1.
          1   -1    0    0  501    0  0.00000000000E+00 -0.00000000000E+00 -0.69859269290E+01  0.69859287470E+01  0.50400000000E-02 0. -1.
         23    2    1    2    0    0  0.00000000000E+00  0.00000000000E+00  0.29727463367E+03  0.31124648939E+03  0.92207208680E+02 0.  0.
    9000005    2    3    3    0    0  0.32363698996E+02  0.30125750041E+02  0.10535355744E+03  0.11429809683E+03  0.31165760529E+01 0.  0.
         22    1    3    3    0    0 -0.32363698996E+02 -0.30125750041E+02  0.19192107624E+03  0.19694839256E+03  0.00000000000E+00 0.  1.
         22    1    4    4    0    0  0.69718830965E+00  0.13656083619E+01  0.31509233189E+01  0.35041797184E+01  0.00000000000E+00 0. -1.
         22    1    4    4    0    0  0.31666510687E+02  0.28760141679E+02  0.10220263412E+03  0.11079391711E+03  0.00000000000E+00 0. -1.
<mgrwt>
<rscale>  0 0.92207209E+02</rscale>
<asrwt>0</asrwt>
<pdfrwt beam="2">  1        1 0.10747583E-02 0.92207209E+02</pdfrwt>
<pdfrwt beam="1">  1       -1 0.46809310E-01 0.92207209E+02</pdfrwt>
<totfact> 0.58502123E+04</totfact>
</mgrwt>
</event>
<event>
 7    1  0.2911475E-009  0.8957184E+02  0.7818608E-02  0.1303892E+00
          1   -1    0    0  501    0  0.00000000000E+00  0.00000000000E+00  0.10040762575E+04  0.10040762575E+04  0.50400000000E-02 0.  1.
         -1   -1    0    0    0  501 -0.00000000000E+00 -0.00000000000E+00 -0.19976325613E+01  0.19976389192E+01  0.50400000000E-02 0. -1.
         23    2    1    2    0    0  0.35527136788E-14  0.00000000000E+00  0.10020786249E+04  0.10060738964E+04  0.89571840007E+02 0.  0.
    9000005    2    3    3    0    0 -0.23649886838E+02  0.27975228088E+02  0.78252264933E+03  0.78348288817E+03  0.12720408970E+02 0.  0.
         22    1    3    3    0    0  0.23649886838E+02 -0.27975228088E+02  0.21955597558E+03  0.22259100823E+03  0.00000000000E+00 0. -1.
         22    1    4    4    0    0  0.54974478927E+00  0.18330598137E+01  0.11061184083E+03  0.11062839446E+03  0.00000000000E+00 0. -1.
         22    1    4    4    0    0 -0.24199631627E+02  0.26142168274E+02  0.67191080850E+03  0.67285449372E+03  0.00000000000E+00 0. -1.
<mgrwt>
<rscale>  0 0.89571840E+02</rscale>
<asrwt>0</asrwt>
<pdfrwt beam="1">  1        1 0.15447327E+00 0.89571840E+02</pdfrwt>
<pdfrwt beam="2">  1       -1 0.30732858E-03 0.89571840E+02</pdfrwt>
<totfact> 0.14239296E+05</totfact>
</mgrwt>
</event>
<event>
 6    1  0.2911475E-009  0.1708437E+03  0.7818608E-02  0.1176971E+00
          1   -1    0    0  501    0  0.00000000000E+00  0.00000000000E+00  0.17973483978E+03  0.17973483985E+03  0.50400000000E-02 0. -1.
         -1   -1    0    0    0  501 -0.00000000000E+00 -0.00000000000E+00 -0.40598100055E+02  0.40598100368E+02  0.50400000000E-02 0.  1.
    9000005    2    1    2    0    0 -0.47306966796E+02 -0.62159498440E+02  0.11342959406E+03  0.13809785226E+03  0.10148479436E+02 0.  0.
         22    1    1    2    0    0  0.47306966796E+02  0.62159498440E+02  0.25707145661E+02  0.82235087960E+02  0.00000000000E+00 0. -1.
         22    1    3    3    0    0 -0.45907345065E+02 -0.55825572934E+02  0.10359705812E+03  0.12631836515E+03  0.00000000000E+00 0.  1.
         22    1    3    3    0    0 -0.13996217308E+01 -0.63339255064E+01  0.98325359439E+01  0.11779487103E+02  0.00000000000E+00 0.  1.
<mgrwt>
<rscale>  0 0.17084371E+03</rscale>
<asrwt>0</asrwt>
<pdfrwt beam="1">  1        1 0.27651513E-01 0.17084371E+03</pdfrwt>
<pdfrwt beam="2">  1       -1 0.62458618E-02 0.17084371E+03</pdfrwt>
<totfact> 0.20065542E+04</totfact>
</mgrwt>
</event>
<event>
 7    1  0.2911475E-009  0.1081551E+03  0.7818608E-02  0.1264025E+00
          1   -1    0    0  501    0  0.00000000000E+00  0.00000000000E+00  0.31294696330E+03  0.31294696334E+03  0.50400000000E-02 0. -1.
         -1   -1    0    0    0  501 -0.00000000000E+00 -0.00000000000E+00 -0.93446597943E+01  0.93446611534E+01  0.50400000000E-02 0.  1.
         23    2    1    2    0    0  0.00000000000E+00  0.00000000000E+00  0.30360230350E+03  0.32229162449E+03  0.10815513175E+03 0.  0.
    9000005    2    3    3    0    0 -0.23630711743E+02  0.46828832497E+02  0.11290534815E+03  0.12451225532E+03  0.20818243201E+01 0.  0.
         22    1    3    3    0    0  0.23630711743E+02 -0.46828832497E+02  0.19069695535E+03  0.19777936917E+03  0.00000000000E+00 0. -1.
         22    1    4    4    0    0 -0.17220186071E+02  0.33479531718E+02  0.78883931447E+02  0.87407599743E+02  0.00000000000E+00 0. -1.
         22    1    4    4    0    0 -0.64105256720E+01  0.13349300779E+02  0.34021416704E+02  0.37104655573E+02  0.00000000000E+00 0. -1.
<mgrwt>
<rscale>  0 0.10815513E+03</rscale>
<asrwt>0</asrwt>
<pdfrwt beam="1">  1        1 0.48145688E-01 0.10815513E+03</pdfrwt>
<pdfrwt beam="2">  1       -1 0.14376400E-02 0.10815513E+03</pdfrwt>
<totfact> 0.81622041E+04</totfact>
</mgrwt>
</event>
<event>
 7    1  0.2911475E-009  0.8861096E+02  0.7818608E-02  0.1306251E+00
          1   -1    0    0  501    0  0.00000000000E+00  0.00000000000E+00  0.51038414322E+02  0.51038414571E+02  0.50400000000E-02 0. -1.
         -1   -1    0    0    0  501 -0.00000000000E+00 -0.00000000000E+00 -0.38460748384E+02  0.38460748714E+02  0.50400000000E-02 0.  1.
         23    2    1    2    0    0 -0.71054273576E-14  0.35527136788E-14  0.12577665938E+02  0.89499163286E+02  0.88610961785E+02 0.  0.
    9000005    2    3    3    0    0  0.33709169280E+02 -0.25656126668E+02  0.14419067283E+02  0.47097091543E+02  0.14686102322E+02 0.  0.
         22    1    3    3    0    0 -0.33709169280E+02  0.25656126668E+02 -0.18414013446E+01  0.42402071742E+02  0.00000000000E+00 0.  1.
         22    1    4    4    0    0  0.24004869750E+02 -0.22674077533E+02  0.16215729548E+02  0.36787191364E+02  0.00000000000E+00 0.  1.
         22    1    4    4    0    0  0.97042995301E+01 -0.29820491348E+01 -0.17966622653E+01  0.10309900179E+02  0.00000000000E+00 0.  1.
<mgrwt>
<rscale>  0 0.88610962E+02</rscale>
<asrwt>0</asrwt>
<pdfrwt beam="1">  1        1 0.78520638E-02 0.88610962E+02</pdfrwt>
<pdfrwt beam="2">  1       -1 0.59170382E-02 0.88610962E+02</pdfrwt>
<totfact> 0.10183259E+05</totfact>
</mgrwt>
</event>
<event>
 7    1  0.2911475E-009  0.9408146E+02  0.7818608E-02  0.1293258E+00
          1   -1    0    0  501    0  0.00000000000E+00  0.00000000000E+00  0.82177136938E+01  0.82177152394E+01  0.50400000000E-02 0. -1.
         -1   -1    0    0    0  501 -0.00000000000E+00 -0.00000000000E+00 -0.26927560554E+03  0.26927560559E+03  0.50400000000E-02 0.  1.
         23    2    1    2    0    0  0.00000000000E+00  0.35527136788E-14 -0.26105789185E+03  0.27749332083E+03  0.94081455177E+02 0.  0.
    9000005    2    3    3    0    0 -0.24155852395E+02 -0.17266302679E+02 -0.23762736715E+03  0.23966978449E+03  0.96545102237E+01 0.  0.
         22    1    3    3    0    0  0.24155852395E+02  0.17266302679E+02 -0.23430524695E+02  0.37823536332E+02  0.00000000000E+00 0. -1.
         22    1    4    4    0    0  0.29695707970E-01  0.68277800761E+00 -0.14850789294E+02  0.14866506324E+02  0.00000000000E+00 0.  1.
         22    1    4    4    0    0 -0.24185548103E+02 -0.17949080687E+02 -0.22277657786E+03  0.22480327817E+03  0.00000000000E+00 0.  1.
<mgrwt>
<rscale>  0 0.94081455E+02</rscale>
<asrwt>0</asrwt>
<pdfrwt beam="1">  1        1 0.12642640E-02 0.94081455E+02</pdfrwt>
<pdfrwt beam="2">  1       -1 0.41427010E-01 0.94081455E+02</pdfrwt>
<totfact> 0.58131511E+04</totfact>
</mgrwt>
</event>
<event>
 7    1  0.2911475E-009  0.9108967E+02  0.7818608E-02  0.1300234E+00
         -1   -1    0    0    0  501 -0.00000000000E+00  0.00000000000E+00  0.18916164946E+02  0.18916165618E+02  0.50400000000E-02 0.  1.
          1   -1    0    0  501    0  0.00000000000E+00 -0.00000000000E+00 -0.10965921724E+03  0.10965921736E+03  0.50400000000E-02 0. -1.
         23    2    1    2    0    0 -0.22204460493E-15  0.00000000000E+00 -0.90743052293E+02  0.12857538297E+03  0.91089667731E+02 0.  0.
    9000005    2    3    3    0    0 -0.12893995873E+01 -0.31057143597E+02 -0.17523149283E+01  0.34312134268E+02  0.14423703781E+02 0.  0.
         22    1    3    3    0    0  0.12893995873E+01  0.31057143597E+02 -0.88990737365E+02  0.94263248705E+02  0.00000000000E+00 0. -1.
         22    1    4    4    0    0 -0.56269855767E+01 -0.13451860246E+02 -0.58702652707E+01  0.15718636235E+02  0.00000000000E+00 0.  1.
         22    1    4    4    0    0  0.43375859894E+01 -0.17605283351E+02  0.41179503424E+01  0.18593498033E+02  0.00000000000E+00 0.  1.
<mgrwt>
<rscale>  0 0.91089668E+02</rscale>
<asrwt>0</asrwt>
<pdfrwt beam="2">  1        1 0.16870649E-01 0.91089668E+02</pdfrwt>
<pdfrwt beam="1">  1       -1 0.29101793E-02 0.91089668E+02</pdfrwt>
<totfact> 0.10636031E+05</totfact>
</mgrwt>
</event>
<event>
 7    1  0.2911475E-009  0.8986273E+02  0.7818608E-02  0.1303184E+00
         -1   -1    0    0    0  501 -0.00000000000E+00  0.00000000000E+00  0.18540620695E+02  0.18540621380E+02  0.50400000000E-02 0.  1.
          1   -1    0    0  501    0  0.00000000000E+00 -0.00000000000E+00 -0.10888672597E+03  0.10888672609E+03  0.50400000000E-02 0. -1.
         23    2    1    2    0    0  0.00000000000E+00  0.35527136788E-14 -0.90346105275E+02  0.12742734747E+03  0.89862729449E+02 0.  0.
    9000005    2    3    3    0    0 -0.99175296364E+01 -0.26695708770E+02 -0.93984866653E+02  0.98717438982E+02  0.10047852434E+02 0.  0.
         22    1    3    3    0    0  0.99175296364E+01  0.26695708770E+02  0.36387613777E+01  0.28709908485E+02  0.00000000000E+00 0.  1.
         22    1    4    4    0    0  0.55600978825E+00 -0.66868407026E+01 -0.33231621083E+02  0.33902265784E+02  0.00000000000E+00 0.  1.
         22    1    4    4    0    0 -0.10473539425E+02 -0.20008868068E+02 -0.60753245570E+02  0.64815173198E+02  0.00000000000E+00 0.  1.
<mgrwt>
<rscale>  0 0.89862729E+02</rscale>
<asrwt>0</asrwt>
<pdfrwt beam="2">  1        1 0.16751804E-01 0.89862729E+02</pdfrwt>
<pdfrwt beam="1">  1       -1 0.28524033E-02 0.89862729E+02</pdfrwt>
<totfact> 0.11021575E+05</totfact>
</mgrwt>
</event>
<event>
 7    1  0.2911475E-009  0.8873948E+02  0.7818608E-02  0.1305933E+00
          1   -1    0    0  501    0  0.00000000000E+00  0.00000000000E+00  0.20047805526E+02  0.20047806160E+02  0.50400000000E-02 0. -1.
         -1   -1    0    0    0  501 -0.00000000000E+00 -0.00000000000E+00 -0.98198964395E+02  0.98198964525E+02  0.50400000000E-02 0.  1.
         23    2    1    2    0    0 -0.35527136788E-14 -0.17763568394E-14 -0.78151158869E+02  0.11824677068E+03  0.88739479065E+02 0.  0.
    9000005    2    3    3    0    0 -0.26817371844E+02 -0.11135432254E+02 -0.82971970784E+02  0.88811935682E+02  0.12650798380E+02 0.  0.
         22    1    3    3    0    0  0.26817371844E+02  0.11135432254E+02  0.48208119150E+01  0.29434835003E+02  0.00000000000E+00 0. -1.
         22    1    4    4    0    0 -0.56565432998E+01 -0.82276451928E+01 -0.20780951970E+02  0.23055120739E+02  0.00000000000E+00 0.  1.
         22    1    4    4    0    0 -0.21160828544E+02 -0.29077870616E+01 -0.62191018814E+02  0.65756814943E+02  0.00000000000E+00 0.  1.
<mgrwt>
<rscale>  0 0.88739479E+02</rscale>
<asrwt>0</asrwt>
<pdfrwt beam="1">  1        1 0.30842779E-02 0.88739479E+02</pdfrwt>
<pdfrwt beam="2">  1       -1 0.15107533E-01 0.88739479E+02</pdfrwt>
<totfact> 0.87534565E+04</totfact>
</mgrwt>
</event>
<event>
 7    1  0.2911475E-009  0.8911112E+02  0.7818608E-02  0.1305019E+00
          1   -1    0    0  501    0  0.00000000000E+00  0.00000000000E+00  0.10177826457E+03  0.10177826470E+03  0.50400000000E-02 0. -1.
         -1   -1    0    0    0  501 -0.00000000000E+00 -0.00000000000E+00 -0.19505126635E+02  0.19505127286E+02  0.50400000000E-02 0.  1.
         23    2    1    2    0    0  0.00000000000E+00  0.00000000000E+00  0.82273137939E+02  0.12128339198E+03  0.89111121331E+02 0.  0.
    9000005    2    3    3    0    0  0.21683537906E+02 -0.33100218538E+02  0.13534760402E+02  0.41969050092E+02  0.35229452309E+01 0.  0.
         22    1    3    3    0    0 -0.21683537906E+02  0.33100218538E+02  0.68738377537E+02  0.79314341892E+02  0.00000000000E+00 0.  1.
         22    1    4    4    0    0  0.66550868382E+01 -0.83486664969E+01  0.23844076449E+01  0.10939644095E+02  0.00000000000E+00 0. -1.
         22    1    4    4    0    0  0.15028451068E+02 -0.24751552041E+02  0.11150352757E+02  0.31029405997E+02  0.00000000000E+00 0. -1.
<mgrwt>
<rscale>  0 0.89111121E+02</rscale>
<asrwt>0</asrwt>
<pdfrwt beam="1">  1        1 0.15658195E-01 0.89111121E+02</pdfrwt>
<pdfrwt beam="2">  1       -1 0.30007888E-02 0.89111121E+02</pdfrwt>
<totfact> 0.11149295E+05</totfact>
</mgrwt>
</event>
<event>
 7    1  0.2911475E-009  0.9136508E+02  0.7818608E-02  0.1299579E+00
         -1   -1    0    0    0  501 -0.00000000000E+00  0.00000000000E+00  0.53315314373E+02  0.53315314612E+02  0.50400000000E-02 0.  1.
          1   -1    0    0  501    0  0.00000000000E+00 -0.00000000000E+00 -0.39142491921E+02  0.39142492245E+02  0.50400000000E-02 0. -1.
         23    2    1    2    0    0  0.00000000000E+00  0.00000000000E+00  0.14172822453E+02  0.92457806857E+02  0.91365076219E+02 0.  0.
    9000005    2    3    3    0    0 -0.19248570912E+02  0.38358627021E+02  0.21464467734E+02  0.48925521826E+02  0.95441899454E+01 0.  0.
         22    1    3    3    0    0  0.19248570912E+02 -0.38358627021E+02 -0.72916452811E+01  0.43532285031E+02  0.00000000000E+00 0. -1.
         22    1    4    4    0    0 -0.74310067663E+01  0.77688862327E+01  0.24775950134E+01  0.11032403723E+02  0.00000000000E+00 0.  1.
         22    1    4    4    0    0 -0.11817564146E+02  0.30589740789E+02  0.18986872720E+02  0.37893118103E+02  0.00000000000E+00 0.  1.
<mgrwt>
<rscale>  0 0.91365076E+02</rscale>
<asrwt>0</asrwt>
<pdfrwt beam="2">  1        1 0.60219219E-02 0.91365076E+02</pdfrwt>
<pdfrwt beam="1">  1       -1 0.82023561E-02 0.91365076E+02</pdfrwt>
<totfact> 0.89839041E+04</totfact>
</mgrwt>
</event>
<event>
 7    1  0.2911475E-009  0.8952789E+02  0.7818608E-02  0.1303999E+00
          1   -1    0    0  501    0  0.00000000000E+00  0.00000000000E+00  0.79188426677E+02  0.79188426837E+02  0.50400000000E-02 0. -1.
         -1   -1    0    0    0  501 -0.00000000000E+00 -0.00000000000E+00 -0.25304339461E+02  0.25304339963E+02  0.50400000000E-02 0.  1.
         23    2    1    2    0    0  0.44408920985E-15  0.00000000000E+00  0.53884087216E+02  0.10449276680E+03  0.89527892069E+02 0.  0.
    9000005    2    3    3    0    0  0.18531641065E+01 -0.34633412632E+02 -0.58279825555E+01  0.35438883751E+02  0.43636696790E+01 0.  0.
         22    1    3    3    0    0 -0.18531641065E+01  0.34633412632E+02  0.59712069772E+02  0.69053883049E+02  0.00000000000E+00 0. -1.
         22    1    4    4    0    0  0.10964434362E+01 -0.73684830179E+01  0.40400098291E+00  0.74605594286E+01  0.00000000000E+00 0. -1.
         22    1    4    4    0    0  0.75672067028E+00 -0.27264929614E+02 -0.62319835384E+01  0.27978324322E+02  0.00000000000E+00 0. -1.
<mgrwt>
<rscale>  0 0.89527892E+02</rscale>
<asrwt>0</asrwt>
<pdfrwt beam="1">  1        1 0.12182835E-01 0.89527892E+02</pdfrwt>
<pdfrwt beam="2">  1       -1 0.38929754E-02 0.89527892E+02</pdfrwt>
<totfact> 0.10574013E+05</totfact>
</mgrwt>
</event>
<event>
 7    1  0.2911475E-009  0.9068387E+02  0.7818608E-02  0.1301204E+00
         -1   -1    0    0    0  501 -0.00000000000E+00  0.00000000000E+00  0.68609483242E+01  0.68609501754E+01  0.50400000000E-02 0.  1.
          1   -1    0    0  501    0  0.00000000000E+00 -0.00000000000E+00 -0.29965112461E+03  0.29965112465E+03  0.50400000000E-02 0. -1.
         23    2    1    2    0    0 -0.71054273576E-14  0.00000000000E+00 -0.29279017628E+03  0.30651207482E+03  0.90683872247E+02 0.  0.
    9000005    2    3    3    0    0 -0.34221855379E+02  0.15126627176E+02 -0.69209344572E+02  0.79822113548E+02  0.13479102337E+02 0.  0.
         22    1    3    3    0    0  0.34221855379E+02 -0.15126627176E+02 -0.22358083171E+03  0.22668996128E+03  0.00000000000E+00 0. -1.
         22    1    4    4    0    0 -0.33180356729E+02  0.10385561201E+02 -0.58270072086E+02  0.67854235350E+02  0.00000000000E+00 0.  1.
         22    1    4    4    0    0 -0.10414986508E+01  0.47410659749E+01 -0.10939272486E+02  0.11967878197E+02  0.00000000000E+00 0.  1.
<mgrwt>
<rscale>  0 0.90683872E+02</rscale>
<asrwt>0</asrwt>
<pdfrwt beam="2">  1        1 0.46100163E-01 0.90683872E+02</pdfrwt>
<pdfrwt beam="1">  1       -1 0.10555309E-02 0.90683872E+02</pdfrwt>
<totfact> 0.12995627E+05</totfact>
</mgrwt>
</event>
<event>
 7    1  0.2911475E-009  0.9234567E+02  0.7818608E-02  0.1297269E+00
          1   -1    0    0  501    0  0.00000000000E+00  0.00000000000E+00  0.10685280697E+03  0.10685280709E+03  0.50400000000E-02 0. -1.
         -1   -1    0    0    0  501 -0.00000000000E+00 -0.00000000000E+00 -0.19952033168E+02  0.19952033805E+02  0.50400000000E-02 0.  1.
         23    2    1    2    0    0  0.00000000000E+00  0.00000000000E+00  0.86900773799E+02  0.12680484089E+03  0.92345672267E+02 0.  0.
    9000005    2    3    3    0    0  0.14793303043E+02 -0.34403475672E+02  0.79738769872E+02  0.88676960626E+02  0.10143518715E+02 0.  0.
         22    1    3    3    0    0 -0.14793303043E+02  0.34403475672E+02  0.71620039270E+01  0.38127880265E+02  0.00000000000E+00 0.  1.
         22    1    4    4    0    0 -0.10517135327E+01 -0.56565281959E+01  0.15591408244E+02  0.16619098159E+02  0.00000000000E+00 0.  1.
         22    1    4    4    0    0  0.15845016576E+02 -0.28746947476E+02  0.64147361628E+02  0.72057862467E+02  0.00000000000E+00 0.  1.
<mgrwt>
<rscale>  0 0.92345672E+02</rscale>
<asrwt>0</asrwt>
<pdfrwt beam="1">  1        1 0.16438893E-01 0.92345672E+02</pdfrwt>
<pdfrwt beam="2">  1       -1 0.30695437E-02 0.92345672E+02</pdfrwt>
<totfact> 0.10201453E+05</totfact>
</mgrwt>
</event>
<event>
 7    1  0.2911475E-009  0.9143273E+02  0.7818608E-02  0.1299419E+00
         -1   -1    0    0    0  501 -0.00000000000E+00  0.00000000000E+00  0.12337845196E+03  0.12337845206E+03  0.50400000000E-02 0. -1.
          1   -1    0    0  501    0  0.00000000000E+00 -0.00000000000E+00 -0.16939637038E+02  0.16939637788E+02  0.50400000000E-02 0.  1.
         23    2    1    2    0    0  0.00000000000E+00  0.00000000000E+00  0.10643881492E+03  0.14031808985E+03  0.91432734934E+02 0.  0.
    9000005    2    3    3    0    0  0.23737215682E+02  0.33879605841E+02  0.80612591422E+02  0.91550509221E+02  0.13108117433E+02 0.  0.
         22    1    3    3    0    0 -0.23737215682E+02 -0.33879605841E+02  0.25826223499E+02  0.48767580630E+02  0.00000000000E+00 0. -1.
         22    1    4    4    0    0  0.11689981218E+02  0.77156211194E+01  0.19712087350E+02  0.24181663670E+02  0.00000000000E+00 0.  1.
         22    1    4    4    0    0  0.12047234464E+02  0.26163984721E+02  0.60900504072E+02  0.67368845552E+02  0.00000000000E+00 0.  1.
<mgrwt>
<rscale>  0 0.91432735E+02</rscale>
<asrwt>0</asrwt>
<pdfrwt beam="2">  1        1 0.26060982E-02 0.91432735E+02</pdfrwt>
<pdfrwt beam="1">  1       -1 0.18981299E-01 0.91432735E+02</pdfrwt>
<totfact> 0.77517680E+04</totfact>
</mgrwt>
</event>
<event>
 7    1  0.2911475E-009  0.9211592E+02  0.7818608E-02  0.1297807E+00
          1   -1    0    0  501    0  0.00000000000E+00  0.00000000000E+00  0.57689682918E+01  0.57689704934E+01  0.50400000000E-02 0. -1.
         -1   -1    0    0    0  501 -0.00000000000E+00 -0.00000000000E+00 -0.36771481998E+03  0.36771482001E+03  0.50400000000E-02 0.  1.
         23    2    1    2    0    0  0.00000000000E+00  0.00000000000E+00 -0.36194585169E+03  0.37348379051E+03  0.92115917288E+02 0.  0.
    9000005    2    3    3    0    0  0.32993380412E+02  0.67336849397E+01 -0.30739565596E+03  0.30937739833E+03  0.94010441730E+01 0.  0.
         22    1    3    3    0    0 -0.32993380412E+02 -0.67336849397E+01 -0.54550195727E+02  0.64106392175E+02  0.00000000000E+00 0. -1.
         22    1    4    4    0    0  0.73639823689E+01 -0.23548441879E+01 -0.62341258197E+02  0.62818834764E+02  0.00000000000E+00 0.  1.
         22    1    4    4    0    0  0.25629398043E+02  0.90885291276E+01 -0.24505439776E+03  0.24655856357E+03  0.00000000000E+00 0.  1.
<mgrwt>
<rscale>  0 0.92115917E+02</rscale>
<asrwt>0</asrwt>
<pdfrwt beam="1">  1        1 0.88753404E-03 0.92115917E+02</pdfrwt>
<pdfrwt beam="2">  1       -1 0.56571493E-01 0.92115917E+02</pdfrwt>
<totfact> 0.54046768E+04</totfact>
</mgrwt>
</event>
<event>
 7    1  0.2911475E-009  0.8980232E+02  0.7818608E-02  0.1303331E+00
         -1   -1    0    0    0  501 -0.00000000000E+00  0.00000000000E+00  0.22812198923E+01  0.22812254599E+01  0.50400000000E-02 0.  1.
          1   -1    0    0  501    0  0.00000000000E+00 -0.00000000000E+00 -0.88378664369E+03  0.88378664370E+03  0.50400000000E-02 0. -1.
         23    2    1    2    0    0  0.00000000000E+00  0.00000000000E+00 -0.88150542379E+03  0.88606786916E+03  0.89802319460E+02 0.  0.
    9000005    2    3    3    0    0 -0.26152192832E+02 -0.18775353247E+02 -0.74935268497E+03  0.75005023259E+03  0.30747125723E+01 0.  0.
         22    1    3    3    0    0  0.26152192832E+02  0.18775353247E+02 -0.13215273882E+03  0.13601763657E+03  0.00000000000E+00 0. -1.
         22    1    4    4    0    0 -0.97628026842E+01 -0.88575395228E+01 -0.30928354462E+03  0.30956433789E+03  0.00000000000E+00 0.  1.
         22    1    4    4    0    0 -0.16389390148E+02 -0.99178137243E+01 -0.44006914035E+03  0.44048589470E+03  0.00000000000E+00 0.  1.
<mgrwt>
<rscale>  0 0.89802319E+02</rscale>
<asrwt>0</asrwt>
<pdfrwt beam="2">  1        1 0.13596690E+00 0.89802319E+02</pdfrwt>
<pdfrwt beam="1">  1       -1 0.35095804E-03 0.89802319E+02</pdfrwt>
<totfact> 0.14531146E+05</totfact>
</mgrwt>
</event>
<event>
 7    1  0.2911475E-009  0.9114114E+02  0.7818608E-02  0.1300112E+00
          1   -1    0    0  501    0  0.00000000000E+00  0.00000000000E+00  0.39898507354E+03  0.39898507357E+03  0.50400000000E-02 0. -1.
         -1   -1    0    0    0  501 -0.00000000000E+00 -0.00000000000E+00 -0.52048972337E+01  0.52048996739E+01  0.50400000000E-02 0.  1.
         23    2    1    2    0    0  0.00000000000E+00  0.00000000000E+00  0.39378017631E+03  0.40418997325E+03  0.91141139013E+02 0.  0.
    9000005    2    3    3    0    0 -0.12340370583E+02 -0.34513617614E+02  0.31525497207E+03  0.31753155041E+03  0.98546206499E+01 0.  0.
         22    1    3    3    0    0  0.12340370583E+02  0.34513617614E+02  0.78525204241E+02  0.86658422834E+02  0.00000000000E+00 0.  1.
         22    1    4    4    0    0 -0.89511068386E+01 -0.14524749826E+02  0.17296862476E+03  0.17380804303E+03  0.00000000000E+00 0.  1.
         22    1    4    4    0    0 -0.33892637441E+01 -0.19988867788E+02  0.14228634731E+03  0.14372350738E+03  0.00000000000E+00 0.  1.
<mgrwt>
<rscale>  0 0.91141139E+02</rscale>
<asrwt>0</asrwt>
<pdfrwt beam="1">  1        1 0.61382329E-01 0.91141139E+02</pdfrwt>
<pdfrwt beam="2">  1       -1 0.80075349E-03 0.91141139E+02</pdfrwt>
<totfact> 0.13497574E+05</totfact>
</mgrwt>
</event>
<event>
 7    1  0.2911475E-009  0.9068313E+02  0.7818608E-02  0.1301206E+00
         -1   -1    0    0    0  501 -0.00000000000E+00  0.00000000000E+00  0.67563892275E+01  0.67563911074E+01  0.50400000000E-02 0.  1.
          1   -1    0    0  501    0  0.00000000000E+00 -0.00000000000E+00 -0.30428343459E+03  0.30428343463E+03  0.50400000000E-02 0. -1.
         23    2    1    2    0    0 -0.88817841970E-15 -0.35527136788E-14 -0.29752704536E+03  0.31103982574E+03  0.90683132245E+02 0.  0.
    9000005    2    3    3    0    0  0.44834187340E+01  0.18917984643E+02 -0.28868930037E+03  0.28968339993E+03  0.14034559669E+02 0.  0.
         22    1    3    3    0    0 -0.44834187340E+01 -0.18917984643E+02 -0.88377449950E+01  0.21356425804E+02  0.00000000000E+00 0.  1.
         22    1    4    4    0    0  0.50624572705E+01  0.18795946244E+02 -0.19042861761E+03  0.19142093531E+03  0.00000000000E+00 0.  1.
         22    1    4    4    0    0 -0.57903853648E+00  0.12203839915E+00 -0.98260682753E+02  0.98262464624E+02  0.00000000000E+00 0.  1.
<mgrwt>
<rscale>  0 0.90683132E+02</rscale>
<asrwt>0</asrwt>
<pdfrwt beam="2">  1        1 0.46812826E-01 0.90683132E+02</pdfrwt>
<pdfrwt beam="1">  1       -1 0.10394449E-02 0.90683132E+02</pdfrwt>
<totfact> 0.13033859E+05</totfact>
</mgrwt>
</event>
<event>
 6    1  0.2911475E-009  0.1111549E+04  0.7818608E-02  0.9194008E-01
          1   -1    0    0  501    0  0.00000000000E+00  0.00000000000E+00  0.32665766409E+03  0.32665766413E+03  0.50400000000E-02 0. -1.
         -1   -1    0    0    0  501 -0.00000000000E+00 -0.00000000000E+00 -0.94559392980E+03  0.94559392982E+03  0.50400000000E-02 0.  1.
    9000005    2    1    2    0    0  0.36231093676E+03 -0.32670273982E+03 -0.61413516205E+03  0.78437154138E+03  0.85336135728E+01 0.  0.
         22    1    1    2    0    0 -0.36231093676E+03  0.32670273982E+03 -0.48011036664E+01  0.48788005257E+03  0.00000000000E+00 0. -1.
         22    1    3    3    0    0  0.30506759339E+03 -0.27754622840E+03 -0.51511785736E+03  0.65988222617E+03  0.00000000000E+00 0.  1.
         22    1    3    3    0    0  0.57243343364E+02 -0.49156511415E+02 -0.99017304688E+02  0.12448931521E+03  0.00000000000E+00 0.  1.
<mgrwt>
<rscale>  0 0.11115494E+04</rscale>
<asrwt>0</asrwt>
<pdfrwt beam="1">  1        1 0.50255026E-01 0.11115494E+04</pdfrwt>
<pdfrwt beam="2">  1       -1 0.14547599E+00 0.11115494E+04</pdfrwt>
<totfact> 0.29581691E+01</totfact>
</mgrwt>
</event>
<event>
 7    1  0.2911475E-009  0.9313328E+02  0.7818608E-02  0.1295437E+00
          1   -1    0    0  501    0  0.00000000000E+00  0.00000000000E+00  0.18670575901E+02  0.18670576581E+02  0.50400000000E-02 0. -1.
         -1   -1    0    0    0  501 -0.00000000000E+00 -0.00000000000E+00 -0.11614275014E+03  0.11614275025E+03  0.50400000000E-02 0.  1.
         23    2    1    2    0    0  0.71054273576E-14 -0.44408920985E-15 -0.97472174240E+02  0.13481332683E+03  0.93133282666E+02 0.  0.
    9000005    2    3    3    0    0 -0.36952062864E+02  0.28139196897E+01 -0.92431305631E+01  0.39117259816E+02  0.84469792822E+01 0.  0.
         22    1    3    3    0    0  0.36952062864E+02 -0.28139196897E+01 -0.88229043677E+02  0.95696067015E+02  0.00000000000E+00 0.  1.
         22    1    4    4    0    0 -0.14654004936E+02  0.43538783221E+01 -0.64504404382E+01  0.16592296374E+02  0.00000000000E+00 0.  1.
         22    1    4    4    0    0 -0.22298057928E+02 -0.15399586324E+01 -0.27926901249E+01  0.22524963442E+02  0.00000000000E+00 0.  1.
<mgrwt>
<rscale>  0 0.93133283E+02</rscale>
<asrwt>0</asrwt>
<pdfrwt beam="1">  1        1 0.28723964E-02 0.93133283E+02</pdfrwt>
<pdfrwt beam="2">  1       -1 0.17868115E-01 0.93133283E+02</pdfrwt>
<totfact> 0.74827731E+04</totfact>
</mgrwt>
</event>
<event>
 7    1  0.2911475E-009  0.9561069E+02  0.7818608E-02  0.1289807E+00
         -1   -1    0    0    0  501 -0.00000000000E+00  0.00000000000E+00  0.30486513503E+01  0.30486555163E+01  0.50400000000E-02 0.  1.
          1   -1    0    0  501    0  0.00000000000E+00 -0.00000000000E+00 -0.74962634331E+03  0.74962634333E+03  0.50400000000E-02 0. -1.
         23    2    1    2    0    0  0.00000000000E+00  0.11102230246E-15 -0.74657769196E+03  0.75267499884E+03  0.95610688481E+02 0.  0.
    9000005    2    3    3    0    0  0.41092470472E+02  0.73378256614E+00 -0.55669497324E+03  0.55839536420E+03  0.14386103360E+02 0.  0.
         22    1    3    3    0    0 -0.41092470472E+02 -0.73378256614E+00 -0.18988271872E+03  0.19427963464E+03  0.00000000000E+00 0.  1.
         22    1    4    4    0    0  0.24571786582E+02 -0.20973330685E+01 -0.24172807407E+03  0.24298278394E+03  0.00000000000E+00 0. -1.
         22    1    4    4    0    0  0.16520683890E+02  0.28311156347E+01 -0.31496689917E+03  0.31541258026E+03  0.00000000000E+00 0. -1.
<mgrwt>
<rscale>  0 0.95610688E+02</rscale>
<asrwt>0</asrwt>
<pdfrwt beam="2">  1        1 0.11532698E+00 0.95610688E+02</pdfrwt>
<pdfrwt beam="1">  1       -1 0.46902420E-03 0.95610688E+02</pdfrwt>
<totfact> 0.12512786E+05</totfact>
</mgrwt>
</event>
<event>
 7    1  0.3727028E-009  0.9083815E+02  0.7818608E-02  0.1300835E+00
          1   -1    0    0  501    0  0.00000000000E+00  0.00000000000E+00  0.12795952837E+03  0.12795952847E+03  0.50400000000E-02 0. -1.
         -1   -1    0    0    0  501 -0.00000000000E+00 -0.00000000000E+00 -0.16121445289E+02  0.16121446077E+02  0.50400000000E-02 0.  1.
         23    2    1    2    0    0  0.00000000000E+00  0.00000000000E+00  0.11183808308E+03  0.14408097454E+03  0.90838154971E+02 0.  0.
    9000005    2    3    3    0    0 -0.39534571522E+02  0.11431440921E+02  0.32111887603E+02  0.54359592298E+02  0.15170094345E+02 0.  0.
         22    1    3    3    0    0  0.39534571522E+02 -0.11431440921E+02  0.79726195475E+02  0.89721382244E+02  0.00000000000E+00 0. -1.
         22    1    4    4    0    0  0.42753685324E+00  0.24383626846E+01  0.29547384914E+00  0.24931315926E+01  0.00000000000E+00 0. -1.
         22    1    4    4    0    0 -0.39962108375E+02  0.89930782365E+01  0.31816413753E+02  0.51866460705E+02  0.00000000000E+00 0. -1.
<mgrwt>
<rscale>  0 0.90838155E+02</rscale>
<asrwt>0</asrwt>
<pdfrwt beam="1">  1        1 0.19686081E-01 0.90838155E+02</pdfrwt>
<pdfrwt beam="2">  1       -1 0.24802224E-02 0.90838155E+02</pdfrwt>
<totfact> 0.11006388E+05</totfact>
</mgrwt>
</event>
<event>
 7    1  0.2911475E-009  0.9033373E+02  0.7818608E-02  0.1302046E+00
         -1   -1    0    0    0  501 -0.00000000000E+00  0.00000000000E+00  0.48713258440E+01  0.48713284513E+01  0.50400000000E-02 0.  1.
          1   -1    0    0  501    0  0.00000000000E+00 -0.00000000000E+00 -0.41878640499E+03  0.41878640502E+03  0.50400000000E-02 0. -1.
         23    2    1    2    0    0  0.00000000000E+00  0.00000000000E+00 -0.41391507914E+03  0.42365773347E+03  0.90333727842E+02 0.  0.
    9000005    2    3    3    0    0 -0.43910337774E+02  0.14990510981E+01 -0.25400886739E+03  0.25782540406E+03  0.48030565195E+01 0.  0.
         22    1    3    3    0    0  0.43910337774E+02 -0.14990510981E+01 -0.15990621176E+03  0.16583232940E+03  0.00000000000E+00 0. -1.
         22    1    4    4    0    0 -0.10446611183E+02  0.12958437999E+01 -0.72043416956E+02  0.72808411760E+02  0.00000000000E+00 0. -1.
         22    1    4    4    0    0 -0.33463726590E+02  0.20320729820E+00 -0.18196545043E+03  0.18501699230E+03  0.00000000000E+00 0. -1.
<mgrwt>
<rscale>  0 0.90333728E+02</rscale>
<asrwt>0</asrwt>
<pdfrwt beam="2">  1        1 0.64428650E-01 0.90333728E+02</pdfrwt>
<pdfrwt beam="1">  1       -1 0.74943528E-03 0.90333728E+02</pdfrwt>
<totfact> 0.13927600E+05</totfact>
</mgrwt>
</event>
<event>
 7    1  0.2911475E-009  0.9147690E+02  0.7818608E-02  0.1299314E+00
         -1   -1    0    0    0  501 -0.00000000000E+00  0.00000000000E+00  0.22302687077E+02  0.22302687647E+02  0.50400000000E-02 0.  1.
          1   -1    0    0  501    0  0.00000000000E+00 -0.00000000000E+00 -0.93800618383E+02  0.93800618518E+02  0.50400000000E-02 0. -1.
         23    2    1    2    0    0  0.00000000000E+00  0.00000000000E+00 -0.71497931306E+02  0.11610330617E+03  0.91476901573E+02 0.  0.
    9000005    2    3    3    0    0 -0.41789512657E+00 -0.37968388790E+02 -0.37628477219E+01  0.38451424464E+02  0.47518245662E+01 0.  0.
         22    1    3    3    0    0  0.41789512657E+00  0.37968388790E+02 -0.67735083584E+02  0.77651881701E+02  0.00000000000E+00 0. -1.
         22    1    4    4    0    0  0.20301585162E+01 -0.14109817826E+02 -0.21134594709E+01  0.14410940761E+02  0.00000000000E+00 0.  1.
         22    1    4    4    0    0 -0.24480536427E+01 -0.23858570963E+02 -0.16493882510E+01  0.24040483702E+02  0.00000000000E+00 0.  1.
<mgrwt>
<rscale>  0 0.91476902E+02</rscale>
<asrwt>0</asrwt>
<pdfrwt beam="2">  1        1 0.14430864E-01 0.91476902E+02</pdfrwt>
<pdfrwt beam="1">  1       -1 0.34311827E-02 0.91476902E+02</pdfrwt>
<totfact> 0.10243024E+05</totfact>
</mgrwt>
</event>
<event>
 7    1  0.2911475E-009  0.9360858E+02  0.7818608E-02  0.1294341E+00
         -1   -1    0    0    0  501 -0.00000000000E+00  0.00000000000E+00  0.16303400576E+02  0.16303401355E+02  0.50400000000E-02 0.  1.
          1   -1    0    0  501    0  0.00000000000E+00 -0.00000000000E+00 -0.13436713821E+03  0.13436713830E+03  0.50400000000E-02 0. -1.
         23    2    1    2    0    0  0.11102230246E-15 -0.35527136788E-14 -0.11806373763E+03  0.15067053966E+03  0.93608575340E+02 0.  0.
    9000005    2    3    3    0    0  0.84753019284E+00 -0.29758571154E+02 -0.31557419646E+01  0.31968651160E+02  0.11213611599E+02 0.  0.
         22    1    3    3    0    0 -0.84753019284E+00  0.29758571154E+02 -0.11490799567E+03  0.11870188850E+03  0.00000000000E+00 0. -1.
         22    1    4    4    0    0  0.10903218183E+01 -0.25567927204E+02 -0.67234734076E+01  0.26459644704E+02  0.00000000000E+00 0.  1.
         22    1    4    4    0    0 -0.24279162542E+00 -0.41906439504E+01  0.35677314429E+01  0.55090064569E+01  0.00000000000E+00 0.  1.
<mgrwt>
<rscale>  0 0.93608575E+02</rscale>
<asrwt>0</asrwt>
<pdfrwt beam="2">  1        1 0.20671867E-01 0.93608575E+02</pdfrwt>
<pdfrwt beam="1">  1       -1 0.25082156E-02 0.93608575E+02</pdfrwt>
<totfact> 0.10234367E+05</totfact>
</mgrwt>
</event>
<event>
 7    1  0.2911475E-009  0.9247455E+02  0.7818608E-02  0.1296967E+00
         -1   -1    0    0    0  501 -0.00000000000E+00  0.00000000000E+00  0.20748844753E+01  0.20748905965E+01  0.50400000000E-02 0.  1.
          1   -1    0    0  501    0  0.00000000000E+00 -0.00000000000E+00 -0.10303621496E+04  0.10303621497E+04  0.50400000000E-02 0. -1.
         23    2    1    2    0    0 -0.35527136788E-14  0.00000000000E+00 -0.10282872652E+04  0.10324370403E+04  0.92474549894E+02 0.  0.
    9000005    2    3    3    0    0  0.24771297618E+02  0.78705688503E+01 -0.94023895729E+03  0.94063253296E+03  0.80437683577E+01 0.  0.
         22    1    3    3    0    0 -0.24771297618E+02 -0.78705688503E+01 -0.88048307875E+02  0.91804507293E+02  0.00000000000E+00 0.  1.
         22    1    4    4    0    0  0.28147409693E+01  0.30650933674E+01 -0.23111706974E+03  0.23115453163E+03  0.00000000000E+00 0.  1.
         22    1    4    4    0    0  0.21956556649E+02  0.48054754829E+01 -0.70912188755E+03  0.70947800133E+03  0.00000000000E+00 0.  1.
<mgrwt>
<rscale>  0 0.92474550E+02</rscale>
<asrwt>0</asrwt>
<pdfrwt beam="2">  1        1 0.15851685E+00 0.92474550E+02</pdfrwt>
<pdfrwt beam="1">  1       -1 0.31921429E-03 0.92474550E+02</pdfrwt>
<totfact> 0.12992979E+05</totfact>
</mgrwt>
</event>
<event>
 7    1  0.2911475E-009  0.8751646E+02  0.7818608E-02  0.1308980E+00
         -1   -1    0    0    0  501 -0.00000000000E+00  0.00000000000E+00  0.17023691193E+01  0.17023765800E+01  0.50400000000E-02 0.  1.
          1   -1    0    0  501    0  0.00000000000E+00 -0.00000000000E+00 -0.11247727499E+04  0.11247727499E+04  0.50400000000E-02 0. -1.
         23    2    1    2    0    0 -0.35527136788E-14  0.00000000000E+00 -0.11230703807E+04  0.11264751265E+04  0.87516457975E+02 0.  0.
    9000005    2    3    3    0    0  0.28297916157E+02 -0.17827070280E+01 -0.99028218069E+03  0.99069347756E+03  0.32892222445E+01 0.  0.
         22    1    3    3    0    0 -0.28297916157E+02  0.17827070280E+01 -0.13278820006E+03  0.13578164890E+03  0.00000000000E+00 0.  1.
         22    1    4    4    0    0  0.21433883256E+02 -0.25308939424E+01 -0.72248900472E+03  0.72281130229E+03  0.00000000000E+00 0.  1.
         22    1    4    4    0    0  0.68640329017E+01  0.74818691440E+00 -0.26779317597E+03  0.26788217527E+03  0.00000000000E+00 0.  1.
<mgrwt>
<rscale>  0 0.87516458E+02</rscale>
<asrwt>0</asrwt>
<pdfrwt beam="2">  1        1 0.17304137E+00 0.87516458E+02</pdfrwt>
<pdfrwt beam="1">  1       -1 0.26190442E-03 0.87516458E+02</pdfrwt>
<totfact> 0.14584423E+05</totfact>
</mgrwt>
</event>
<event>
 7    1  0.2911475E-009  0.8952091E+02  0.7818608E-02  0.1304016E+00
          1   -1    0    0  501    0  0.00000000000E+00  0.00000000000E+00  0.34194935230E+02  0.34194935601E+02  0.50400000000E-02 0. -1.
         -1   -1    0    0    0  501 -0.00000000000E+00 -0.00000000000E+00 -0.58590500641E+02  0.58590500858E+02  0.50400000000E-02 0.  1.
         23    2    1    2    0    0  0.00000000000E+00  0.44408920985E-15 -0.24395565411E+02  0.92785436459E+02  0.89520911564E+02 0.  0.
    9000005    2    3    3    0    0 -0.28835423884E+02 -0.36712314269E+01 -0.47224181524E+02  0.55824574396E+02  0.64265212319E+01 0.  0.
         22    1    3    3    0    0  0.28835423884E+02  0.36712314269E+01  0.22828616113E+02  0.36960862063E+02  0.00000000000E+00 0. -1.
         22    1    4    4    0    0 -0.95120193779E+01  0.17835230356E+01 -0.16162225930E+02  0.18838179691E+02  0.00000000000E+00 0.  1.
         22    1    4    4    0    0 -0.19323404506E+02 -0.54547544625E+01 -0.31061955594E+02  0.36986394705E+02  0.00000000000E+00 0.  1.
<mgrwt>
<rscale>  0 0.89520912E+02</rscale>
<asrwt>0</asrwt>
<pdfrwt beam="1">  1        1 0.52607593E-02 0.89520912E+02</pdfrwt>
<pdfrwt beam="2">  1       -1 0.90139232E-02 0.89520912E+02</pdfrwt>
<totfact> 0.93234545E+04</totfact>
</mgrwt>
</event>
<event>
 7    1  0.2911475E-009  0.9244278E+02  0.7818608E-02  0.1297042E+00
          1   -1    0    0  501    0  0.00000000000E+00  0.00000000000E+00  0.46266254242E+02  0.46266254517E+02  0.50400000000E-02 0. -1.
         -1   -1    0    0    0  501 -0.00000000000E+00 -0.00000000000E+00 -0.46176569827E+02  0.46176570102E+02  0.50400000000E-02 0.  1.
         23    2    1    2    0    0 -0.17763568394E-14  0.00000000000E+00  0.89684415319E-01  0.92442824618E+02  0.92442781114E+02 0.  0.
    9000005    2    3    3    0    0 -0.94651950727E+01 -0.38117895094E+02 -0.23385686406E+02  0.46686329130E+02  0.94952174712E+01 0.  0.
         22    1    3    3    0    0  0.94651950727E+01  0.38117895094E+02  0.23475370822E+02  0.45756495488E+02  0.00000000000E+00 0. -1.
         22    1    4    4    0    0 -0.89777712544E+01 -0.24245876823E+02 -0.11051932838E+02  0.28117754873E+02  0.00000000000E+00 0.  1.
         22    1    4    4    0    0 -0.48742381834E+00 -0.13872018270E+02 -0.12333753568E+02  0.18568574258E+02  0.00000000000E+00 0.  1.
<mgrwt>
<rscale>  0 0.92442781E+02</rscale>
<asrwt>0</asrwt>
<pdfrwt beam="1">  1        1 0.71178853E-02 0.92442781E+02</pdfrwt>
<pdfrwt beam="2">  1       -1 0.71040877E-02 0.92442781E+02</pdfrwt>
<totfact> 0.89154261E+04</totfact>
</mgrwt>
</event>
<event>
 7    1  0.2911475E-009  0.9662767E+02  0.7818608E-02  0.1287552E+00
         -1   -1    0    0    0  501 -0.00000000000E+00  0.00000000000E+00  0.10741898590E+02  0.10741899772E+02  0.50400000000E-02 0.  1.
          1   -1    0    0  501    0  0.00000000000E+00 -0.00000000000E+00 -0.21730110283E+03  0.21730110288E+03  0.50400000000E-02 0. -1.
         23    2    1    2    0    0  0.00000000000E+00  0.00000000000E+00 -0.20655920424E+03  0.22804300266E+03  0.96627667912E+02 0.  0.
    9000005    2    3    3    0    0 -0.17296144865E+02 -0.25109267120E+02 -0.19163204443E+03  0.19409521889E+03  0.45256626809E+01 0.  0.
         22    1    3    3    0    0  0.17296144865E+02  0.25109267120E+02 -0.14927159806E+02  0.33947783762E+02  0.00000000000E+00 0.  1.
         22    1    4    4    0    0 -0.72722771840E+01 -0.10471362749E+02 -0.66408682128E+02  0.67621361383E+02  0.00000000000E+00 0. -1.
         22    1    4    4    0    0 -0.10023867681E+02 -0.14637904371E+02 -0.12522336230E+03  0.12647385751E+03  0.00000000000E+00 0. -1.
<mgrwt>
<rscale>  0 0.96627668E+02</rscale>
<asrwt>0</asrwt>
<pdfrwt beam="2">  1        1 0.33430936E-01 0.96627668E+02</pdfrwt>
<pdfrwt beam="1">  1       -1 0.16526000E-02 0.96627668E+02</pdfrwt>
<totfact> 0.10294381E+05</totfact>
</mgrwt>
</event>
<event>
 7    1  0.2973267E-009  0.9192943E+02  0.7818608E-02  0.1298245E+00
          1   -1    0    0  501    0  0.00000000000E+00  0.00000000000E+00  0.55021926892E+03  0.55021926894E+03  0.50400000000E-02 0. -1.
         -1   -1    0    0    0  501 -0.00000000000E+00 -0.00000000000E+00 -0.38398405342E+01  0.38398438419E+01  0.50400000000E-02 0.  1.
         23    2    1    2    0    0  0.00000000000E+00 -0.88817841970E-15  0.54637942838E+03  0.55405911278E+03  0.91929433246E+02 0.  0.
    9000005    2    3    3    0    0 -0.19812504675E+02  0.51038197019E+01  0.52015040910E+03  0.52079433006E+03  0.15865113221E+02 0.  0.
         22    1    3    3    0    0  0.19812504675E+02 -0.51038197019E+01  0.26229019282E+02  0.33264782722E+02  0.00000000000E+00 0.  1.
         22    1    4    4    0    0 -0.13159937442E+02  0.56484631376E+01  0.17680257998E+03  0.17738162638E+03  0.00000000000E+00 0.  1.
         22    1    4    4    0    0 -0.66525672334E+01 -0.54464343570E+00  0.34334782912E+03  0.34341270368E+03  0.00000000000E+00 0.  1.
<mgrwt>
<rscale>  0 0.91929433E+02</rscale>
<asrwt>0</asrwt>
<pdfrwt beam="1">  1        1 0.84649145E-01 0.91929433E+02</pdfrwt>
<pdfrwt beam="2">  1       -1 0.59074477E-03 0.91929433E+02</pdfrwt>
<totfact> 0.13763449E+05</totfact>
</mgrwt>
</event>
<event>
 7    1  0.2911475E-009  0.8971245E+02  0.7818608E-02  0.1303550E+00
          1   -1    0    0  501    0  0.00000000000E+00  0.00000000000E+00  0.63269112893E+03  0.63269112895E+03  0.50400000000E-02 0. -1.
         -1   -1    0    0    0  501 -0.00000000000E+00 -0.00000000000E+00 -0.31801927126E+01  0.31801967064E+01  0.50400000000E-02 0.  1.
         23    2    1    2    0    0  0.00000000000E+00  0.00000000000E+00  0.62951093622E+03  0.63587132566E+03  0.89712451615E+02 0.  0.
    9000005    2    3    3    0    0 -0.99491152824E+01  0.78341342071E+01  0.61967074944E+03  0.61983424894E+03  0.65038371021E+01 0.  0.
         22    1    3    3    0    0  0.99491152824E+01 -0.78341342071E+01  0.98401867747E+01  0.16037076711E+02  0.00000000000E+00 0.  1.
         22    1    4    4    0    0 -0.90241013416E+01  0.43740829172E+01  0.52501097226E+03  0.52510673962E+03  0.00000000000E+00 0.  1.
         22    1    4    4    0    0 -0.92501394080E+00  0.34600512899E+01  0.94659777185E+02  0.94727509323E+02  0.00000000000E+00 0.  1.
<mgrwt>
<rscale>  0 0.89712452E+02</rscale>
<asrwt>0</asrwt>
<pdfrwt beam="1">  1        1 0.97337120E-01 0.89712452E+02</pdfrwt>
<pdfrwt beam="2">  1       -1 0.48926061E-03 0.89712452E+02</pdfrwt>
<totfact> 0.14816542E+05</totfact>
</mgrwt>
</event>
<event>
 7    1  0.2911475E-009  0.8701539E+02  0.7818608E-02  0.1310245E+00
          1   -1    0    0  501    0  0.00000000000E+00  0.00000000000E+00  0.14605260750E+03  0.14605260759E+03  0.50400000000E-02 0. -1.
         -1   -1    0    0    0  501 -0.00000000000E+00 -0.00000000000E+00 -0.12960531991E+02  0.12960532971E+02  0.50400000000E-02 0.  1.
         23    2    1    2    0    0  0.00000000000E+00 -0.71054273576E-14  0.13309207551E+03  0.15901314056E+03  0.87015391208E+02 0.  0.
    9000005    2    3    3    0    0  0.93662267263E+01 -0.36382442676E+02  0.29110091587E+02  0.48452472514E+02  0.94253022428E+01 0.  0.
         22    1    3    3    0    0 -0.93662267263E+01  0.36382442676E+02  0.10398198393E+03  0.11056066805E+03  0.00000000000E+00 0. -1.
         22    1    4    4    0    0  0.39328592683E+01 -0.27803846316E+02  0.24636958972E+02  0.37356405065E+02  0.00000000000E+00 0.  1.
         22    1    4    4    0    0  0.54333674580E+01 -0.85785963600E+01  0.44731326143E+01  0.11096067449E+02  0.00000000000E+00 0.  1.
<mgrwt>
<rscale>  0 0.87015391E+02</rscale>
<asrwt>0</asrwt>
<pdfrwt beam="1">  1        1 0.22469632E-01 0.87015391E+02</pdfrwt>
<pdfrwt beam="2">  1       -1 0.19939281E-02 0.87015391E+02</pdfrwt>
<totfact> 0.12652769E+05</totfact>
</mgrwt>
</event>
<event>
 7    1  0.2911475E-009  0.8955684E+02  0.7818608E-02  0.1303928E+00
          1   -1    0    0  501    0  0.00000000000E+00  0.00000000000E+00  0.71033130300E+02  0.71033130479E+02  0.50400000000E-02 0. -1.
         -1   -1    0    0    0  501 -0.00000000000E+00 -0.00000000000E+00 -0.28227773157E+02  0.28227773607E+02  0.50400000000E-02 0.  1.
         23    2    1    2    0    0  0.00000000000E+00  0.00000000000E+00  0.42805357142E+02  0.99260904086E+02  0.89556844964E+02 0.  0.
    9000005    2    3    3    0    0 -0.43682933706E+02 -0.58330258325E+01  0.29114581324E+02  0.53112662190E+02  0.55743297086E+01 0.  0.
         22    1    3    3    0    0  0.43682933706E+02  0.58330258325E+01  0.13690775818E+02  0.46148241896E+02  0.00000000000E+00 0.  1.
         22    1    4    4    0    0 -0.37088119172E+02 -0.42951397912E+01  0.22215138642E+02  0.43445243634E+02  0.00000000000E+00 0.  1.
         22    1    4    4    0    0 -0.65948145343E+01 -0.15378860413E+01  0.68994426813E+01  0.96674185557E+01  0.00000000000E+00 0.  1.
<mgrwt>
<rscale>  0 0.89556845E+02</rscale>
<asrwt>0</asrwt>
<pdfrwt beam="1">  1        1 0.10928174E-01 0.89556845E+02</pdfrwt>
<pdfrwt beam="2">  1       -1 0.43427343E-02 0.89556845E+02</pdfrwt>
<totfact> 0.10388940E+05</totfact>
</mgrwt>
</event>
<event>
 7    1  0.2911475E-009  0.9463738E+02  0.7818608E-02  0.1291995E+00
         -1   -1    0    0    0  501 -0.00000000000E+00  0.00000000000E+00  0.61609296179E+03  0.61609296181E+03  0.50400000000E-02 0.  1.
          1   -1    0    0  501    0  0.00000000000E+00 -0.00000000000E+00 -0.36342850779E+01  0.36342885726E+01  0.50400000000E-02 0. -1.
         23    2    1    2    0    0  0.00000000000E+00  0.00000000000E+00  0.61245867672E+03  0.61972725039E+03  0.94637382613E+02 0.  0.
    9000005    2    3    3    0    0 -0.10787114350E+02  0.44355425182E+02  0.38494399392E+03  0.38767834074E+03  0.53713915813E+01 0.  0.
         22    1    3    3    0    0  0.10787114350E+02 -0.44355425182E+02  0.22751468279E+03  0.23204890964E+03  0.00000000000E+00 0. -1.
         22    1    4    4    0    0 -0.55450891961E+01  0.25590325536E+02  0.19864115528E+03  0.20035948030E+03  0.00000000000E+00 0. -1.
         22    1    4    4    0    0 -0.52420251534E+01  0.18765099645E+02  0.18630283864E+03  0.18731886044E+03  0.00000000000E+00 0. -1.
<mgrwt>
<rscale>  0 0.94637383E+02</rscale>
<asrwt>0</asrwt>
<pdfrwt beam="2">  1        1 0.55912119E-03 0.94637383E+02</pdfrwt>
<pdfrwt beam="1">  1       -1 0.94783509E-01 0.94637383E+02</pdfrwt>
<totfact> 0.36999471E+04</totfact>
</mgrwt>
</event>
<event>
 7    1  0.2911475E-009  0.9302798E+02  0.7818608E-02  0.1295680E+00
          1   -1    0    0  501    0  0.00000000000E+00  0.00000000000E+00  0.43882368344E+01  0.43882397287E+01  0.50400000000E-02 0. -1.
         -1   -1    0    0    0  501 -0.00000000000E+00 -0.00000000000E+00 -0.49303414846E+03  0.49303414848E+03  0.50400000000E-02 0.  1.
         23    2    1    2    0    0  0.00000000000E+00  0.00000000000E+00 -0.48864591162E+03  0.49742238821E+03  0.93027981535E+02 0.  0.
    9000005    2    3    3    0    0  0.11180704937E+02 -0.19429146922E+02 -0.46222990420E+03  0.46277696483E+03  0.18801403713E+01 0.  0.
         22    1    3    3    0    0 -0.11180704937E+02  0.19429146922E+02 -0.26416007417E+02  0.34645423376E+02  0.00000000000E+00 0. -1.
         22    1    4    4    0    0  0.72754764289E+01 -0.10799192586E+02 -0.26497474120E+03  0.26529449409E+03  0.00000000000E+00 0.  1.
         22    1    4    4    0    0  0.39052285079E+01 -0.86299543367E+01 -0.19725516300E+03  0.19748247075E+03  0.00000000000E+00 0.  1.
<mgrwt>
<rscale>  0 0.93027982E+02</rscale>
<asrwt>0</asrwt>
<pdfrwt beam="1">  1        1 0.67511397E-03 0.93027982E+02</pdfrwt>
<pdfrwt beam="2">  1       -1 0.75851364E-01 0.93027982E+02</pdfrwt>
<totfact> 0.45009474E+04</totfact>
</mgrwt>
</event>
<event>
 6    1  0.2911475E-009  0.1530055E+03  0.7818608E-02  0.1196828E+00
          1   -1    0    0  501    0  0.00000000000E+00  0.00000000000E+00  0.80787788857E+02  0.80787789015E+02  0.50400000000E-02 0. -1.
         -1   -1    0    0    0  501 -0.00000000000E+00 -0.00000000000E+00 -0.72445021504E+02  0.72445021680E+02  0.50400000000E-02 0.  1.
    9000005    2    1    2    0    0 -0.42141589698E+02 -0.21248271397E+02 -0.55208867554E+02  0.74073396099E+02  0.14541194361E+02 0.  0.
         22    1    1    2    0    0  0.42141589698E+02  0.21248271397E+02  0.63551634907E+02  0.79159414595E+02  0.00000000000E+00 0. -1.
         22    1    3    3    0    0 -0.19184884922E+02 -0.40009549444E+01 -0.30167199676E+02  0.35973982074E+02  0.00000000000E+00 0.  1.
         22    1    3    3    0    0 -0.22956704776E+02 -0.17247316453E+02 -0.25041667878E+02  0.38099414026E+02  0.00000000000E+00 0.  1.
<mgrwt>
<rscale>  0 0.15300553E+03</rscale>
<asrwt>0</asrwt>
<pdfrwt beam="1">  1        1 0.12428891E-01 0.15300553E+03</pdfrwt>
<pdfrwt beam="2">  1       -1 0.11145388E-01 0.15300553E+03</pdfrwt>
<totfact> 0.23006537E+04</totfact>
</mgrwt>
</event>
<event>
 7    1  0.3207059E-009  0.9643475E+02  0.7818608E-02  0.1287977E+00
         -1   -1    0    0    0  501 -0.00000000000E+00  0.00000000000E+00  0.10590253973E+02  0.10590255173E+02  0.50400000000E-02 0.  1.
          1   -1    0    0  501    0  0.00000000000E+00 -0.00000000000E+00 -0.21953344335E+03  0.21953344341E+03  0.50400000000E-02 0. -1.
         23    2    1    2    0    0  0.00000000000E+00  0.00000000000E+00 -0.20894318938E+03  0.23012369858E+03  0.96434746131E+02 0.  0.
    9000005    2    3    3    0    0 -0.22792458901E+02 -0.12387854909E+02 -0.20081670109E+03  0.20293923714E+03  0.13565817352E+02 0.  0.
         22    1    3    3    0    0  0.22792458901E+02  0.12387854909E+02 -0.81264882816E+01  0.27184461440E+02  0.00000000000E+00 0.  1.
         22    1    4    4    0    0 -0.20020099599E+02 -0.59751325341E+01 -0.11859556848E+03  0.12042182302E+03  0.00000000000E+00 0.  1.
         22    1    4    4    0    0 -0.27723593022E+01 -0.64127223747E+01 -0.82221132613E+02  0.82517414116E+02  0.00000000000E+00 0.  1.
<mgrwt>
<rscale>  0 0.96434746E+02</rscale>
<asrwt>0</asrwt>
<pdfrwt beam="2">  1        1 0.33774373E-01 0.96434746E+02</pdfrwt>
<pdfrwt beam="1">  1       -1 0.16292701E-02 0.96434746E+02</pdfrwt>
<totfact> 0.10370943E+05</totfact>
</mgrwt>
</event>
<event>
 7    1  0.2911475E-009  0.9248007E+02  0.7818608E-02  0.1296955E+00
          1   -1    0    0  501    0  0.00000000000E+00  0.00000000000E+00  0.84097506573E+01  0.84097521675E+01  0.50400000000E-02 0. -1.
         -1   -1    0    0    0  501 -0.00000000000E+00 -0.00000000000E+00 -0.25424541961E+03  0.25424541966E+03  0.50400000000E-02 0.  1.
         23    2    1    2    0    0  0.00000000000E+00 -0.35527136788E-14 -0.24583566895E+03  0.26265517183E+03  0.92480068979E+02 0.  0.
    9000005    2    3    3    0    0  0.33233139480E+02 -0.28034626942E+02 -0.16610895223E+03  0.17184365699E+03  0.69048222218E+01 0.  0.
         22    1    3    3    0    0 -0.33233139480E+02  0.28034626942E+02 -0.79726716727E+02  0.90811514840E+02  0.00000000000E+00 0. -1.
         22    1    4    4    0    0  0.13396119662E+02 -0.10705223514E+02 -0.52864175781E+02  0.55575884280E+02  0.00000000000E+00 0. -1.
         22    1    4    4    0    0  0.19837019818E+02 -0.17329403427E+02 -0.11324477644E+03  0.11626777271E+03  0.00000000000E+00 0. -1.
<mgrwt>
<rscale>  0 0.92480069E+02</rscale>
<asrwt>0</asrwt>
<pdfrwt beam="1">  1        1 0.12938081E-02 0.92480069E+02</pdfrwt>
<pdfrwt beam="2">  1       -1 0.39114674E-01 0.92480069E+02</pdfrwt>
<totfact> 0.62048281E+04</totfact>
</mgrwt>
</event>
<event>
 7    1  0.2911475E-009  0.9190317E+02  0.7818608E-02  0.1298307E+00
          1   -1    0    0  501    0  0.00000000000E+00  0.00000000000E+00  0.84445046170E+02  0.84445046321E+02  0.50400000000E-02 0. -1.
         -1   -1    0    0    0  501 -0.00000000000E+00 -0.00000000000E+00 -0.25004998007E+02  0.25004998515E+02  0.50400000000E-02 0.  1.
         23    2    1    2    0    0  0.00000000000E+00  0.00000000000E+00  0.59440048163E+02  0.10945004484E+03  0.91903171811E+02 0.  0.
    9000005    2    3    3    0    0  0.20068017212E+02  0.64159835805E+01 -0.17212355448E+02  0.29954880583E+02  0.12535530725E+02 0.  0.
         22    1    3    3    0    0 -0.20068017212E+02 -0.64159835805E+01  0.76652403611E+02  0.79495164252E+02  0.00000000000E+00 0. -1.
         22    1    4    4    0    0  0.10987992403E+02  0.68754187426E+01 -0.16288528163E+02  0.20816424036E+02  0.00000000000E+00 0. -1.
         22    1    4    4    0    0  0.90800248096E+01 -0.45943516204E+00 -0.92382728418E+00  0.91384565470E+01  0.00000000000E+00 0. -1.
<mgrwt>
<rscale>  0 0.91903172E+02</rscale>
<asrwt>0</asrwt>
<pdfrwt beam="1">  1        1 0.12991546E-01 0.91903172E+02</pdfrwt>
<pdfrwt beam="2">  1       -1 0.38469228E-02 0.91903172E+02</pdfrwt>
<totfact> 0.99424169E+04</totfact>
</mgrwt>
</event>
<event>
 7    1  0.2911475E-009  0.9012287E+02  0.7818608E-02  0.1302554E+00
          1   -1    0    0  501    0  0.00000000000E+00  0.00000000000E+00  0.11381550208E+02  0.11381551324E+02  0.50400000000E-02 0. -1.
         -1   -1    0    0    0  501 -0.00000000000E+00 -0.00000000000E+00 -0.17840566391E+03  0.17840566398E+03  0.50400000000E-02 0.  1.
         23    2    1    2    0    0  0.00000000000E+00  0.00000000000E+00 -0.16702411370E+03  0.18978721531E+03  0.90122874653E+02 0.  0.
    9000005    2    3    3    0    0  0.22937916102E+02  0.35687643610E+02 -0.10784631235E+03  0.11697397424E+03  0.15884824860E+02 0.  0.
         22    1    3    3    0    0 -0.22937916102E+02 -0.35687643610E+02 -0.59177801354E+02  0.72813241066E+02  0.00000000000E+00 0. -1.
         22    1    4    4    0    0  0.57672585811E+01  0.17516744358E+02 -0.30032684870E+02  0.35242868285E+02  0.00000000000E+00 0.  1.
         22    1    4    4    0    0  0.17170657521E+02  0.18170899252E+02 -0.77813627479E+02  0.81731105956E+02  0.00000000000E+00 0.  1.
<mgrwt>
<rscale>  0 0.90122875E+02</rscale>
<asrwt>0</asrwt>
<pdfrwt beam="1">  1        1 0.17510079E-02 0.90122875E+02</pdfrwt>
<pdfrwt beam="2">  1       -1 0.27447023E-01 0.90122875E+02</pdfrwt>
<totfact> 0.73835710E+04</totfact>
</mgrwt>
</event>
<event>
 7    1  0.2911475E-009  0.1213521E+03  0.7818608E-02  0.1240883E+00
         -1   -1    0    0    0  501 -0.00000000000E+00  0.00000000000E+00  0.39807664243E+01  0.39807696148E+01  0.50400000000E-02 0. -1.
          1   -1    0    0  501    0  0.00000000000E+00 -0.00000000000E+00 -0.92484230976E+03  0.92484230978E+03  0.50400000000E-02 0.  1.
         23    2    1    2    0    0  0.00000000000E+00  0.22204460493E-15 -0.92086154334E+03  0.92882307939E+03  0.12135209438E+03 0.  0.
    9000005    2    3    3    0    0 -0.34225592905E+02 -0.66521080006E+00 -0.84374049061E+03  0.84444600614E+03  0.43827036179E+01 0.  0.
         22    1    3    3    0    0  0.34225592905E+02  0.66521080006E+00 -0.77121052733E+02  0.84377073247E+02  0.00000000000E+00 0. -1.
         22    1    4    4    0    0 -0.10163516372E+02 -0.21864882958E+01 -0.24745924703E+03  0.24767752570E+03  0.00000000000E+00 0. -1.
         22    1    4    4    0    0 -0.24062076533E+02  0.15212774957E+01 -0.59628124358E+03  0.59676848044E+03  0.00000000000E+00 0. -1.
<mgrwt>
<rscale>  0 0.12135209E+03</rscale>
<asrwt>0</asrwt>
<pdfrwt beam="2">  1        1 0.14228326E+00 0.12135209E+03</pdfrwt>
<pdfrwt beam="1">  1       -1 0.61242659E-03 0.12135209E+03</pdfrwt>
<totfact> 0.64377345E+04</totfact>
</mgrwt>
</event>
<event>
 7    1  0.2911475E-009  0.8986098E+02  0.7818608E-02  0.1303189E+00
         -1   -1    0    0    0  501 -0.00000000000E+00  0.00000000000E+00  0.41297114435E+01  0.41297145189E+01  0.50400000000E-02 0.  1.
          1   -1    0    0  501    0  0.00000000000E+00 -0.00000000000E+00 -0.48883513153E+03  0.48883513155E+03  0.50400000000E-02 0. -1.
         23    2    1    2    0    0  0.00000000000E+00  0.88817841970E-15 -0.48470542008E+03  0.49296484607E+03  0.89860977094E+02 0.  0.
    9000005    2    3    3    0    0  0.36860997898E+02 -0.74385525144E+01 -0.37459696695E+03  0.37661220674E+03  0.99900642008E+01 0.  0.
         22    1    3    3    0    0 -0.36860997898E+02  0.74385525144E+01 -0.11010845313E+03  0.11635263933E+03  0.00000000000E+00 0.  1.
         22    1    4    4    0    0  0.61109825851E+01  0.78443534170E+00 -0.36103518575E+02  0.36625448809E+02  0.00000000000E+00 0.  1.
         22    1    4    4    0    0  0.30750015313E+02 -0.82229878561E+01 -0.33849344838E+03  0.33998675793E+03  0.00000000000E+00 0.  1.
<mgrwt>
<rscale>  0 0.89860977E+02</rscale>
<asrwt>0</asrwt>
<pdfrwt beam="2">  1        1 0.75205359E-01 0.89860977E+02</pdfrwt>
<pdfrwt beam="1">  1       -1 0.63534085E-03 0.89860977E+02</pdfrwt>
<totfact> 0.14433501E+05</totfact>
</mgrwt>
</event>
<event>
 7    1  0.2911475E-009  0.9091463E+02  0.7818608E-02  0.1300652E+00
          1   -1    0    0  501    0  0.00000000000E+00  0.00000000000E+00  0.33721276779E+02  0.33721277155E+02  0.50400000000E-02 0. -1.
         -1   -1    0    0    0  501 -0.00000000000E+00 -0.00000000000E+00 -0.61277857295E+02  0.61277857503E+02  0.50400000000E-02 0.  1.
         23    2    1    2    0    0  0.00000000000E+00  0.00000000000E+00 -0.27556580517E+02  0.94999134658E+02  0.90914632793E+02 0.  0.
    9000005    2    3    3    0    0 -0.10517693905E+02 -0.43558410169E+02 -0.62460983921E+01  0.45379646250E+02  0.35130566621E+01 0.  0.
         22    1    3    3    0    0  0.10517693905E+02  0.43558410169E+02 -0.21310482125E+02  0.49619488408E+02  0.00000000000E+00 0. -1.
         22    1    4    4    0    0 -0.29508243503E+01 -0.67589147164E+01 -0.82015075491E+00  0.74204406710E+01  0.00000000000E+00 0. -1.
         22    1    4    4    0    0 -0.75668695543E+01 -0.36799495452E+02 -0.54259476372E+01  0.37959205579E+02  0.00000000000E+00 0. -1.
<mgrwt>
<rscale>  0 0.90914633E+02</rscale>
<asrwt>0</asrwt>
<pdfrwt beam="1">  1        1 0.51878888E-02 0.90914633E+02</pdfrwt>
<pdfrwt beam="2">  1       -1 0.94273627E-02 0.90914633E+02</pdfrwt>
<totfact> 0.89037666E+04</totfact>
</mgrwt>
</event>
<event>
 6    1  0.2911475E-009  0.1364902E+03  0.7818608E-02  0.1218131E+00
          1   -1    0    0  501    0  0.00000000000E+00  0.00000000000E+00  0.73008723140E+03  0.73008723141E+03  0.50400000000E-02 0. -1.
         -1   -1    0    0    0  501 -0.00000000000E+00 -0.00000000000E+00 -0.63792247300E+01  0.63792267210E+01  0.50400000000E-02 0.  1.
    9000005    2    1    2    0    0  0.27504394795E+02  0.62395215904E+01  0.69675614289E+03  0.69745586568E+03  0.13421570396E+02 0.  0.
         22    1    1    2    0    0 -0.27504394795E+02 -0.62395215904E+01  0.26951863775E+02  0.39010592454E+02  0.00000000000E+00 0.  1.
         22    1    3    3    0    0  0.27031709354E+02  0.89081600131E+01  0.64747341917E+03  0.64809867856E+03  0.00000000000E+00 0. -1.
         22    1    3    3    0    0  0.47268544137E+00 -0.26686384226E+01  0.49282723722E+02  0.49357187116E+02  0.00000000000E+00 0. -1.
<mgrwt>
<rscale>  0 0.13649016E+03</rscale>
<asrwt>0</asrwt>
<pdfrwt beam="1">  1        1 0.11232110E+00 0.13649016E+03</pdfrwt>
<pdfrwt beam="2">  1       -1 0.98141949E-03 0.13649016E+03</pdfrwt>
<totfact> 0.47877541E+04</totfact>
</mgrwt>
</event>
<event>
 7    1  0.2911475E-009  0.9072673E+02  0.7818608E-02  0.1301101E+00
         -1   -1    0    0    0  501 -0.00000000000E+00  0.00000000000E+00  0.11484734393E+01  0.11484844981E+01  0.50400000000E-02 0.  1.
          1   -1    0    0  501    0  0.00000000000E+00 -0.00000000000E+00 -0.17917915686E+04  0.17917915686E+04  0.50400000000E-02 0. -1.
         23    2    1    2    0    0  0.00000000000E+00  0.00000000000E+00 -0.17906430952E+04  0.17929400531E+04  0.90726731355E+02 0.  0.
    9000005    2    3    3    0    0 -0.16262041841E+02 -0.18253202952E+02 -0.16486491078E+04  0.16488570012E+04  0.93752903275E+01 0.  0.
         22    1    3    3    0    0  0.16262041841E+02  0.18253202952E+02 -0.14199398735E+03  0.14408305197E+03  0.00000000000E+00 0.  1.
         22    1    4    4    0    0 -0.13209156740E+02 -0.18739635245E+02 -0.13847720422E+04  0.13849618278E+04  0.00000000000E+00 0.  1.
         22    1    4    4    0    0 -0.30528851011E+01  0.48643229360E+00 -0.26387706567E+03  0.26389517334E+03  0.00000000000E+00 0.  1.
<mgrwt>
<rscale>  0 0.90726731E+02</rscale>
<asrwt>0</asrwt>
<pdfrwt beam="2">  1        1 0.27565801E+00 0.90726731E+02</pdfrwt>
<pdfrwt beam="1">  1       -1 0.17669051E-03 0.90726731E+02</pdfrwt>
<totfact> 0.93710486E+04</totfact>
</mgrwt>
</event>
<event>
 7    1  0.2911475E-009  0.8980737E+02  0.7818608E-02  0.1303319E+00
          1   -1    0    0  501    0  0.00000000000E+00  0.00000000000E+00  0.32418384217E+02  0.32418384609E+02  0.50400000000E-02 0. -1.
         -1   -1    0    0    0  501 -0.00000000000E+00 -0.00000000000E+00 -0.62197448513E+02  0.62197448718E+02  0.50400000000E-02 0.  1.
         23    2    1    2    0    0  0.00000000000E+00  0.00000000000E+00 -0.29779064296E+02  0.94615833326E+02  0.89807367435E+02 0.  0.
    9000005    2    3    3    0    0 -0.41032847011E+02 -0.13775546635E+02 -0.71389314841E+01  0.45768767573E+02  0.13052031394E+02 0.  0.
         22    1    3    3    0    0  0.41032847011E+02  0.13775546635E+02 -0.22640132812E+02  0.48847065753E+02  0.00000000000E+00 0.  1.
         22    1    4    4    0    0 -0.23171547457E+02 -0.91960332844E+00 -0.41886974287E+01  0.23565047591E+02  0.00000000000E+00 0.  1.
         22    1    4    4    0    0 -0.17861299554E+02 -0.12855943306E+02 -0.29502340554E+01  0.22203719982E+02  0.00000000000E+00 0.  1.
<mgrwt>
<rscale>  0 0.89807367E+02</rscale>
<asrwt>0</asrwt>
<pdfrwt beam="1">  1        1 0.49874438E-02 0.89807367E+02</pdfrwt>
<pdfrwt beam="2">  1       -1 0.95688382E-02 0.89807367E+02</pdfrwt>
<totfact> 0.91634082E+04</totfact>
</mgrwt>
</event>
<event>
 7    1  0.2911475E-009  0.9053889E+02  0.7818608E-02  0.1301552E+00
          1   -1    0    0  501    0  0.00000000000E+00  0.00000000000E+00  0.84518228134E+02  0.84518228284E+02  0.50400000000E-02 0. -1.
         -1   -1    0    0    0  501 -0.00000000000E+00 -0.00000000000E+00 -0.24247105684E+02  0.24247106208E+02  0.50400000000E-02 0.  1.
         23    2    1    2    0    0  0.00000000000E+00  0.00000000000E+00  0.60271122450E+02  0.10876533449E+03  0.90538885490E+02 0.  0.
    9000005    2    3    3    0    0 -0.47296222687E+01  0.39396707050E+02  0.55630650757E+02  0.68815317837E+02  0.81430222997E+01 0.  0.
         22    1    3    3    0    0  0.47296222687E+01 -0.39396707050E+02  0.46404716927E+01  0.39950016655E+02  0.00000000000E+00 0.  1.
         22    1    4    4    0    0 -0.18293724438E+01  0.18440344981E+01  0.19911347675E+01  0.32728709768E+01  0.00000000000E+00 0. -1.
         22    1    4    4    0    0 -0.29002498249E+01  0.37552672552E+02  0.53639515990E+02  0.65542446860E+02  0.00000000000E+00 0. -1.
<mgrwt>
<rscale>  0 0.90538885E+02</rscale>
<asrwt>0</asrwt>
<pdfrwt beam="1">  1        1 0.13002805E-01 0.90538885E+02</pdfrwt>
<pdfrwt beam="2">  1       -1 0.37303239E-02 0.90538885E+02</pdfrwt>
<totfact> 0.10359881E+05</totfact>
</mgrwt>
</event>
<event>
 7    1  0.4867012E-009  0.9250259E+02  0.7818608E-02  0.1296902E+00
          1   -1    0    0  501    0  0.00000000000E+00  0.00000000000E+00  0.52623869091E+02  0.52623869333E+02  0.50400000000E-02 0.  1.
         -1   -1    0    0    0  501 -0.00000000000E+00 -0.00000000000E+00 -0.40650413848E+02  0.40650414160E+02  0.50400000000E-02 0. -1.
         23    2    1    2    0    0  0.00000000000E+00  0.00000000000E+00  0.11973455244E+02  0.93274283493E+02  0.92502585535E+02 0.  0.
    9000005    2    3    3    0    0  0.27174817227E+02  0.32540711013E+02 -0.98329907749E+01  0.45599451008E+02  0.13610792045E+02 0.  0.
         22    1    3    3    0    0 -0.27174817227E+02 -0.32540711013E+02  0.21806446018E+02  0.47674832485E+02  0.00000000000E+00 0.  1.
         22    1    4    4    0    0  0.11328462310E+02  0.11072792236E+02  0.27840429555E+01  0.16083895094E+02  0.00000000000E+00 0. -1.
         22    1    4    4    0    0  0.15846354917E+02  0.21467918776E+02 -0.12617033730E+02  0.29515555914E+02  0.00000000000E+00 0. -1.
<mgrwt>
<rscale>  0 0.92502586E+02</rscale>
<asrwt>0</asrwt>
<pdfrwt beam="1">  1        1 0.80959799E-02 0.92502586E+02</pdfrwt>
<pdfrwt beam="2">  1       -1 0.62539099E-02 0.92502586E+02</pdfrwt>
<totfact> 0.90750363E+04</totfact>
</mgrwt>
</event>
<event>
 7    1  0.2911475E-009  0.9107535E+02  0.7818608E-02  0.1300268E+00
         -1   -1    0    0    0  501 -0.00000000000E+00  0.00000000000E+00  0.40873277088E+02  0.40873277398E+02  0.50400000000E-02 0.  1.
          1   -1    0    0  501    0  0.00000000000E+00 -0.00000000000E+00 -0.50734362638E+02  0.50734362889E+02  0.50400000000E-02 0. -1.
         23    2    1    2    0    0  0.00000000000E+00  0.00000000000E+00 -0.98610855508E+01  0.91607640287E+02  0.91075346559E+02 0.  0.
    9000005    2    3    3    0    0 -0.21783466365E+02 -0.39615087533E+02 -0.41502970185E+01  0.46039145987E+02  0.76487535392E+01 0.  0.
         22    1    3    3    0    0  0.21783466365E+02  0.39615087533E+02 -0.57107885323E+01  0.45568494300E+02  0.00000000000E+00 0. -1.
         22    1    4    4    0    0 -0.41127269422E+00 -0.53776968858E+01 -0.14680176009E+01  0.55896193700E+01  0.00000000000E+00 0. -1.
         22    1    4    4    0    0 -0.21372193671E+02 -0.34237390648E+02 -0.26822794177E+01  0.40449526617E+02  0.00000000000E+00 0. -1.
<mgrwt>
<rscale>  0 0.91075347E+02</rscale>
<asrwt>0</asrwt>
<pdfrwt beam="2">  1        1 0.78052866E-02 0.91075347E+02</pdfrwt>
<pdfrwt beam="1">  1       -1 0.62881966E-02 0.91075347E+02</pdfrwt>
<totfact> 0.94262410E+04</totfact>
</mgrwt>
</event>
<event>
 7    1  0.2911475E-009  0.9087999E+02  0.7818608E-02  0.1300735E+00
         -1   -1    0    0    0  501 -0.00000000000E+00  0.00000000000E+00  0.42631478827E+02  0.42631479125E+02  0.50400000000E-02 0.  1.
          1   -1    0    0  501    0  0.00000000000E+00 -0.00000000000E+00 -0.48433531336E+02  0.48433531598E+02  0.50400000000E-02 0. -1.
         23    2    1    2    0    0  0.00000000000E+00 -0.88817841970E-15 -0.58020525089E+01  0.91065010722E+02  0.90879988802E+02 0.  0.
    9000005    2    3    3    0    0 -0.19378774471E+02 -0.41308873459E+01 -0.42956314748E+02  0.48957525250E+02  0.12609249444E+02 0.  0.
         22    1    3    3    0    0  0.19378774471E+02  0.41308873459E+01  0.37154262239E+02  0.42107485473E+02  0.00000000000E+00 0.  1.
         22    1    4    4    0    0 -0.83520276945E+01 -0.53887724471E+01 -0.31397517078E+02  0.32933255438E+02  0.00000000000E+00 0. -1.
         22    1    4    4    0    0 -0.11026746777E+02  0.12578851013E+01 -0.11558797671E+02  0.16024269812E+02  0.00000000000E+00 0. -1.
<mgrwt>
<rscale>  0 0.90879989E+02</rscale>
<asrwt>0</asrwt>
<pdfrwt beam="2">  1        1 0.74513125E-02 0.90879989E+02</pdfrwt>
<pdfrwt beam="1">  1       -1 0.65586891E-02 0.90879989E+02</pdfrwt>
<totfact> 0.94172498E+04</totfact>
</mgrwt>
</event>
<event>
 7    1  0.2911475E-009  0.9123545E+02  0.7818608E-02  0.1299887E+00
          1   -1    0    0  501    0  0.00000000000E+00  0.00000000000E+00  0.52986132839E+02  0.52986133079E+02  0.50400000000E-02 0. -1.
         -1   -1    0    0    0  501 -0.00000000000E+00 -0.00000000000E+00 -0.39273992519E+02  0.39273992842E+02  0.50400000000E-02 0.  1.
         23    2    1    2    0    0  0.00000000000E+00  0.00000000000E+00  0.13712140320E+02  0.92260125921E+02  0.91235453870E+02 0.  0.
    9000005    2    3    3    0    0 -0.26199054581E+02  0.20460831003E+02 -0.24635907438E+02  0.41509669439E+02  0.33299632630E+01 0.  0.
         22    1    3    3    0    0  0.26199054581E+02 -0.20460831003E+02  0.38348047759E+02  0.50750456482E+02  0.00000000000E+00 0. -1.
         22    1    4    4    0    0 -0.23194882328E+02  0.17046189369E+02 -0.22193376091E+02  0.36347229338E+02  0.00000000000E+00 0.  1.
         22    1    4    4    0    0 -0.30041722530E+01  0.34146416340E+01 -0.24425313477E+01  0.51624401013E+01  0.00000000000E+00 0.  1.
<mgrwt>
<rscale>  0 0.91235454E+02</rscale>
<asrwt>0</asrwt>
<pdfrwt beam="1">  1        1 0.81517128E-02 0.91235454E+02</pdfrwt>
<pdfrwt beam="2">  1       -1 0.60421527E-02 0.91235454E+02</pdfrwt>
<totfact> 0.94414328E+04</totfact>
</mgrwt>
</event>
<event>
 7    1  0.2911475E-009  0.9238171E+02  0.7818608E-02  0.1297184E+00
          1   -1    0    0  501    0  0.00000000000E+00  0.00000000000E+00  0.65961471973E+02  0.65961472165E+02  0.50400000000E-02 0. -1.
         -1   -1    0    0    0  501 -0.00000000000E+00 -0.00000000000E+00 -0.32346081003E+02  0.32346081396E+02  0.50400000000E-02 0.  1.
         23    2    1    2    0    0  0.00000000000E+00  0.88817841970E-15  0.33615390970E+02  0.98307553561E+02  0.92381711270E+02 0.  0.
    9000005    2    3    3    0    0  0.25967714765E+02  0.50965801499E+01  0.57040628422E+02  0.62965806448E+02  0.32805718270E+01 0.  0.
         22    1    3    3    0    0 -0.25967714765E+02 -0.50965801499E+01 -0.23425237453E+02  0.35341747114E+02  0.00000000000E+00 0.  1.
         22    1    4    4    0    0  0.14459171854E+02  0.43146974165E+01  0.30577394731E+02  0.34097820063E+02  0.00000000000E+00 0. -1.
         22    1    4    4    0    0  0.11508542910E+02  0.78188273340E+00  0.26463233691E+02  0.28867986385E+02  0.00000000000E+00 0. -1.
<mgrwt>
<rscale>  0 0.92381711E+02</rscale>
<asrwt>0</asrwt>
<pdfrwt beam="1">  1        1 0.10147919E-01 0.92381711E+02</pdfrwt>
<pdfrwt beam="2">  1       -1 0.49763202E-02 0.92381711E+02</pdfrwt>
<totfact> 0.94279618E+04</totfact>
</mgrwt>
</event>
<event>
 7    1  0.2911475E-009  0.9188958E+02  0.7818608E-02  0.1298339E+00
          1   -1    0    0  501    0  0.00000000000E+00  0.00000000000E+00  0.32885375691E+03  0.32885375695E+03  0.50400000000E-02 0. -1.
         -1   -1    0    0    0  501 -0.00000000000E+00 -0.00000000000E+00 -0.64190343345E+01  0.64190363131E+01  0.50400000000E-02 0.  1.
         23    2    1    2    0    0  0.00000000000E+00  0.35527136788E-14  0.32243472258E+03  0.33527279327E+03  0.91889583628E+02 0.  0.
    9000005    2    3    3    0    0 -0.37463323412E+02  0.24610693722E+02  0.15877281838E+03  0.16558364885E+03  0.14140369990E+02 0.  0.
         22    1    3    3    0    0  0.37463323412E+02 -0.24610693722E+02  0.16366190420E+03  0.16968914442E+03  0.00000000000E+00 0.  1.
         22    1    4    4    0    0 -0.45266061345E+01  0.28963303907E+01  0.41649608713E+02  0.41994866338E+02  0.00000000000E+00 0. -1.
         22    1    4    4    0    0 -0.32936717277E+02  0.21714363331E+02  0.11712320966E+03  0.12358878251E+03  0.00000000000E+00 0. -1.
<mgrwt>
<rscale>  0 0.91889584E+02</rscale>
<asrwt>0</asrwt>
<pdfrwt beam="1">  1        1 0.50592879E-01 0.91889584E+02</pdfrwt>
<pdfrwt beam="2">  1       -1 0.98754402E-03 0.91889584E+02</pdfrwt>
<totfact> 0.12767327E+05</totfact>
</mgrwt>
</event>
<event>
 7    1  0.2911475E-009  0.9107610E+02  0.7818608E-02  0.1300267E+00
         -1   -1    0    0    0  501 -0.00000000000E+00  0.00000000000E+00  0.17631414321E+03  0.17631414329E+03  0.50400000000E-02 0.  1.
          1   -1    0    0  501    0  0.00000000000E+00 -0.00000000000E+00 -0.11761471232E+02  0.11761472312E+02  0.50400000000E-02 0. -1.
         23    2    1    2    0    0  0.00000000000E+00  0.88817841970E-15  0.16455267198E+03  0.18807561560E+03  0.91076096348E+02 0.  0.
    9000005    2    3    3    0    0 -0.44209221011E+02  0.71017179165E+01  0.81881386298E+02  0.94057366856E+02  0.11719096298E+02 0.  0.
         22    1    3    3    0    0  0.44209221011E+02 -0.71017179165E+01  0.82671285685E+02  0.94018248743E+02  0.00000000000E+00 0.  1.
         22    1    4    4    0    0 -0.19754844913E+02  0.78163996068E+01  0.30759838435E+02  0.37383387499E+02  0.00000000000E+00 0.  1.
         22    1    4    4    0    0 -0.24454376098E+02 -0.71468169032E+00  0.51121547863E+02  0.56673979357E+02  0.00000000000E+00 0.  1.
<mgrwt>
<rscale>  0 0.91076096E+02</rscale>
<asrwt>0</asrwt>
<pdfrwt beam="2">  1        1 0.18094573E-02 0.91076096E+02</pdfrwt>
<pdfrwt beam="1">  1       -1 0.27125251E-01 0.91076096E+02</pdfrwt>
<totfact> 0.72066971E+04</totfact>
</mgrwt>
</event>
<event>
 7    1  0.2911475E-009  0.9869055E+02  0.7818608E-02  0.1283074E+00
         -1   -1    0    0    0  501 -0.00000000000E+00  0.00000000000E+00  0.13687080710E+01  0.13687173504E+01  0.50400000000E-02 0.  1.
          1   -1    0    0  501    0  0.00000000000E+00 -0.00000000000E+00 -0.17790120426E+04  0.17790120426E+04  0.50400000000E-02 0. -1.
         23    2    1    2    0    0 -0.88817841970E-15 -0.35527136788E-14 -0.17776433345E+04  0.17803807599E+04  0.98690554924E+02 0.  0.
    9000005    2    3    3    0    0  0.72007763106E+01 -0.26552679380E+02 -0.16266504130E+04  0.16269019069E+04  0.78328050754E+01 0.  0.
         22    1    3    3    0    0 -0.72007763106E+01  0.26552679380E+02 -0.15099292152E+03  0.15347885298E+03  0.00000000000E+00 0.  1.
         22    1    4    4    0    0  0.11155155259E+01 -0.29787130304E+00 -0.15809104891E+03  0.15809526510E+03  0.00000000000E+00 0. -1.
         22    1    4    4    0    0  0.60852607848E+01 -0.26254808077E+02 -0.14685593641E+04  0.14688066418E+04  0.00000000000E+00 0. -1.
<mgrwt>
<rscale>  0 0.98690555E+02</rscale>
<asrwt>0</asrwt>
<pdfrwt beam="2">  1        1 0.27369231E+00 0.98690555E+02</pdfrwt>
<pdfrwt beam="1">  1       -1 0.21057261E-03 0.98690555E+02</pdfrwt>
<totfact> 0.75558544E+04</totfact>
</mgrwt>
</event>
<event>
 7    1  0.2911475E-009  0.9279884E+02  0.7818608E-02  0.1296212E+00
          1   -1    0    0  501    0  0.00000000000E+00  0.00000000000E+00  0.30537771473E+03  0.30537771477E+03  0.50400000000E-02 0.  1.
         -1   -1    0    0    0  501 -0.00000000000E+00 -0.00000000000E+00 -0.70499763443E+01  0.70499781458E+01  0.50400000000E-02 0. -1.
         23    2    1    2    0    0  0.00000000000E+00  0.00000000000E+00  0.29832773839E+03  0.31242769292E+03  0.92798835184E+02 0.  0.
    9000005    2    3    3    0    0 -0.24105386252E+02 -0.76101423749E+00  0.28259773327E+03  0.28363391147E+03  0.22512440421E+01 0.  0.
         22    1    3    3    0    0  0.24105386252E+02  0.76101423749E+00  0.15730005122E+02  0.28793781450E+02  0.00000000000E+00 0. -1.
         22    1    4    4    0    0 -0.83243075751E+01  0.20341108781E+00  0.86511352939E+02  0.86911159583E+02  0.00000000000E+00 0.  1.
         22    1    4    4    0    0 -0.15781078677E+02 -0.96442532530E+00  0.19608638033E+03  0.19672275189E+03  0.00000000000E+00 0.  1.
<mgrwt>
<rscale>  0 0.92798835E+02</rscale>
<asrwt>0</asrwt>
<pdfrwt beam="1">  1        1 0.46981192E-01 0.92798835E+02</pdfrwt>
<pdfrwt beam="2">  1       -1 0.10846118E-02 0.92798835E+02</pdfrwt>
<totfact> 0.12264768E+05</totfact>
</mgrwt>
</event>
<event>
 7    1  0.2911475E-009  0.9875305E+02  0.7818608E-02  0.1282940E+00
          1   -1    0    0  501    0  0.00000000000E+00  0.00000000000E+00  0.59763698860E+02  0.59763699072E+02  0.50400000000E-02 0. -1.
         -1   -1    0    0    0  501 -0.00000000000E+00 -0.00000000000E+00 -0.40794684117E+02  0.40794684428E+02  0.50400000000E-02 0.  1.
         23    2    1    2    0    0  0.00000000000E+00  0.00000000000E+00  0.18969014743E+02  0.10055838350E+03  0.98753050444E+02 0.  0.
    9000005    2    3    3    0    0  0.75247810614E+01  0.34078208270E+02  0.45030994062E+02  0.57001829745E+02  0.18632120449E+01 0.  0.
         22    1    3    3    0    0 -0.75247810614E+01 -0.34078208270E+02 -0.26061979320E+02  0.43556553755E+02  0.00000000000E+00 0.  1.
         22    1    4    4    0    0  0.60074201743E+01  0.27387078312E+02  0.37346452816E+02  0.46700093079E+02  0.00000000000E+00 0. -1.
         22    1    4    4    0    0  0.15173608870E+01  0.66911299580E+01  0.76845412462E+01  0.10301736666E+02  0.00000000000E+00 0. -1.
<mgrwt>
<rscale>  0 0.98753050E+02</rscale>
<asrwt>0</asrwt>
<pdfrwt beam="1">  1        1 0.91944153E-02 0.98753050E+02</pdfrwt>
<pdfrwt beam="2">  1       -1 0.62761053E-02 0.98753050E+02</pdfrwt>
<totfact> 0.77065397E+04</totfact>
</mgrwt>
</event>
<event>
 7    1  0.2911475E-009  0.9000064E+02  0.7818608E-02  0.1302850E+00
          1   -1    0    0  501    0  0.00000000000E+00  0.00000000000E+00  0.29891743595E+03  0.29891743599E+03  0.50400000000E-02 0. -1.
         -1   -1    0    0    0  501 -0.00000000000E+00 -0.00000000000E+00 -0.67745407607E+01  0.67745426355E+01  0.50400000000E-02 0.  1.
         23    2    1    2    0    0  0.00000000000E+00  0.35527136788E-14  0.29214289519E+03  0.30569197863E+03  0.90000636597E+02 0.  0.
    9000005    2    3    3    0    0 -0.34180434896E+02 -0.26620182532E+02  0.17269378555E+03  0.17862889964E+03  0.14429274828E+02 0.  0.
         22    1    3    3    0    0  0.34180434896E+02  0.26620182532E+02  0.11944910964E+03  0.12706307898E+03  0.00000000000E+00 0.  1.
         22    1    4    4    0    0 -0.27955061824E+02 -0.22369067354E+02  0.11499243046E+03  0.12043720239E+03  0.00000000000E+00 0. -1.
         22    1    4    4    0    0 -0.62253730715E+01 -0.42511151783E+01  0.57701355086E+02  0.58191697251E+02  0.00000000000E+00 0. -1.
<mgrwt>
<rscale>  0 0.90000637E+02</rscale>
<asrwt>0</asrwt>
<pdfrwt beam="1">  1        1 0.45987285E-01 0.90000637E+02</pdfrwt>
<pdfrwt beam="2">  1       -1 0.10422375E-02 0.90000637E+02</pdfrwt>
<totfact> 0.13253558E+05</totfact>
</mgrwt>
</event>
<event>
 7    1  0.2911475E-009  0.9184684E+02  0.7818608E-02  0.1298440E+00
          1   -1    0    0  501    0  0.00000000000E+00  0.00000000000E+00  0.29667384422E+02  0.29667384850E+02  0.50400000000E-02 0. -1.
         -1   -1    0    0    0  501 -0.00000000000E+00 -0.00000000000E+00 -0.71086833896E+02  0.71086834074E+02  0.50400000000E-02 0.  1.
         23    2    1    2    0    0  0.00000000000E+00  0.00000000000E+00 -0.41419449473E+02  0.10075421892E+03  0.91846839011E+02 0.  0.
    9000005    2    3    3    0    0 -0.51261725561E+01 -0.16853207920E+02  0.25592884794E+02  0.31465250061E+02  0.49757358286E+01 0.  0.
         22    1    3    3    0    0  0.51261725561E+01  0.16853207920E+02 -0.67012334267E+02  0.69288968864E+02  0.00000000000E+00 0.  1.
         22    1    4    4    0    0  0.52683459757E-01 -0.30522748863E+01  0.76961846832E+01  0.82795178728E+01  0.00000000000E+00 0.  1.
         22    1    4    4    0    0 -0.51788560158E+01 -0.13800933034E+02  0.17896700111E+02  0.23185732188E+02  0.00000000000E+00 0.  1.
<mgrwt>
<rscale>  0 0.91846839E+02</rscale>
<asrwt>0</asrwt>
<pdfrwt beam="1">  1        1 0.45642131E-02 0.91846839E+02</pdfrwt>
<pdfrwt beam="2">  1       -1 0.10936436E-01 0.91846839E+02</pdfrwt>
<totfact> 0.84724527E+04</totfact>
</mgrwt>
</event>
<event>
 7    1  0.2911475E-009  0.9128216E+02  0.7818608E-02  0.1299776E+00
          1   -1    0    0  501    0  0.00000000000E+00  0.00000000000E+00  0.13961011394E+03  0.13961011403E+03  0.50400000000E-02 0. -1.
         -1   -1    0    0    0  501 -0.00000000000E+00 -0.00000000000E+00 -0.14920897942E+02  0.14920898794E+02  0.50400000000E-02 0.  1.
         23    2    1    2    0    0  0.00000000000E+00  0.00000000000E+00  0.12468921600E+03  0.15453101283E+03  0.91282163310E+02 0.  0.
    9000005    2    3    3    0    0  0.16894776631E+02 -0.30283833738E+01  0.13339028127E+03  0.13528749132E+03  0.14667432842E+02 0.  0.
         22    1    3    3    0    0 -0.16894776631E+02  0.30283833738E+01 -0.87010652702E+01  0.19243521510E+02  0.00000000000E+00 0.  1.
         22    1    4    4    0    0  0.78135165250E+01 -0.86273409578E+01  0.59125272958E+02  0.60260102513E+02  0.00000000000E+00 0.  1.
         22    1    4    4    0    0  0.90812601061E+01  0.55989575841E+01  0.74265008311E+02  0.75027388803E+02  0.00000000000E+00 0.  1.
<mgrwt>
<rscale>  0 0.91282163E+02</rscale>
<asrwt>0</asrwt>
<pdfrwt beam="1">  1        1 0.21478479E-01 0.91282163E+02</pdfrwt>
<pdfrwt beam="2">  1       -1 0.22955229E-02 0.91282163E+02</pdfrwt>
<totfact> 0.11032909E+05</totfact>
</mgrwt>
</event>
<event>
 7    1  0.2911475E-009  0.8620714E+02  0.7818608E-02  0.1312306E+00
         -1   -1    0    0    0  501 -0.00000000000E+00  0.00000000000E+00  0.91991526013E+02  0.91991526151E+02  0.50400000000E-02 0.  1.
          1   -1    0    0  501    0  0.00000000000E+00 -0.00000000000E+00 -0.20196618869E+02  0.20196619498E+02  0.50400000000E-02 0. -1.
         23    2    1    2    0    0  0.00000000000E+00  0.00000000000E+00  0.71794907144E+02  0.11218814565E+03  0.86207142004E+02 0.  0.
    9000005    2    3    3    0    0 -0.41686526100E+01 -0.34584561634E+02  0.66904745225E+02  0.77011686879E+02  0.15526925466E+02 0.  0.
         22    1    3    3    0    0  0.41686526100E+01  0.34584561634E+02  0.48901619190E+01  0.35176458770E+02  0.00000000000E+00 0. -1.
         22    1    4    4    0    0  0.35830939684E+01 -0.50541321616E+01  0.20891158242E+02  0.21790440724E+02  0.00000000000E+00 0.  1.
         22    1    4    4    0    0 -0.77517465784E+01 -0.29530429472E+02  0.46013586983E+02  0.55221246155E+02  0.00000000000E+00 0.  1.
<mgrwt>
<rscale>  0 0.86207142E+02</rscale>
<asrwt>0</asrwt>
<pdfrwt beam="2">  1        1 0.31071722E-02 0.86207142E+02</pdfrwt>
<pdfrwt beam="1">  1       -1 0.14152542E-01 0.86207142E+02</pdfrwt>
<totfact> 0.95395458E+04</totfact>
</mgrwt>
</event>
<event>
 7    1  0.2911475E-009  0.8651138E+02  0.7818608E-02  0.1311527E+00
          1   -1    0    0  501    0  0.00000000000E+00  0.00000000000E+00  0.14455345343E+02  0.14455346222E+02  0.50400000000E-02 0. -1.
         -1   -1    0    0    0  501 -0.00000000000E+00 -0.00000000000E+00 -0.12943686884E+03  0.12943686894E+03  0.50400000000E-02 0.  1.
         23    2    1    2    0    0  0.71054273576E-14  0.00000000000E+00 -0.11498152350E+03  0.14389221516E+03  0.86511379818E+02 0.  0.
    9000005    2    3    3    0    0 -0.41483987075E+02 -0.75293979273E+01 -0.65566565373E+02  0.78934913006E+02  0.12415030390E+02 0.  0.
         22    1    3    3    0    0  0.41483987075E+02  0.75293979273E+01 -0.49414958126E+02  0.64957302156E+02  0.00000000000E+00 0.  1.
         22    1    4    4    0    0 -0.28622492448E+02 -0.10822575552E+02 -0.43565259637E+02  0.53238210552E+02  0.00000000000E+00 0.  1.
         22    1    4    4    0    0 -0.12861494627E+02  0.32931776248E+01 -0.22001305736E+02  0.25696702454E+02  0.00000000000E+00 0.  1.
<mgrwt>
<rscale>  0 0.86511380E+02</rscale>
<asrwt>0</asrwt>
<pdfrwt beam="1">  1        1 0.22238994E-02 0.86511380E+02</pdfrwt>
<pdfrwt beam="2">  1       -1 0.19913364E-01 0.86511380E+02</pdfrwt>
<totfact> 0.88532271E+04</totfact>
</mgrwt>
</event>
<event>
 6    1  0.2911475E-009  0.1296658E+03  0.7818608E-02  0.1227953E+00
         -1   -1    0    0    0  501 -0.00000000000E+00  0.00000000000E+00  0.48686499475E+02  0.48686499736E+02  0.50400000000E-02 0.  1.
          1   -1    0    0  501    0  0.00000000000E+00 -0.00000000000E+00 -0.86334049019E+02  0.86334049167E+02  0.50400000000E-02 0. -1.
    9000005    2    1    2    0    0 -0.15197834963E+02 -0.38616042840E+02  0.32275056002E+02  0.53710379068E+02  0.10997846495E+02 0.  0.
         22    1    1    2    0    0  0.15197834963E+02  0.38616042840E+02 -0.69922605546E+02  0.81310169835E+02  0.00000000000E+00 0. -1.
         22    1    3    3    0    0 -0.14583070354E+02 -0.22695899754E+02  0.21125728463E+02  0.34264649563E+02  0.00000000000E+00 0.  1.
         22    1    3    3    0    0 -0.61476460878E+00 -0.15920143086E+02  0.11149327539E+02  0.19445729505E+02  0.00000000000E+00 0.  1.
<mgrwt>
<rscale>  0 0.12966577E+03</rscale>
<asrwt>0</asrwt>
<pdfrwt beam="2">  1        1 0.13282161E-01 0.12966577E+03</pdfrwt>
<pdfrwt beam="1">  1       -1 0.74902307E-02 0.12966577E+03</pdfrwt>
<totfact> 0.37909926E+04</totfact>
</mgrwt>
</event>
<event>
 7    1  0.2911475E-009  0.9117664E+02  0.7818608E-02  0.1300027E+00
          1   -1    0    0  501    0  0.00000000000E+00  0.00000000000E+00  0.78320449626E+03  0.78320449628E+03  0.50400000000E-02 0. -1.
         -1   -1    0    0    0  501 -0.00000000000E+00 -0.00000000000E+00 -0.26535762187E+01  0.26535810049E+01  0.50400000000E-02 0.  1.
         23    2    1    2    0    0  0.17763568394E-14  0.00000000000E+00  0.78055092005E+03  0.78585807729E+03  0.91176635443E+02 0.  0.
    9000005    2    3    3    0    0 -0.13987371173E+02 -0.35504029597E+02  0.59825627163E+03  0.59961221421E+03  0.12963727131E+02 0.  0.
         22    1    3    3    0    0  0.13987371173E+02  0.35504029597E+02  0.18229464842E+03  0.18624586307E+03  0.00000000000E+00 0.  1.
         22    1    4    4    0    0 -0.41283894908E+01 -0.13958188400E+02  0.14277684855E+03  0.14351690877E+03  0.00000000000E+00 0.  1.
         22    1    4    4    0    0 -0.98589816818E+01 -0.21545841197E+02  0.45547942308E+03  0.45609530544E+03  0.00000000000E+00 0.  1.
<mgrwt>
<rscale>  0 0.91176635E+02</rscale>
<asrwt>0</asrwt>
<pdfrwt beam="1">  1        1 0.12049311E+00 0.91176635E+02</pdfrwt>
<pdfrwt beam="2">  1       -1 0.40824248E-03 0.91176635E+02</pdfrwt>
<totfact> 0.14154090E+05</totfact>
</mgrwt>
</event>
<event>
 7    1  0.2911475E-009  0.9123751E+02  0.7818608E-02  0.1299882E+00
         -1   -1    0    0    0  501 -0.00000000000E+00  0.00000000000E+00  0.95003645485E+02  0.95003645618E+02  0.50400000000E-02 0.  1.
          1   -1    0    0  501    0  0.00000000000E+00 -0.00000000000E+00 -0.21905169509E+02  0.21905170089E+02  0.50400000000E-02 0. -1.
         23    2    1    2    0    0 -0.17763568394E-14  0.00000000000E+00  0.73098475976E+02  0.11690881571E+03  0.91237514214E+02 0.  0.
    9000005    2    3    3    0    0 -0.12745245063E+02 -0.30900502768E+02  0.75079658971E+02  0.83424380083E+02  0.14331422050E+02 0.  0.
         22    1    3    3    0    0  0.12745245063E+02  0.30900502768E+02 -0.19811829950E+01  0.33484435624E+02  0.00000000000E+00 0. -1.
         22    1    4    4    0    0 -0.14962788279E+02 -0.19042191957E+02  0.52774548612E+02  0.58065851314E+02  0.00000000000E+00 0. -1.
         22    1    4    4    0    0  0.22175432158E+01 -0.11858310811E+02  0.22305110359E+02  0.25358528769E+02  0.00000000000E+00 0. -1.
<mgrwt>
<rscale>  0 0.91237514E+02</rscale>
<asrwt>0</asrwt>
<pdfrwt beam="2">  1        1 0.33700262E-02 0.91237514E+02</pdfrwt>
<pdfrwt beam="1">  1       -1 0.14615945E-01 0.91237514E+02</pdfrwt>
<totfact> 0.82000058E+04</totfact>
</mgrwt>
</event>
<event>
 7    1  0.2911475E-009  0.9141154E+02  0.7818608E-02  0.1299469E+00
         -1   -1    0    0    0  501 -0.00000000000E+00  0.00000000000E+00  0.68005811510E+02  0.68005811697E+02  0.50400000000E-02 0.  1.
          1   -1    0    0  501    0  0.00000000000E+00 -0.00000000000E+00 -0.30718219894E+02  0.30718220308E+02  0.50400000000E-02 0. -1.
         23    2    1    2    0    0  0.00000000000E+00  0.00000000000E+00  0.37287591616E+02  0.98724032005E+02  0.91411541978E+02 0.  0.
    9000005    2    3    3    0    0 -0.32950245181E+02 -0.21351873428E+02 -0.34973122022E+01  0.42111051728E+02  0.14815138493E+02 0.  0.
         22    1    3    3    0    0  0.32950245181E+02  0.21351873428E+02  0.40784903818E+02  0.56612980277E+02  0.00000000000E+00 0.  1.
         22    1    4    4    0    0 -0.31309789045E+02 -0.22095629180E+02 -0.62438256968E+01  0.38826602713E+02  0.00000000000E+00 0. -1.
         22    1    4    4    0    0 -0.16404561360E+01  0.74375575192E+00  0.27465134946E+01  0.32844490145E+01  0.00000000000E+00 0. -1.
<mgrwt>
<rscale>  0 0.91411542E+02</rscale>
<asrwt>0</asrwt>
<pdfrwt beam="2">  1        1 0.47258801E-02 0.91411542E+02</pdfrwt>
<pdfrwt beam="1">  1       -1 0.10462432E-01 0.91411542E+02</pdfrwt>
<totfact> 0.86375121E+04</totfact>
</mgrwt>
</event>
<event>
 7    1  0.2911475E-009  0.1140175E+03  0.7818608E-02  0.1253306E+00
         -1   -1    0    0    0  501 -0.00000000000E+00  0.00000000000E+00  0.34667859502E+01  0.34667896138E+01  0.50400000000E-02 0.  1.
          1   -1    0    0  501    0  0.00000000000E+00 -0.00000000000E+00 -0.93746657637E+03  0.93746657638E+03  0.50400000000E-02 0. -1.
         23    2    1    2    0    0  0.00000000000E+00  0.00000000000E+00 -0.93399979042E+03  0.94093336600E+03  0.11401750191E+03 0.  0.
    9000005    2    3    3    0    0  0.32341754980E+02 -0.33069364532E+02 -0.73842316288E+03  0.73996125543E+03  0.11589653795E+02 0.  0.
         22    1    3    3    0    0 -0.32341754980E+02  0.33069364532E+02 -0.19557662754E+03  0.20097211056E+03  0.00000000000E+00 0.  1.
         22    1    4    4    0    0  0.23714204544E+02 -0.28839315909E+02 -0.52777619759E+03  0.52909525077E+03  0.00000000000E+00 0.  1.
         22    1    4    4    0    0  0.86275504355E+01 -0.42300486228E+01 -0.21064696529E+03  0.21086600467E+03  0.00000000000E+00 0.  1.
<mgrwt>
<rscale>  0 0.11401750E+03</rscale>
<asrwt>0</asrwt>
<pdfrwt beam="2">  1        1 0.14422543E+00 0.11401750E+03</pdfrwt>
<pdfrwt beam="1">  1       -1 0.53335271E-03 0.11401750E+03</pdfrwt>
<totfact> 0.76004824E+04</totfact>
</mgrwt>
</event>
<event>
 7    1  0.2911475E-009  0.9019952E+02  0.7818608E-02  0.1302369E+00
          1   -1    0    0  501    0  0.00000000000E+00  0.00000000000E+00  0.20317671221E+03  0.20317671227E+03  0.50400000000E-02 0. -1.
         -1   -1    0    0    0  501 -0.00000000000E+00 -0.00000000000E+00 -0.10010932344E+02  0.10010933613E+02  0.50400000000E-02 0.  1.
         23    2    1    2    0    0  0.00000000000E+00  0.00000000000E+00  0.19316577987E+03  0.21318764589E+03  0.90199522432E+02 0.  0.
    9000005    2    3    3    0    0  0.66409142909E+01 -0.25432018707E+02  0.18289792450E+03  0.18496853584E+03  0.84154111843E+01 0.  0.
         22    1    3    3    0    0 -0.66409142909E+01  0.25432018707E+02  0.10267855367E+02  0.28219110049E+02  0.00000000000E+00 0.  1.
         22    1    4    4    0    0  0.71502719734E+01 -0.10778970799E+02  0.84553572434E+02  0.85537238745E+02  0.00000000000E+00 0. -1.
         22    1    4    4    0    0 -0.50935768249E+00 -0.14653047907E+02  0.98344352066E+02  0.99431297092E+02  0.00000000000E+00 0. -1.
<mgrwt>
<rscale>  0 0.90199522E+02</rscale>
<asrwt>0</asrwt>
<pdfrwt beam="1">  1        1 0.31257955E-01 0.90199522E+02</pdfrwt>
<pdfrwt beam="2">  1       -1 0.15401436E-02 0.90199522E+02</pdfrwt>
<totfact> 0.12224638E+05</totfact>
</mgrwt>
</event>
<event>
 7    1  0.2911475E-009  0.7014916E+02  0.7818608E-02  0.1359587E+00
         -1   -1    0    0    0  501 -0.00000000000E+00  0.00000000000E+00  0.34417194214E+02  0.34417194583E+02  0.50400000000E-02 0.  1.
          1   -1    0    0  501    0  0.00000000000E+00 -0.00000000000E+00 -0.35744517014E+02  0.35744517369E+02  0.50400000000E-02 0. -1.
         23    2    1    2    0    0  0.00000000000E+00  0.00000000000E+00 -0.13273228004E+01  0.70161711952E+02  0.70149155648E+02 0.  0.
    9000005    2    3    3    0    0 -0.19656179926E+02  0.18913470525E+02 -0.20095696289E+02  0.37050737638E+02  0.14994511450E+02 0.  0.
         22    1    3    3    0    0  0.19656179926E+02 -0.18913470525E+02  0.18768373488E+02  0.33110974314E+02  0.00000000000E+00 0.  1.
         22    1    4    4    0    0 -0.71055222233E+00  0.54757403570E+01 -0.10610672497E+02  0.11961395728E+02  0.00000000000E+00 0. -1.
         22    1    4    4    0    0 -0.18945627704E+02  0.13437730168E+02 -0.94850237915E+01  0.25089341910E+02  0.00000000000E+00 0. -1.
<mgrwt>
<rscale>  0 0.70149156E+02</rscale>
<asrwt>0</asrwt>
<pdfrwt beam="2">  1        1 0.54991565E-02 0.70149156E+02</pdfrwt>
<pdfrwt beam="1">  1       -1 0.52949530E-02 0.70149156E+02</pdfrwt>
<totfact> 0.18453081E+05</totfact>
</mgrwt>
</event>
<event>
 7    1  0.2911475E-009  0.9107730E+02  0.7818608E-02  0.1300264E+00
          1   -1    0    0  501    0  0.00000000000E+00  0.00000000000E+00  0.54879234313E+02  0.54879234545E+02  0.50400000000E-02 0. -1.
         -1   -1    0    0    0  501 -0.00000000000E+00 -0.00000000000E+00 -0.37787855022E+02  0.37787855358E+02  0.50400000000E-02 0.  1.
         23    2    1    2    0    0  0.00000000000E+00  0.00000000000E+00  0.17091379292E+02  0.92667089902E+02  0.91077298516E+02 0.  0.
    9000005    2    3    3    0    0  0.15367979036E+02 -0.21615537087E+02 -0.28359300994E+02  0.40044180807E+02  0.97918456101E+01 0.  0.
         22    1    3    3    0    0 -0.15367979036E+02  0.21615537087E+02  0.45450680286E+02  0.52622909095E+02  0.00000000000E+00 0. -1.
         22    1    4    4    0    0  0.16349260435E+02 -0.21107434509E+02 -0.28344810942E+02  0.38939060282E+02  0.00000000000E+00 0. -1.
         22    1    4    4    0    0 -0.98128139903E+00 -0.50810257766E+00 -0.14490052308E-01  0.11051205252E+01  0.00000000000E+00 0. -1.
<mgrwt>
<rscale>  0 0.91077299E+02</rscale>
<asrwt>0</asrwt>
<pdfrwt beam="1">  1        1 0.84429591E-02 0.91077299E+02</pdfrwt>
<pdfrwt beam="2">  1       -1 0.58135162E-02 0.91077299E+02</pdfrwt>
<totfact> 0.95373597E+04</totfact>
</mgrwt>
</event>
<event>
 7    1  0.2911475E-009  0.9011443E+02  0.7818608E-02  0.1302575E+00
          1   -1    0    0  501    0  0.00000000000E+00  0.00000000000E+00  0.18210765792E+03  0.18210765799E+03  0.50400000000E-02 0. -1.
         -1   -1    0    0    0  501 -0.00000000000E+00 -0.00000000000E+00 -0.11148089068E+02  0.11148090208E+02  0.50400000000E-02 0.  1.
         23    2    1    2    0    0  0.00000000000E+00  0.00000000000E+00  0.17095956885E+03  0.19325574819E+03  0.90114427420E+02 0.  0.
    9000005    2    3    3    0    0  0.37330495225E+02  0.16579838776E+02  0.46506397567E+02  0.62270830095E+02  0.68084020477E+01 0.  0.
         22    1    3    3    0    0 -0.37330495225E+02 -0.16579838776E+02  0.12445317128E+03  0.13098491810E+03  0.00000000000E+00 0. -1.
         22    1    4    4    0    0  0.54470412334E+01  0.83829128487E-01  0.50036922665E+01  0.73969062330E+01  0.00000000000E+00 0. -1.
         22    1    4    4    0    0  0.31883453991E+02  0.16496009647E+02  0.41502705301E+02  0.54873923862E+02  0.00000000000E+00 0. -1.
<mgrwt>
<rscale>  0 0.90114427E+02</rscale>
<asrwt>0</asrwt>
<pdfrwt beam="1">  1        1 0.28016562E-01 0.90114427E+02</pdfrwt>
<pdfrwt beam="2">  1       -1 0.17150908E-02 0.90114427E+02</pdfrwt>
<totfact> 0.12000016E+05</totfact>
</mgrwt>
</event>
<event>
 7    1  0.2911475E-009  0.7957938E+02  0.7818608E-02  0.1330249E+00
          1   -1    0    0  501    0  0.00000000000E+00  0.00000000000E+00  0.17062010435E+03  0.17062010442E+03  0.50400000000E-02 0. -1.
         -1   -1    0    0    0  501 -0.00000000000E+00 -0.00000000000E+00 -0.92792065144E+01  0.92792078832E+01  0.50400000000E-02 0.  1.
         23    2    1    2    0    0  0.00000000000E+00  0.00000000000E+00  0.16134089783E+03  0.17989931231E+03  0.79579377067E+02 0.  0.
    9000005    2    3    3    0    0  0.17348177943E+02  0.26266283987E+02  0.28432828826E+02  0.43314423831E+02  0.87656491085E+01 0.  0.
         22    1    3    3    0    0 -0.17348177943E+02 -0.26266283987E+02  0.13290806901E+03  0.13658488848E+03  0.00000000000E+00 0. -1.
         22    1    4    4    0    0 -0.39619736999E+00  0.46989083861E+01  0.34569467062E+01  0.58469815210E+01  0.00000000000E+00 0.  1.
         22    1    4    4    0    0  0.17744375313E+02  0.21567375601E+02  0.24975882120E+02  0.37467442310E+02  0.00000000000E+00 0.  1.
<mgrwt>
<rscale>  0 0.79579377E+02</rscale>
<asrwt>0</asrwt>
<pdfrwt beam="1">  1        1 0.26249245E-01 0.79579377E+02</pdfrwt>
<pdfrwt beam="2">  1       -1 0.14275705E-02 0.79579377E+02</pdfrwt>
<totfact> 0.16511955E+05</totfact>
</mgrwt>
</event>
<event>
 7    1  0.2911475E-009  0.8712829E+02  0.7818608E-02  0.1309959E+00
         -1   -1    0    0    0  501 -0.00000000000E+00  0.00000000000E+00  0.10558279819E+02  0.10558281021E+02  0.50400000000E-02 0.  1.
          1   -1    0    0  501    0  0.00000000000E+00 -0.00000000000E+00 -0.17974846441E+03  0.17974846449E+03  0.50400000000E-02 0. -1.
         23    2    1    2    0    0  0.00000000000E+00 -0.44408920985E-15 -0.16919018460E+03  0.19030674551E+03  0.87128289446E+02 0.  0.
    9000005    2    3    3    0    0  0.31659699599E+02 -0.28041764576E+01 -0.14872396460E+03  0.15250375429E+03  0.11330376903E+02 0.  0.
         22    1    3    3    0    0 -0.31659699599E+02  0.28041764576E+01 -0.20466219995E+02  0.37802991220E+02  0.00000000000E+00 0.  1.
         22    1    4    4    0    0  0.66910789411E+01  0.17088626174E+01 -0.16836686534E+02  0.18197932913E+02  0.00000000000E+00 0. -1.
         22    1    4    4    0    0  0.24968620657E+02 -0.45130390750E+01 -0.13188727807E+03  0.13430582137E+03  0.00000000000E+00 0. -1.
<mgrwt>
<rscale>  0 0.87128289E+02</rscale>
<asrwt>0</asrwt>
<pdfrwt beam="2">  1        1 0.27653608E-01 0.87128289E+02</pdfrwt>
<pdfrwt beam="1">  1       -1 0.16243510E-02 0.87128289E+02</pdfrwt>
<totfact> 0.13100146E+05</totfact>
</mgrwt>
</event>
<event>
 7    1  0.2911475E-009  0.9274811E+02  0.7818608E-02  0.1296330E+00
          1   -1    0    0  501    0  0.00000000000E+00  0.00000000000E+00  0.26532470276E+03  0.26532470281E+03  0.50400000000E-02 0. -1.
         -1   -1    0    0    0  501 -0.00000000000E+00 -0.00000000000E+00 -0.81053618056E+01  0.81053633726E+01  0.50400000000E-02 0.  1.
         23    2    1    2    0    0  0.00000000000E+00  0.71054273576E-14  0.25721934096E+03  0.27343006618E+03  0.92748109040E+02 0.  0.
    9000005    2    3    3    0    0 -0.13881091351E+02 -0.43404640742E+02  0.13392931269E+03  0.14198776475E+03  0.12116806800E+02 0.  0.
         22    1    3    3    0    0  0.13881091351E+02  0.43404640742E+02  0.12329002827E+03  0.13144230143E+03  0.00000000000E+00 0.  1.
         22    1    4    4    0    0 -0.12923363194E+02 -0.41607756417E+02  0.11546373220E+03  0.12341025956E+03  0.00000000000E+00 0.  1.
         22    1    4    4    0    0 -0.95772815642E+00 -0.17968843246E+01  0.18465580490E+02  0.18577505196E+02  0.00000000000E+00 0.  1.
<mgrwt>
<rscale>  0 0.92748109E+02</rscale>
<asrwt>0</asrwt>
<pdfrwt beam="1">  1        1 0.40819180E-01 0.92748109E+02</pdfrwt>
<pdfrwt beam="2">  1       -1 0.12469790E-02 0.92748109E+02</pdfrwt>
<totfact> 0.11952873E+05</totfact>
</mgrwt>
</event>
<event>
 7    1  0.4648122E-009  0.9245836E+02  0.7818608E-02  0.1297005E+00
         -1   -1    0    0    0  501 -0.00000000000E+00  0.00000000000E+00  0.69625464898E+01  0.69625483140E+01  0.50400000000E-02 0.  1.
          1   -1    0    0  501    0  0.00000000000E+00 -0.00000000000E+00 -0.30694758680E+03  0.30694758684E+03  0.50400000000E-02 0. -1.
         23    2    1    2    0    0  0.17763568394E-14  0.00000000000E+00 -0.29998504031E+03  0.31391013516E+03  0.92458361133E+02 0.  0.
    9000005    2    3    3    0    0 -0.11372053419E+02 -0.27093757714E+02 -0.26956175710E+03  0.27161390048E+03  0.15721791879E+02 0.  0.
         22    1    3    3    0    0  0.11372053419E+02  0.27093757714E+02 -0.30423283212E+02  0.42296234672E+02  0.00000000000E+00 0.  1.
         22    1    4    4    0    0 -0.14276081912E+02 -0.26555391023E+02 -0.25308729750E+03  0.25487678487E+03  0.00000000000E+00 0. -1.
         22    1    4    4    0    0  0.29040284925E+01 -0.53836669135E+00 -0.16474459599E+02  0.16737115619E+02  0.00000000000E+00 0. -1.
<mgrwt>
<rscale>  0 0.92458361E+02</rscale>
<asrwt>0</asrwt>
<pdfrwt beam="2">  1        1 0.47222695E-01 0.92458361E+02</pdfrwt>
<pdfrwt beam="1">  1       -1 0.10711614E-02 0.92458361E+02</pdfrwt>
<totfact> 0.12397787E+05</totfact>
</mgrwt>
</event>
<event>
 7    1  0.2911475E-009  0.9170653E+02  0.7818608E-02  0.1298771E+00
          1   -1    0    0  501    0  0.00000000000E+00  0.00000000000E+00  0.29290872428E+03  0.29290872432E+03  0.50400000000E-02 0. -1.
         -1   -1    0    0    0  501 -0.00000000000E+00 -0.00000000000E+00 -0.71780778214E+01  0.71780795907E+01  0.50400000000E-02 0.  1.
         23    2    1    2    0    0 -0.17763568394E-14  0.00000000000E+00  0.28573064646E+03  0.30008680391E+03  0.91706529526E+02 0.  0.
    9000005    2    3    3    0    0  0.12457020020E+02  0.39947527908E+02  0.20144082750E+03  0.20598177794E+03  0.99550753410E+01 0.  0.
         22    1    3    3    0    0 -0.12457020020E+02 -0.39947527908E+02  0.84289818957E+02  0.94105025974E+02  0.00000000000E+00 0.  1.
         22    1    4    4    0    0 -0.10779946861E+01  0.54000604023E+01  0.17892289695E+02  0.18720490256E+02  0.00000000000E+00 0. -1.
         22    1    4    4    0    0  0.13535014707E+02  0.34547467506E+02  0.18354853780E+03  0.18726128768E+03  0.00000000000E+00 0. -1.
<mgrwt>
<rscale>  0 0.91706530E+02</rscale>
<asrwt>0</asrwt>
<pdfrwt beam="1">  1        1 0.45062877E-01 0.91706530E+02</pdfrwt>
<pdfrwt beam="2">  1       -1 0.11043199E-02 0.91706530E+02</pdfrwt>
<totfact> 0.12558118E+05</totfact>
</mgrwt>
</event>
<event>
 7    1  0.2911475E-009  0.9093825E+02  0.7818608E-02  0.1300595E+00
          1   -1    0    0  501    0  0.00000000000E+00  0.00000000000E+00  0.12688229658E+02  0.12688230659E+02  0.50400000000E-02 0. -1.
         -1   -1    0    0    0  501 -0.00000000000E+00 -0.00000000000E+00 -0.16294167196E+03  0.16294167204E+03  0.50400000000E-02 0.  1.
         23    2    1    2    0    0  0.71054273576E-14  0.88817841970E-15 -0.15025344231E+03  0.17562990270E+03  0.90938252668E+02 0.  0.
    9000005    2    3    3    0    0 -0.43912694838E+02 -0.52787728229E+01 -0.89714368948E+02  0.10065544296E+03  0.11254332116E+02 0.  0.
         22    1    3    3    0    0  0.43912694838E+02  0.52787728229E+01 -0.60539073358E+02  0.74974459742E+02  0.00000000000E+00 0. -1.
         22    1    4    4    0    0 -0.34578898420E+02 -0.26673902117E+01 -0.78582599242E+02  0.85895518452E+02  0.00000000000E+00 0.  1.
         22    1    4    4    0    0 -0.93337964180E+01 -0.26113826112E+01 -0.11131769706E+02  0.14759924509E+02  0.00000000000E+00 0.  1.
<mgrwt>
<rscale>  0 0.90938253E+02</rscale>
<asrwt>0</asrwt>
<pdfrwt beam="1">  1        1 0.19520355E-02 0.90938253E+02</pdfrwt>
<pdfrwt beam="2">  1       -1 0.25067948E-01 0.90938253E+02</pdfrwt>
<totfact> 0.73815102E+04</totfact>
</mgrwt>
</event>
<event>
 7    1  0.2911475E-009  0.8900466E+02  0.7818608E-02  0.1305280E+00
          1   -1    0    0  501    0  0.00000000000E+00  0.00000000000E+00  0.45979254565E+02  0.45979254842E+02  0.50400000000E-02 0. -1.
         -1   -1    0    0    0  501 -0.00000000000E+00 -0.00000000000E+00 -0.43072841177E+02  0.43072841472E+02  0.50400000000E-02 0.  1.
         23    2    1    2    0    0 -0.35527136788E-14  0.00000000000E+00  0.29064133879E+01  0.89052096314E+02  0.89004655042E+02 0.  0.
    9000005    2    3    3    0    0  0.23734783256E+02 -0.32948183545E+02 -0.13302217129E+02  0.45329762910E+02  0.15129960006E+02 0.  0.
         22    1    3    3    0    0 -0.23734783256E+02  0.32948183545E+02  0.16208630517E+02  0.43722333404E+02  0.00000000000E+00 0. -1.
         22    1    4    4    0    0 -0.11542787577E+01 -0.48635519031E+01 -0.46324391524E+01  0.68151294240E+01  0.00000000000E+00 0. -1.
         22    1    4    4    0    0  0.24889062013E+02 -0.28084631642E+02 -0.86697779762E+01  0.38514633485E+02  0.00000000000E+00 0. -1.
<mgrwt>
<rscale>  0 0.89004655E+02</rscale>
<asrwt>0</asrwt>
<pdfrwt beam="1">  1        1 0.70737315E-02 0.89004655E+02</pdfrwt>
<pdfrwt beam="2">  1       -1 0.66265911E-02 0.89004655E+02</pdfrwt>
<totfact> 0.99053141E+04</totfact>
</mgrwt>
</event>
<event>
 7    1  0.2911475E-009  0.9340338E+02  0.7818608E-02  0.1294813E+00
          1   -1    0    0  501    0  0.00000000000E+00  0.00000000000E+00  0.22493048051E+02  0.22493048615E+02  0.50400000000E-02 0. -1.
         -1   -1    0    0    0  501 -0.00000000000E+00 -0.00000000000E+00 -0.96965426910E+02  0.96965427041E+02  0.50400000000E-02 0.  1.
         23    2    1    2    0    0  0.00000000000E+00  0.71054273576E-14 -0.74472378859E+02  0.11945847566E+03  0.93403384270E+02 0.  0.
    9000005    2    3    3    0    0 -0.32673324199E+02 -0.32460674463E+02 -0.45088575539E+02  0.64826530804E+02  0.69467943032E+01 0.  0.
         22    1    3    3    0    0  0.32673324199E+02  0.32460674463E+02 -0.29383803321E+02  0.54631944853E+02  0.00000000000E+00 0. -1.
         22    1    4    4    0    0 -0.81128309081E+01 -0.73723856678E+01 -0.69068153164E+01  0.12956627400E+02  0.00000000000E+00 0.  1.
         22    1    4    4    0    0 -0.24560493291E+02 -0.25088288796E+02 -0.38181760222E+02  0.51869903403E+02  0.00000000000E+00 0.  1.
<mgrwt>
<rscale>  0 0.93403384E+02</rscale>
<asrwt>0</asrwt>
<pdfrwt beam="1">  1        1 0.34604690E-02 0.93403384E+02</pdfrwt>
<pdfrwt beam="2">  1       -1 0.14917758E-01 0.93403384E+02</pdfrwt>
<totfact> 0.76902449E+04</totfact>
</mgrwt>
</event>
<event>
 7    1  0.2911475E-009  0.9122872E+02  0.7818608E-02  0.1299903E+00
         -1   -1    0    0    0  501 -0.00000000000E+00  0.00000000000E+00  0.82006124339E+00  0.82007673086E+00  0.50400000000E-02 0.  1.
          1   -1    0    0  501    0  0.00000000000E+00 -0.00000000000E+00 -0.25371886263E+04  0.25371886264E+04  0.50400000000E-02 0. -1.
         23    2    1    2    0    0  0.17763568394E-14 -0.44408920985E-15 -0.25363685651E+04  0.25380087031E+04  0.91228717401E+02 0.  0.
    9000005    2    3    3    0    0 -0.12901524286E+02  0.25775315163E+01 -0.24815902297E+04  0.24816725776E+04  0.15349970492E+02 0.  0.
         22    1    3    3    0    0  0.12901524286E+02 -0.25775315163E+01 -0.54778335435E+02  0.56336125449E+02  0.00000000000E+00 0.  1.
         22    1    4    4    0    0 -0.89799127367E+01  0.85099729714E+01 -0.18717348831E+04  0.18717757694E+04  0.00000000000E+00 0.  1.
         22    1    4    4    0    0 -0.39216115489E+01 -0.59324414551E+01 -0.60985534662E+03  0.60989680824E+03  0.00000000000E+00 0.  1.
<mgrwt>
<rscale>  0 0.91228717E+02</rscale>
<asrwt>0</asrwt>
<pdfrwt beam="2">  1        1 0.39033043E+00 0.91228717E+02</pdfrwt>
<pdfrwt beam="1">  1       -1 0.12616649E-03 0.91228717E+02</pdfrwt>
<totfact> 0.50438615E+04</totfact>
</mgrwt>
</event>
<event>
 7    1  0.2911475E-009  0.9143588E+02  0.7818608E-02  0.1299411E+00
         -1   -1    0    0    0  501 -0.00000000000E+00  0.00000000000E+00  0.50847771467E+02  0.50847771717E+02  0.50400000000E-02 0.  1.
          1   -1    0    0  501    0  0.00000000000E+00 -0.00000000000E+00 -0.41105634903E+02  0.41105635212E+02  0.50400000000E-02 0. -1.
         23    2    1    2    0    0  0.22204460493E-15  0.00000000000E+00  0.97421365646E+01  0.91953406929E+02  0.91435878193E+02 0.  0.
    9000005    2    3    3    0    0  0.17756473437E+01  0.36122939905E+02  0.32585945902E+02  0.49176551786E+02  0.69620158232E+01 0.  0.
         22    1    3    3    0    0 -0.17756473437E+01 -0.36122939905E+02 -0.22843809338E+02  0.42776855143E+02  0.00000000000E+00 0. -1.
         22    1    4    4    0    0 -0.11335525876E+01  0.21484397050E+02  0.15659361711E+02  0.26609770146E+02  0.00000000000E+00 0.  1.
         22    1    4    4    0    0  0.29091999313E+01  0.14638542855E+02  0.16926584191E+02  0.22566781639E+02  0.00000000000E+00 0.  1.
<mgrwt>
<rscale>  0 0.91435878E+02</rscale>
<asrwt>0</asrwt>
<pdfrwt beam="2">  1        1 0.63239439E-02 0.91435878E+02</pdfrwt>
<pdfrwt beam="1">  1       -1 0.78227341E-02 0.91435878E+02</pdfrwt>
<totfact> 0.90312991E+04</totfact>
</mgrwt>
</event>
<event>
 7    1  0.2911475E-009  0.9174909E+02  0.7818608E-02  0.1298670E+00
          1   -1    0    0  501    0  0.00000000000E+00  0.00000000000E+00  0.35570822063E+02  0.35570822420E+02  0.50400000000E-02 0. -1.
         -1   -1    0    0    0  501 -0.00000000000E+00 -0.00000000000E+00 -0.59162927186E+02  0.59162927400E+02  0.50400000000E-02 0.  1.
         23    2    1    2    0    0  0.71054273576E-14  0.00000000000E+00 -0.23592105122E+02  0.94733749820E+02  0.91749092262E+02 0.  0.
    9000005    2    3    3    0    0 -0.40367284252E+02 -0.13882766601E+01  0.98334835611E+01  0.42305561516E+02  0.78497252363E+01 0.  0.
         22    1    3    3    0    0  0.40367284252E+02  0.13882766601E+01 -0.33425588683E+02  0.52428188304E+02  0.00000000000E+00 0.  1.
         22    1    4    4    0    0 -0.18298239085E+02  0.31962185882E+01  0.52652462282E+01  0.19307101925E+02  0.00000000000E+00 0. -1.
         22    1    4    4    0    0 -0.22069045167E+02 -0.45844952483E+01  0.45682373329E+01  0.22998459592E+02  0.00000000000E+00 0. -1.
<mgrwt>
<rscale>  0 0.91749092E+02</rscale>
<asrwt>0</asrwt>
<pdfrwt beam="1">  1        1 0.54724342E-02 0.91749092E+02</pdfrwt>
<pdfrwt beam="2">  1       -1 0.91019888E-02 0.91749092E+02</pdfrwt>
<totfact> 0.87475066E+04</totfact>
</mgrwt>
</event>
<event>
 7    1  0.2911475E-009  0.1055054E+03  0.7818608E-02  0.1269127E+00
         -1   -1    0    0    0  501 -0.00000000000E+00  0.00000000000E+00  0.83828011977E+01  0.83828027128E+01  0.50400000000E-02 0.  1.
          1   -1    0    0  501    0  0.00000000000E+00 -0.00000000000E+00 -0.33197126405E+03  0.33197126409E+03  0.50400000000E-02 0. -1.
         23    2    1    2    0    0  0.00000000000E+00  0.00000000000E+00 -0.32358846285E+03  0.34035406680E+03  0.10550543823E+03 0.  0.
    9000005    2    3    3    0    0 -0.47714380329E+02 -0.13072105538E+02 -0.21806186670E+03  0.22380620312E+03  0.95234874199E+01 0.  0.
         22    1    3    3    0    0  0.47714380329E+02  0.13072105538E+02 -0.10552659616E+03  0.11654786369E+03  0.00000000000E+00 0.  1.
         22    1    4    4    0    0 -0.11393364155E+02 -0.38916359711E+01 -0.37012111577E+02  0.38921073735E+02  0.00000000000E+00 0.  1.
         22    1    4    4    0    0 -0.36321016174E+02 -0.91804695672E+01 -0.18104975512E+03  0.18488512938E+03  0.00000000000E+00 0.  1.
<mgrwt>
<rscale>  0 0.10550544E+03</rscale>
<asrwt>0</asrwt>
<pdfrwt beam="2">  1        1 0.51072492E-01 0.10550544E+03</pdfrwt>
<pdfrwt beam="1">  1       -1 0.12896621E-02 0.10550544E+03</pdfrwt>
<totfact> 0.88281184E+04</totfact>
</mgrwt>
</event>
<event>
 7    1  0.2911475E-009  0.9188106E+02  0.7818608E-02  0.1298359E+00
          1   -1    0    0  501    0  0.00000000000E+00  0.00000000000E+00  0.17756942239E+03  0.17756942246E+03  0.50400000000E-02 0. -1.
         -1   -1    0    0    0  501 -0.00000000000E+00 -0.00000000000E+00 -0.11885673178E+02  0.11885674247E+02  0.50400000000E-02 0.  1.
         23    2    1    2    0    0  0.00000000000E+00  0.88817841970E-15  0.16568374921E+03  0.18945509671E+03  0.91881058526E+02 0.  0.
    9000005    2    3    3    0    0  0.22310771674E+02 -0.47543125320E+01  0.16451279972E+03  0.16661335546E+03  0.13235366502E+02 0.  0.
         22    1    3    3    0    0 -0.22310771674E+02  0.47543125320E+01  0.11709494902E+01  0.22841741244E+02  0.00000000000E+00 0.  1.
         22    1    4    4    0    0  0.10940979310E+02  0.89742806493E+00  0.40811841290E+02  0.42262475021E+02  0.00000000000E+00 0.  1.
         22    1    4    4    0    0  0.11369792364E+02 -0.56517405969E+01  0.12370095843E+03  0.12435088044E+03  0.00000000000E+00 0.  1.
<mgrwt>
<rscale>  0 0.91881059E+02</rscale>
<asrwt>0</asrwt>
<pdfrwt beam="1">  1        1 0.27318371E-01 0.91881059E+02</pdfrwt>
<pdfrwt beam="2">  1       -1 0.18285653E-02 0.91881059E+02</pdfrwt>
<totfact> 0.11335356E+05</totfact>
</mgrwt>
</event>
<event>
 7    1  0.2911475E-009  0.9696052E+02  0.7818608E-02  0.1286821E+00
         -1   -1    0    0    0  501 -0.00000000000E+00  0.00000000000E+00  0.36716864490E+02  0.36716864836E+02  0.50400000000E-02 0.  1.
          1   -1    0    0  501    0  0.00000000000E+00 -0.00000000000E+00 -0.64012421904E+02  0.64012422103E+02  0.50400000000E-02 0. -1.
         23    2    1    2    0    0  0.71054273576E-14  0.00000000000E+00 -0.27295557414E+02  0.10072928694E+03  0.96960516669E+02 0.  0.
    9000005    2    3    3    0    0 -0.44668090178E+02  0.87852348109E+01 -0.27211670752E+02  0.55205384780E+02  0.15321254933E+02 0.  0.
         22    1    3    3    0    0  0.44668090178E+02 -0.87852348109E+01 -0.83886661565E-01  0.45523902159E+02  0.00000000000E+00 0.  1.
         22    1    4    4    0    0 -0.31729254550E+02  0.12640322915E+02 -0.16291669885E+02  0.37841007721E+02  0.00000000000E+00 0. -1.
         22    1    4    4    0    0 -0.12938835628E+02 -0.38550881043E+01 -0.10920000868E+02  0.17364377059E+02  0.00000000000E+00 0. -1.
<mgrwt>
<rscale>  0 0.96960517E+02</rscale>
<asrwt>0</asrwt>
<pdfrwt beam="2">  1        1 0.98480649E-02 0.96960517E+02</pdfrwt>
<pdfrwt beam="1">  1       -1 0.56487485E-02 0.96960517E+02</pdfrwt>
<totfact> 0.82019024E+04</totfact>
</mgrwt>
</event>
<event>
 7    1  0.2911475E-009  0.8814135E+02  0.7818608E-02  0.1307416E+00
          1   -1    0    0  501    0  0.00000000000E+00  0.00000000000E+00  0.31037322550E+02  0.31037322959E+02  0.50400000000E-02 0. -1.
         -1   -1    0    0    0  501 -0.00000000000E+00 -0.00000000000E+00 -0.62577057415E+02  0.62577057618E+02  0.50400000000E-02 0.  1.
         23    2    1    2    0    0  0.35527136788E-14  0.00000000000E+00 -0.31539734865E+02  0.93614380577E+02  0.88141348841E+02 0.  0.
    9000005    2    3    3    0    0  0.23957790519E+02 -0.15523250867E+02 -0.50427312742E+02  0.59384457379E+02  0.12986641744E+02 0.  0.
         22    1    3    3    0    0 -0.23957790519E+02  0.15523250867E+02  0.18887577877E+02  0.34229923198E+02  0.00000000000E+00 0. -1.
         22    1    4    4    0    0  0.98107298311E+01 -0.13208954268E+02 -0.32525239561E+02  0.36450214007E+02  0.00000000000E+00 0.  1.
         22    1    4    4    0    0  0.14147060688E+02 -0.23142965991E+01 -0.17902073181E+02  0.22934243372E+02  0.00000000000E+00 0.  1.
<mgrwt>
<rscale>  0 0.88141349E+02</rscale>
<asrwt>0</asrwt>
<pdfrwt beam="1">  1        1 0.47749728E-02 0.88141349E+02</pdfrwt>
<pdfrwt beam="2">  1       -1 0.96272396E-02 0.88141349E+02</pdfrwt>
<totfact> 0.96000145E+04</totfact>
</mgrwt>
</event>
<event>
 7    1  0.2911475E-009  0.9399456E+02  0.7818608E-02  0.1293457E+00
         -1   -1    0    0    0  501 -0.00000000000E+00  0.00000000000E+00  0.25741086653E+02  0.25741087147E+02  0.50400000000E-02 0.  1.
          1   -1    0    0  501    0  0.00000000000E+00 -0.00000000000E+00 -0.85806178929E+02  0.85806179077E+02  0.50400000000E-02 0. -1.
         23    2    1    2    0    0  0.17763568394E-14  0.00000000000E+00 -0.60065092276E+02  0.11154726622E+03  0.93994559906E+02 0.  0.
    9000005    2    3    3    0    0  0.94392409494E+01  0.26997046688E+02  0.13289854071E+02  0.32814249306E+02  0.90672452656E+01 0.  0.
         22    1    3    3    0    0 -0.94392409494E+01 -0.26997046688E+02 -0.73354946346E+02  0.78733016918E+02  0.00000000000E+00 0. -1.
         22    1    4    4    0    0  0.10868412156E+02  0.22590891584E+02  0.94283394572E+01  0.26783658270E+02  0.00000000000E+00 0.  1.
         22    1    4    4    0    0 -0.14291712070E+01  0.44061551036E+01  0.38615146135E+01  0.60305910362E+01  0.00000000000E+00 0.  1.
<mgrwt>
<rscale>  0 0.93994560E+02</rscale>
<asrwt>0</asrwt>
<pdfrwt beam="2">  1        1 0.13200950E-01 0.93994560E+02</pdfrwt>
<pdfrwt beam="1">  1       -1 0.39601673E-02 0.93994560E+02</pdfrwt>
<totfact> 0.93703128E+04</totfact>
</mgrwt>
</event>
<event>
 6    1  0.2911475E-009  0.1641123E+03  0.7818608E-02  0.1184131E+00
          1   -1    0    0  501    0  0.00000000000E+00  0.00000000000E+00  0.21749450085E+03  0.21749450090E+03  0.50400000000E-02 0. -1.
         -1   -1    0    0    0  501 -0.00000000000E+00 -0.00000000000E+00 -0.30958079084E+02  0.30958079494E+02  0.50400000000E-02 0.  1.
    9000005    2    1    2    0    0  0.73715592211E+02  0.28285270761E+02  0.62110384289E+02  0.10108947824E+03  0.11284400604E+02 0.  0.
         22    1    1    2    0    0 -0.73715592211E+02 -0.28285270761E+02  0.12442603747E+03  0.14736310216E+03  0.00000000000E+00 0. -1.
         22    1    3    3    0    0  0.43642003790E+02  0.16169010543E+02  0.29492563774E+02  0.55098754203E+02  0.00000000000E+00 0. -1.
         22    1    3    3    0    0  0.30073588421E+02  0.12116260218E+02  0.32617820515E+02  0.45990724036E+02  0.00000000000E+00 0. -1.
<mgrwt>
<rscale>  0 0.16411230E+03</rscale>
<asrwt>0</asrwt>
<pdfrwt beam="1">  1        1 0.33460693E-01 0.16411230E+03</pdfrwt>
<pdfrwt beam="2">  1       -1 0.47627813E-02 0.16411230E+03</pdfrwt>
<totfact> 0.23599980E+04</totfact>
</mgrwt>
</event>
<event>
 7    1  0.2911475E-009  0.9317352E+02  0.7818608E-02  0.1295344E+00
         -1   -1    0    0    0  501 -0.00000000000E+00  0.00000000000E+00  0.26241593807E+02  0.26241594291E+02  0.50400000000E-02 0.  1.
          1   -1    0    0  501    0  0.00000000000E+00 -0.00000000000E+00 -0.82705574007E+02  0.82705574160E+02  0.50400000000E-02 0. -1.
         23    2    1    2    0    0  0.00000000000E+00  0.71054273576E-14 -0.56463980200E+02  0.10894716845E+03  0.93173517983E+02 0.  0.
    9000005    2    3    3    0    0  0.11209786761E+02 -0.44485957880E+02 -0.18843290479E+02  0.49617782284E+02  0.14815380568E+01 0.  0.
         22    1    3    3    0    0 -0.11209786761E+02  0.44485957880E+02 -0.37620689721E+02  0.59329386166E+02  0.00000000000E+00 0. -1.
         22    1    4    4    0    0  0.95746084415E+01 -0.35991062709E+02 -0.15623651527E+02  0.40387228288E+02  0.00000000000E+00 0. -1.
         22    1    4    4    0    0  0.16351783195E+01 -0.84948951708E+01 -0.32196389519E+01  0.92305539964E+01  0.00000000000E+00 0. -1.
<mgrwt>
<rscale>  0 0.93173518E+02</rscale>
<asrwt>0</asrwt>
<pdfrwt beam="2">  1        1 0.12723934E-01 0.93173518E+02</pdfrwt>
<pdfrwt beam="1">  1       -1 0.40371684E-02 0.93173518E+02</pdfrwt>
<totfact> 0.95422516E+04</totfact>
</mgrwt>
</event>
<event>
 7    1  0.2911475E-009  0.8533293E+02  0.7818608E-02  0.1314564E+00
         -1   -1    0    0    0  501 -0.00000000000E+00  0.00000000000E+00  0.69073700789E+01  0.69073719176E+01  0.50400000000E-02 0.  1.
          1   -1    0    0  501    0  0.00000000000E+00 -0.00000000000E+00 -0.26354848738E+03  0.26354848742E+03  0.50400000000E-02 0. -1.
         23    2    1    2    0    0 -0.71054273576E-14  0.35527136788E-14 -0.25664111730E+03  0.27045585934E+03  0.85332928960E+02 0.  0.
    9000005    2    3    3    0    0  0.32768448951E+02 -0.23696277582E+02 -0.93470357977E+02  0.10234880561E+03  0.10162941068E+02 0.  0.
         22    1    3    3    0    0 -0.32768448951E+02  0.23696277582E+02 -0.16317075932E+03  0.16810705373E+03  0.00000000000E+00 0. -1.
         22    1    4    4    0    0  0.35366623705E+01 -0.32297611693E+00 -0.14929401242E+02  0.15345986959E+02  0.00000000000E+00 0. -1.
         22    1    4    4    0    0  0.29231786581E+02 -0.23373301465E+02 -0.78540956734E+02  0.87002818649E+02  0.00000000000E+00 0. -1.
<mgrwt>
<rscale>  0 0.85332929E+02</rscale>
<asrwt>0</asrwt>
<pdfrwt beam="2">  1        1 0.40545914E-01 0.85332929E+02</pdfrwt>
<pdfrwt beam="1">  1       -1 0.10626727E-02 0.85332929E+02</pdfrwt>
<totfact> 0.14901330E+05</totfact>
</mgrwt>
</event>
<event>
 7    1  0.2911475E-009  0.9249481E+02  0.7818608E-02  0.1296920E+00
         -1   -1    0    0    0  501 -0.00000000000E+00  0.00000000000E+00  0.23385725547E+02  0.23385726090E+02  0.50400000000E-02 0.  1.
          1   -1    0    0  501    0  0.00000000000E+00 -0.00000000000E+00 -0.91458462980E+02  0.91458463119E+02  0.50400000000E-02 0. -1.
         23    2    1    2    0    0  0.00000000000E+00  0.00000000000E+00 -0.68072737433E+02  0.11484418921E+03  0.92494811819E+02 0.  0.
    9000005    2    3    3    0    0  0.65402521292E+01  0.42729202103E+02 -0.52677471911E+02  0.68957657299E+02  0.10568010361E+02 0.  0.
         22    1    3    3    0    0 -0.65402521292E+01 -0.42729202103E+02 -0.15395265522E+02  0.45886531910E+02  0.00000000000E+00 0.  1.
         22    1    4    4    0    0  0.26073714541E+01  0.72562989039E+01 -0.16109083777E+02  0.17859306812E+02  0.00000000000E+00 0. -1.
         22    1    4    4    0    0  0.39328806751E+01  0.35472903199E+02 -0.36568388134E+02  0.51098350487E+02  0.00000000000E+00 0. -1.
<mgrwt>
<rscale>  0 0.92494812E+02</rscale>
<asrwt>0</asrwt>
<pdfrwt beam="2">  1        1 0.14070533E-01 0.92494812E+02</pdfrwt>
<pdfrwt beam="1">  1       -1 0.35978040E-02 0.92494812E+02</pdfrwt>
<totfact> 0.98962166E+04</totfact>
</mgrwt>
</event>
<event>
 7    1  0.2911475E-009  0.8734009E+02  0.7818608E-02  0.1309424E+00
          1   -1    0    0  501    0  0.00000000000E+00  0.00000000000E+00  0.96851001980E+01  0.96851015094E+01  0.50400000000E-02 0. -1.
         -1   -1    0    0    0  501 -0.00000000000E+00 -0.00000000000E+00 -0.19690791365E+03  0.19690791372E+03  0.50400000000E-02 0.  1.
         23    2    1    2    0    0  0.71054273576E-14  0.00000000000E+00 -0.18722281345E+03  0.20659301523E+03  0.87340094244E+02 0.  0.
    9000005    2    3    3    0    0  0.38433725901E+02 -0.13662317141E+02 -0.12932836006E+03  0.13577227017E+03  0.66689156107E+01 0.  0.
         22    1    3    3    0    0 -0.38433725901E+02  0.13662317141E+02 -0.57894453392E+02  0.70820745053E+02  0.00000000000E+00 0.  1.
         22    1    4    4    0    0  0.13204778958E+02 -0.63474382213E+01 -0.37491743276E+02  0.40252788390E+02  0.00000000000E+00 0. -1.
         22    1    4    4    0    0  0.25228946943E+02 -0.73148789193E+01 -0.91836616785E+02  0.95519481782E+02  0.00000000000E+00 0. -1.
<mgrwt>
<rscale>  0 0.87340094E+02</rscale>
<asrwt>0</asrwt>
<pdfrwt beam="1">  1        1 0.14900157E-02 0.87340094E+02</pdfrwt>
<pdfrwt beam="2">  1       -1 0.30293522E-01 0.87340094E+02</pdfrwt>
<totfact> 0.77979371E+04</totfact>
</mgrwt>
</event>
<event>
 7    1  0.2911475E-009  0.9271000E+02  0.7818608E-02  0.1296419E+00
         -1   -1    0    0    0  501 -0.00000000000E+00  0.00000000000E+00  0.31071824402E+02  0.31071824811E+02  0.50400000000E-02 0.  1.
          1   -1    0    0  501    0  0.00000000000E+00 -0.00000000000E+00 -0.69155443419E+02  0.69155443603E+02  0.50400000000E-02 0. -1.
         23    2    1    2    0    0  0.00000000000E+00  0.00000000000E+00 -0.38083619017E+02  0.10022726841E+03  0.92709995665E+02 0.  0.
    9000005    2    3    3    0    0 -0.23281541364E+02  0.33324957915E+02 -0.43028322104E+02  0.59275674098E+02  0.30961344309E+01 0.  0.
         22    1    3    3    0    0  0.23281541364E+02 -0.33324957915E+02  0.49447030870E+01  0.40951594315E+02  0.00000000000E+00 0. -1.
         22    1    4    4    0    0 -0.12621626235E+01  0.15340476591E+01 -0.12535061959E+01  0.23489645573E+01  0.00000000000E+00 0.  1.
         22    1    4    4    0    0 -0.22019378741E+02  0.31790910256E+02 -0.41774815908E+02  0.56926709541E+02  0.00000000000E+00 0.  1.
<mgrwt>
<rscale>  0 0.92709996E+02</rscale>
<asrwt>0</asrwt>
<pdfrwt beam="2">  1        1 0.10639299E-01 0.92709996E+02</pdfrwt>
<pdfrwt beam="1">  1       -1 0.47802807E-02 0.92709996E+02</pdfrwt>
<totfact> 0.94044740E+04</totfact>
</mgrwt>
</event>
<event>
 7    1  0.2911475E-009  0.9162568E+02  0.7818608E-02  0.1298962E+00
          1   -1    0    0  501    0  0.00000000000E+00  0.00000000000E+00  0.91356548169E+02  0.91356548308E+02  0.50400000000E-02 0. -1.
         -1   -1    0    0    0  501 -0.00000000000E+00 -0.00000000000E+00 -0.22973898663E+02  0.22973899216E+02  0.50400000000E-02 0.  1.
         23    2    1    2    0    0  0.88817841970E-15  0.35527136788E-14  0.68382649506E+02  0.11433044752E+03  0.91625675865E+02 0.  0.
    9000005    2    3    3    0    0 -0.40907800672E+01 -0.26046950119E+02  0.80573179248E+02  0.85282433695E+02  0.92670486541E+01 0.  0.
         22    1    3    3    0    0  0.40907800672E+01  0.26046950119E+02 -0.12190529742E+02  0.29048013830E+02  0.00000000000E+00 0.  1.
         22    1    4    4    0    0 -0.66198638304E+01 -0.19501498812E+02  0.65384350359E+02  0.68551034456E+02  0.00000000000E+00 0.  1.
         22    1    4    4    0    0  0.25290837632E+01 -0.65454513068E+01  0.15188828888E+02  0.16731399239E+02  0.00000000000E+00 0.  1.
<mgrwt>
<rscale>  0 0.91625676E+02</rscale>
<asrwt>0</asrwt>
<pdfrwt beam="1">  1        1 0.14054854E-01 0.91625676E+02</pdfrwt>
<pdfrwt beam="2">  1       -1 0.35344460E-02 0.91625676E+02</pdfrwt>
<totfact> 0.10153635E+05</totfact>
</mgrwt>
</event>
<event>
 7    1  0.2911475E-009  0.9199624E+02  0.7818608E-02  0.1298088E+00
          1   -1    0    0  501    0  0.00000000000E+00  0.00000000000E+00  0.34980700443E+02  0.34980700806E+02  0.50400000000E-02 0. -1.
         -1   -1    0    0    0  501 -0.00000000000E+00 -0.00000000000E+00 -0.60485556081E+02  0.60485556291E+02  0.50400000000E-02 0.  1.
         23    2    1    2    0    0  0.00000000000E+00 -0.35527136788E-14 -0.25504855638E+02  0.95466257097E+02  0.91996242222E+02 0.  0.
    9000005    2    3    3    0    0  0.25066006761E+02 -0.28785939941E+02  0.11974479621E+02  0.41971999417E+02  0.12701399121E+02 0.  0.
         22    1    3    3    0    0 -0.25066006761E+02  0.28785939941E+02 -0.37479335260E+02  0.53494257680E+02  0.00000000000E+00 0.  1.
         22    1    4    4    0    0  0.66102419380E+01 -0.15136704259E+02  0.90438896695E+01  0.18831013108E+02  0.00000000000E+00 0.  1.
         22    1    4    4    0    0  0.18455764823E+02 -0.13649235682E+02  0.29305899517E+01  0.23140986309E+02  0.00000000000E+00 0.  1.
<mgrwt>
<rscale>  0 0.91996242E+02</rscale>
<asrwt>0</asrwt>
<pdfrwt beam="1">  1        1 0.53816463E-02 0.91996242E+02</pdfrwt>
<pdfrwt beam="2">  1       -1 0.93054702E-02 0.91996242E+02</pdfrwt>
<totfact> 0.86579994E+04</totfact>
</mgrwt>
</event>
<event>
 7    1  0.2911475E-009  0.9003217E+02  0.7818608E-02  0.1302774E+00
          1   -1    0    0  501    0  0.00000000000E+00  0.00000000000E+00  0.92330347038E+01  0.92330360794E+01  0.50400000000E-02 0. -1.
         -1   -1    0    0    0  501 -0.00000000000E+00 -0.00000000000E+00 -0.21947796700E+03  0.21947796705E+03  0.50400000000E-02 0.  1.
         23    2    1    2    0    0  0.00000000000E+00  0.35527136788E-14 -0.21024493229E+03  0.22871100313E+03  0.90032168694E+02 0.  0.
    9000005    2    3    3    0    0 -0.84864094135E+01  0.28743380159E+02 -0.19029965618E+03  0.19271079360E+03  0.50288942251E+01 0.  0.
         22    1    3    3    0    0  0.84864094135E+01 -0.28743380159E+02 -0.19945276110E+02  0.36000209538E+02  0.00000000000E+00 0. -1.
         22    1    4    4    0    0 -0.84632266224E+01  0.21489242462E+02 -0.14051900243E+03  0.14240436717E+03  0.00000000000E+00 0. -1.
         22    1    4    4    0    0 -0.23182791047E-01  0.72541376968E+01 -0.49780653755E+02  0.50306426423E+02  0.00000000000E+00 0. -1.
<mgrwt>
<rscale>  0 0.90032169E+02</rscale>
<asrwt>0</asrwt>
<pdfrwt beam="1">  1        1 0.14204672E-02 0.90032169E+02</pdfrwt>
<pdfrwt beam="2">  1       -1 0.33765837E-01 0.90032169E+02</pdfrwt>
<totfact> 0.69800699E+04</totfact>
</mgrwt>
</event>
<event>
 7    1  0.2911475E-009  0.9101478E+02  0.7818608E-02  0.1300413E+00
         -1   -1    0    0    0  501 -0.00000000000E+00  0.00000000000E+00  0.22590762129E+02  0.22590762691E+02  0.50400000000E-02 0.  1.
          1   -1    0    0  501    0  0.00000000000E+00 -0.00000000000E+00 -0.91671219639E+02  0.91671219778E+02  0.50400000000E-02 0. -1.
         23    2    1    2    0    0  0.00000000000E+00 -0.88817841970E-15 -0.69080457510E+02  0.11426198247E+03  0.91014784666E+02 0.  0.
    9000005    2    3    3    0    0 -0.22077902250E+02  0.66650871630E+01 -0.83601754761E+02  0.87008996788E+02  0.70324226480E+01 0.  0.
         22    1    3    3    0    0  0.22077902250E+02 -0.66650871630E+01  0.14521297251E+02  0.27252985681E+02  0.00000000000E+00 0.  1.
         22    1    4    4    0    0 -0.69302424293E+01 -0.11580005702E+01 -0.26599057506E+02  0.27511435543E+02  0.00000000000E+00 0. -1.
         22    1    4    4    0    0 -0.15147659821E+02  0.78230877331E+01 -0.57002697256E+02  0.59497561245E+02  0.00000000000E+00 0. -1.
<mgrwt>
<rscale>  0 0.91014785E+02</rscale>
<asrwt>0</asrwt>
<pdfrwt beam="2">  1        1 0.14103264E-01 0.91014785E+02</pdfrwt>
<pdfrwt beam="1">  1       -1 0.34755020E-02 0.91014785E+02</pdfrwt>
<totfact> 0.10346999E+05</totfact>
</mgrwt>
</event>
<event>
 7    1  0.2911475E-009  0.9083465E+02  0.7818608E-02  0.1300843E+00
          1   -1    0    0  501    0  0.00000000000E+00  0.00000000000E+00  0.62057335037E+02  0.62057335242E+02  0.50400000000E-02 0.  1.
         -1   -1    0    0    0  501 -0.00000000000E+00 -0.00000000000E+00 -0.33239151508E+02  0.33239151890E+02  0.50400000000E-02 0. -1.
         23    2    1    2    0    0  0.00000000000E+00  0.71054273576E-14  0.28818183529E+02  0.95296487132E+02  0.90834645141E+02 0.  0.
    9000005    2    3    3    0    0 -0.16591334326E+02  0.37786474216E+02  0.33913793789E+02  0.53714576975E+02  0.56586537309E+01 0.  0.
         22    1    3    3    0    0  0.16591334326E+02 -0.37786474216E+02 -0.50956102606E+01  0.41581910157E+02  0.00000000000E+00 0. -1.
         22    1    4    4    0    0 -0.63355131745E+01  0.88629215787E+01  0.10303540086E+02  0.14995100680E+02  0.00000000000E+00 0. -1.
         22    1    4    4    0    0 -0.10255821151E+02  0.28923552637E+02  0.23610253703E+02  0.38719476295E+02  0.00000000000E+00 0. -1.
<mgrwt>
<rscale>  0 0.90834645E+02</rscale>
<asrwt>0</asrwt>
<pdfrwt beam="1">  1        1 0.95472823E-02 0.90834645E+02</pdfrwt>
<pdfrwt beam="2">  1       -1 0.51137157E-02 0.90834645E+02</pdfrwt>
<totfact> 0.97878896E+04</totfact>
</mgrwt>
</event>
<event>
 7    1  0.2911475E-009  0.9199198E+02  0.7818608E-02  0.1298098E+00
          1   -1    0    0  501    0  0.00000000000E+00  0.00000000000E+00  0.60240061020E+02  0.60240061231E+02  0.50400000000E-02 0. -1.
         -1   -1    0    0    0  501 -0.00000000000E+00 -0.00000000000E+00 -0.35119999153E+02  0.35119999515E+02  0.50400000000E-02 0.  1.
         23    2    1    2    0    0  0.00000000000E+00 -0.17763568394E-14  0.25120061867E+02  0.95360060746E+02  0.91991976157E+02 0.  0.
    9000005    2    3    3    0    0  0.24755421402E+02 -0.87896763792E+01 -0.25374238704E+02  0.38441138674E+02  0.11990823706E+02 0.  0.
         22    1    3    3    0    0 -0.24755421402E+02  0.87896763792E+01  0.50494300571E+02  0.56918922071E+02  0.00000000000E+00 0. -1.
         22    1    4    4    0    0  0.16132728800E+02 -0.48689655817E+01 -0.23281981086E+02  0.28740605555E+02  0.00000000000E+00 0.  1.
         22    1    4    4    0    0  0.86226926017E+01 -0.39207107975E+01 -0.20922576179E+01  0.97005331194E+01  0.00000000000E+00 0.  1.
<mgrwt>
<rscale>  0 0.91991976E+02</rscale>
<asrwt>0</asrwt>
<pdfrwt beam="1">  1        1 0.92677016E-02 0.91991976E+02</pdfrwt>
<pdfrwt beam="2">  1       -1 0.54030769E-02 0.91991976E+02</pdfrwt>
<totfact> 0.94074546E+04</totfact>
</mgrwt>
</event>
<event>
 7    1  0.2911475E-009  0.9266695E+02  0.7818608E-02  0.1296519E+00
         -1   -1    0    0    0  501 -0.00000000000E+00  0.00000000000E+00  0.16615232340E+03  0.16615232347E+03  0.50400000000E-02 0.  1.
          1   -1    0    0  501    0  0.00000000000E+00 -0.00000000000E+00 -0.12920619370E+02  0.12920620353E+02  0.50400000000E-02 0. -1.
         23    2    1    2    0    0  0.00000000000E+00  0.35527136788E-14  0.15323170403E+03  0.17907294383E+03  0.92666952532E+02 0.  0.
    9000005    2    3    3    0    0  0.25582916951E+02  0.31597102090E+02  0.11733120336E+03  0.12483542500E+03  0.12822228858E+02 0.  0.
         22    1    3    3    0    0 -0.25582916951E+02 -0.31597102090E+02  0.35900500666E+02  0.54237518825E+02  0.00000000000E+00 0. -1.
         22    1    4    4    0    0  0.17682917809E+02  0.18242056546E+02  0.88738669043E+02  0.92303898037E+02  0.00000000000E+00 0.  1.
         22    1    4    4    0    0  0.78999991416E+01  0.13355045543E+02  0.28592534320E+02  0.32531526966E+02  0.00000000000E+00 0.  1.
<mgrwt>
<rscale>  0 0.92666953E+02</rscale>
<asrwt>0</asrwt>
<pdfrwt beam="2">  1        1 0.19877877E-02 0.92666953E+02</pdfrwt>
<pdfrwt beam="1">  1       -1 0.25561895E-01 0.92666953E+02</pdfrwt>
<totfact> 0.69944816E+04</totfact>
</mgrwt>
</event>
<event>
 7    1  0.2911475E-009  0.8611254E+02  0.7818608E-02  0.1312548E+00
          1   -1    0    0  501    0  0.00000000000E+00  0.00000000000E+00  0.17201785598E+03  0.17201785605E+03  0.50400000000E-02 0. -1.
         -1   -1    0    0    0  501 -0.00000000000E+00 -0.00000000000E+00 -0.10777034163E+02  0.10777035341E+02  0.50400000000E-02 0.  1.
         23    2    1    2    0    0  0.35527136788E-14  0.35527136788E-14  0.16124082181E+03  0.18279489139E+03  0.86112540896E+02 0.  0.
    9000005    2    3    3    0    0 -0.24314361921E+02  0.25151079288E+02  0.13316243693E+03  0.13793777732E+03  0.84161046820E+01 0.  0.
         22    1    3    3    0    0  0.24314361921E+02 -0.25151079288E+02  0.28078384879E+02  0.44857114067E+02  0.00000000000E+00 0.  1.
         22    1    4    4    0    0 -0.75208333979E+01  0.47614557618E+01  0.46291212258E+02  0.47139269492E+02  0.00000000000E+00 0. -1.
         22    1    4    4    0    0 -0.16793528523E+02  0.20389623526E+02  0.86871224676E+02  0.90798507832E+02  0.00000000000E+00 0. -1.
<mgrwt>
<rscale>  0 0.86112541E+02</rscale>
<asrwt>0</asrwt>
<pdfrwt beam="1">  1        1 0.26464287E-01 0.86112541E+02</pdfrwt>
<pdfrwt beam="2">  1       -1 0.16580053E-02 0.86112541E+02</pdfrwt>
<totfact> 0.13406221E+05</totfact>
</mgrwt>
</event>
<event>
 7    1  0.2911475E-009  0.9061463E+02  0.7818608E-02  0.1301370E+00
          1   -1    0    0  501    0  0.00000000000E+00  0.00000000000E+00  0.16401900812E+04  0.16401900812E+04  0.50400000000E-02 0. -1.
         -1   -1    0    0    0  501 -0.00000000000E+00 -0.00000000000E+00 -0.12515284943E+01  0.12515386425E+01  0.50400000000E-02 0.  1.
         23    2    1    2    0    0 -0.17763568394E-14 -0.17763568394E-14  0.16389385527E+04  0.16414416199E+04  0.90614633650E+02 0.  0.
    9000005    2    3    3    0    0  0.51783049186E+01  0.14260988847E+02  0.15921720760E+04  0.15922756358E+04  0.99794842885E+01 0.  0.
         22    1    3    3    0    0 -0.51783049186E+01 -0.14260988847E+02  0.46766476715E+02  0.49165984065E+02  0.00000000000E+00 0.  1.
         22    1    4    4    0    0 -0.12676067048E+01  0.18762135974E+01  0.64450095620E+02  0.64489858347E+02  0.00000000000E+00 0.  1.
         22    1    4    4    0    0  0.64459116234E+01  0.12384775249E+02  0.15277219804E+04  0.15277857774E+04  0.00000000000E+00 0.  1.
<mgrwt>
<rscale>  0 0.90614634E+02</rscale>
<asrwt>0</asrwt>
<pdfrwt beam="1">  1        1 0.25233730E+00 0.90614634E+02</pdfrwt>
<pdfrwt beam="2">  1       -1 0.19254335E-03 0.90614634E+02</pdfrwt>
<totfact> 0.10360009E+05</totfact>
</mgrwt>
</event>
<event>
 7    1  0.2911475E-009  0.9155908E+02  0.7818608E-02  0.1299119E+00
         -1   -1    0    0    0  501 -0.00000000000E+00  0.00000000000E+00  0.65934610782E+01  0.65934630045E+01  0.50400000000E-02 0.  1.
          1   -1    0    0  501    0  0.00000000000E+00 -0.00000000000E+00 -0.31785520875E+03  0.31785520878E+03  0.50400000000E-02 0. -1.
         23    2    1    2    0    0  0.00000000000E+00 -0.71054273576E-14 -0.31126174767E+03  0.32444867179E+03  0.91559079645E+02 0.  0.
    9000005    2    3    3    0    0  0.14822641783E+02 -0.37430892735E+02 -0.23146213080E+03  0.23506880105E+03  0.78638918362E+01 0.  0.
         22    1    3    3    0    0 -0.14822641783E+02  0.37430892735E+02 -0.79799616868E+02  0.89379870735E+02  0.00000000000E+00 0.  1.
         22    1    4    4    0    0  0.10954795702E+02 -0.29435654221E+02 -0.19660418290E+03  0.19909713715E+03  0.00000000000E+00 0. -1.
         22    1    4    4    0    0  0.38678460808E+01 -0.79952385136E+01 -0.34857947903E+02  0.35971663907E+02  0.00000000000E+00 0. -1.
<mgrwt>
<rscale>  0 0.91559080E+02</rscale>
<asrwt>0</asrwt>
<pdfrwt beam="2">  1        1 0.48900790E-01 0.91559080E+02</pdfrwt>
<pdfrwt beam="1">  1       -1 0.10143790E-02 0.91559080E+02</pdfrwt>
<totfact> 0.12809264E+05</totfact>
</mgrwt>
</event>
<event>
 7    1  0.2911475E-009  0.8454776E+02  0.7818608E-02  0.1316619E+00
         -1   -1    0    0    0  501 -0.00000000000E+00  0.00000000000E+00  0.16801239819E+02  0.16801240575E+02  0.50400000000E-02 0.  1.
          1   -1    0    0  501    0  0.00000000000E+00 -0.00000000000E+00 -0.10636602286E+03  0.10636602298E+03  0.50400000000E-02 0. -1.
         23    2    1    2    0    0  0.00000000000E+00  0.00000000000E+00 -0.89564783040E+02  0.12316726355E+03  0.84547764312E+02 0.  0.
    9000005    2    3    3    0    0 -0.46906069359E+01 -0.40886778528E+02 -0.54967098029E+02  0.69401751746E+02  0.10074265618E+02 0.  0.
         22    1    3    3    0    0  0.46906069359E+01  0.40886778528E+02 -0.34597685010E+02  0.53765511807E+02  0.00000000000E+00 0. -1.
         22    1    4    4    0    0  0.25665139948E+01 -0.21572402781E+02 -0.29042486143E+02  0.36268740772E+02  0.00000000000E+00 0.  1.
         22    1    4    4    0    0 -0.72571209307E+01 -0.19314375747E+02 -0.25924611887E+02  0.33133010973E+02  0.00000000000E+00 0.  1.
<mgrwt>
<rscale>  0 0.84547764E+02</rscale>
<asrwt>0</asrwt>
<pdfrwt beam="2">  1        1 0.16364003E-01 0.84547764E+02</pdfrwt>
<pdfrwt beam="1">  1       -1 0.25848063E-02 0.84547764E+02</pdfrwt>
<totfact> 0.12945426E+05</totfact>
</mgrwt>
</event>
<event>
 7    1  0.2911475E-009  0.9101174E+02  0.7818608E-02  0.1300420E+00
          1   -1    0    0  501    0  0.00000000000E+00  0.00000000000E+00  0.52692102645E+01  0.52692126749E+01  0.50400000000E-02 0. -1.
         -1   -1    0    0    0  501 -0.00000000000E+00 -0.00000000000E+00 -0.39299701465E+03  0.39299701469E+03  0.50400000000E-02 0.  1.
         23    2    1    2    0    0  0.35527136788E-14  0.00000000000E+00 -0.38772780439E+03  0.39826622736E+03  0.91011744076E+02 0.  0.
    9000005    2    3    3    0    0  0.27965887993E+02 -0.26674091954E+02 -0.29795441991E+03  0.30052750099E+03  0.68076744294E+01 0.  0.
         22    1    3    3    0    0 -0.27965887993E+02  0.26674091954E+02 -0.89773384478E+02  0.97738726375E+02  0.00000000000E+00 0. -1.
         22    1    4    4    0    0  0.20714889283E+01 -0.12929623885E+00 -0.11929347640E+02  0.12108555612E+02  0.00000000000E+00 0.  1.
         22    1    4    4    0    0  0.25894399065E+02 -0.26544795715E+02 -0.28602507227E+03  0.28841894537E+03  0.00000000000E+00 0.  1.
<mgrwt>
<rscale>  0 0.91011744E+02</rscale>
<asrwt>0</asrwt>
<pdfrwt beam="1">  1        1 0.81064823E-03 0.91011744E+02</pdfrwt>
<pdfrwt beam="2">  1       -1 0.60461056E-01 0.91011744E+02</pdfrwt>
<totfact> 0.54019698E+04</totfact>
</mgrwt>
</event>
<event>
 7    1  0.2911475E-009  0.9102122E+02  0.7818608E-02  0.1300397E+00
         -1   -1    0    0    0  501 -0.00000000000E+00  0.00000000000E+00  0.53836629316E+01  0.53836652908E+01  0.50400000000E-02 0.  1.
          1   -1    0    0  501    0  0.00000000000E+00 -0.00000000000E+00 -0.38472227253E+03  0.38472227256E+03  0.50400000000E-02 0. -1.
         23    2    1    2    0    0  0.00000000000E+00  0.71054273576E-14 -0.37933860960E+03  0.39010593785E+03  0.91021217398E+02 0.  0.
    9000005    2    3    3    0    0  0.18500575892E+02 -0.39195987526E+02 -0.24035347219E+03  0.24451931358E+03  0.11887235770E+02 0.  0.
         22    1    3    3    0    0 -0.18500575892E+02  0.39195987526E+02 -0.13898513741E+03  0.14558662427E+03  0.00000000000E+00 0. -1.
         22    1    4    4    0    0  0.17897982630E+02 -0.31194895155E+02 -0.17366745424E+03  0.17735231583E+03  0.00000000000E+00 0.  1.
         22    1    4    4    0    0  0.60259326172E+00 -0.80010923714E+01 -0.66686017944E+02  0.67166997752E+02  0.00000000000E+00 0.  1.
<mgrwt>
<rscale>  0 0.91021217E+02</rscale>
<asrwt>0</asrwt>
<pdfrwt beam="2">  1        1 0.59188020E-01 0.91021217E+02</pdfrwt>
<pdfrwt beam="1">  1       -1 0.82825632E-03 0.91021217E+02</pdfrwt>
<totfact> 0.13462914E+05</totfact>
</mgrwt>
</event>
<event>
 7    1  0.2911475E-009  0.6365588E+02  0.7818608E-02  0.1383100E+00
          1   -1    0    0  501    0  0.00000000000E+00  0.00000000000E+00  0.12704680382E+02  0.12704681382E+02  0.50400000000E-02 0. -1.
         -1   -1    0    0    0  501 -0.00000000000E+00 -0.00000000000E+00 -0.79735787589E+02  0.79735787749E+02  0.50400000000E-02 0.  1.
         23    2    1    2    0    0  0.00000000000E+00  0.00000000000E+00 -0.67031107207E+02  0.92440469130E+02  0.63655879537E+02 0.  0.
    9000005    2    3    3    0    0  0.18586571314E+02 -0.35424463507E+01 -0.69956864843E+02  0.73294461267E+02  0.10959267973E+02 0.  0.
         22    1    3    3    0    0 -0.18586571314E+02  0.35424463507E+01  0.29257576353E+01  0.19146007863E+02  0.00000000000E+00 0. -1.
         22    1    4    4    0    0  0.33351067884E+01 -0.44657629335E+01 -0.30050017739E+02  0.30562551300E+02  0.00000000000E+00 0. -1.
         22    1    4    4    0    0  0.15251464526E+02  0.92331658283E+00 -0.39906847104E+02  0.42731909967E+02  0.00000000000E+00 0. -1.
<mgrwt>
<rscale>  0 0.63655880E+02</rscale>
<asrwt>0</asrwt>
<pdfrwt beam="1">  1        1 0.19545663E-02 0.63655880E+02</pdfrwt>
<pdfrwt beam="2">  1       -1 0.12267044E-01 0.63655880E+02</pdfrwt>
<totfact> 0.21106786E+05</totfact>
</mgrwt>
</event>
<event>
 6    1  0.2911475E-009  0.1673176E+03  0.7818608E-02  0.1180674E+00
          1   -1    0    0  501    0  0.00000000000E+00  0.00000000000E+00  0.70453521485E+02  0.70453521666E+02  0.50400000000E-02 0. -1.
         -1   -1    0    0    0  501 -0.00000000000E+00 -0.00000000000E+00 -0.99339183552E+02  0.99339183679E+02  0.50400000000E-02 0.  1.
    9000005    2    1    2    0    0 -0.11478951705E+02  0.72443055818E+02 -0.54107639683E+02  0.92230402495E+02  0.14108430242E+02 0.  0.
         22    1    1    2    0    0  0.11478951705E+02 -0.72443055818E+02  0.25221977616E+02  0.77562302850E+02  0.00000000000E+00 0. -1.
         22    1    3    3    0    0  0.17825642308E+01  0.31821650035E+02 -0.25346222428E+02  0.40721320431E+02  0.00000000000E+00 0.  1.
         22    1    3    3    0    0 -0.13261515935E+02  0.40621405783E+02 -0.28761417254E+02  0.51509082065E+02  0.00000000000E+00 0.  1.
<mgrwt>
<rscale>  0 0.16731761E+03</rscale>
<asrwt>0</asrwt>
<pdfrwt beam="1">  1        1 0.10839003E-01 0.16731761E+03</pdfrwt>
<pdfrwt beam="2">  1       -1 0.15282951E-01 0.16731761E+03</pdfrwt>
<totfact> 0.16998188E+04</totfact>
</mgrwt>
</event>
<event>
 7    1  0.2911475E-009  0.9152477E+02  0.7818608E-02  0.1299201E+00
          1   -1    0    0  501    0  0.00000000000E+00  0.00000000000E+00  0.20580839379E+03  0.20580839386E+03  0.50400000000E-02 0. -1.
         -1   -1    0    0    0  501 -0.00000000000E+00 -0.00000000000E+00 -0.10175464154E+02  0.10175465402E+02  0.50400000000E-02 0.  1.
         23    2    1    2    0    0  0.00000000000E+00  0.00000000000E+00  0.19563292964E+03  0.21598385926E+03  0.91524774243E+02 0.  0.
    9000005    2    3    3    0    0  0.65791310694E+00  0.45156190495E+02  0.11155768029E+03  0.12054716850E+03  0.68548823409E+01 0.  0.
         22    1    3    3    0    0 -0.65791310694E+00 -0.45156190495E+02  0.84075249353E+02  0.95436690761E+02  0.00000000000E+00 0. -1.
         22    1    4    4    0    0  0.27609540638E+00  0.27081697695E+02  0.57788011919E+02  0.63819659199E+02  0.00000000000E+00 0.  1.
         22    1    4    4    0    0  0.38181770057E+00  0.18074492799E+02  0.53769668368E+02  0.56727509297E+02  0.00000000000E+00 0.  1.
<mgrwt>
<rscale>  0 0.91524774E+02</rscale>
<asrwt>0</asrwt>
<pdfrwt beam="1">  1        1 0.31662827E-01 0.91524774E+02</pdfrwt>
<pdfrwt beam="2">  1       -1 0.15654563E-02 0.91524774E+02</pdfrwt>
<totfact> 0.11785553E+05</totfact>
</mgrwt>
</event>
<event>
 7    1  0.2911475E-009  0.9006540E+02  0.7818608E-02  0.1302693E+00
          1   -1    0    0  501    0  0.00000000000E+00  0.00000000000E+00  0.14678318419E+03  0.14678318427E+03  0.50400000000E-02 0. -1.
         -1   -1    0    0    0  501 -0.00000000000E+00 -0.00000000000E+00 -0.13815913676E+02  0.13815914596E+02  0.50400000000E-02 0.  1.
         23    2    1    2    0    0  0.00000000000E+00  0.00000000000E+00  0.13296727051E+03  0.16059909887E+03  0.90065395854E+02 0.  0.
    9000005    2    3    3    0    0 -0.55852399864E+01 -0.31840224405E+02  0.12185407453E+03  0.12641580001E+03  0.93565066652E+01 0.  0.
         22    1    3    3    0    0  0.55852399864E+01  0.31840224405E+02  0.11113195981E+02  0.34183298858E+02  0.00000000000E+00 0.  1.
         22    1    4    4    0    0 -0.64824958322E+01 -0.12407704839E+02  0.57917124559E+02  0.59584957907E+02  0.00000000000E+00 0. -1.
         22    1    4    4    0    0  0.89725584588E+00 -0.19432519566E+02  0.63936949969E+02  0.66830842102E+02  0.00000000000E+00 0. -1.
<mgrwt>
<rscale>  0 0.90065396E+02</rscale>
<asrwt>0</asrwt>
<pdfrwt beam="1">  1        1 0.22582029E-01 0.90065396E+02</pdfrwt>
<pdfrwt beam="2">  1       -1 0.21255252E-02 0.90065396E+02</pdfrwt>
<totfact> 0.11544168E+05</totfact>
</mgrwt>
</event>
<event>
 7    1  0.2911475E-009  0.9308302E+02  0.7818608E-02  0.1295553E+00
          1   -1    0    0  501    0  0.00000000000E+00  0.00000000000E+00  0.20740197890E+03  0.20740197896E+03  0.50400000000E-02 0. -1.
         -1   -1    0    0    0  501 -0.00000000000E+00 -0.00000000000E+00 -0.10444028571E+02  0.10444029787E+02  0.50400000000E-02 0.  1.
         23    2    1    2    0    0 -0.35527136788E-14  0.00000000000E+00  0.19695795033E+03  0.21784600875E+03  0.93083023855E+02 0.  0.
    9000005    2    3    3    0    0 -0.20452737845E+02 -0.29346401033E+02  0.36793907815E+02  0.53736148431E+02  0.15945414921E+02 0.  0.
         22    1    3    3    0    0  0.20452737845E+02  0.29346401033E+02  0.16016404252E+03  0.16410986032E+03  0.00000000000E+00 0. -1.
         22    1    4    4    0    0 -0.20729852374E+02 -0.18436726439E+02  0.22305117633E+02  0.35597161879E+02  0.00000000000E+00 0.  1.
         22    1    4    4    0    0  0.27711452854E+00 -0.10909674594E+02  0.14488790183E+02  0.18138986553E+02  0.00000000000E+00 0.  1.
<mgrwt>
<rscale>  0 0.93083024E+02</rscale>
<asrwt>0</asrwt>
<pdfrwt beam="1">  1        1 0.31907999E-01 0.93083024E+02</pdfrwt>
<pdfrwt beam="2">  1       -1 0.16067736E-02 0.93083024E+02</pdfrwt>
<totfact> 0.11280060E+05</totfact>
</mgrwt>
</event>
<event>
 7    1  0.3096859E-009  0.8963335E+02  0.7818608E-02  0.1303742E+00
         -1   -1    0    0    0  501 -0.00000000000E+00  0.00000000000E+00  0.73154333903E+01  0.73154351264E+01  0.50400000000E-02 0.  1.
          1   -1    0    0  501    0  0.00000000000E+00 -0.00000000000E+00 -0.27456116076E+03  0.27456116081E+03  0.50400000000E-02 0. -1.
         23    2    1    2    0    0  0.00000000000E+00  0.00000000000E+00 -0.26724572737E+03  0.28187659594E+03  0.89633345008E+02 0.  0.
    9000005    2    3    3    0    0 -0.18705917439E+02  0.37325479014E+02 -0.17775980551E+03  0.18313028996E+03  0.13966098869E+02 0.  0.
         22    1    3    3    0    0  0.18705917439E+02 -0.37325479014E+02 -0.89485921868E+02  0.98746305973E+02  0.00000000000E+00 0. -1.
         22    1    4    4    0    0 -0.10567328019E+02  0.19295839131E+02 -0.12194886455E+03  0.12391740553E+03  0.00000000000E+00 0. -1.
         22    1    4    4    0    0 -0.81385894206E+01  0.18029639883E+02 -0.55810940960E+02  0.59212884433E+02  0.00000000000E+00 0. -1.
<mgrwt>
<rscale>  0 0.89633345E+02</rscale>
<asrwt>0</asrwt>
<pdfrwt beam="2">  1        1 0.42240171E-01 0.89633345E+02</pdfrwt>
<pdfrwt beam="1">  1       -1 0.11254516E-02 0.89633345E+02</pdfrwt>
<totfact> 0.13181355E+05</totfact>
</mgrwt>
</event>
<event>
 7    1  0.2911475E-009  0.9117651E+02  0.7818608E-02  0.1300027E+00
         -1   -1    0    0    0  501 -0.00000000000E+00  0.00000000000E+00  0.15542634279E+02  0.15542635096E+02  0.50400000000E-02 0.  1.
          1   -1    0    0  501    0  0.00000000000E+00 -0.00000000000E+00 -0.13371534940E+03  0.13371534950E+03  0.50400000000E-02 0. -1.
         23    2    1    2    0    0  0.00000000000E+00  0.00000000000E+00 -0.11817271513E+03  0.14925798460E+03  0.91176506653E+02 0.  0.
    9000005    2    3    3    0    0  0.41240695736E+02 -0.18296840283E+02 -0.61197165122E+02  0.76582110695E+02  0.91737293572E+01 0.  0.
         22    1    3    3    0    0 -0.41240695736E+02  0.18296840283E+02 -0.56975550003E+02  0.72675873901E+02  0.00000000000E+00 0.  1.
         22    1    4    4    0    0  0.66362818087E+01  0.50159485579E+00 -0.84751601033E+01  0.10775907035E+02  0.00000000000E+00 0.  1.
         22    1    4    4    0    0  0.34604413927E+02 -0.18798435139E+02 -0.52722005019E+02  0.65806203660E+02  0.00000000000E+00 0.  1.
<mgrwt>
<rscale>  0 0.91176507E+02</rscale>
<asrwt>0</asrwt>
<pdfrwt beam="2">  1        1 0.20571592E-01 0.91176507E+02</pdfrwt>
<pdfrwt beam="1">  1       -1 0.23911747E-02 0.91176507E+02</pdfrwt>
<totfact> 0.10981914E+05</totfact>
</mgrwt>
</event>
<event>
 7    1  0.2911475E-009  0.8938150E+02  0.7818608E-02  0.1304356E+00
          1   -1    0    0  501    0  0.00000000000E+00  0.00000000000E+00  0.13804786528E+02  0.13804787448E+02  0.50400000000E-02 0. -1.
         -1   -1    0    0    0  501 -0.00000000000E+00 -0.00000000000E+00 -0.14467903950E+03  0.14467903959E+03  0.50400000000E-02 0.  1.
         23    2    1    2    0    0 -0.35527136788E-14  0.00000000000E+00 -0.13087425297E+03  0.15848382704E+03  0.89381504469E+02 0.  0.
    9000005    2    3    3    0    0 -0.31810035602E+02  0.19648619760E+02 -0.26106088076E+02  0.47243928622E+02  0.12349669370E+02 0.  0.
         22    1    3    3    0    0  0.31810035602E+02 -0.19648619760E+02 -0.10476816490E+03  0.11123989842E+03  0.00000000000E+00 0.  1.
         22    1    4    4    0    0 -0.31327652539E+02  0.17369697271E+02 -0.20734442442E+02  0.41388951427E+02  0.00000000000E+00 0. -1.
         22    1    4    4    0    0 -0.48238306326E+00  0.22789224891E+01 -0.53716456349E+01  0.58549771953E+01  0.00000000000E+00 0. -1.
<mgrwt>
<rscale>  0 0.89381504E+02</rscale>
<asrwt>0</asrwt>
<pdfrwt beam="1">  1        1 0.21238135E-02 0.89381504E+02</pdfrwt>
<pdfrwt beam="2">  1       -1 0.22258313E-01 0.89381504E+02</pdfrwt>
<totfact> 0.79403832E+04</totfact>
</mgrwt>
</event>
<event>
 7    1  0.2911475E-009  0.8968460E+02  0.7818608E-02  0.1303617E+00
         -1   -1    0    0    0  501 -0.00000000000E+00  0.00000000000E+00  0.39822279459E+02  0.39822279778E+02  0.50400000000E-02 0.  1.
          1   -1    0    0  501    0  0.00000000000E+00 -0.00000000000E+00 -0.50495149794E+02  0.50495150045E+02  0.50400000000E-02 0. -1.
         23    2    1    2    0    0 -0.35527136788E-14  0.00000000000E+00 -0.10672870335E+02  0.90317429823E+02  0.89684602740E+02 0.  0.
    9000005    2    3    3    0    0  0.29444529369E+02 -0.15917148942E+02 -0.34103390433E+02  0.49460053350E+02  0.12764000082E+02 0.  0.
         22    1    3    3    0    0 -0.29444529369E+02  0.15917148942E+02  0.23430520098E+02  0.40857376473E+02  0.00000000000E+00 0.  1.
         22    1    4    4    0    0  0.16237940038E+02 -0.13547932957E+02 -0.14259912722E+02  0.25506122694E+02  0.00000000000E+00 0. -1.
         22    1    4    4    0    0  0.13206589332E+02 -0.23692159853E+01 -0.19843477711E+02  0.23953930655E+02  0.00000000000E+00 0. -1.
<mgrwt>
<rscale>  0 0.89684603E+02</rscale>
<asrwt>0</asrwt>
<pdfrwt beam="2">  1        1 0.77684847E-02 0.89684603E+02</pdfrwt>
<pdfrwt beam="1">  1       -1 0.61265045E-02 0.89684603E+02</pdfrwt>
<totfact> 0.98323927E+04</totfact>
</mgrwt>
</event>
<event>
 7    1  0.2911475E-009  0.9171745E+02  0.7818608E-02  0.1298745E+00
         -1   -1    0    0    0  501 -0.00000000000E+00  0.00000000000E+00  0.27941095225E+02  0.27941095680E+02  0.50400000000E-02 0.  1.
          1   -1    0    0  501    0  0.00000000000E+00 -0.00000000000E+00 -0.75266287171E+02  0.75266287339E+02  0.50400000000E-02 0. -1.
         23    2    1    2    0    0  0.35527136788E-14  0.00000000000E+00 -0.47325191945E+02  0.10320738302E+03  0.91717447178E+02 0.  0.
    9000005    2    3    3    0    0 -0.31239453983E+02  0.87242097312E+01 -0.60094349721E+02  0.68349575990E+02  0.28841548214E+01 0.  0.
         22    1    3    3    0    0  0.31239453983E+02 -0.87242097312E+01  0.12769157775E+02  0.34857807029E+02  0.00000000000E+00 0.  1.
         22    1    4    4    0    0 -0.20357986479E+02  0.66141104739E+01 -0.41720723271E+02  0.46891500521E+02  0.00000000000E+00 0. -1.
         22    1    4    4    0    0 -0.10881467504E+02  0.21100992573E+01 -0.18373626449E+02  0.21458075469E+02  0.00000000000E+00 0. -1.
<mgrwt>
<rscale>  0 0.91717447E+02</rscale>
<asrwt>0</asrwt>
<pdfrwt beam="2">  1        1 0.11579429E-01 0.91717447E+02</pdfrwt>
<pdfrwt beam="1">  1       -1 0.42986301E-02 0.91717447E+02</pdfrwt>
<totfact> 0.98172666E+04</totfact>
</mgrwt>
</event>
<event>
 7    1  0.2911475E-009  0.9792813E+02  0.7818608E-02  0.1284714E+00
         -1   -1    0    0    0  501 -0.00000000000E+00  0.00000000000E+00  0.67614861604E+02  0.67614861792E+02  0.50400000000E-02 0.  1.
          1   -1    0    0  501    0  0.00000000000E+00 -0.00000000000E+00 -0.35457876232E+02  0.35457876590E+02  0.50400000000E-02 0. -1.
         23    2    1    2    0    0  0.35527136788E-14  0.00000000000E+00  0.32156985372E+02  0.10307273838E+03  0.97928125119E+02 0.  0.
    9000005    2    3    3    0    0  0.28311456523E+02  0.99275354390E+01 -0.24345520332E+02  0.39099090048E+02  0.59949939105E+01 0.  0.
         22    1    3    3    0    0 -0.28311456523E+02 -0.99275354390E+01  0.56502505704E+02  0.63973648334E+02  0.00000000000E+00 0.  1.
         22    1    4    4    0    0  0.29742247209E+01  0.40601344588E+00 -0.53427571550E+00  0.30489851015E+01  0.00000000000E+00 0.  1.
         22    1    4    4    0    0  0.25337231802E+02  0.95215219931E+01 -0.23811244616E+02  0.36050104946E+02  0.00000000000E+00 0.  1.
<mgrwt>
<rscale>  0 0.97928125E+02</rscale>
<asrwt>0</asrwt>
<pdfrwt beam="2">  1        1 0.54550580E-02 0.97928125E+02</pdfrwt>
<pdfrwt beam="1">  1       -1 0.10402286E-01 0.97928125E+02</pdfrwt>
<totfact> 0.72536286E+04</totfact>
</mgrwt>
</event>
<event>
 7    1  0.2911475E-009  0.9083188E+02  0.7818608E-02  0.1300850E+00
         -1   -1    0    0    0  501 -0.00000000000E+00  0.00000000000E+00  0.24536313010E+01  0.24536364774E+01  0.50400000000E-02 0.  1.
          1   -1    0    0  501    0  0.00000000000E+00 -0.00000000000E+00 -0.84063379142E+03  0.84063379143E+03  0.50400000000E-02 0. -1.
         23    2    1    2    0    0 -0.35527136788E-14  0.00000000000E+00 -0.83818016012E+03  0.84308742791E+03  0.90831879244E+02 0.  0.
    9000005    2    3    3    0    0  0.25573902165E+02  0.16404210867E+02 -0.72820053577E+03  0.72898817122E+03  0.14987023555E+02 0.  0.
         22    1    3    3    0    0 -0.25573902165E+02 -0.16404210867E+02 -0.10997962435E+03  0.11409925669E+03  0.00000000000E+00 0.  1.
         22    1    4    4    0    0  0.18509825977E+02  0.18724821891E+02 -0.54174256405E+03  0.54238200404E+03  0.00000000000E+00 0. -1.
         22    1    4    4    0    0  0.70640761872E+01 -0.23206110242E+01 -0.18645797172E+03  0.18660616717E+03  0.00000000000E+00 0. -1.
<mgrwt>
<rscale>  0 0.90831879E+02</rscale>
<asrwt>0</asrwt>
<pdfrwt beam="2">  1        1 0.12932805E+00 0.90831879E+02</pdfrwt>
<pdfrwt beam="1">  1       -1 0.37748281E-03 0.90831879E+02</pdfrwt>
<totfact> 0.14198867E+05</totfact>
</mgrwt>
</event>
<event>
 7    1  0.2911475E-009  0.9476194E+02  0.7818608E-02  0.1291713E+00
         -1   -1    0    0    0  501 -0.00000000000E+00  0.00000000000E+00  0.67739856204E+01  0.67739874954E+01  0.50400000000E-02 0.  1.
          1   -1    0    0  501    0  0.00000000000E+00 -0.00000000000E+00 -0.33140846542E+03  0.33140846546E+03  0.50400000000E-02 0. -1.
         23    2    1    2    0    0  0.00000000000E+00  0.00000000000E+00 -0.32463447980E+03  0.33818245296E+03  0.94761943897E+02 0.  0.
    9000005    2    3    3    0    0 -0.41324767402E+02  0.15927124459E+02 -0.21206581518E+03  0.21721504433E+03  0.15781502527E+02 0.  0.
         22    1    3    3    0    0  0.41324767402E+02 -0.15927124459E+02 -0.11256866462E+03  0.12096740862E+03  0.00000000000E+00 0.  1.
         22    1    4    4    0    0 -0.29519077829E+00  0.32049967753E+01 -0.70894877211E+01  0.77858832558E+01  0.00000000000E+00 0.  1.
         22    1    4    4    0    0 -0.41029576624E+02  0.12722127684E+02 -0.20497632746E+03  0.20942916108E+03  0.00000000000E+00 0.  1.
<mgrwt>
<rscale>  0 0.94761944E+02</rscale>
<asrwt>0</asrwt>
<pdfrwt beam="2">  1        1 0.50985906E-01 0.94761944E+02</pdfrwt>
<pdfrwt beam="1">  1       -1 0.10421520E-02 0.94761944E+02</pdfrwt>
<totfact> 0.11777251E+05</totfact>
</mgrwt>
</event>
<event>
 7    1  0.2911475E-009  0.9192764E+02  0.7818608E-02  0.1298250E+00
          1   -1    0    0  501    0  0.00000000000E+00  0.00000000000E+00  0.82857792538E+01  0.82857807867E+01  0.50400000000E-02 0. -1.
         -1   -1    0    0    0  501 -0.00000000000E+00 -0.00000000000E+00 -0.25497570559E+03  0.25497570564E+03  0.50400000000E-02 0.  1.
         23    2    1    2    0    0  0.00000000000E+00 -0.71054273576E-14 -0.24668992633E+03  0.26326148642E+03  0.91927637192E+02 0.  0.
    9000005    2    3    3    0    0 -0.75601621698E+01 -0.41814481867E+02 -0.84603574382E+02  0.95697789774E+02  0.13953323032E+02 0.  0.
         22    1    3    3    0    0  0.75601621698E+01  0.41814481867E+02 -0.16208635195E+03  0.16756369665E+03  0.00000000000E+00 0.  1.
         22    1    4    4    0    0 -0.86528973919E+01 -0.13025656579E+02 -0.24835915949E+02  0.29348987778E+02  0.00000000000E+00 0.  1.
         22    1    4    4    0    0  0.10927352221E+01 -0.28788825288E+02 -0.59767658433E+02  0.66348801996E+02  0.00000000000E+00 0.  1.
<mgrwt>
<rscale>  0 0.91927637E+02</rscale>
<asrwt>0</asrwt>
<pdfrwt beam="1">  1        1 0.12747356E-02 0.91927637E+02</pdfrwt>
<pdfrwt beam="2">  1       -1 0.39227026E-01 0.91927637E+02</pdfrwt>
<totfact> 0.62966060E+04</totfact>
</mgrwt>
</event>
<event>
 7    1  0.2911475E-009  0.8951092E+02  0.7818608E-02  0.1304040E+00
         -1   -1    0    0    0  501 -0.00000000000E+00  0.00000000000E+00  0.62590626657E+01  0.62590646949E+01  0.50400000000E-02 0.  1.
          1   -1    0    0  501    0  0.00000000000E+00 -0.00000000000E+00 -0.32002408930E+03  0.32002408934E+03  0.50400000000E-02 0. -1.
         23    2    1    2    0    0  0.88817841970E-15  0.71054273576E-14 -0.31376502664E+03  0.32628315404E+03  0.89510919267E+02 0.  0.
    9000005    2    3    3    0    0 -0.52659418333E+01 -0.42865890046E+02 -0.14740563654E+03  0.15440918467E+03  0.15765784270E+02 0.  0.
         22    1    3    3    0    0  0.52659418333E+01  0.42865890046E+02 -0.16635939010E+03  0.17187396937E+03  0.00000000000E+00 0.  1.
         22    1    4    4    0    0 -0.65039898586E+01 -0.13483437704E+02 -0.70513004216E+02  0.72084594331E+02  0.00000000000E+00 0. -1.
         22    1    4    4    0    0  0.12380480254E+01 -0.29382452343E+02 -0.76892632326E+02  0.82324590340E+02  0.00000000000E+00 0. -1.
<mgrwt>
<rscale>  0 0.89510919E+02</rscale>
<asrwt>0</asrwt>
<pdfrwt beam="2">  1        1 0.49234463E-01 0.89510919E+02</pdfrwt>
<pdfrwt beam="1">  1       -1 0.96293313E-03 0.89510919E+02</pdfrwt>
<totfact> 0.13620954E+05</totfact>
</mgrwt>
</event>
<event>
 7    1  0.2911475E-009  0.9123123E+02  0.7818608E-02  0.1299897E+00
         -1   -1    0    0    0  501 -0.00000000000E+00  0.00000000000E+00  0.14375339174E+03  0.14375339183E+03  0.50400000000E-02 0.  1.
          1   -1    0    0  501    0  0.00000000000E+00 -0.00000000000E+00 -0.14474679869E+02  0.14474680747E+02  0.50400000000E-02 0. -1.
         23    2    1    2    0    0  0.00000000000E+00  0.00000000000E+00  0.12927871187E+03  0.15822807257E+03  0.91231231536E+02 0.  0.
    9000005    2    3    3    0    0  0.32632939847E+02 -0.16503424829E+02  0.10973994104E+03  0.11676682127E+03  0.15948796056E+02 0.  0.
         22    1    3    3    0    0 -0.32632939847E+02  0.16503424829E+02  0.19538770829E+02  0.41461251304E+02  0.00000000000E+00 0. -1.
         22    1    4    4    0    0  0.42718807528E+01 -0.87913946593E+00  0.35577046862E+02  0.35843383138E+02  0.00000000000E+00 0. -1.
         22    1    4    4    0    0  0.28361059094E+02 -0.15624285363E+02  0.74162894179E+02  0.80923438131E+02  0.00000000000E+00 0. -1.
<mgrwt>
<rscale>  0 0.91231232E+02</rscale>
<asrwt>0</asrwt>
<pdfrwt beam="2">  1        1 0.22268739E-02 0.91231232E+02</pdfrwt>
<pdfrwt beam="1">  1       -1 0.22115906E-01 0.91231232E+02</pdfrwt>
<totfact> 0.75410153E+04</totfact>
</mgrwt>
</event>
<event>
 7    1  0.2911475E-009  0.8975766E+02  0.7818608E-02  0.1303440E+00
          1   -1    0    0  501    0  0.00000000000E+00  0.00000000000E+00  0.56649145353E+03  0.56649145356E+03  0.50400000000E-02 0. -1.
         -1   -1    0    0    0  501 -0.00000000000E+00 -0.00000000000E+00 -0.35554080181E+01  0.35554115903E+01  0.50400000000E-02 0.  1.
         23    2    1    2    0    0  0.00000000000E+00  0.00000000000E+00  0.56293604552E+03  0.57004686515E+03  0.89757657737E+02 0.  0.
    9000005    2    3    3    0    0  0.40390739823E+02 -0.46256938932E+01  0.39079804217E+03  0.39317317829E+03  0.14464765914E+02 0.  0.
         22    1    3    3    0    0 -0.40390739823E+02  0.46256938932E+01  0.17213800334E+03  0.17687368686E+03  0.00000000000E+00 0.  1.
         22    1    4    4    0    0  0.22758947917E+02 -0.76369396450E+01  0.26894824485E+03  0.27001750122E+03  0.00000000000E+00 0. -1.
         22    1    4    4    0    0  0.17631791906E+02  0.30112457518E+01  0.12184979732E+03  0.12315567707E+03  0.00000000000E+00 0. -1.
<mgrwt>
<rscale>  0 0.89757658E+02</rscale>
<asrwt>0</asrwt>
<pdfrwt beam="1">  1        1 0.87152558E-01 0.89757658E+02</pdfrwt>
<pdfrwt beam="2">  1       -1 0.54698596E-03 0.89757658E+02</pdfrwt>
<totfact> 0.14699042E+05</totfact>
</mgrwt>
</event>
<event>
 7    1  0.2911475E-009  0.9641527E+02  0.7818608E-02  0.1288020E+00
          1   -1    0    0  501    0  0.00000000000E+00  0.00000000000E+00  0.45503209548E+03  0.45503209551E+03  0.50400000000E-02 0. -1.
         -1   -1    0    0    0  501 -0.00000000000E+00 -0.00000000000E+00 -0.51072779552E+01  0.51072804420E+01  0.50400000000E-02 0.  1.
         23    2    1    2    0    0  0.00000000000E+00  0.00000000000E+00  0.44992481753E+03  0.46013937595E+03  0.96415267852E+02 0.  0.
    9000005    2    3    3    0    0 -0.40669137250E+02 -0.24814803444E+02  0.22566368229E+03  0.23087356958E+03  0.10428539221E+02 0.  0.
         22    1    3    3    0    0  0.40669137250E+02  0.24814803444E+02  0.22426113524E+03  0.22926580637E+03  0.00000000000E+00 0. -1.
         22    1    4    4    0    0 -0.19613844444E+02 -0.10990669013E+02  0.13104313049E+03  0.13295788712E+03  0.00000000000E+00 0.  1.
         22    1    4    4    0    0 -0.21055292807E+02 -0.13824134431E+02  0.94620551801E+02  0.97915682457E+02  0.00000000000E+00 0.  1.
<mgrwt>
<rscale>  0 0.96415268E+02</rscale>
<asrwt>0</asrwt>
<pdfrwt beam="1">  1        1 0.70004966E-01 0.96415268E+02</pdfrwt>
<pdfrwt beam="2">  1       -1 0.78573494E-03 0.96415268E+02</pdfrwt>
<totfact> 0.11857468E+05</totfact>
</mgrwt>
</event>
<event>
 7    1  0.2911475E-009  0.8993860E+02  0.7818608E-02  0.1303000E+00
         -1   -1    0    0    0  501 -0.00000000000E+00  0.00000000000E+00  0.20466256633E+02  0.20466257254E+02  0.50400000000E-02 0.  1.
          1   -1    0    0  501    0  0.00000000000E+00 -0.00000000000E+00 -0.98808393683E+02  0.98808393812E+02  0.50400000000E-02 0. -1.
         23    2    1    2    0    0  0.35527136788E-14 -0.22204460493E-15 -0.78342137050E+02  0.11927465107E+03  0.89938600997E+02 0.  0.
    9000005    2    3    3    0    0 -0.25646150785E+02 -0.19423879459E+01 -0.87407891960E+02  0.92004047239E+02  0.12771343329E+02 0.  0.
         22    1    3    3    0    0  0.25646150785E+02  0.19423879459E+01  0.90657549099E+01  0.27270603827E+02  0.00000000000E+00 0.  1.
         22    1    4    4    0    0 -0.86442870694E+01  0.46504319923E+01 -0.21778154496E+02  0.23888035288E+02  0.00000000000E+00 0.  1.
         22    1    4    4    0    0 -0.17001863715E+02 -0.65928199382E+01 -0.65629737464E+02  0.68116011951E+02  0.00000000000E+00 0.  1.
<mgrwt>
<rscale>  0 0.89938601E+02</rscale>
<asrwt>0</asrwt>
<pdfrwt beam="2">  1        1 0.15201291E-01 0.89938601E+02</pdfrwt>
<pdfrwt beam="1">  1       -1 0.31486550E-02 0.89938601E+02</pdfrwt>
<totfact> 0.10819798E+05</totfact>
</mgrwt>
</event>
<event>
 7    1  0.2911475E-009  0.9042001E+02  0.7818608E-02  0.1301838E+00
         -1   -1    0    0    0  501 -0.00000000000E+00  0.00000000000E+00  0.24577282684E+02  0.24577283201E+02  0.50400000000E-02 0.  1.
          1   -1    0    0  501    0  0.00000000000E+00 -0.00000000000E+00 -0.83163965620E+02  0.83163965773E+02  0.50400000000E-02 0. -1.
         23    2    1    2    0    0  0.00000000000E+00  0.00000000000E+00 -0.58586682937E+02  0.10774124897E+03  0.90420005048E+02 0.  0.
    9000005    2    3    3    0    0  0.38117726057E+02  0.11878850952E+02 -0.82485498551E+01  0.43491768184E+02  0.15146853975E+02 0.  0.
         22    1    3    3    0    0 -0.38117726057E+02 -0.11878850952E+02 -0.50338133081E+02  0.64249480790E+02  0.00000000000E+00 0. -1.
         22    1    4    4    0    0  0.25811612377E+02  0.27242928526E+01 -0.10483148535E+02  0.27992097247E+02  0.00000000000E+00 0.  1.
         22    1    4    4    0    0  0.12306113680E+02  0.91545580992E+01  0.22345986800E+01  0.15499670937E+02  0.00000000000E+00 0.  1.
<mgrwt>
<rscale>  0 0.90420005E+02</rscale>
<asrwt>0</asrwt>
<pdfrwt beam="2">  1        1 0.12794456E-01 0.90420005E+02</pdfrwt>
<pdfrwt beam="1">  1       -1 0.37811205E-02 0.90420005E+02</pdfrwt>
<totfact> 0.10370538E+05</totfact>
</mgrwt>
</event>
<event>
 7    1  0.2911475E-009  0.9180273E+02  0.7818608E-02  0.1298544E+00
          1   -1    0    0  501    0  0.00000000000E+00  0.00000000000E+00  0.50715329870E+02  0.50715330121E+02  0.50400000000E-02 0. -1.
         -1   -1    0    0    0  501 -0.00000000000E+00 -0.00000000000E+00 -0.41544344862E+02  0.41544345168E+02  0.50400000000E-02 0.  1.
         23    2    1    2    0    0  0.00000000000E+00  0.88817841970E-15  0.91709850082E+01  0.92259675289E+02  0.91802727183E+02 0.  0.
    9000005    2    3    3    0    0 -0.35484553989E+02  0.53132944306E+01 -0.23383815926E+02  0.43811767868E+02  0.92349058999E+01 0.  0.
         22    1    3    3    0    0  0.35484553989E+02 -0.53132944306E+01  0.32554800935E+02  0.48447907420E+02  0.00000000000E+00 0. -1.
         22    1    4    4    0    0 -0.74652838723E+01  0.50602100430E+01 -0.52501737191E+01  0.10435540861E+02  0.00000000000E+00 0.  1.
         22    1    4    4    0    0 -0.28019270117E+02  0.25308438758E+00 -0.18133642207E+02  0.33376227008E+02  0.00000000000E+00 0.  1.
<mgrwt>
<rscale>  0 0.91802727E+02</rscale>
<asrwt>0</asrwt>
<pdfrwt beam="1">  1        1 0.78023585E-02 0.91802727E+02</pdfrwt>
<pdfrwt beam="2">  1       -1 0.63914377E-02 0.91802727E+02</pdfrwt>
<totfact> 0.92182662E+04</totfact>
</mgrwt>
</event>
<event>
 7    1  0.2911475E-009  0.9042307E+02  0.7818608E-02  0.1301830E+00
          1   -1    0    0  501    0  0.00000000000E+00  0.00000000000E+00  0.57649507729E+02  0.57649507949E+02  0.50400000000E-02 0. -1.
         -1   -1    0    0    0  501 -0.00000000000E+00 -0.00000000000E+00 -0.35457072896E+02  0.35457073254E+02  0.50400000000E-02 0.  1.
         23    2    1    2    0    0  0.00000000000E+00  0.00000000000E+00  0.22192434833E+02  0.93106581203E+02  0.90423068404E+02 0.  0.
    9000005    2    3    3    0    0 -0.38597283986E+02  0.20003853780E+02  0.20919125618E+02  0.49614905982E+02  0.11581216769E+02 0.  0.
         22    1    3    3    0    0  0.38597283986E+02 -0.20003853780E+02  0.12733092150E+01  0.43491675221E+02  0.00000000000E+00 0.  1.
         22    1    4    4    0    0 -0.35688506178E+02  0.15795809333E+02  0.15049608265E+02  0.41829030286E+02  0.00000000000E+00 0.  1.
         22    1    4    4    0    0 -0.29087778077E+01  0.42080444465E+01  0.58695173531E+01  0.77858756962E+01  0.00000000000E+00 0.  1.
<mgrwt>
<rscale>  0 0.90423068E+02</rscale>
<asrwt>0</asrwt>
<pdfrwt beam="1">  1        1 0.88691550E-02 0.90423068E+02</pdfrwt>
<pdfrwt beam="2">  1       -1 0.54549344E-02 0.90423068E+02</pdfrwt>
<totfact> 0.98023262E+04</totfact>
</mgrwt>
</event>
<event>
 7    1  0.2911475E-009  0.9622256E+02  0.7818608E-02  0.1288446E+00
          1   -1    0    0  501    0  0.00000000000E+00  0.00000000000E+00  0.53484934807E+02  0.53484935045E+02  0.50400000000E-02 0. -1.
         -1   -1    0    0    0  501 -0.00000000000E+00 -0.00000000000E+00 -0.43277520294E+02  0.43277520587E+02  0.50400000000E-02 0.  1.
         23    2    1    2    0    0  0.00000000000E+00  0.00000000000E+00  0.10207414513E+02  0.96762455632E+02  0.96222562369E+02 0.  0.
    9000005    2    3    3    0    0 -0.32209837962E+02 -0.29686695075E+02  0.23980889859E+02  0.50844244113E+02  0.95540857749E+01 0.  0.
         22    1    3    3    0    0  0.32209837962E+02  0.29686695075E+02 -0.13773475345E+02  0.45918211519E+02  0.00000000000E+00 0.  1.
         22    1    4    4    0    0 -0.20019717608E+02 -0.14776802855E+02  0.90564926740E+01  0.26479483667E+02  0.00000000000E+00 0.  1.
         22    1    4    4    0    0 -0.12190120354E+02 -0.14909892221E+02  0.14924397185E+02  0.24364760446E+02  0.00000000000E+00 0.  1.
<mgrwt>
<rscale>  0 0.96222562E+02</rscale>
<asrwt>0</asrwt>
<pdfrwt beam="1">  1        1 0.82284515E-02 0.96222562E+02</pdfrwt>
<pdfrwt beam="2">  1       -1 0.66580801E-02 0.96222562E+02</pdfrwt>
<totfact> 0.81451955E+04</totfact>
</mgrwt>
</event>
<event>
 7    1  0.2911475E-009  0.8278874E+02  0.7818608E-02  0.1321319E+00
         -1   -1    0    0    0  501 -0.00000000000E+00  0.00000000000E+00  0.38456959808E+03  0.38456959811E+03  0.50400000000E-02 0.  1.
          1   -1    0    0  501    0  0.00000000000E+00 -0.00000000000E+00 -0.44556126792E+01  0.44556155297E+01  0.50400000000E-02 0. -1.
         23    2    1    2    0    0  0.00000000000E+00  0.00000000000E+00  0.38011398540E+03  0.38902521364E+03  0.82788736869E+02 0.  0.
    9000005    2    3    3    0    0 -0.11706738513E+02 -0.38241800058E+02  0.23445017914E+03  0.23797082790E+03  0.79840737401E+01 0.  0.
         22    1    3    3    0    0  0.11706738513E+02  0.38241800058E+02  0.14566380626E+03  0.15105438575E+03  0.00000000000E+00 0.  1.
         22    1    4    4    0    0 -0.74453926655E+01 -0.33865570780E+02  0.19913181495E+03  0.20212815361E+03  0.00000000000E+00 0.  1.
         22    1    4    4    0    0 -0.42613458473E+01 -0.43762292773E+01  0.35318364191E+02  0.35842674290E+02  0.00000000000E+00 0.  1.
<mgrwt>
<rscale>  0 0.82788737E+02</rscale>
<asrwt>0</asrwt>
<pdfrwt beam="2">  1        1 0.68547905E-03 0.82788737E+02</pdfrwt>
<pdfrwt beam="1">  1       -1 0.59164558E-01 0.82788737E+02</pdfrwt>
<totfact> 0.69900958E+04</totfact>
</mgrwt>
</event>
<event>
 7    1  0.2911475E-009  0.9295297E+02  0.7818608E-02  0.1295854E+00
          1   -1    0    0  501    0  0.00000000000E+00  0.00000000000E+00  0.66977538355E+02  0.66977538544E+02  0.50400000000E-02 0. -1.
         -1   -1    0    0    0  501 -0.00000000000E+00 -0.00000000000E+00 -0.32250566525E+02  0.32250566919E+02  0.50400000000E-02 0.  1.
         23    2    1    2    0    0  0.00000000000E+00  0.00000000000E+00  0.34726971830E+02  0.99228105463E+02  0.92952968438E+02 0.  0.
    9000005    2    3    3    0    0  0.21198112997E+02  0.38413296014E+02  0.63413431446E+01  0.46972146750E+02  0.15531536696E+02 0.  0.
         22    1    3    3    0    0 -0.21198112997E+02 -0.38413296014E+02  0.28385628685E+02  0.52255958714E+02  0.00000000000E+00 0. -1.
         22    1    4    4    0    0  0.11964518404E+02  0.72625020740E+01  0.86051313103E+00  0.14022628850E+02  0.00000000000E+00 0.  1.
         22    1    4    4    0    0  0.92335945922E+01  0.31150793940E+02  0.54808300136E+01  0.32949517899E+02  0.00000000000E+00 0.  1.
<mgrwt>
<rscale>  0 0.92952968E+02</rscale>
<asrwt>0</asrwt>
<pdfrwt beam="1">  1        1 0.10304237E-01 0.92952968E+02</pdfrwt>
<pdfrwt beam="2">  1       -1 0.49616257E-02 0.92952968E+02</pdfrwt>
<totfact> 0.92901817E+04</totfact>
</mgrwt>
</event>
<event>
 7    1  0.2911475E-009  0.9383428E+02  0.7818608E-02  0.1293823E+00
         -1   -1    0    0    0  501 -0.00000000000E+00  0.00000000000E+00  0.32329635700E+03  0.32329635704E+03  0.50400000000E-02 0.  1.
          1   -1    0    0  501    0  0.00000000000E+00 -0.00000000000E+00 -0.68086679841E+01  0.68086698494E+01  0.50400000000E-02 0. -1.
         23    2    1    2    0    0  0.00000000000E+00  0.00000000000E+00  0.31648768902E+03  0.33010502689E+03  0.93834276673E+02 0.  0.
    9000005    2    3    3    0    0  0.21255778354E+01 -0.46683907483E+02  0.15448137353E+03  0.16149318995E+03  0.56258628724E+01 0.  0.
         22    1    3    3    0    0 -0.21255778354E+01  0.46683907483E+02  0.16200631549E+03  0.16861183695E+03  0.00000000000E+00 0. -1.
         22    1    4    4    0    0  0.66867584093E+00 -0.48552400052E+00  0.34353137527E+01  0.35333046167E+01  0.00000000000E+00 0.  1.
         22    1    4    4    0    0  0.14569019944E+01 -0.46198383483E+02  0.15104605978E+03  0.15795988533E+03  0.00000000000E+00 0.  1.
<mgrwt>
<rscale>  0 0.93834277E+02</rscale>
<asrwt>0</asrwt>
<pdfrwt beam="2">  1        1 0.10474873E-02 0.93834277E+02</pdfrwt>
<pdfrwt beam="1">  1       -1 0.49737911E-01 0.93834277E+02</pdfrwt>
<totfact> 0.54510952E+04</totfact>
</mgrwt>
</event>
<event>
 7    1  0.2911475E-009  0.8932405E+02  0.7818608E-02  0.1304497E+00
         -1   -1    0    0    0  501 -0.00000000000E+00  0.00000000000E+00  0.16327639457E+03  0.16327639465E+03  0.50400000000E-02 0. -1.
          1   -1    0    0  501    0  0.00000000000E+00 -0.00000000000E+00 -0.12216686706E+02  0.12216687746E+02  0.50400000000E-02 0.  1.
         23    2    1    2    0    0  0.22204460493E-15  0.00000000000E+00  0.15105970786E+03  0.17549308239E+03  0.89324054028E+02 0.  0.
    9000005    2    3    3    0    0 -0.10540584476E+01  0.42366394491E+02  0.10191559759E+03  0.11059958506E+03  0.70325501841E+01 0.  0.
         22    1    3    3    0    0  0.10540584476E+01 -0.42366394491E+02  0.49144110270E+02  0.64893497329E+02  0.00000000000E+00 0.  1.
         22    1    4    4    0    0  0.98823726949E+00  0.33189442095E+02  0.73067180433E+02  0.80257887686E+02  0.00000000000E+00 0.  1.
         22    1    4    4    0    0 -0.20422957171E+01  0.91769523962E+01  0.28848417161E+02  0.30341697378E+02  0.00000000000E+00 0.  1.
<mgrwt>
<rscale>  0 0.89324054E+02</rscale>
<asrwt>0</asrwt>
<pdfrwt beam="2">  1        1 0.18794903E-02 0.89324054E+02</pdfrwt>
<pdfrwt beam="1">  1       -1 0.25119446E-01 0.89324054E+02</pdfrwt>
<totfact> 0.77286947E+04</totfact>
</mgrwt>
</event>
<event>
 7    1  0.2911475E-009  0.9267385E+02  0.7818608E-02  0.1296503E+00
          1   -1    0    0  501    0  0.00000000000E+00  0.00000000000E+00  0.93565490339E+02  0.93565490475E+02  0.50400000000E-02 0. -1.
         -1   -1    0    0    0  501 -0.00000000000E+00 -0.00000000000E+00 -0.22947678621E+02  0.22947679175E+02  0.50400000000E-02 0.  1.
         23    2    1    2    0    0  0.00000000000E+00  0.71054273576E-14  0.70617811718E+02  0.11651316965E+03  0.92673854835E+02 0.  0.
    9000005    2    3    3    0    0 -0.17099190491E+02 -0.32887977748E+02  0.69007882995E+02  0.79410699836E+02  0.13037251900E+02 0.  0.
         22    1    3    3    0    0  0.17099190491E+02  0.32887977748E+02  0.16099287222E+01  0.37102469814E+02  0.00000000000E+00 0.  1.
         22    1    4    4    0    0 -0.15243631485E+02 -0.18179945368E+02  0.49660279092E+02  0.55036551799E+02  0.00000000000E+00 0.  1.
         22    1    4    4    0    0 -0.18555590058E+01 -0.14708032380E+02  0.19347603904E+02  0.24374148037E+02  0.00000000000E+00 0.  1.
<mgrwt>
<rscale>  0 0.92673855E+02</rscale>
<asrwt>0</asrwt>
<pdfrwt beam="1">  1        1 0.14394691E-01 0.92673855E+02</pdfrwt>
<pdfrwt beam="2">  1       -1 0.35304122E-02 0.92673855E+02</pdfrwt>
<totfact> 0.98808603E+04</totfact>
</mgrwt>
</event>
<event>
 7    1  0.2911475E-009  0.9837338E+02  0.7818608E-02  0.1283754E+00
         -1   -1    0    0    0  501 -0.00000000000E+00  0.00000000000E+00  0.16852237680E+02  0.16852238434E+02  0.50400000000E-02 0.  1.
          1   -1    0    0  501    0  0.00000000000E+00 -0.00000000000E+00 -0.14356137155E+03  0.14356137164E+03  0.50400000000E-02 0. -1.
         23    2    1    2    0    0  0.00000000000E+00  0.35527136788E-14 -0.12670913387E+03  0.16041361008E+03  0.98373378974E+02 0.  0.
    9000005    2    3    3    0    0  0.60729173970E+01 -0.30681636602E+02 -0.26315914306E+01  0.32454711640E+02  0.82546886014E+01 0.  0.
         22    1    3    3    0    0 -0.60729173970E+01  0.30681636602E+02 -0.12407754244E+03  0.12795889844E+03  0.00000000000E+00 0. -1.
         22    1    4    4    0    0  0.69040391182E+00 -0.22693021017E+02 -0.22447036789E+01  0.22814218266E+02  0.00000000000E+00 0. -1.
         22    1    4    4    0    0  0.53825134852E+01 -0.79886155845E+01 -0.38688775161E+00  0.96404933747E+01  0.00000000000E+00 0. -1.
<mgrwt>
<rscale>  0 0.98373379E+02</rscale>
<asrwt>0</asrwt>
<pdfrwt beam="2">  1        1 0.22086364E-01 0.98373379E+02</pdfrwt>
<pdfrwt beam="1">  1       -1 0.25926521E-02 0.98373379E+02</pdfrwt>
<totfact> 0.90508081E+04</totfact>
</mgrwt>
</event>
<event>
 7    1  0.2911475E-009  0.9163679E+02  0.7818608E-02  0.1298936E+00
         -1   -1    0    0    0  501 -0.00000000000E+00  0.00000000000E+00  0.55129129599E+02  0.55129129829E+02  0.50400000000E-02 0.  1.
          1   -1    0    0  501    0  0.00000000000E+00 -0.00000000000E+00 -0.38080147790E+02  0.38080148124E+02  0.50400000000E-02 0. -1.
         23    2    1    2    0    0  0.00000000000E+00  0.00000000000E+00  0.17048981808E+02  0.93209277953E+02  0.91636792370E+02 0.  0.
    9000005    2    3    3    0    0 -0.36754977094E+02  0.24227757068E+02  0.20270494142E+02  0.49069831928E+02  0.76839390255E+01 0.  0.
         22    1    3    3    0    0  0.36754977094E+02 -0.24227757068E+02 -0.32215123338E+01  0.44139446025E+02  0.00000000000E+00 0. -1.
         22    1    4    4    0    0 -0.10360994383E+02  0.63092052233E+01  0.94698107764E+01  0.15389398666E+02  0.00000000000E+00 0.  1.
         22    1    4    4    0    0 -0.26393982711E+02  0.17918551844E+02  0.10800683366E+02  0.33680433262E+02  0.00000000000E+00 0.  1.
<mgrwt>
<rscale>  0 0.91636792E+02</rscale>
<asrwt>0</asrwt>
<pdfrwt beam="2">  1        1 0.58584843E-02 0.91636792E+02</pdfrwt>
<pdfrwt beam="1">  1       -1 0.84814046E-02 0.91636792E+02</pdfrwt>
<totfact> 0.88711193E+04</totfact>
</mgrwt>
</event>
<event>
 7    1  0.2911475E-009  0.9083520E+02  0.7818608E-02  0.1300842E+00
         -1   -1    0    0    0  501 -0.00000000000E+00  0.00000000000E+00  0.43356674966E+01  0.43356704260E+01  0.50400000000E-02 0. -1.
          1   -1    0    0  501    0  0.00000000000E+00 -0.00000000000E+00 -0.47576473034E+03  0.47576473037E+03  0.50400000000E-02 0.  1.
         23    2    1    2    0    0  0.35527136788E-14  0.17763568394E-14 -0.47142906284E+03  0.48010040079E+03  0.90835199939E+02 0.  0.
    9000005    2    3    3    0    0  0.30070976371E+02  0.95028195083E+01 -0.40787151047E+03  0.40914879995E+03  0.70003034905E+01 0.  0.
         22    1    3    3    0    0 -0.30070976371E+02 -0.95028195083E+01 -0.63557552378E+02  0.70951600847E+02  0.00000000000E+00 0. -1.
         22    1    4    4    0    0  0.10527856747E+02  0.69025464230E+01 -0.15848080945E+03  0.15898002352E+03  0.00000000000E+00 0. -1.
         22    1    4    4    0    0  0.19543119624E+02  0.26002730854E+01 -0.24939070101E+03  0.25016877642E+03  0.00000000000E+00 0. -1.
<mgrwt>
<rscale>  0 0.90835200E+02</rscale>
<asrwt>0</asrwt>
<pdfrwt beam="2">  1        1 0.73194533E-01 0.90835200E+02</pdfrwt>
<pdfrwt beam="1">  1       -1 0.66702637E-03 0.90835200E+02</pdfrwt>
<totfact> 0.13979128E+05</totfact>
</mgrwt>
</event>
<event>
 7    1  0.2911475E-009  0.9054952E+02  0.7818608E-02  0.1301526E+00
          1   -1    0    0  501    0  0.00000000000E+00  0.00000000000E+00  0.43433557767E+03  0.43433557770E+03  0.50400000000E-02 0. -1.
         -1   -1    0    0    0  501 -0.00000000000E+00 -0.00000000000E+00 -0.47194000015E+01  0.47194026927E+01  0.50400000000E-02 0.  1.
         23    2    1    2    0    0  0.00000000000E+00  0.00000000000E+00  0.42961617767E+03  0.43905498039E+03  0.90549520664E+02 0.  0.
    9000005    2    3    3    0    0 -0.41255789367E+02 -0.15396623628E+02  0.16824963368E+03  0.17400485967E+03  0.55367663608E+01 0.  0.
         22    1    3    3    0    0  0.41255789367E+02  0.15396623628E+02  0.26136654399E+03  0.26505012072E+03  0.00000000000E+00 0.  1.
         22    1    4    4    0    0 -0.20444220879E+02 -0.79062645403E+01  0.94557115372E+02  0.97064531389E+02  0.00000000000E+00 0. -1.
         22    1    4    4    0    0 -0.20811568488E+02 -0.74903590873E+01  0.73692518304E+02  0.76940328282E+02  0.00000000000E+00 0. -1.
<mgrwt>
<rscale>  0 0.90549521E+02</rscale>
<asrwt>0</asrwt>
<pdfrwt beam="1">  1        1 0.66820884E-01 0.90549521E+02</pdfrwt>
<pdfrwt beam="2">  1       -1 0.72606147E-03 0.90549521E+02</pdfrwt>
<totfact> 0.13917180E+05</totfact>
</mgrwt>
</event>
<event>
 7    1  0.2911475E-009  0.9263221E+02  0.7818608E-02  0.1296600E+00
         -1   -1    0    0    0  501 -0.00000000000E+00  0.00000000000E+00  0.19966352420E+02  0.19966353057E+02  0.50400000000E-02 0.  1.
          1   -1    0    0  501    0  0.00000000000E+00 -0.00000000000E+00 -0.10743983771E+03  0.10743983783E+03  0.50400000000E-02 0. -1.
         23    2    1    2    0    0  0.00000000000E+00  0.00000000000E+00 -0.87473485288E+02  0.12740619088E+03  0.92632212793E+02 0.  0.
    9000005    2    3    3    0    0 -0.21579928237E+02  0.33431386261E+02 -0.74889282154E+02  0.85672354988E+02  0.12165399194E+02 0.  0.
         22    1    3    3    0    0  0.21579928237E+02 -0.33431386261E+02 -0.12584203135E+02  0.41733835896E+02  0.00000000000E+00 0.  1.
         22    1    4    4    0    0 -0.13772119168E+02  0.29912771532E+02 -0.56737740064E+02  0.65601953589E+02  0.00000000000E+00 0.  1.
         22    1    4    4    0    0 -0.78078090693E+01  0.35186147293E+01 -0.18151542090E+02  0.20070401399E+02  0.00000000000E+00 0.  1.
<mgrwt>
<rscale>  0 0.92632213E+02</rscale>
<asrwt>0</asrwt>
<pdfrwt beam="2">  1        1 0.16529206E-01 0.92632213E+02</pdfrwt>
<pdfrwt beam="1">  1       -1 0.30717466E-02 0.92632213E+02</pdfrwt>
<totfact> 0.10125031E+05</totfact>
</mgrwt>
</event>
<event>
 7    1  0.2911475E-009  0.9113581E+02  0.7818608E-02  0.1300124E+00
         -1   -1    0    0    0  501 -0.00000000000E+00  0.00000000000E+00  0.68242358102E+02  0.68242358288E+02  0.50400000000E-02 0.  1.
          1   -1    0    0  501    0  0.00000000000E+00 -0.00000000000E+00 -0.30427347719E+02  0.30427348136E+02  0.50400000000E-02 0. -1.
         23    2    1    2    0    0 -0.35527136788E-14  0.00000000000E+00  0.37815010383E+02  0.98669706424E+02  0.91135810500E+02 0.  0.
    9000005    2    3    3    0    0  0.31235268006E+02  0.25756305287E+02  0.40820135467E+02  0.58073401097E+02  0.81980013372E+01 0.  0.
         22    1    3    3    0    0 -0.31235268006E+02 -0.25756305287E+02 -0.30051250846E+01  0.40596305327E+02  0.00000000000E+00 0. -1.
         22    1    4    4    0    0 -0.31914817821E+00  0.12752401988E+01  0.18801711846E+01  0.22941527429E+01  0.00000000000E+00 0.  1.
         22    1    4    4    0    0  0.31554416184E+02  0.24481065089E+02  0.38939964283E+02  0.55779248354E+02  0.00000000000E+00 0.  1.
<mgrwt>
<rscale>  0 0.91135811E+02</rscale>
<asrwt>0</asrwt>
<pdfrwt beam="2">  1        1 0.46811304E-02 0.91135811E+02</pdfrwt>
<pdfrwt beam="1">  1       -1 0.10498824E-01 0.91135811E+02</pdfrwt>
<totfact> 0.86994500E+04</totfact>
</mgrwt>
</event>
<event>
 6    1  0.2911475E-009  0.1810647E+03  0.7818608E-02  0.1166777E+00
          1   -1    0    0  501    0  0.00000000000E+00  0.00000000000E+00  0.41582313640E+02  0.41582313945E+02  0.50400000000E-02 0. -1.
         -1   -1    0    0    0  501 -0.00000000000E+00 -0.00000000000E+00 -0.19710556059E+03  0.19710556065E+03  0.50400000000E-02 0.  1.
    9000005    2    1    2    0    0 -0.90408327317E+01  0.52223982490E+02  0.18062248624E+02  0.57191303621E+02  0.11641279177E+02 0.  0.
         22    1    1    2    0    0  0.90408327317E+01 -0.52223982490E+02 -0.17358549557E+03  0.18149657098E+03  0.00000000000E+00 0.  1.
         22    1    3    3    0    0 -0.10093476820E+02  0.45239345977E+02  0.11991996763E+02  0.47877809945E+02  0.00000000000E+00 0. -1.
         22    1    3    3    0    0  0.10526440880E+01  0.69846365131E+01  0.60702518612E+01  0.93134936761E+01  0.00000000000E+00 0. -1.
<mgrwt>
<rscale>  0 0.18106469E+03</rscale>
<asrwt>0</asrwt>
<pdfrwt beam="1">  1        1 0.63972792E-02 0.18106469E+03</pdfrwt>
<pdfrwt beam="2">  1       -1 0.30323932E-01 0.18106469E+03</pdfrwt>
<totfact> 0.11398118E+04</totfact>
</mgrwt>
</event>
<event>
 7    1  0.2911475E-009  0.9030544E+02  0.7818608E-02  0.1302114E+00
          1   -1    0    0  501    0  0.00000000000E+00  0.00000000000E+00  0.88683761523E+02  0.88683761667E+02  0.50400000000E-02 0. -1.
         -1   -1    0    0    0  501 -0.00000000000E+00 -0.00000000000E+00 -0.22989191371E+02  0.22989191923E+02  0.50400000000E-02 0.  1.
         23    2    1    2    0    0  0.00000000000E+00  0.00000000000E+00  0.65694570153E+02  0.11167295359E+03  0.90305437355E+02 0.  0.
    9000005    2    3    3    0    0  0.31974133313E+02  0.21907530316E+02  0.60342585765E+02  0.72545868053E+02  0.10926583595E+02 0.  0.
         22    1    3    3    0    0 -0.31974133313E+02 -0.21907530316E+02  0.53519843875E+01  0.39127085536E+02  0.00000000000E+00 0.  1.
         22    1    4    4    0    0  0.32461358054E+01  0.58406197811E+01  0.58370517110E+01  0.88725086515E+01  0.00000000000E+00 0.  1.
         22    1    4    4    0    0  0.28727997508E+02  0.16066910535E+02  0.54505534054E+02  0.63673359402E+02  0.00000000000E+00 0.  1.
<mgrwt>
<rscale>  0 0.90305437E+02</rscale>
<asrwt>0</asrwt>
<pdfrwt beam="1">  1        1 0.13643656E-01 0.90305437E+02</pdfrwt>
<pdfrwt beam="2">  1       -1 0.35367987E-02 0.90305437E+02</pdfrwt>
<totfact> 0.10513861E+05</totfact>
</mgrwt>
</event>
<event>
 7    1  0.2911475E-009  0.9093190E+02  0.7818608E-02  0.1300611E+00
          1   -1    0    0  501    0  0.00000000000E+00  0.00000000000E+00  0.15663176403E+02  0.15663177213E+02  0.50400000000E-02 0. -1.
         -1   -1    0    0    0  501 -0.00000000000E+00 -0.00000000000E+00 -0.13197531397E+03  0.13197531406E+03  0.50400000000E-02 0.  1.
         23    2    1    2    0    0  0.35527136788E-14 -0.88817841970E-15 -0.11631213756E+03  0.14763849128E+03  0.90931901782E+02 0.  0.
    9000005    2    3    3    0    0 -0.26697670124E+02 -0.47731026577E+01 -0.33750574414E+01  0.31490602076E+02  0.15643494090E+02 0.  0.
         22    1    3    3    0    0  0.26697670124E+02  0.47731026577E+01 -0.11293708012E+03  0.11614788920E+03  0.00000000000E+00 0.  1.
         22    1    4    4    0    0 -0.85552989931E+01 -0.92484497365E+01 -0.19683023581E+01  0.12751516677E+02  0.00000000000E+00 0. -1.
         22    1    4    4    0    0 -0.18142371131E+02  0.44753470788E+01 -0.14067550834E+01  0.18739085399E+02  0.00000000000E+00 0. -1.
<mgrwt>
<rscale>  0 0.90931902E+02</rscale>
<asrwt>0</asrwt>
<pdfrwt beam="1">  1        1 0.24097196E-02 0.90931902E+02</pdfrwt>
<pdfrwt beam="2">  1       -1 0.20303894E-01 0.90931902E+02</pdfrwt>
<totfact> 0.77512555E+04</totfact>
</mgrwt>
</event>
<event>
 7    1  0.2911475E-009  0.1144770E+03  0.7818608E-02  0.1252497E+00
         -1   -1    0    0    0  501 -0.00000000000E+00  0.00000000000E+00  0.22212816651E+03  0.22212816657E+03  0.50400000000E-02 0.  1.
          1   -1    0    0  501    0  0.00000000000E+00 -0.00000000000E+00 -0.14749358934E+02  0.14749359795E+02  0.50400000000E-02 0. -1.
         23    2    1    2    0    0  0.00000000000E+00  0.00000000000E+00  0.20737880758E+03  0.23687752637E+03  0.11447703990E+03 0.  0.
    9000005    2    3    3    0    0  0.11263453153E+02 -0.67981616272E+01  0.21866387483E+03  0.21954451967E+03  0.14588542918E+02 0.  0.
         22    1    3    3    0    0 -0.11263453153E+02  0.67981616272E+01 -0.11285067245E+02  0.17333006697E+02  0.00000000000E+00 0. -1.
         22    1    4    4    0    0  0.13508549510E+02 -0.48169157997E+01  0.12291898282E+03  0.12375281785E+03  0.00000000000E+00 0.  1.
         22    1    4    4    0    0 -0.22450963569E+01 -0.19812458275E+01  0.95744892007E+02  0.95791701823E+02  0.00000000000E+00 0.  1.
<mgrwt>
<rscale>  0 0.11447704E+03</rscale>
<asrwt>0</asrwt>
<pdfrwt beam="2">  1        1 0.22691321E-02 0.11447704E+03</pdfrwt>
<pdfrwt beam="1">  1       -1 0.34173566E-01 0.11447704E+03</pdfrwt>
<totfact> 0.37019102E+04</totfact>
</mgrwt>
</event>
<event>
 7    1  0.2911475E-009  0.9165121E+02  0.7818608E-02  0.1298902E+00
         -1   -1    0    0    0  501 -0.00000000000E+00  0.00000000000E+00  0.36930585947E+01  0.36930620338E+01  0.50400000000E-02 0.  1.
          1   -1    0    0  501    0  0.00000000000E+00 -0.00000000000E+00 -0.56863034197E+03  0.56863034199E+03  0.50400000000E-02 0. -1.
         23    2    1    2    0    0 -0.35527136788E-14 -0.71054273576E-14 -0.56493728337E+03  0.57232340402E+03  0.91651211932E+02 0.  0.
    9000005    2    3    3    0    0 -0.25491160352E+02 -0.34035662599E+02 -0.38853652446E+03  0.39086968174E+03  0.32018246950E+01 0.  0.
         22    1    3    3    0    0  0.25491160352E+02  0.34035662599E+02 -0.17640075891E+03  0.18145372228E+03  0.00000000000E+00 0.  1.
         22    1    4    4    0    0 -0.21505879987E+02 -0.29153201108E+02 -0.32005916770E+03  0.32210290721E+03  0.00000000000E+00 0.  1.
         22    1    4    4    0    0 -0.39852803654E+01 -0.48824614918E+01 -0.68477356762E+02  0.68766774527E+02  0.00000000000E+00 0.  1.
<mgrwt>
<rscale>  0 0.91651212E+02</rscale>
<asrwt>0</asrwt>
<pdfrwt beam="2">  1        1 0.87481522E-01 0.91651212E+02</pdfrwt>
<pdfrwt beam="1">  1       -1 0.56816358E-03 0.91651212E+02</pdfrwt>
<totfact> 0.13913281E+05</totfact>
</mgrwt>
</event>
<event>
 7    1  0.2911475E-009  0.9231140E+02  0.7818608E-02  0.1297349E+00
          1   -1    0    0  501    0  0.00000000000E+00  0.00000000000E+00  0.41186497044E+02  0.41186497352E+02  0.50400000000E-02 0. -1.
         -1   -1    0    0    0  501 -0.00000000000E+00 -0.00000000000E+00 -0.51724437535E+02  0.51724437780E+02  0.50400000000E-02 0.  1.
         23    2    1    2    0    0  0.00000000000E+00  0.00000000000E+00 -0.10537940491E+02  0.92910935133E+02  0.92311395166E+02 0.  0.
    9000005    2    3    3    0    0  0.24800449952E+02  0.73895356703E+01  0.32940666126E+02  0.42313931382E+02  0.59760981345E+01 0.  0.
         22    1    3    3    0    0 -0.24800449952E+02 -0.73895356703E+01 -0.43478606617E+02  0.50597003751E+02  0.00000000000E+00 0.  1.
         22    1    4    4    0    0 -0.22336748468E+00 -0.23155784188E+00  0.11840244895E+00  0.34282824747E+00  0.00000000000E+00 0.  1.
         22    1    4    4    0    0  0.25023817437E+02  0.76210935122E+01  0.32822263677E+02  0.41971103134E+02  0.00000000000E+00 0.  1.
<mgrwt>
<rscale>  0 0.92311395E+02</rscale>
<asrwt>0</asrwt>
<pdfrwt beam="1">  1        1 0.63363842E-02 0.92311395E+02</pdfrwt>
<pdfrwt beam="2">  1       -1 0.79576059E-02 0.92311395E+02</pdfrwt>
<totfact> 0.87938647E+04</totfact>
</mgrwt>
</event>
<event>
 7    1  0.2911475E-009  0.8452437E+02  0.7818608E-02  0.1316681E+00
         -1   -1    0    0    0  501 -0.00000000000E+00  0.00000000000E+00  0.88522285970E+02  0.88522286113E+02  0.50400000000E-02 0.  1.
          1   -1    0    0  501    0  0.00000000000E+00 -0.00000000000E+00 -0.20176751200E+02  0.20176751830E+02  0.50400000000E-02 0. -1.
         23    2    1    2    0    0  0.00000000000E+00 -0.88817841970E-15  0.68345534769E+02  0.10869903794E+03  0.84524367651E+02 0.  0.
    9000005    2    3    3    0    0  0.40474604308E+02 -0.67753521221E+01  0.47133689848E+02  0.62503352482E+02  0.99265427420E+00 0.  0.
         22    1    3    3    0    0 -0.40474604308E+02  0.67753521221E+01  0.21211844922E+02  0.46195685462E+02  0.00000000000E+00 0. -1.
         22    1    4    4    0    0  0.38354042679E+02 -0.66419058180E+01  0.44659451256E+02  0.59241995993E+02  0.00000000000E+00 0.  1.
         22    1    4    4    0    0  0.21205616293E+01 -0.13344630405E+00  0.24742385919E+01  0.32613564891E+01  0.00000000000E+00 0.  1.
<mgrwt>
<rscale>  0 0.84524368E+02</rscale>
<asrwt>0</asrwt>
<pdfrwt beam="2">  1        1 0.31041157E-02 0.84524368E+02</pdfrwt>
<pdfrwt beam="1">  1       -1 0.13618813E-01 0.84524368E+02</pdfrwt>
<totfact> 0.10100741E+05</totfact>
</mgrwt>
</event>
<event>
 7    1  0.2911475E-009  0.8680738E+02  0.7818608E-02  0.1310773E+00
          1   -1    0    0  501    0  0.00000000000E+00  0.00000000000E+00  0.21694006235E+02  0.21694006821E+02  0.50400000000E-02 0. -1.
         -1   -1    0    0    0  501 -0.00000000000E+00 -0.00000000000E+00 -0.86838748045E+02  0.86838748191E+02  0.50400000000E-02 0.  1.
         23    2    1    2    0    0  0.00000000000E+00  0.00000000000E+00 -0.65144741809E+02  0.10853275501E+03  0.86807381743E+02 0.  0.
    9000005    2    3    3    0    0  0.37800075657E+02 -0.12984111208E+02 -0.16646793409E+02  0.45687835865E+02  0.14588685743E+02 0.  0.
         22    1    3    3    0    0 -0.37800075657E+02  0.12984111208E+02 -0.48497948400E+02  0.62844919146E+02  0.00000000000E+00 0.  1.
         22    1    4    4    0    0  0.80569539522E+01 -0.37199430685E+01 -0.10822296755E+02  0.13995520372E+02  0.00000000000E+00 0. -1.
         22    1    4    4    0    0  0.29743121704E+02 -0.92641681400E+01 -0.58244966540E+01  0.31692315493E+02  0.00000000000E+00 0. -1.
<mgrwt>
<rscale>  0 0.86807382E+02</rscale>
<asrwt>0</asrwt>
<pdfrwt beam="1">  1        1 0.33375395E-02 0.86807382E+02</pdfrwt>
<pdfrwt beam="2">  1       -1 0.13359807E-01 0.86807382E+02</pdfrwt>
<totfact> 0.94656136E+04</totfact>
</mgrwt>
</event>
<event>
 7    1  0.2911475E-009  0.9600470E+02  0.7818608E-02  0.1288929E+00
          1   -1    0    0  501    0  0.00000000000E+00  0.00000000000E+00  0.13477614403E+03  0.13477614412E+03  0.50400000000E-02 0. -1.
         -1   -1    0    0    0  501 -0.00000000000E+00 -0.00000000000E+00 -0.17096687298E+02  0.17096688041E+02  0.50400000000E-02 0.  1.
         23    2    1    2    0    0  0.00000000000E+00  0.00000000000E+00  0.11767945673E+03  0.15187283216E+03  0.96004700993E+02 0.  0.
    9000005    2    3    3    0    0  0.91594130109E+01 -0.20962120642E+02  0.12532468228E+03  0.12775323800E+03  0.95555473176E+01 0.  0.
         22    1    3    3    0    0 -0.91594130109E+01  0.20962120642E+02 -0.76452255490E+01  0.24119594155E+02  0.00000000000E+00 0.  1.
         22    1    4    4    0    0  0.11260692285E+01 -0.12816719901E+02  0.53643948507E+02  0.55165293005E+02  0.00000000000E+00 0.  1.
         22    1    4    4    0    0  0.80333437824E+01 -0.81454007412E+01  0.71680733770E+02  0.72587945000E+02  0.00000000000E+00 0.  1.
<mgrwt>
<rscale>  0 0.96004701E+02</rscale>
<asrwt>0</asrwt>
<pdfrwt beam="1">  1        1 0.20734791E-01 0.96004701E+02</pdfrwt>
<pdfrwt beam="2">  1       -1 0.26302597E-02 0.96004701E+02</pdfrwt>
<totfact> 0.95599272E+04</totfact>
</mgrwt>
</event>
<event>
 7    1  0.2911475E-009  0.9279060E+02  0.7818608E-02  0.1296231E+00
         -1   -1    0    0    0  501 -0.00000000000E+00  0.00000000000E+00  0.18278236561E+03  0.18278236568E+03  0.50400000000E-02 0.  1.
          1   -1    0    0  501    0  0.00000000000E+00 -0.00000000000E+00 -0.11776429212E+02  0.11776430290E+02  0.50400000000E-02 0. -1.
         23    2    1    2    0    0  0.17763568394E-14  0.00000000000E+00  0.17100593639E+03  0.19455879597E+03  0.92790596536E+02 0.  0.
    9000005    2    3    3    0    0  0.11590432234E+02 -0.23287957308E+02  0.16539916150E+03  0.16794859116E+03  0.13159771066E+02 0.  0.
         22    1    3    3    0    0 -0.11590432234E+02  0.23287957308E+02  0.56067748975E+01  0.26610204804E+02  0.00000000000E+00 0. -1.
         22    1    4    4    0    0  0.32315969373E+01 -0.16864118530E+02  0.75200824782E+02  0.77136280442E+02  0.00000000000E+00 0. -1.
         22    1    4    4    0    0  0.83588352962E+01 -0.64238387781E+01  0.90198336715E+02  0.90812310720E+02  0.00000000000E+00 0. -1.
<mgrwt>
<rscale>  0 0.92790597E+02</rscale>
<asrwt>0</asrwt>
<pdfrwt beam="2">  1        1 0.18117586E-02 0.92790597E+02</pdfrwt>
<pdfrwt beam="1">  1       -1 0.28120361E-01 0.92790597E+02</pdfrwt>
<totfact> 0.67996476E+04</totfact>
</mgrwt>
</event>
<event>
 7    1  0.2911475E-009  0.8890244E+02  0.7818608E-02  0.1305532E+00
         -1   -1    0    0    0  501 -0.00000000000E+00  0.00000000000E+00  0.19074109523E+03  0.19074109530E+03  0.50400000000E-02 0.  1.
          1   -1    0    0  501    0  0.00000000000E+00 -0.00000000000E+00 -0.10359125238E+02  0.10359126464E+02  0.50400000000E-02 0. -1.
         23    2    1    2    0    0  0.00000000000E+00  0.00000000000E+00  0.18038196999E+03  0.20110022176E+03  0.88902441439E+02 0.  0.
    9000005    2    3    3    0    0 -0.21068516023E+02  0.23841319653E+02  0.15894623023E+03  0.16273641291E+03  0.14385586289E+02 0.  0.
         22    1    3    3    0    0  0.21068516023E+02 -0.23841319653E+02  0.21435739762E+02  0.38363808848E+02  0.00000000000E+00 0. -1.
         22    1    4    4    0    0 -0.19127756522E+02  0.11389707615E+02  0.97094532196E+02  0.99613978394E+02  0.00000000000E+00 0.  1.
         22    1    4    4    0    0 -0.19407595016E+01  0.12451612038E+02  0.61851698035E+02  0.63122434519E+02  0.00000000000E+00 0.  1.
<mgrwt>
<rscale>  0 0.88902441E+02</rscale>
<asrwt>0</asrwt>
<pdfrwt beam="2">  1        1 0.15937116E-02 0.88902441E+02</pdfrwt>
<pdfrwt beam="1">  1       -1 0.29344785E-01 0.88902441E+02</pdfrwt>
<totfact> 0.75132637E+04</totfact>
</mgrwt>
</event>
<event>
 7    1  0.4182167E-009  0.9163451E+02  0.7818608E-02  0.1298941E+00
          1   -1    0    0  501    0  0.00000000000E+00  0.00000000000E+00  0.18147192674E+03  0.18147192681E+03  0.50400000000E-02 0. -1.
         -1   -1    0    0    0  501 -0.00000000000E+00 -0.00000000000E+00 -0.11567744781E+02  0.11567745879E+02  0.50400000000E-02 0.  1.
         23    2    1    2    0    0  0.00000000000E+00  0.17763568394E-14  0.16990418196E+03  0.19303967269E+03  0.91634514156E+02 0.  0.
    9000005    2    3    3    0    0  0.24711332638E+02  0.14407389783E+02  0.15924661752E+03  0.16251416662E+03  0.15269129597E+02 0.  0.
         22    1    3    3    0    0 -0.24711332638E+02 -0.14407389783E+02  0.10657564438E+02  0.30525506071E+02  0.00000000000E+00 0.  1.
         22    1    4    4    0    0  0.40037938238E+01 -0.26473102096E+01  0.13714657715E+02  0.14530328715E+02  0.00000000000E+00 0. -1.
         22    1    4    4    0    0  0.20707538815E+02  0.17054699993E+02  0.14553195980E+03  0.14798383790E+03  0.00000000000E+00 0. -1.
<mgrwt>
<rscale>  0 0.91634514E+02</rscale>
<asrwt>0</asrwt>
<pdfrwt beam="1">  1        1 0.27918756E-01 0.91634514E+02</pdfrwt>
<pdfrwt beam="2">  1       -1 0.17796533E-02 0.91634514E+02</pdfrwt>
<totfact> 0.11465262E+05</totfact>
</mgrwt>
</event>
<event>
 7    1  0.2911475E-009  0.8947929E+02  0.7818608E-02  0.1304118E+00
         -1   -1    0    0    0  501 -0.00000000000E+00  0.00000000000E+00  0.12257370945E+02  0.12257371981E+02  0.50400000000E-02 0.  1.
          1   -1    0    0  501    0  0.00000000000E+00 -0.00000000000E+00 -0.16330058003E+03  0.16330058011E+03  0.50400000000E-02 0. -1.
         23    2    1    2    0    0  0.00000000000E+00  0.00000000000E+00 -0.15104320909E+03  0.17555795209E+03  0.89479291073E+02 0.  0.
    9000005    2    3    3    0    0 -0.28523483463E+02 -0.27569545129E+02 -0.11289532637E+03  0.12052223747E+03  0.14373102741E+02 0.  0.
         22    1    3    3    0    0  0.28523483463E+02  0.27569545129E+02 -0.38147882720E+02  0.55035714618E+02  0.00000000000E+00 0.  1.
         22    1    4    4    0    0 -0.11216825301E+02 -0.15843795223E+02 -0.36782930614E+02  0.41591188988E+02  0.00000000000E+00 0. -1.
         22    1    4    4    0    0 -0.17306658161E+02 -0.11725749907E+02 -0.76112395753E+02  0.78931048484E+02  0.00000000000E+00 0. -1.
<mgrwt>
<rscale>  0 0.89479291E+02</rscale>
<asrwt>0</asrwt>
<pdfrwt beam="2">  1        1 0.25123165E-01 0.89479291E+02</pdfrwt>
<pdfrwt beam="1">  1       -1 0.18857496E-02 0.89479291E+02</pdfrwt>
<totfact> 0.11981487E+05</totfact>
</mgrwt>
</event>
<event>
 7    1  0.2911475E-009  0.9347182E+02  0.7818608E-02  0.1294655E+00
         -1   -1    0    0    0  501 -0.00000000000E+00  0.00000000000E+00  0.96938734941E+02  0.96938735072E+02  0.50400000000E-02 0.  1.
          1   -1    0    0  501    0  0.00000000000E+00 -0.00000000000E+00 -0.22532224009E+02  0.22532224573E+02  0.50400000000E-02 0. -1.
         23    2    1    2    0    0  0.00000000000E+00  0.00000000000E+00  0.74406510931E+02  0.11947095965E+03  0.93471821045E+02 0.  0.
    9000005    2    3    3    0    0 -0.38849955762E+02  0.54555697839E+01  0.68689947681E+02  0.79825513504E+02  0.10710807129E+02 0.  0.
         22    1    3    3    0    0  0.38849955762E+02 -0.54555697839E+01  0.57165632502E+01  0.39645446141E+02  0.00000000000E+00 0. -1.
         22    1    4    4    0    0 -0.26614601671E+02  0.77045904879E+01  0.41181029015E+02  0.49634412331E+02  0.00000000000E+00 0. -1.
         22    1    4    4    0    0 -0.12235354090E+02 -0.22490207041E+01  0.27508918666E+02  0.30191101173E+02  0.00000000000E+00 0. -1.
<mgrwt>
<rscale>  0 0.93471821E+02</rscale>
<asrwt>0</asrwt>
<pdfrwt beam="2">  1        1 0.34664961E-02 0.93471821E+02</pdfrwt>
<pdfrwt beam="1">  1       -1 0.14913652E-01 0.93471821E+02</pdfrwt>
<totfact> 0.76761325E+04</totfact>
</mgrwt>
</event>
<event>
 7    1  0.2911475E-009  0.8626729E+02  0.7818608E-02  0.1312151E+00
          1   -1    0    0  501    0  0.00000000000E+00  0.00000000000E+00  0.46349953113E+02  0.46349953387E+02  0.50400000000E-02 0. -1.
         -1   -1    0    0    0  501 -0.00000000000E+00 -0.00000000000E+00 -0.40140523270E+02  0.40140523586E+02  0.50400000000E-02 0.  1.
         23    2    1    2    0    0  0.00000000000E+00  0.44408920985E-15  0.62094298428E+01  0.86490476973E+02  0.86267291531E+02 0.  0.
    9000005    2    3    3    0    0  0.29529407614E+02  0.23583981726E+01  0.34016277952E+02  0.45860823299E+02  0.82800961317E+01 0.  0.
         22    1    3    3    0    0 -0.29529407614E+02 -0.23583981726E+01 -0.27806848109E+02  0.40629653675E+02  0.00000000000E+00 0.  1.
         22    1    4    4    0    0  0.22109885310E+01  0.25263440662E+01  0.48478252100E+01  0.58968037013E+01  0.00000000000E+00 0.  1.
         22    1    4    4    0    0  0.27318419083E+02 -0.16794589362E+00  0.29168452742E+02  0.39964019597E+02  0.00000000000E+00 0.  1.
<mgrwt>
<rscale>  0 0.86267292E+02</rscale>
<asrwt>0</asrwt>
<pdfrwt beam="1">  1        1 0.71307621E-02 0.86267292E+02</pdfrwt>
<pdfrwt beam="2">  1       -1 0.61754652E-02 0.86267292E+02</pdfrwt>
<totfact> 0.10818289E+05</totfact>
</mgrwt>
</event>
<event>
 7    1  0.2911475E-009  0.9304163E+02  0.7818608E-02  0.1295649E+00
         -1   -1    0    0    0  501 -0.00000000000E+00  0.00000000000E+00  0.34686076856E+03  0.34686076859E+03  0.50400000000E-02 0.  1.
          1   -1    0    0  501    0  0.00000000000E+00 -0.00000000000E+00 -0.62393507964E+01  0.62393528320E+01  0.50400000000E-02 0. -1.
         23    2    1    2    0    0 -0.35527136788E-14  0.00000000000E+00  0.34062141776E+03  0.35310012143E+03  0.93041633227E+02 0.  0.
    9000005    2    3    3    0    0  0.31974314048E+02  0.31472419157E+02  0.14019755271E+03  0.14771610158E+03  0.12321645729E+02 0.  0.
         22    1    3    3    0    0 -0.31974314048E+02 -0.31472419157E+02  0.20042386505E+03  0.20538401984E+03  0.00000000000E+00 0.  1.
         22    1    4    4    0    0  0.14249866764E+02  0.59340760684E+01  0.45629883434E+02  0.48170096780E+02  0.00000000000E+00 0. -1.
         22    1    4    4    0    0  0.17724447284E+02  0.25538343089E+02  0.94567669278E+02  0.99546004801E+02  0.00000000000E+00 0. -1.
<mgrwt>
<rscale>  0 0.93041633E+02</rscale>
<asrwt>0</asrwt>
<pdfrwt beam="2">  1        1 0.95990009E-03 0.93041633E+02</pdfrwt>
<pdfrwt beam="1">  1       -1 0.53363206E-01 0.93041633E+02</pdfrwt>
<totfact> 0.54069079E+04</totfact>
</mgrwt>
</event>
<event>
 7    1  0.2911475E-009  0.9284319E+02  0.7818608E-02  0.1296109E+00
          1   -1    0    0  501    0  0.00000000000E+00  0.00000000000E+00  0.52985208663E+03  0.52985208665E+03  0.50400000000E-02 0. -1.
         -1   -1    0    0    0  501 -0.00000000000E+00 -0.00000000000E+00 -0.40671042764E+01  0.40671073992E+01  0.50400000000E-02 0.  1.
         23    2    1    2    0    0  0.00000000000E+00  0.00000000000E+00  0.52578498235E+03  0.53391919405E+03  0.92843190972E+02 0.  0.
    9000005    2    3    3    0    0  0.36474483071E+02  0.12655141352E+02  0.41031224384E+03  0.41216331593E+03  0.56498703318E+01 0.  0.
         22    1    3    3    0    0 -0.36474483071E+02 -0.12655141352E+02  0.11547273851E+03  0.12175587812E+03  0.00000000000E+00 0.  1.
         22    1    4    4    0    0  0.28213654082E+02  0.90138655425E+01  0.28825950779E+03  0.28977716245E+03  0.00000000000E+00 0. -1.
         22    1    4    4    0    0  0.82608289892E+01  0.36412758094E+01  0.12205273605E+03  0.12238615347E+03  0.00000000000E+00 0. -1.
<mgrwt>
<rscale>  0 0.92843191E+02</rscale>
<asrwt>0</asrwt>
<pdfrwt beam="1">  1        1 0.81515623E-01 0.92843191E+02</pdfrwt>
<pdfrwt beam="2">  1       -1 0.62570923E-03 0.92843191E+02</pdfrwt>
<totfact> 0.13358415E+05</totfact>
</mgrwt>
</event>
<event>
 7    1  0.2911475E-009  0.9126881E+02  0.7818608E-02  0.1299808E+00
          1   -1    0    0  501    0  0.00000000000E+00  0.00000000000E+00  0.11047183277E+03  0.11047183288E+03  0.50400000000E-02 0. -1.
         -1   -1    0    0    0  501 -0.00000000000E+00 -0.00000000000E+00 -0.18850950638E+02  0.18850951312E+02  0.50400000000E-02 0.  1.
         23    2    1    2    0    0  0.00000000000E+00  0.00000000000E+00  0.91620882130E+02  0.12932278420E+03  0.91268814333E+02 0.  0.
    9000005    2    3    3    0    0 -0.41672812430E+02 -0.58374958128E+01  0.69805812381E+02  0.81924504465E+02  0.82506567365E+01 0.  0.
         22    1    3    3    0    0  0.41672812430E+02  0.58374958128E+01  0.21815069750E+02  0.47398279730E+02  0.00000000000E+00 0.  1.
         22    1    4    4    0    0  0.19175827850E+00  0.45516030676E+00  0.44578694984E+00  0.66533310970E+00  0.00000000000E+00 0.  1.
         22    1    4    4    0    0 -0.41864570709E+02 -0.62926561196E+01  0.69360025431E+02  0.81259171356E+02  0.00000000000E+00 0.  1.
<mgrwt>
<rscale>  0 0.91268814E+02</rscale>
<asrwt>0</asrwt>
<pdfrwt beam="1">  1        1 0.16995666E-01 0.91268814E+02</pdfrwt>
<pdfrwt beam="2">  1       -1 0.29001463E-02 0.91268814E+02</pdfrwt>
<totfact> 0.10592609E+05</totfact>
</mgrwt>
</event>
<event>
 7    1  0.2911475E-009  0.9032158E+02  0.7818608E-02  0.1302075E+00
         -1   -1    0    0    0  501 -0.00000000000E+00  0.00000000000E+00  0.67598624732E+02  0.67598624920E+02  0.50400000000E-02 0.  1.
          1   -1    0    0  501    0  0.00000000000E+00 -0.00000000000E+00 -0.30170684088E+02  0.30170684509E+02  0.50400000000E-02 0. -1.
         23    2    1    2    0    0  0.00000000000E+00  0.00000000000E+00  0.37427940644E+02  0.97769309429E+02  0.90321576190E+02 0.  0.
    9000005    2    3    3    0    0  0.27054557299E+02 -0.13912747517E+02 -0.17400755601E+02  0.35066043597E+02  0.11521735990E+01 0.  0.
         22    1    3    3    0    0 -0.27054557299E+02  0.13912747517E+02  0.54828696245E+02  0.62703265832E+02  0.00000000000E+00 0.  1.
         22    1    4    4    0    0  0.11386815311E+02 -0.62420727574E+01 -0.79502080599E+01  0.15225926686E+02  0.00000000000E+00 0. -1.
         22    1    4    4    0    0  0.15667741987E+02 -0.76706747595E+01 -0.94505475411E+01  0.19840116912E+02  0.00000000000E+00 0. -1.
<mgrwt>
<rscale>  0 0.90321576E+02</rscale>
<asrwt>0</asrwt>
<pdfrwt beam="2">  1        1 0.46416438E-02 0.90321576E+02</pdfrwt>
<pdfrwt beam="1">  1       -1 0.10399788E-01 0.90321576E+02</pdfrwt>
<totfact> 0.89138939E+04</totfact>
</mgrwt>
</event>
<event>
 7    1  0.2911475E-009  0.1175020E+03  0.7818608E-02  0.1247276E+00
         -1   -1    0    0    0  501 -0.00000000000E+00  0.00000000000E+00  0.45790707043E+02  0.45790707320E+02  0.50400000000E-02 0.  1.
          1   -1    0    0  501    0  0.00000000000E+00 -0.00000000000E+00 -0.75379499405E+02  0.75379499573E+02  0.50400000000E-02 0. -1.
         23    2    1    2    0    0  0.00000000000E+00 -0.71054273576E-14 -0.29588792362E+02  0.12117020689E+03  0.11750201022E+03 0.  0.
    9000005    2    3    3    0    0  0.24031642963E+02  0.49520503606E+02 -0.32965073809E+02  0.66023136098E+02  0.15574282268E+02 0.  0.
         22    1    3    3    0    0 -0.24031642963E+02 -0.49520503606E+02  0.33762814464E+01  0.55147070795E+02  0.00000000000E+00 0.  1.
         22    1    4    4    0    0  0.12067470098E+02  0.22162608910E+02 -0.24053076058E+02  0.34861949689E+02  0.00000000000E+00 0.  1.
         22    1    4    4    0    0  0.11964172865E+02  0.27357894696E+02 -0.89119977509E+01  0.31161186409E+02  0.00000000000E+00 0.  1.
<mgrwt>
<rscale>  0 0.11750201E+03</rscale>
<asrwt>0</asrwt>
<pdfrwt beam="2">  1        1 0.11596846E-01 0.11750201E+03</pdfrwt>
<pdfrwt beam="1">  1       -1 0.70447242E-02 0.11750201E+03</pdfrwt>
<totfact> 0.49010228E+04</totfact>
</mgrwt>
</event>
<event>
 7    1  0.2911475E-009  0.9104062E+02  0.7818608E-02  0.1300351E+00
         -1   -1    0    0    0  501 -0.00000000000E+00  0.00000000000E+00  0.65824859347E+03  0.65824859349E+03  0.50400000000E-02 0.  1.
          1   -1    0    0  501    0  0.00000000000E+00 -0.00000000000E+00 -0.31478950078E+01  0.31478990425E+01  0.50400000000E-02 0. -1.
         23    2    1    2    0    0  0.00000000000E+00  0.00000000000E+00  0.65510069846E+03  0.66139649253E+03  0.91040623941E+02 0.  0.
    9000005    2    3    3    0    0 -0.38714077674E+01  0.27690627687E+02  0.58694703153E+03  0.58773048289E+03  0.11770473234E+02 0.  0.
         22    1    3    3    0    0  0.38714077674E+01 -0.27690627687E+02  0.68153666933E+02  0.73666009639E+02  0.00000000000E+00 0. -1.
         22    1    4    4    0    0 -0.85419745230E+00  0.12973894766E+02  0.16314914222E+03  0.16366641135E+03  0.00000000000E+00 0. -1.
         22    1    4    4    0    0 -0.30172103151E+01  0.14716732921E+02  0.42379788931E+03  0.42406407154E+03  0.00000000000E+00 0. -1.
<mgrwt>
<rscale>  0 0.91040624E+02</rscale>
<asrwt>0</asrwt>
<pdfrwt beam="2">  1        1 0.48429208E-03 0.91040624E+02</pdfrwt>
<pdfrwt beam="1">  1       -1 0.10126897E+00 0.91040624E+02</pdfrwt>
<totfact> 0.38919903E+04</totfact>
</mgrwt>
</event>
<event>
 7    1  0.2911475E-009  0.9147221E+02  0.7818608E-02  0.1299325E+00
          1   -1    0    0  501    0  0.00000000000E+00  0.00000000000E+00  0.10416891807E+04  0.10416891807E+04  0.50400000000E-02 0. -1.
         -1   -1    0    0    0  501 -0.00000000000E+00 -0.00000000000E+00 -0.20080728743E+01  0.20080791991E+01  0.50400000000E-02 0.  1.
         23    2    1    2    0    0  0.00000000000E+00  0.00000000000E+00  0.10396811078E+04  0.10436972599E+04  0.91472205485E+02 0.  0.
    9000005    2    3    3    0    0  0.36047455383E+02 -0.79296700001E+01  0.82655558952E+03  0.82739935133E+03  0.57658736477E+01 0.  0.
         22    1    3    3    0    0 -0.36047455383E+02  0.79296700001E+01  0.21312551827E+03  0.21629790855E+03  0.00000000000E+00 0.  1.
         22    1    4    4    0    0  0.57306048562E+01  0.21408946941E+00  0.97817579813E+02  0.97985532538E+02  0.00000000000E+00 0.  1.
         22    1    4    4    0    0  0.30316850526E+02 -0.81437594695E+01  0.72873800971E+03  0.72941381879E+03  0.00000000000E+00 0.  1.
<mgrwt>
<rscale>  0 0.91472205E+02</rscale>
<asrwt>0</asrwt>
<pdfrwt beam="1">  1        1 0.16026017E+00 0.91472205E+02</pdfrwt>
<pdfrwt beam="2">  1       -1 0.30893420E-03 0.91472205E+02</pdfrwt>
<totfact> 0.13329069E+05</totfact>
</mgrwt>
</event>
<event>
 7    1  0.2911475E-009  0.9114755E+02  0.7818608E-02  0.1300096E+00
          1   -1    0    0  501    0  0.00000000000E+00  0.00000000000E+00  0.24405857687E+03  0.24405857693E+03  0.50400000000E-02 0. -1.
         -1   -1    0    0    0  501 -0.00000000000E+00 -0.00000000000E+00 -0.85101233624E+01  0.85101248548E+01  0.50400000000E-02 0.  1.
         23    2    1    2    0    0  0.00000000000E+00  0.35527136788E-14  0.23554845351E+03  0.25256870178E+03  0.91147546141E+02 0.  0.
    9000005    2    3    3    0    0 -0.28340205650E+02  0.23806317338E+02  0.53692625484E+02  0.66984623291E+02  0.15301428839E+02 0.  0.
         22    1    3    3    0    0  0.28340205650E+02 -0.23806317338E+02  0.18185582803E+03  0.18558407849E+03  0.00000000000E+00 0. -1.
         22    1    4    4    0    0 -0.53307584948E+00  0.58863503244E+01  0.34942372813E+01  0.68660748743E+01  0.00000000000E+00 0.  1.
         22    1    4    4    0    0 -0.27807129801E+02  0.17919967014E+02  0.50198388203E+02  0.60118548417E+02  0.00000000000E+00 0.  1.
<mgrwt>
<rscale>  0 0.91147546E+02</rscale>
<asrwt>0</asrwt>
<pdfrwt beam="1">  1        1 0.37547474E-01 0.91147546E+02</pdfrwt>
<pdfrwt beam="2">  1       -1 0.13092498E-02 0.91147546E+02</pdfrwt>
<totfact> 0.12319757E+05</totfact>
</mgrwt>
</event>
<event>
 6    1  0.2911475E-009  0.1689106E+03  0.7818608E-02  0.1178989E+00
          1   -1    0    0  501    0  0.00000000000E+00  0.00000000000E+00  0.20720657940E+02  0.20720658553E+02  0.50400000000E-02 0. -1.
         -1   -1    0    0    0  501 -0.00000000000E+00 -0.00000000000E+00 -0.34423138773E+03  0.34423138776E+03  0.50400000000E-02 0.  1.
    9000005    2    1    2    0    0  0.79474818581E+02  0.49819688337E+01 -0.22245775267E+03  0.23629447373E+03  0.25612079408E+01 0.  0.
         22    1    1    2    0    0 -0.79474818581E+02 -0.49819688337E+01 -0.10105297711E+03  0.12865757259E+03  0.00000000000E+00 0. -1.
         22    1    3    3    0    0  0.26442817438E+02  0.13994393316E+01 -0.70513048023E+02  0.75321118991E+02  0.00000000000E+00 0.  1.
         22    1    3    3    0    0  0.53032001143E+02  0.35825295021E+01 -0.15194470465E+03  0.16097335473E+03  0.00000000000E+00 0.  1.
<mgrwt>
<rscale>  0 0.16891064E+03</rscale>
<asrwt>0</asrwt>
<pdfrwt beam="1">  1        1 0.31877938E-02 0.16891064E+03</pdfrwt>
<pdfrwt beam="2">  1       -1 0.52958671E-01 0.16891064E+03</pdfrwt>
<totfact> 0.11059439E+04</totfact>
</mgrwt>
</event>
<event>
 7    1  0.2911475E-009  0.9280943E+02  0.7818608E-02  0.1296187E+00
         -1   -1    0    0    0  501 -0.00000000000E+00  0.00000000000E+00  0.26932195589E+02  0.26932196060E+02  0.50400000000E-02 0.  1.
          1   -1    0    0  501    0  0.00000000000E+00 -0.00000000000E+00 -0.79956249096E+02  0.79956249255E+02  0.50400000000E-02 0. -1.
         23    2    1    2    0    0  0.00000000000E+00 -0.17763568394E-14 -0.53024053507E+02  0.10688844532E+03  0.92809425661E+02 0.  0.
    9000005    2    3    3    0    0  0.30662415309E+02  0.12631592794E+02  0.10478325489E+02  0.35248421674E+02  0.57371662329E+01 0.  0.
         22    1    3    3    0    0 -0.30662415309E+02 -0.12631592794E+02 -0.63502378996E+02  0.71640023641E+02  0.00000000000E+00 0. -1.
         22    1    4    4    0    0  0.85346832058E+01  0.82506603433E+00  0.26668552996E+01  0.89796251911E+01  0.00000000000E+00 0. -1.
         22    1    4    4    0    0  0.22127732103E+02  0.11806526759E+02  0.78114701899E+01  0.26268796483E+02  0.00000000000E+00 0. -1.
<mgrwt>
<rscale>  0 0.92809426E+02</rscale>
<asrwt>0</asrwt>
<pdfrwt beam="2">  1        1 0.12300961E-01 0.92809426E+02</pdfrwt>
<pdfrwt beam="1">  1       -1 0.41434148E-02 0.92809426E+02</pdfrwt>
<totfact> 0.95935814E+04</totfact>
</mgrwt>
</event>
<event>
 7    1  0.3187749E-009  0.8594402E+02  0.7818608E-02  0.1312982E+00
         -1   -1    0    0    0  501 -0.00000000000E+00  0.00000000000E+00  0.70918046100E+01  0.70918064009E+01  0.50400000000E-02 0.  1.
          1   -1    0    0  501    0  0.00000000000E+00 -0.00000000000E+00 -0.26038414857E+03  0.26038414862E+03  0.50400000000E-02 0. -1.
         23    2    1    2    0    0  0.00000000000E+00 -0.88817841970E-15 -0.25329234396E+03  0.26747595502E+03  0.85944022508E+02 0.  0.
    9000005    2    3    3    0    0 -0.41333217467E+02 -0.70398760759E+01 -0.13504906297E+03  0.14201891767E+03  0.13157843503E+02 0.  0.
         22    1    3    3    0    0  0.41333217467E+02  0.70398760759E+01 -0.11824328099E+03  0.12545703735E+03  0.00000000000E+00 0.  1.
         22    1    4    4    0    0 -0.27245924804E+02  0.17022866379E+01 -0.80196334864E+02  0.84715348809E+02  0.00000000000E+00 0.  1.
         22    1    4    4    0    0 -0.14087292663E+02 -0.87421627138E+01 -0.54852728104E+02  0.57303568859E+02  0.00000000000E+00 0.  1.
<mgrwt>
<rscale>  0 0.85944023E+02</rscale>
<asrwt>0</asrwt>
<pdfrwt beam="2">  1        1 0.40059093E-01 0.85944023E+02</pdfrwt>
<pdfrwt beam="1">  1       -1 0.10910472E-02 0.85944023E+02</pdfrwt>
<totfact> 0.14587975E+05</totfact>
</mgrwt>
</event>
<event>
 7    1  0.2911475E-009  0.9173759E+02  0.7818608E-02  0.1298698E+00
          1   -1    0    0  501    0  0.00000000000E+00  0.00000000000E+00  0.33631828377E+03  0.33631828381E+03  0.50400000000E-02 0. -1.
         -1   -1    0    0    0  501 -0.00000000000E+00 -0.00000000000E+00 -0.62558178150E+01  0.62558198452E+01  0.50400000000E-02 0.  1.
         23    2    1    2    0    0  0.00000000000E+00  0.17763568394E-14  0.33006246596E+03  0.34257410366E+03  0.91737588051E+02 0.  0.
    9000005    2    3    3    0    0 -0.39301496245E+02  0.15157110890E+02  0.23125405592E+03  0.23516159270E+03  0.69419507092E+01 0.  0.
         22    1    3    3    0    0  0.39301496245E+02 -0.15157110890E+02  0.98808410034E+02  0.10741251096E+03  0.00000000000E+00 0.  1.
         22    1    4    4    0    0 -0.21242690000E+02  0.11793837386E+02  0.12770406915E+03  0.12999490665E+03  0.00000000000E+00 0. -1.
         22    1    4    4    0    0 -0.18058806245E+02  0.33632735039E+01  0.10354998678E+03  0.10516668604E+03  0.00000000000E+00 0. -1.
<mgrwt>
<rscale>  0 0.91737588E+02</rscale>
<asrwt>0</asrwt>
<pdfrwt beam="1">  1        1 0.51741288E-01 0.91737588E+02</pdfrwt>
<pdfrwt beam="2">  1       -1 0.96243342E-03 0.91737588E+02</pdfrwt>
<totfact> 0.12876739E+05</totfact>
</mgrwt>
</event>
<event>
 7    1  0.2911475E-009  0.8972760E+02  0.7818608E-02  0.1303513E+00
          1   -1    0    0  501    0  0.00000000000E+00  0.00000000000E+00  0.43988455492E+01  0.43988484365E+01  0.50400000000E-02 0. -1.
         -1   -1    0    0    0  501 -0.00000000000E+00 -0.00000000000E+00 -0.45756543780E+03  0.45756543783E+03  0.50400000000E-02 0.  1.
         23    2    1    2    0    0  0.00000000000E+00  0.44408920985E-15 -0.45316659225E+03  0.46196428627E+03  0.89727595820E+02 0.  0.
    9000005    2    3    3    0    0 -0.21787388472E+02 -0.26689743542E+01 -0.42702443257E+03  0.42782887601E+03  0.14348080495E+02 0.  0.
         22    1    3    3    0    0  0.21787388472E+02  0.26689743542E+01 -0.26142159678E+02  0.34135410254E+02  0.00000000000E+00 0. -1.
         22    1    4    4    0    0 -0.12671319444E+02  0.39347793025E+01 -0.30434731504E+03  0.30463639473E+03  0.00000000000E+00 0. -1.
         22    1    4    4    0    0 -0.91160690290E+01 -0.66037536567E+01 -0.12267711753E+03  0.12319248128E+03  0.00000000000E+00 0. -1.
<mgrwt>
<rscale>  0 0.89727596E+02</rscale>
<asrwt>0</asrwt>
<pdfrwt beam="1">  1        1 0.67674605E-03 0.89727596E+02</pdfrwt>
<pdfrwt beam="2">  1       -1 0.70394646E-01 0.89727596E+02</pdfrwt>
<totfact> 0.51706603E+04</totfact>
</mgrwt>
</event>
<event>
 7    1  0.2911475E-009  0.8917617E+02  0.7818608E-02  0.1304859E+00
         -1   -1    0    0    0  501 -0.00000000000E+00  0.00000000000E+00  0.83054759580E+01  0.83054774872E+01  0.50400000000E-02 0.  1.
          1   -1    0    0  501    0  0.00000000000E+00 -0.00000000000E+00 -0.23937187446E+03  0.23937187452E+03  0.50400000000E-02 0. -1.
         23    2    1    2    0    0 -0.35527136788E-14  0.00000000000E+00 -0.23106639851E+03  0.24767735200E+03  0.89176174942E+02 0.  0.
    9000005    2    3    3    0    0 -0.31092667100E+02 -0.29806469136E+02 -0.14575751788E+03  0.15211174803E+03  0.61278315782E+01 0.  0.
         22    1    3    3    0    0  0.31092667100E+02  0.29806469136E+02 -0.85308880626E+02  0.95565603976E+02  0.00000000000E+00 0.  1.
         22    1    4    4    0    0 -0.17074837167E+02 -0.16546099133E+02 -0.69663408175E+02  0.73609197111E+02  0.00000000000E+00 0.  1.
         22    1    4    4    0    0 -0.14017829933E+02 -0.13260370002E+02 -0.76094109705E+02  0.78502550917E+02  0.00000000000E+00 0.  1.
<mgrwt>
<rscale>  0 0.89176175E+02</rscale>
<asrwt>0</asrwt>
<pdfrwt beam="2">  1        1 0.36826437E-01 0.89176175E+02</pdfrwt>
<pdfrwt beam="1">  1       -1 0.12777658E-02 0.89176175E+02</pdfrwt>
<totfact> 0.13010678E+05</totfact>
</mgrwt>
</event>
<event>
 7    1  0.2911475E-009  0.9191111E+02  0.7818608E-02  0.1298289E+00
          1   -1    0    0  501    0  0.00000000000E+00  0.00000000000E+00  0.43145546918E+03  0.43145546920E+03  0.50400000000E-02 0. -1.
         -1   -1    0    0    0  501 -0.00000000000E+00 -0.00000000000E+00 -0.48948564457E+01  0.48948590405E+01  0.50400000000E-02 0.  1.
         23    2    1    2    0    0  0.00000000000E+00  0.00000000000E+00  0.42656061273E+03  0.43635032824E+03  0.91911112644E+02 0.  0.
    9000005    2    3    3    0    0  0.51293715779E+01 -0.44496813053E+02  0.25293814156E+03  0.25704321930E+03  0.93400377712E+01 0.  0.
         22    1    3    3    0    0 -0.51293715779E+01  0.44496813053E+02  0.17362247117E+03  0.17930710895E+03  0.00000000000E+00 0. -1.
         22    1    4    4    0    0  0.34399242361E+01 -0.17434972822E+02  0.12554238847E+03  0.12679393778E+03  0.00000000000E+00 0. -1.
         22    1    4    4    0    0  0.16894473418E+01 -0.27061840231E+02  0.12739575310E+03  0.13024928152E+03  0.00000000000E+00 0. -1.
<mgrwt>
<rscale>  0 0.91911113E+02</rscale>
<asrwt>0</asrwt>
<pdfrwt beam="1">  1        1 0.66377773E-01 0.91911113E+02</pdfrwt>
<pdfrwt beam="2">  1       -1 0.75305495E-03 0.91911113E+02</pdfrwt>
<totfact> 0.13363342E+05</totfact>
</mgrwt>
</event>
<event>
 7    1  0.2911475E-009  0.9358749E+02  0.7818608E-02  0.1294389E+00
         -1   -1    0    0    0  501 -0.00000000000E+00  0.00000000000E+00  0.11980316150E+03  0.11980316161E+03  0.50400000000E-02 0.  1.
          1   -1    0    0  501    0  0.00000000000E+00 -0.00000000000E+00 -0.18277102967E+02  0.18277103662E+02  0.50400000000E-02 0. -1.
         23    2    1    2    0    0  0.00000000000E+00  0.00000000000E+00  0.10152605854E+03  0.13808026527E+03  0.93587494333E+02 0.  0.
    9000005    2    3    3    0    0  0.22510393169E+02  0.60016018670E+00  0.11096113646E+03  0.11366513291E+03  0.10015520023E+02 0.  0.
         22    1    3    3    0    0 -0.22510393169E+02 -0.60016018670E+00 -0.94350779248E+01  0.24415132363E+02  0.00000000000E+00 0. -1.
         22    1    4    4    0    0  0.18273148754E+02  0.36613344919E+01  0.72795685902E+02  0.75143364455E+02  0.00000000000E+00 0.  1.
         22    1    4    4    0    0  0.42372444145E+01 -0.30611743052E+01  0.38165450561E+02  0.38521768455E+02  0.00000000000E+00 0.  1.
<mgrwt>
<rscale>  0 0.93587494E+02</rscale>
<asrwt>0</asrwt>
<pdfrwt beam="2">  1        1 0.28118621E-02 0.93587494E+02</pdfrwt>
<pdfrwt beam="1">  1       -1 0.18431255E-01 0.93587494E+02</pdfrwt>
<totfact> 0.73425322E+04</totfact>
</mgrwt>
</event>
<event>
 7    1  0.3247512E-009  0.9420413E+02  0.7818608E-02  0.1292979E+00
          1   -1    0    0  501    0  0.00000000000E+00  0.00000000000E+00  0.48536937401E+03  0.48536937404E+03  0.50400000000E-02 0. -1.
         -1   -1    0    0    0  501 -0.00000000000E+00 -0.00000000000E+00 -0.45709597613E+01  0.45709625398E+01  0.50400000000E-02 0.  1.
         23    2    1    2    0    0  0.00000000000E+00  0.17763568394E-14  0.48079841425E+03  0.48994033658E+03  0.94204130802E+02 0.  0.
    9000005    2    3    3    0    0 -0.42808358704E+02  0.15710708548E+02  0.27376520965E+03  0.27794474760E+03  0.15050274645E+02 0.  0.
         22    1    3    3    0    0  0.42808358704E+02 -0.15710708548E+02  0.20703320461E+03  0.21199558898E+03  0.00000000000E+00 0.  1.
         22    1    4    4    0    0 -0.43057869254E+02  0.13899217973E+02  0.26993174963E+03  0.27369749327E+03  0.00000000000E+00 0.  1.
         22    1    4    4    0    0  0.24951055039E+00  0.18114905748E+01  0.38334600151E+01  0.42472543254E+01  0.00000000000E+00 0.  1.
<mgrwt>
<rscale>  0 0.94204131E+02</rscale>
<asrwt>0</asrwt>
<pdfrwt beam="1">  1        1 0.74672256E-01 0.94204131E+02</pdfrwt>
<pdfrwt beam="2">  1       -1 0.70322437E-03 0.94204131E+02</pdfrwt>
<totfact> 0.12723184E+05</totfact>
</mgrwt>
</event>
<event>
 7    1  0.2911475E-009  0.9011419E+02  0.7818608E-02  0.1302575E+00
          1   -1    0    0  501    0  0.00000000000E+00  0.00000000000E+00  0.62557331005E+01  0.62557351307E+01  0.50400000000E-02 0. -1.
         -1   -1    0    0    0  501 -0.00000000000E+00 -0.00000000000E+00 -0.32452495485E+03  0.32452495489E+03  0.50400000000E-02 0.  1.
         23    2    1    2    0    0  0.00000000000E+00  0.35527136788E-14 -0.31826922175E+03  0.33078069002E+03  0.90114190764E+02 0.  0.
    9000005    2    3    3    0    0  0.32742614242E+02  0.30511923147E+02 -0.14118580482E+03  0.14812912886E+03  0.23981437823E+01 0.  0.
         22    1    3    3    0    0 -0.32742614242E+02 -0.30511923147E+02 -0.17708341694E+03  0.18265156116E+03  0.00000000000E+00 0. -1.
         22    1    4    4    0    0  0.29449907202E+01  0.25875011839E+01 -0.14742940300E+02  0.15255242424E+02  0.00000000000E+00 0. -1.
         22    1    4    4    0    0  0.29797623521E+02  0.27924421963E+02 -0.12644286452E+03  0.13287388643E+03  0.00000000000E+00 0. -1.
<mgrwt>
<rscale>  0 0.90114191E+02</rscale>
<asrwt>0</asrwt>
<pdfrwt beam="1">  1        1 0.96242089E-03 0.90114191E+02</pdfrwt>
<pdfrwt beam="2">  1       -1 0.49926903E-01 0.90114191E+02</pdfrwt>
<totfact> 0.60506725E+04</totfact>
</mgrwt>
</event>
<event>
 7    1  0.2911475E-009  0.1005147E+03  0.7818608E-02  0.1279217E+00
          1   -1    0    0  501    0  0.00000000000E+00  0.00000000000E+00  0.36276809763E+02  0.36276810113E+02  0.50400000000E-02 0. -1.
         -1   -1    0    0    0  501 -0.00000000000E+00 -0.00000000000E+00 -0.69625792949E+02  0.69625793131E+02  0.50400000000E-02 0.  1.
         23    2    1    2    0    0  0.35527136788E-14  0.00000000000E+00 -0.33348983186E+02  0.10590260324E+03  0.10051470885E+03 0.  0.
    9000005    2    3    3    0    0  0.27878513060E+02 -0.36329928499E+02  0.50148749244E+01  0.46162660122E+02  0.29609160444E+01 0.  0.
         22    1    3    3    0    0 -0.27878513060E+02  0.36329928499E+02 -0.38363858110E+02  0.59739943123E+02  0.00000000000E+00 0.  1.
         22    1    4    4    0    0  0.99280780122E+01 -0.12746291685E+02  0.35361544357E+00  0.16160437142E+02  0.00000000000E+00 0. -1.
         22    1    4    4    0    0  0.17950435047E+02 -0.23583636815E+02  0.46612594808E+01  0.30002222980E+02  0.00000000000E+00 0. -1.
<mgrwt>
<rscale>  0 0.10051471E+03</rscale>
<asrwt>0</asrwt>
<pdfrwt beam="1">  1        1 0.55810477E-02 0.10051471E+03</pdfrwt>
<pdfrwt beam="2">  1       -1 0.10711660E-01 0.10051471E+03</pdfrwt>
<totfact> 0.67536283E+04</totfact>
</mgrwt>
</event>
<event>
 7    1  0.2911475E-009  0.9134130E+02  0.7818608E-02  0.1299636E+00
          1   -1    0    0  501    0  0.00000000000E+00  0.00000000000E+00  0.14628835800E+02  0.14628836669E+02  0.50400000000E-02 0. -1.
         -1   -1    0    0    0  501 -0.00000000000E+00 -0.00000000000E+00 -0.14258197434E+03  0.14258197443E+03  0.50400000000E-02 0.  1.
         23    2    1    2    0    0  0.35527136788E-14  0.00000000000E+00 -0.12795313854E+03  0.15721081110E+03  0.91341302071E+02 0.  0.
    9000005    2    3    3    0    0  0.28745973747E+02  0.46552014527E+01 -0.12447092698E+03  0.12788287724E+03  0.36078692448E+01 0.  0.
         22    1    3    3    0    0 -0.28745973747E+02 -0.46552014527E+01 -0.34822115633E+01  0.29327933862E+02  0.00000000000E+00 0. -1.
         22    1    4    4    0    0  0.19358666364E+02  0.17446474055E+01 -0.86958967996E+02  0.89104791526E+02  0.00000000000E+00 0. -1.
         22    1    4    4    0    0  0.93873073828E+01  0.29105540472E+01 -0.37511958985E+02  0.38778085715E+02  0.00000000000E+00 0. -1.
<mgrwt>
<rscale>  0 0.91341302E+02</rscale>
<asrwt>0</asrwt>
<pdfrwt beam="1">  1        1 0.22505903E-02 0.91341302E+02</pdfrwt>
<pdfrwt beam="2">  1       -1 0.21935687E-01 0.91341302E+02</pdfrwt>
<totfact> 0.75314458E+04</totfact>
</mgrwt>
</event>
<event>
 7    1  0.3871358E-009  0.9229382E+02  0.7818608E-02  0.1297390E+00
          1   -1    0    0  501    0  0.00000000000E+00  0.00000000000E+00  0.14566551978E+03  0.14566551986E+03  0.50400000000E-02 0. -1.
         -1   -1    0    0    0  501 -0.00000000000E+00 -0.00000000000E+00 -0.14619365063E+02  0.14619365931E+02  0.50400000000E-02 0.  1.
         23    2    1    2    0    0  0.00000000000E+00  0.00000000000E+00  0.13104615471E+03  0.16028488580E+03  0.92293824003E+02 0.  0.
    9000005    2    3    3    0    0  0.24246472690E+02 -0.24640863051E+02  0.11710477373E+03  0.12300988515E+03  0.14927834484E+02 0.  0.
         22    1    3    3    0    0 -0.24246472690E+02  0.24640863051E+02  0.13941380980E+02  0.37275000650E+02  0.00000000000E+00 0. -1.
         22    1    4    4    0    0  0.36764382533E+01 -0.10397263361E+02  0.54226205631E+02  0.55336250873E+02  0.00000000000E+00 0.  1.
         22    1    4    4    0    0  0.20570034437E+02 -0.14243599690E+02  0.62878568103E+02  0.67673634272E+02  0.00000000000E+00 0.  1.
<mgrwt>
<rscale>  0 0.92293824E+02</rscale>
<asrwt>0</asrwt>
<pdfrwt beam="1">  1        1 0.22410079E-01 0.92293824E+02</pdfrwt>
<pdfrwt beam="2">  1       -1 0.22491332E-02 0.92293824E+02</pdfrwt>
<totfact> 0.10791965E+05</totfact>
</mgrwt>
</event>
<event>
 7    1  0.2911475E-009  0.9117414E+02  0.7818608E-02  0.1300033E+00
          1   -1    0    0  501    0  0.00000000000E+00  0.00000000000E+00  0.34070690689E+03  0.34070690693E+03  0.50400000000E-02 0. -1.
         -1   -1    0    0    0  501 -0.00000000000E+00 -0.00000000000E+00 -0.60996145626E+01  0.60996166448E+01  0.50400000000E-02 0.  1.
         23    2    1    2    0    0  0.00000000000E+00  0.00000000000E+00  0.33460729233E+03  0.34680652358E+03  0.91174144984E+02 0.  0.
    9000005    2    3    3    0    0  0.21162098953E+02  0.39640846873E+02  0.17048529937E+03  0.17664407253E+03  0.10893111827E+02 0.  0.
         22    1    3    3    0    0 -0.21162098953E+02 -0.39640846873E+02  0.16412199296E+03  0.17016245105E+03  0.00000000000E+00 0. -1.
         22    1    4    4    0    0  0.32787465085E+01  0.70003437633E+01  0.48342631695E+02  0.48956766955E+02  0.00000000000E+00 0. -1.
         22    1    4    4    0    0  0.17883352444E+02  0.32640503110E+02  0.12214266768E+03  0.12768730557E+03  0.00000000000E+00 0. -1.
<mgrwt>
<rscale>  0 0.91174145E+02</rscale>
<asrwt>0</asrwt>
<pdfrwt beam="1">  1        1 0.52416460E-01 0.91174145E+02</pdfrwt>
<pdfrwt beam="2">  1       -1 0.93840218E-03 0.91174145E+02</pdfrwt>
<totfact> 0.13120619E+05</totfact>
</mgrwt>
</event>
<event>
 7    1  0.2911475E-009  0.9021289E+02  0.7818608E-02  0.1302337E+00
          1   -1    0    0  501    0  0.00000000000E+00  0.00000000000E+00  0.45485710854E+02  0.45485711134E+02  0.50400000000E-02 0. -1.
         -1   -1    0    0    0  501 -0.00000000000E+00 -0.00000000000E+00 -0.44730340852E+02  0.44730341136E+02  0.50400000000E-02 0.  1.
         23    2    1    2    0    0  0.00000000000E+00  0.00000000000E+00  0.75537000235E+00  0.90216052269E+02  0.90212889895E+02 0.  0.
    9000005    2    3    3    0    0 -0.34424213887E+02  0.27090762023E+02 -0.99857946527E+01  0.45112743002E+02  0.40629542842E+01 0.  0.
         22    1    3    3    0    0  0.34424213887E+02 -0.27090762023E+02  0.10741164655E+02  0.45103309268E+02  0.00000000000E+00 0. -1.
         22    1    4    4    0    0 -0.53506504222E+01  0.62053289344E+01 -0.20426564953E+01  0.84444071837E+01  0.00000000000E+00 0.  1.
         22    1    4    4    0    0 -0.29073563465E+02  0.20885433089E+02 -0.79431381573E+01  0.36668335818E+02  0.00000000000E+00 0.  1.
<mgrwt>
<rscale>  0 0.90212890E+02</rscale>
<asrwt>0</asrwt>
<pdfrwt beam="1">  1        1 0.69978017E-02 0.90212890E+02</pdfrwt>
<pdfrwt beam="2">  1       -1 0.68815910E-02 0.90212890E+02</pdfrwt>
<totfact> 0.95236118E+04</totfact>
</mgrwt>
</event>
<event>
 7    1  0.2911475E-009  0.9196542E+02  0.7818608E-02  0.1298161E+00
         -1   -1    0    0    0  501 -0.00000000000E+00  0.00000000000E+00  0.19723295104E+02  0.19723295748E+02  0.50400000000E-02 0.  1.
          1   -1    0    0  501    0  0.00000000000E+00 -0.00000000000E+00 -0.10720367305E+03  0.10720367317E+03  0.50400000000E-02 0. -1.
         23    2    1    2    0    0  0.00000000000E+00  0.00000000000E+00 -0.87480377951E+02  0.12692696892E+03  0.91965422377E+02 0.  0.
    9000005    2    3    3    0    0 -0.42813711432E+02  0.68247135130E-01 -0.20852003803E+02  0.47728744282E+02  0.31950624235E+01 0.  0.
         22    1    3    3    0    0  0.42813711432E+02 -0.68247135130E-01 -0.66628374148E+02  0.79198224638E+02  0.00000000000E+00 0. -1.
         22    1    4    4    0    0 -0.18979833066E+02  0.14330363814E+00 -0.11010698533E+02  0.21942882248E+02  0.00000000000E+00 0.  1.
         22    1    4    4    0    0 -0.23833878366E+02 -0.75056503014E-01 -0.98413052697E+01  0.25785862034E+02  0.00000000000E+00 0.  1.
<mgrwt>
<rscale>  0 0.91965422E+02</rscale>
<asrwt>0</asrwt>
<pdfrwt beam="2">  1        1 0.16492873E-01 0.91965422E+02</pdfrwt>
<pdfrwt beam="1">  1       -1 0.30343532E-02 0.91965422E+02</pdfrwt>
<totfact> 0.10322635E+05</totfact>
</mgrwt>
</event>
<event>
 7    1  0.2911475E-009  0.9133033E+02  0.7818608E-02  0.1299662E+00
         -1   -1    0    0    0  501 -0.00000000000E+00  0.00000000000E+00  0.18144030567E+03  0.18144030574E+03  0.50400000000E-02 0.  1.
          1   -1    0    0  501    0  0.00000000000E+00 -0.00000000000E+00 -0.11493075464E+02  0.11493076569E+02  0.50400000000E-02 0. -1.
         23    2    1    2    0    0  0.00000000000E+00  0.00000000000E+00  0.16994723020E+03  0.19293338230E+03  0.91330328776E+02 0.  0.
    9000005    2    3    3    0    0 -0.35408214720E+02  0.85847871956E+01  0.28222327239E+02  0.46600240602E+02  0.69023494954E+01 0.  0.
         22    1    3    3    0    0  0.35408214720E+02 -0.85847871956E+01  0.14172490296E+03  0.14633314170E+03  0.00000000000E+00 0.  1.
         22    1    4    4    0    0 -0.32593165665E+02  0.83977948670E+01  0.23329995939E+02  0.40952730278E+02  0.00000000000E+00 0.  1.
         22    1    4    4    0    0 -0.28150490541E+01  0.18699232854E+00  0.48923313000E+01  0.56475103238E+01  0.00000000000E+00 0.  1.
<mgrwt>
<rscale>  0 0.91330329E+02</rscale>
<asrwt>0</asrwt>
<pdfrwt beam="2">  1        1 0.17681656E-02 0.91330329E+02</pdfrwt>
<pdfrwt beam="1">  1       -1 0.27913893E-01 0.91330329E+02</pdfrwt>
<totfact> 0.71006166E+04</totfact>
</mgrwt>
</event>
<event>
 7    1  0.2911475E-009  0.9103805E+02  0.7818608E-02  0.1300357E+00
          1   -1    0    0  501    0  0.00000000000E+00  0.00000000000E+00  0.42046363404E+02  0.42046363706E+02  0.50400000000E-02 0. -1.
         -1   -1    0    0    0  501 -0.00000000000E+00 -0.00000000000E+00 -0.49278495953E+02  0.49278496211E+02  0.50400000000E-02 0.  1.
         23    2    1    2    0    0  0.00000000000E+00  0.35527136788E-14 -0.72321325498E+01  0.91324859917E+02  0.91038048626E+02 0.  0.
    9000005    2    3    3    0    0 -0.21261891886E+02  0.26276849127E+02  0.26684721532E+02  0.43440688864E+02  0.56989682515E+01 0.  0.
         22    1    3    3    0    0  0.21261891886E+02 -0.26276849127E+02 -0.33916854082E+02  0.47884171053E+02  0.00000000000E+00 0.  1.
         22    1    4    4    0    0 -0.74235472951E+01  0.11729972894E+02  0.80444841550E+01  0.16044159182E+02  0.00000000000E+00 0.  1.
         22    1    4    4    0    0 -0.13838344591E+02  0.14546876233E+02  0.18640237377E+02  0.27396529682E+02  0.00000000000E+00 0.  1.
<mgrwt>
<rscale>  0 0.91038049E+02</rscale>
<asrwt>0</asrwt>
<pdfrwt beam="1">  1        1 0.64686714E-02 0.91038049E+02</pdfrwt>
<pdfrwt beam="2">  1       -1 0.75813071E-02 0.91038049E+02</pdfrwt>
<totfact> 0.91745183E+04</totfact>
</mgrwt>
</event>
<event>
 7    1  0.2911475E-009  0.9146246E+02  0.7818608E-02  0.1299348E+00
         -1   -1    0    0    0  501 -0.00000000000E+00  0.00000000000E+00  0.50428120840E+02  0.50428121092E+02  0.50400000000E-02 0.  1.
          1   -1    0    0  501    0  0.00000000000E+00 -0.00000000000E+00 -0.41471811194E+02  0.41471811500E+02  0.50400000000E-02 0. -1.
         23    2    1    2    0    0  0.00000000000E+00  0.12490009027E-15  0.89563096461E+01  0.91899932591E+02  0.91462462944E+02 0.  0.
    9000005    2    3    3    0    0 -0.39673536468E+02 -0.68996550310E-01 -0.17261686291E+02  0.44345988829E+02  0.97265952518E+01 0.  0.
         22    1    3    3    0    0  0.39673536468E+02  0.68996550310E-01  0.26217995937E+02  0.47553943763E+02  0.00000000000E+00 0.  1.
         22    1    4    4    0    0 -0.37716150763E+02  0.22524099842E+01 -0.15530609521E+02  0.40850718613E+02  0.00000000000E+00 0. -1.
         22    1    4    4    0    0 -0.19573857052E+01 -0.23214065345E+01 -0.17310767709E+01  0.34952702162E+01  0.00000000000E+00 0. -1.
<mgrwt>
<rscale>  0 0.91462463E+02</rscale>
<asrwt>0</asrwt>
<pdfrwt beam="2">  1        1 0.63802787E-02 0.91462463E+02</pdfrwt>
<pdfrwt beam="1">  1       -1 0.77581725E-02 0.91462463E+02</pdfrwt>
<totfact> 0.90360473E+04</totfact>
</mgrwt>
</event>
<event>
 7    1  0.2911475E-009  0.9142656E+02  0.7818608E-02  0.1299433E+00
          1   -1    0    0  501    0  0.00000000000E+00  0.00000000000E+00  0.77808362499E+02  0.77808362663E+02  0.50400000000E-02 0. -1.
         -1   -1    0    0    0  501 -0.00000000000E+00 -0.00000000000E+00 -0.26857059367E+02  0.26857059840E+02  0.50400000000E-02 0.  1.
         23    2    1    2    0    0  0.00000000000E+00  0.00000000000E+00  0.50951303132E+02  0.10466542250E+03  0.91426557284E+02 0.  0.
    9000005    2    3    3    0    0  0.31086119564E+02  0.14685826461E+02 -0.58105667215E+01  0.38303308328E+02  0.15854350031E+02 0.  0.
         22    1    3    3    0    0 -0.31086119564E+02 -0.14685826461E+02  0.56761869854E+02  0.66362114174E+02  0.00000000000E+00 0. -1.
         22    1    4    4    0    0 -0.10596416558E+00 -0.21077539745E+01  0.81715178345E+00  0.22630935152E+01  0.00000000000E+00 0. -1.
         22    1    4    4    0    0  0.31192083729E+02  0.16793580435E+02 -0.66277185049E+01  0.36040214813E+02  0.00000000000E+00 0. -1.
<mgrwt>
<rscale>  0 0.91426557E+02</rscale>
<asrwt>0</asrwt>
<pdfrwt beam="1">  1        1 0.11970517E-01 0.91426557E+02</pdfrwt>
<pdfrwt beam="2">  1       -1 0.41318554E-02 0.91426557E+02</pdfrwt>
<totfact> 0.99552879E+04</totfact>
</mgrwt>
</event>
<event>
 7    1  0.2911475E-009  0.8270514E+02  0.7818608E-02  0.1321545E+00
          1   -1    0    0  501    0  0.00000000000E+00  0.00000000000E+00  0.18823416706E+03  0.18823416712E+03  0.50400000000E-02 0. -1.
         -1   -1    0    0    0  501 -0.00000000000E+00 -0.00000000000E+00 -0.90846155444E+01  0.90846169424E+01  0.50400000000E-02 0.  1.
         23    2    1    2    0    0  0.00000000000E+00  0.00000000000E+00  0.17914955151E+03  0.19731878407E+03  0.82705143361E+02 0.  0.
    9000005    2    3    3    0    0 -0.39538858226E+02 -0.46984936601E+01  0.10195716388E+03  0.11046222495E+03  0.14874230162E+02 0.  0.
         22    1    3    3    0    0  0.39538858226E+02  0.46984936601E+01  0.77192387637E+02  0.86856559116E+02  0.00000000000E+00 0.  1.
         22    1    4    4    0    0 -0.28112542299E+02 -0.53890792701E+01  0.53553968006E+02  0.60723839627E+02  0.00000000000E+00 0. -1.
         22    1    4    4    0    0 -0.11426315927E+02  0.69058561000E+00  0.48403195870E+02  0.49738385323E+02  0.00000000000E+00 0. -1.
<mgrwt>
<rscale>  0 0.82705143E+02</rscale>
<asrwt>0</asrwt>
<pdfrwt beam="1">  1        1 0.28959105E-01 0.82705143E+02</pdfrwt>
<pdfrwt beam="2">  1       -1 0.13976332E-02 0.82705143E+02</pdfrwt>
<totfact> 0.15181676E+05</totfact>
</mgrwt>
</event>
<event>
 7    1  0.2911475E-009  0.9329892E+02  0.7818608E-02  0.1295054E+00
         -1   -1    0    0    0  501 -0.00000000000E+00  0.00000000000E+00  0.30261292546E+02  0.30261292966E+02  0.50400000000E-02 0.  1.
          1   -1    0    0  501    0  0.00000000000E+00 -0.00000000000E+00 -0.71912728892E+02  0.71912729068E+02  0.50400000000E-02 0. -1.
         23    2    1    2    0    0 -0.35527136788E-14  0.00000000000E+00 -0.41651436346E+02  0.10217402203E+03  0.93298920835E+02 0.  0.
    9000005    2    3    3    0    0  0.22451135816E+02 -0.39473376915E+02 -0.98205591418E+01  0.46717681296E+02  0.48884945817E+01 0.  0.
         22    1    3    3    0    0 -0.22451135816E+02  0.39473376915E+02 -0.31830877204E+02  0.55456340738E+02  0.00000000000E+00 0. -1.
         22    1    4    4    0    0  0.10056592247E+02 -0.21132675850E+02 -0.32573691421E+01  0.23629123765E+02  0.00000000000E+00 0. -1.
         22    1    4    4    0    0  0.12394543570E+02 -0.18340701065E+02 -0.65631899996E+01  0.23088557530E+02  0.00000000000E+00 0. -1.
<mgrwt>
<rscale>  0 0.93298921E+02</rscale>
<asrwt>0</asrwt>
<pdfrwt beam="2">  1        1 0.11063497E-01 0.93298921E+02</pdfrwt>
<pdfrwt beam="1">  1       -1 0.46555835E-02 0.93298921E+02</pdfrwt>
<totfact> 0.92978239E+04</totfact>
</mgrwt>
</event>
<event>
 7    1  0.2911475E-009  0.9141346E+02  0.7818608E-02  0.1299464E+00
         -1   -1    0    0    0  501 -0.00000000000E+00  0.00000000000E+00  0.22849727935E+02  0.22849728490E+02  0.50400000000E-02 0.  1.
          1   -1    0    0  501    0  0.00000000000E+00 -0.00000000000E+00 -0.91428008131E+02  0.91428008269E+02  0.50400000000E-02 0. -1.
         23    2    1    2    0    0  0.00000000000E+00  0.00000000000E+00 -0.68578280196E+02  0.11427773676E+03  0.91413459645E+02 0.  0.
    9000005    2    3    3    0    0  0.19510643411E+02 -0.40551616312E+02 -0.41097500780E+02  0.61549262203E+02  0.86144248541E+01 0.  0.
         22    1    3    3    0    0 -0.19510643411E+02  0.40551616312E+02 -0.27480779416E+02  0.52728474557E+02  0.00000000000E+00 0.  1.
         22    1    4    4    0    0  0.59285508901E+01 -0.68435363427E+01 -0.11772323084E+02  0.14851575544E+02  0.00000000000E+00 0.  1.
         22    1    4    4    0    0  0.13582092521E+02 -0.33708079969E+02 -0.29325177696E+02  0.46697686659E+02  0.00000000000E+00 0.  1.
<mgrwt>
<rscale>  0 0.91413460E+02</rscale>
<asrwt>0</asrwt>
<pdfrwt beam="2">  1        1 0.14065847E-01 0.91413460E+02</pdfrwt>
<pdfrwt beam="1">  1       -1 0.35153429E-02 0.91413460E+02</pdfrwt>
<totfact> 0.10219590E+05</totfact>
</mgrwt>
</event>
<event>
 7    1  0.3232114E-009  0.9398742E+02  0.7818608E-02  0.1293473E+00
         -1   -1    0    0    0  501 -0.00000000000E+00  0.00000000000E+00  0.12270124554E+02  0.12270125589E+02  0.50400000000E-02 0.  1.
          1   -1    0    0  501    0  0.00000000000E+00 -0.00000000000E+00 -0.17998259228E+03  0.17998259235E+03  0.50400000000E-02 0. -1.
         23    2    1    2    0    0  0.35527136788E-14  0.00000000000E+00 -0.16771246772E+03  0.19225271793E+03  0.93987423224E+02 0.  0.
    9000005    2    3    3    0    0 -0.29273380662E+02  0.17153399235E+02 -0.22095267328E+02  0.42735030115E+02  0.13671577812E+02 0.  0.
         22    1    3    3    0    0  0.29273380662E+02 -0.17153399235E+02 -0.14561720039E+03  0.14951768782E+03  0.00000000000E+00 0. -1.
         22    1    4    4    0    0 -0.15723851091E+02  0.16405015525E+02 -0.16372294448E+02  0.28007428533E+02  0.00000000000E+00 0. -1.
         22    1    4    4    0    0 -0.13549529571E+02  0.74838371035E+00 -0.57229728795E+01  0.14727601582E+02  0.00000000000E+00 0. -1.
<mgrwt>
<rscale>  0 0.93987423E+02</rscale>
<asrwt>0</asrwt>
<pdfrwt beam="2">  1        1 0.27689628E-01 0.93987423E+02</pdfrwt>
<pdfrwt beam="1">  1       -1 0.18877117E-02 0.93987423E+02</pdfrwt>
<totfact> 0.10691282E+05</totfact>
</mgrwt>
</event>
<event>
 7    1  0.2911475E-009  0.8753549E+02  0.7818608E-02  0.1308932E+00
         -1   -1    0    0    0  501 -0.00000000000E+00  0.00000000000E+00  0.25500564241E+01  0.25500614047E+01  0.50400000000E-02 0.  1.
          1   -1    0    0  501    0  0.00000000000E+00 -0.00000000000E+00 -0.75120441894E+03  0.75120441896E+03  0.50400000000E-02 0. -1.
         23    2    1    2    0    0  0.00000000000E+00  0.00000000000E+00 -0.74865436251E+03  0.75375448036E+03  0.87535490809E+02 0.  0.
    9000005    2    3    3    0    0 -0.26052893795E+01  0.10546581098E+02 -0.73921731443E+03  0.73936435242E+03  0.99694416927E+01 0.  0.
         22    1    3    3    0    0  0.26052893795E+01 -0.10546581098E+02 -0.94370480797E+01  0.14390127937E+02  0.00000000000E+00 0.  1.
         22    1    4    4    0    0  0.60410577692E+00 -0.12080634528E+00 -0.29920508875E+01  0.30548169301E+01  0.00000000000E+00 0.  1.
         22    1    4    4    0    0 -0.32093951564E+01  0.10667387443E+02 -0.73622526355E+03  0.73630953549E+03  0.00000000000E+00 0.  1.
<mgrwt>
<rscale>  0 0.87535491E+02</rscale>
<asrwt>0</asrwt>
<pdfrwt beam="2">  1        1 0.11556973E+00 0.87535491E+02</pdfrwt>
<pdfrwt beam="1">  1       -1 0.39231736E-03 0.87535491E+02</pdfrwt>
<totfact> 0.15800758E+05</totfact>
</mgrwt>
</event>
<event>
 7    1  0.2911475E-009  0.8972797E+02  0.7818608E-02  0.1303512E+00
         -1   -1    0    0    0  501 -0.00000000000E+00  0.00000000000E+00  0.65792840091E+02  0.65792840284E+02  0.50400000000E-02 0.  1.
          1   -1    0    0  501    0  0.00000000000E+00 -0.00000000000E+00 -0.30592643917E+02  0.30592644333E+02  0.50400000000E-02 0. -1.
         23    2    1    2    0    0  0.00000000000E+00  0.00000000000E+00  0.35200196174E+02  0.96385484617E+02  0.89727965730E+02 0.  0.
    9000005    2    3    3    0    0  0.88659193852E+01 -0.38735852127E+02  0.39113483474E+02  0.56455739012E+02  0.88495825563E+01 0.  0.
         22    1    3    3    0    0 -0.88659193852E+01  0.38735852127E+02 -0.39132873001E+01  0.39929745604E+02  0.00000000000E+00 0. -1.
         22    1    4    4    0    0  0.18834160439E+01 -0.12563304283E+02  0.72226016658E+01  0.14613344769E+02  0.00000000000E+00 0. -1.
         22    1    4    4    0    0  0.69825033412E+01 -0.26172547844E+02  0.31890881808E+02  0.41842394244E+02  0.00000000000E+00 0. -1.
<mgrwt>
<rscale>  0 0.89727966E+02</rscale>
<asrwt>0</asrwt>
<pdfrwt beam="2">  1        1 0.47065607E-02 0.89727966E+02</pdfrwt>
<pdfrwt beam="1">  1       -1 0.10121975E-01 0.89727966E+02</pdfrwt>
<totfact> 0.91035535E+04</totfact>
</mgrwt>
</event>
<event>
 7    1  0.2911475E-009  0.9322212E+02  0.7818608E-02  0.1295231E+00
         -1   -1    0    0    0  501 -0.00000000000E+00  0.00000000000E+00  0.29207908711E+03  0.29207908716E+03  0.50400000000E-02 0.  1.
          1   -1    0    0  501    0  0.00000000000E+00 -0.00000000000E+00 -0.74383649149E+01  0.74383666224E+01  0.50400000000E-02 0. -1.
         23    2    1    2    0    0  0.00000000000E+00  0.00000000000E+00  0.28464072220E+03  0.29951745378E+03  0.93222123902E+02 0.  0.
    9000005    2    3    3    0    0  0.28857571699E+02 -0.85490260455E+01  0.25518192861E+03  0.25740254181E+03  0.15244885984E+02 0.  0.
         22    1    3    3    0    0 -0.28857571699E+02  0.85490260455E+01  0.29458793586E+02  0.42114911970E+02  0.00000000000E+00 0.  1.
         22    1    4    4    0    0 -0.17127867696E+01 -0.16041640625E+01  0.21324988838E+02  0.21453720652E+02  0.00000000000E+00 0. -1.
         22    1    4    4    0    0  0.30570358469E+02 -0.69448619830E+01  0.23385693978E+03  0.23594882116E+03  0.00000000000E+00 0. -1.
<mgrwt>
<rscale>  0 0.93222124E+02</rscale>
<asrwt>0</asrwt>
<pdfrwt beam="2">  1        1 0.11443643E-02 0.93222124E+02</pdfrwt>
<pdfrwt beam="1">  1       -1 0.44935232E-01 0.93222124E+02</pdfrwt>
<totfact> 0.57766198E+04</totfact>
</mgrwt>
</event>
<event>
 7    1  0.2911475E-009  0.8991666E+02  0.7818608E-02  0.1303054E+00
         -1   -1    0    0    0  501 -0.00000000000E+00  0.00000000000E+00  0.18635705077E+01  0.18635773230E+01  0.50400000000E-02 0.  1.
          1   -1    0    0  501    0  0.00000000000E+00 -0.00000000000E+00 -0.10846103340E+04  0.10846103340E+04  0.50400000000E-02 0. -1.
         23    2    1    2    0    0  0.00000000000E+00  0.00000000000E+00 -0.10827467634E+04  0.10864739113E+04  0.89916662290E+02 0.  0.
    9000005    2    3    3    0    0  0.15396419119E+02  0.65881077309E+01 -0.10443320779E+04  0.10445675758E+04  0.14542306657E+02 0.  0.
         22    1    3    3    0    0 -0.15396419119E+02 -0.65881077309E+01 -0.38414685568E+02  0.41906335469E+02  0.00000000000E+00 0.  1.
         22    1    4    4    0    0  0.16445855681E+02  0.60868348349E+01 -0.10366183963E+04  0.10367667121E+04  0.00000000000E+00 0.  1.
         22    1    4    4    0    0 -0.10494365622E+01  0.50127289591E+00 -0.77136816082E+01  0.78008637706E+01  0.00000000000E+00 0.  1.
<mgrwt>
<rscale>  0 0.89916662E+02</rscale>
<asrwt>0</asrwt>
<pdfrwt beam="2">  1        1 0.16686262E+00 0.89916662E+02</pdfrwt>
<pdfrwt beam="1">  1       -1 0.28670455E-03 0.89916662E+02</pdfrwt>
<totfact> 0.13763716E+05</totfact>
</mgrwt>
</event>
<event>
 7    1  0.2911475E-009  0.9037233E+02  0.7818608E-02  0.1301953E+00
         -1   -1    0    0    0  501 -0.00000000000E+00  0.00000000000E+00  0.83559103687E+01  0.83559118886E+01  0.50400000000E-02 0.  1.
          1   -1    0    0  501    0  0.00000000000E+00 -0.00000000000E+00 -0.24435268410E+03  0.24435268415E+03  0.50400000000E-02 0. -1.
         23    2    1    2    0    0  0.00000000000E+00 -0.35527136788E-14 -0.23599677373E+03  0.25270859604E+03  0.90372325970E+02 0.  0.
    9000005    2    3    3    0    0  0.13131922545E+02 -0.25820042124E+02 -0.21422542170E+03  0.21647168483E+03  0.11328594956E+02 0.  0.
         22    1    3    3    0    0 -0.13131922545E+02  0.25820042124E+02 -0.21771352027E+02  0.36236911210E+02  0.00000000000E+00 0.  1.
         22    1    4    4    0    0 -0.16996182499E+01 -0.65646424592E+01 -0.49812299390E+02  0.50271745577E+02  0.00000000000E+00 0. -1.
         22    1    4    4    0    0  0.14831540795E+02 -0.19255399665E+02 -0.16441312231E+03  0.16619993925E+03  0.00000000000E+00 0. -1.
<mgrwt>
<rscale>  0 0.90372326E+02</rscale>
<asrwt>0</asrwt>
<pdfrwt beam="2">  1        1 0.37592715E-01 0.90372326E+02</pdfrwt>
<pdfrwt beam="1">  1       -1 0.12855250E-02 0.90372326E+02</pdfrwt>
<totfact> 0.12606882E+05</totfact>
</mgrwt>
</event>
<event>
 7    1  0.2911475E-009  0.8817316E+02  0.7818608E-02  0.1307337E+00
         -1   -1    0    0    0  501 -0.00000000000E+00  0.00000000000E+00  0.11090753843E+03  0.11090753855E+03  0.50400000000E-02 0.  1.
          1   -1    0    0  501    0  0.00000000000E+00 -0.00000000000E+00 -0.17524747047E+02  0.17524747772E+02  0.50400000000E-02 0. -1.
         23    2    1    2    0    0  0.00000000000E+00  0.00000000000E+00  0.93382791384E+02  0.12843228632E+03  0.88173161688E+02 0.  0.
    9000005    2    3    3    0    0  0.33926322096E+02  0.27032410340E+02  0.51240969682E+02  0.67953532394E+02  0.10502335508E+02 0.  0.
         22    1    3    3    0    0 -0.33926322096E+02 -0.27032410340E+02  0.42141821702E+02  0.60478753923E+02  0.00000000000E+00 0.  1.
         22    1    4    4    0    0  0.13980508968E+02  0.83577250062E+01  0.12430829314E+02  0.20489795404E+02  0.00000000000E+00 0. -1.
         22    1    4    4    0    0  0.19945813129E+02  0.18674685334E+02  0.38810140368E+02  0.47463736990E+02  0.00000000000E+00 0. -1.
<mgrwt>
<rscale>  0 0.88173162E+02</rscale>
<asrwt>0</asrwt>
<pdfrwt beam="2">  1        1 0.26961149E-02 0.88173162E+02</pdfrwt>
<pdfrwt beam="1">  1       -1 0.17062699E-01 0.88173162E+02</pdfrwt>
<totfact> 0.86972234E+04</totfact>
</mgrwt>
</event>
<event>
 7    1  0.2911475E-009  0.9087037E+02  0.7818608E-02  0.1300758E+00
         -1   -1    0    0    0  501 -0.00000000000E+00  0.00000000000E+00  0.14694743295E+01  0.14694829726E+01  0.50400000000E-02 0.  1.
          1   -1    0    0  501    0  0.00000000000E+00 -0.00000000000E+00 -0.14048220169E+04  0.14048220170E+04  0.50400000000E-02 0. -1.
         23    2    1    2    0    0 -0.44408920985E-15  0.00000000000E+00 -0.14033525426E+04  0.14062914999E+04  0.90870368661E+02 0.  0.
    9000005    2    3    3    0    0  0.26525531029E+01 -0.16787747445E+02 -0.13536816970E+04  0.13537933341E+04  0.36592884782E+01 0.  0.
         22    1    3    3    0    0 -0.26525531029E+01  0.16787747445E+02 -0.49670845665E+02  0.52498165790E+02  0.00000000000E+00 0.  1.
         22    1    4    4    0    0  0.35276722808E+01 -0.12801396777E+02 -0.10655607106E+04  0.10656434432E+04  0.00000000000E+00 0. -1.
         22    1    4    4    0    0 -0.87511917783E+00 -0.39863506679E+01 -0.28812098639E+03  0.28814989090E+03  0.00000000000E+00 0. -1.
<mgrwt>
<rscale>  0 0.90870369E+02</rscale>
<asrwt>0</asrwt>
<pdfrwt beam="2">  1        1 0.21612539E+00 0.90870369E+02</pdfrwt>
<pdfrwt beam="1">  1       -1 0.22607476E-03 0.90870369E+02</pdfrwt>
<totfact> 0.11719248E+05</totfact>
</mgrwt>
</event>
<event>
 7    1  0.2911475E-009  0.9173068E+02  0.7818608E-02  0.1298714E+00
         -1   -1    0    0    0  501 -0.00000000000E+00  0.00000000000E+00  0.23236426784E+01  0.23236481443E+01  0.50400000000E-02 0.  1.
          1   -1    0    0  501    0  0.00000000000E+00 -0.00000000000E+00 -0.90531437894E+03  0.90531437896E+03  0.50400000000E-02 0. -1.
         23    2    1    2    0    0 -0.17763568394E-14  0.00000000000E+00 -0.90299073626E+03  0.90763802710E+03  0.91730684401E+02 0.  0.
    9000005    2    3    3    0    0 -0.13162031822E+02 -0.99165045029E+01 -0.87404122119E+03  0.87432660915E+03  0.15079355925E+02 0.  0.
         22    1    3    3    0    0  0.13162031822E+02  0.99165045029E+01 -0.28949515071E+02  0.33311417954E+02  0.00000000000E+00 0.  1.
         22    1    4    4    0    0 -0.10962531336E+02 -0.11889799430E+02 -0.47642387445E+03  0.47669828254E+03  0.00000000000E+00 0. -1.
         22    1    4    4    0    0 -0.21995004856E+01  0.19732949266E+01 -0.39761734674E+03  0.39762832661E+03  0.00000000000E+00 0. -1.
<mgrwt>
<rscale>  0 0.91730684E+02</rscale>
<asrwt>0</asrwt>
<pdfrwt beam="2">  1        1 0.13927885E+00 0.91730684E+02</pdfrwt>
<pdfrwt beam="1">  1       -1 0.35748463E-03 0.91730684E+02</pdfrwt>
<totfact> 0.13682393E+05</totfact>
</mgrwt>
</event>
<event>
 7    1  0.2911475E-009  0.8811281E+02  0.7818608E-02  0.1307487E+00
          1   -1    0    0  501    0  0.00000000000E+00  0.00000000000E+00  0.10238893342E+02  0.10238894583E+02  0.50400000000E-02 0. -1.
         -1   -1    0    0    0  501 -0.00000000000E+00 -0.00000000000E+00 -0.18956801935E+03  0.18956801942E+03  0.50400000000E-02 0.  1.
         23    2    1    2    0    0  0.44408920985E-15 -0.17763568394E-14 -0.17932912601E+03  0.19980691400E+03  0.88112810915E+02 0.  0.
    9000005    2    3    3    0    0 -0.24575066368E+01  0.13667345271E+02 -0.18411527271E+03  0.18511872603E+03  0.13329419165E+02 0.  0.
         22    1    3    3    0    0  0.24575066368E+01 -0.13667345271E+02  0.47861467033E+01  0.14688187971E+02  0.00000000000E+00 0. -1.
         22    1    4    4    0    0 -0.94127217898E+00 -0.66648716244E+00 -0.13070806988E+01  0.17431748065E+01  0.00000000000E+00 0. -1.
         22    1    4    4    0    0 -0.15162344578E+01  0.14333832433E+02 -0.18280819201E+03  0.18337555122E+03  0.00000000000E+00 0. -1.
<mgrwt>
<rscale>  0 0.88112811E+02</rscale>
<asrwt>0</asrwt>
<pdfrwt beam="1">  1        1 0.15752146E-02 0.88112811E+02</pdfrwt>
<pdfrwt beam="2">  1       -1 0.29164308E-01 0.88112811E+02</pdfrwt>
<totfact> 0.77024617E+04</totfact>
</mgrwt>
</event>
<event>
 7    1  0.2911475E-009  0.9168646E+02  0.7818608E-02  0.1298818E+00
          1   -1    0    0  501    0  0.00000000000E+00  0.00000000000E+00  0.29957334679E+02  0.29957335103E+02  0.50400000000E-02 0. -1.
         -1   -1    0    0    0  501 -0.00000000000E+00 -0.00000000000E+00 -0.70153163285E+02  0.70153163466E+02  0.50400000000E-02 0.  1.
         23    2    1    2    0    0 -0.71054273576E-14  0.00000000000E+00 -0.40195828606E+02  0.10011049857E+03  0.91686461849E+02 0.  0.
    9000005    2    3    3    0    0 -0.35820376428E+02 -0.40361137344E+01  0.10451917301E+02  0.37944722237E+02  0.55829910328E+01 0.  0.
         22    1    3    3    0    0  0.35820376428E+02  0.40361137344E+01 -0.50647745907E+02  0.62165776332E+02  0.00000000000E+00 0.  1.
         22    1    4    4    0    0 -0.16676810353E+02 -0.37045326544E+01  0.71333663913E+01  0.18512819391E+02  0.00000000000E+00 0.  1.
         22    1    4    4    0    0 -0.19143566075E+02 -0.33158108009E+00  0.33185509099E+01  0.19431902846E+02  0.00000000000E+00 0.  1.
<mgrwt>
<rscale>  0 0.91686462E+02</rscale>
<asrwt>0</asrwt>
<pdfrwt beam="1">  1        1 0.46088208E-02 0.91686462E+02</pdfrwt>
<pdfrwt beam="2">  1       -1 0.10792794E-01 0.91686462E+02</pdfrwt>
<totfact> 0.85286679E+04</totfact>
</mgrwt>
</event>
<event>
 7    1  0.2911475E-009  0.9105594E+02  0.7818608E-02  0.1300315E+00
          1   -1    0    0  501    0  0.00000000000E+00  0.00000000000E+00  0.51715689848E+02  0.51715690093E+02  0.50400000000E-02 0. -1.
         -1   -1    0    0    0  501 -0.00000000000E+00 -0.00000000000E+00 -0.40080601987E+02  0.40080602304E+02  0.50400000000E-02 0.  1.
         23    2    1    2    0    0 -0.35527136788E-14  0.13877787808E-16  0.11635087860E+02  0.91796292398E+02  0.91055939007E+02 0.  0.
    9000005    2    3    3    0    0  0.31226023417E+02  0.70897893287E-01 -0.27236062496E+02  0.41936128990E+02  0.64626812833E+01 0.  0.
         22    1    3    3    0    0 -0.31226023417E+02 -0.70897893287E-01  0.38871150357E+02  0.49860163408E+02  0.00000000000E+00 0. -1.
         22    1    4    4    0    0  0.18693405461E+02 -0.74874643167E-01 -0.20360908938E+02  0.27640832598E+02  0.00000000000E+00 0. -1.
         22    1    4    4    0    0  0.12532617957E+02  0.14577253645E+00 -0.68751535589E+01  0.14295296392E+02  0.00000000000E+00 0. -1.
<mgrwt>
<rscale>  0 0.91055939E+02</rscale>
<asrwt>0</asrwt>
<pdfrwt beam="1">  1        1 0.79562599E-02 0.91055939E+02</pdfrwt>
<pdfrwt beam="2">  1       -1 0.61662466E-02 0.91055939E+02</pdfrwt>
<totfact> 0.94589956E+04</totfact>
</mgrwt>
</event>
<event>
 7    1  0.2911475E-009  0.8857301E+02  0.7818608E-02  0.1306345E+00
          1   -1    0    0  501    0  0.00000000000E+00  0.00000000000E+00  0.82179731757E+02  0.82179731911E+02  0.50400000000E-02 0. -1.
         -1   -1    0    0    0  501 -0.00000000000E+00 -0.00000000000E+00 -0.23865913694E+02  0.23865914227E+02  0.50400000000E-02 0.  1.
         23    2    1    2    0    0  0.00000000000E+00  0.00000000000E+00  0.58313818062E+02  0.10604564614E+03  0.88573007670E+02 0.  0.
    9000005    2    3    3    0    0  0.24061612113E+02 -0.23394726873E+02 -0.23134341328E+01  0.36749627986E+02  0.14795565441E+02 0.  0.
         22    1    3    3    0    0 -0.24061612113E+02  0.23394726873E+02  0.60627252195E+02  0.69296018152E+02  0.00000000000E+00 0. -1.
         22    1    4    4    0    0  0.39291116935E+01 -0.39704303121E+01 -0.63805246971E+01  0.84801728151E+01  0.00000000000E+00 0.  1.
         22    1    4    4    0    0  0.20132500419E+02 -0.19424296561E+02  0.40670905643E+01  0.28269455171E+02  0.00000000000E+00 0.  1.
<mgrwt>
<rscale>  0 0.88573008E+02</rscale>
<asrwt>0</asrwt>
<pdfrwt beam="1">  1        1 0.12643036E-01 0.88573008E+02</pdfrwt>
<pdfrwt beam="2">  1       -1 0.36716791E-02 0.88573008E+02</pdfrwt>
<totfact> 0.10951634E+05</totfact>
</mgrwt>
</event>
<event>
 7    1  0.2911475E-009  0.9120228E+02  0.7818608E-02  0.1299966E+00
         -1   -1    0    0    0  501 -0.00000000000E+00  0.00000000000E+00  0.43315621087E+03  0.43315621090E+03  0.50400000000E-02 0.  1.
          1   -1    0    0  501    0  0.00000000000E+00 -0.00000000000E+00 -0.48007241494E+01  0.48007267950E+01  0.50400000000E-02 0. -1.
         23    2    1    2    0    0  0.00000000000E+00 -0.17763568394E-14  0.42835548672E+03  0.43795693769E+03  0.91202282159E+02 0.  0.
    9000005    2    3    3    0    0  0.36533578198E+02  0.12279960003E+02  0.33117689104E+03  0.33341422293E+03  0.11879114864E+01 0.  0.
         22    1    3    3    0    0 -0.36533578198E+02 -0.12279960003E+02  0.97178595677E+02  0.10454271477E+03  0.00000000000E+00 0. -1.
         22    1    4    4    0    0  0.27263810128E+02  0.92471765830E+01  0.25171021945E+03  0.25335125852E+03  0.00000000000E+00 0. -1.
         22    1    4    4    0    0  0.92697680692E+01  0.30327834204E+01  0.79466671594E+02  0.80062964407E+02  0.00000000000E+00 0. -1.
<mgrwt>
<rscale>  0 0.91202282E+02</rscale>
<asrwt>0</asrwt>
<pdfrwt beam="2">  1        1 0.73857338E-03 0.91202282E+02</pdfrwt>
<pdfrwt beam="1">  1       -1 0.66639397E-01 0.91202282E+02</pdfrwt>
<totfact> 0.51077177E+04</totfact>
</mgrwt>
</event>
<event>
 7    1  0.2911475E-009  0.1215714E+03  0.7818608E-02  0.1240527E+00
         -1   -1    0    0    0  501 -0.00000000000E+00  0.00000000000E+00  0.12745780917E+02  0.12745781914E+02  0.50400000000E-02 0.  1.
          1   -1    0    0  501    0  0.00000000000E+00 -0.00000000000E+00 -0.28989191806E+03  0.28989191810E+03  0.50400000000E-02 0. -1.
         23    2    1    2    0    0  0.00000000000E+00  0.71054273576E-14 -0.27714613714E+03  0.30263770001E+03  0.12157136233E+03 0.  0.
    9000005    2    3    3    0    0 -0.97024865039E+01  0.45696451996E+02 -0.42008555545E+02  0.62904543677E+02  0.31557735814E+01 0.  0.
         22    1    3    3    0    0  0.97024865039E+01 -0.45696451996E+02 -0.23513758159E+03  0.23973315634E+03  0.00000000000E+00 0. -1.
         22    1    4    4    0    0  0.10528639778E+00  0.66602836852E-01 -0.23055767585E-01  0.12669937590E+00  0.00000000000E+00 0. -1.
         22    1    4    4    0    0 -0.98077729017E+01  0.45629849159E+02 -0.41985499777E+02  0.62777844301E+02  0.00000000000E+00 0. -1.
<mgrwt>
<rscale>  0 0.12157136E+03</rscale>
<asrwt>0</asrwt>
<pdfrwt beam="2">  1        1 0.44598752E-01 0.12157136E+03</pdfrwt>
<pdfrwt beam="1">  1       -1 0.19608897E-02 0.12157136E+03</pdfrwt>
<totfact> 0.58407573E+04</totfact>
</mgrwt>
</event>
<event>
 7    1  0.2911475E-009  0.9407127E+02  0.7818608E-02  0.1293282E+00
         -1   -1    0    0    0  501 -0.00000000000E+00  0.00000000000E+00  0.19555318148E+02  0.19555318798E+02  0.50400000000E-02 0.  1.
          1   -1    0    0  501    0  0.00000000000E+00 -0.00000000000E+00 -0.11313294777E+03  0.11313294788E+03  0.50400000000E-02 0. -1.
         23    2    1    2    0    0  0.00000000000E+00  0.00000000000E+00 -0.93577629621E+02  0.13268826668E+03  0.94071267392E+02 0.  0.
    9000005    2    3    3    0    0 -0.35326153391E+02  0.84322409620E+01 -0.47514020964E+01  0.36724010326E+02  0.26527931506E+01 0.  0.
         22    1    3    3    0    0  0.35326153391E+02 -0.84322409620E+01 -0.88826227524E+02  0.95964256352E+02  0.00000000000E+00 0. -1.
         22    1    4    4    0    0 -0.92842775723E+01  0.25369229314E+01 -0.24031267672E+01  0.99201212824E+01  0.00000000000E+00 0. -1.
         22    1    4    4    0    0 -0.26041875819E+02  0.58953180305E+01 -0.23482753292E+01  0.26803889044E+02  0.00000000000E+00 0. -1.
<mgrwt>
<rscale>  0 0.94071267E+02</rscale>
<asrwt>0</asrwt>
<pdfrwt beam="2">  1        1 0.17405069E-01 0.94071267E+02</pdfrwt>
<pdfrwt beam="1">  1       -1 0.30085106E-02 0.94071267E+02</pdfrwt>
<totfact> 0.97945568E+04</totfact>
</mgrwt>
</event>
<event>
 7    1  0.2911475E-009  0.9199765E+02  0.7818608E-02  0.1298085E+00
         -1   -1    0    0    0  501 -0.00000000000E+00  0.00000000000E+00  0.25844373137E+02  0.25844373629E+02  0.50400000000E-02 0.  1.
          1   -1    0    0  501    0  0.00000000000E+00 -0.00000000000E+00 -0.81870513254E+02  0.81870513409E+02  0.50400000000E-02 0. -1.
         23    2    1    2    0    0  0.00000000000E+00  0.00000000000E+00 -0.56026140117E+02  0.10771488704E+03  0.91997654933E+02 0.  0.
    9000005    2    3    3    0    0 -0.30911381900E+01 -0.33832916500E+02  0.80551886348E+01  0.35184630808E+02  0.43417515989E+01 0.  0.
         22    1    3    3    0    0  0.30911381900E+01  0.33832916500E+02 -0.64081328752E+02  0.72530256230E+02  0.00000000000E+00 0. -1.
         22    1    4    4    0    0  0.10201008205E+01 -0.69656468603E+01  0.10639851539E+01  0.71198951027E+01  0.00000000000E+00 0.  1.
         22    1    4    4    0    0 -0.41112390105E+01 -0.26867269640E+02  0.69912034809E+01  0.28064735705E+02  0.00000000000E+00 0.  1.
<mgrwt>
<rscale>  0 0.91997655E+02</rscale>
<asrwt>0</asrwt>
<pdfrwt beam="2">  1        1 0.12595463E-01 0.91997655E+02</pdfrwt>
<pdfrwt beam="1">  1       -1 0.39760575E-02 0.91997655E+02</pdfrwt>
<totfact> 0.98654271E+04</totfact>
</mgrwt>
</event>
<event>
 7    1  0.2911475E-009  0.8943837E+02  0.7818608E-02  0.1304217E+00
         -1   -1    0    0    0  501 -0.00000000000E+00  0.00000000000E+00  0.71199403079E+02  0.71199403257E+02  0.50400000000E-02 0.  1.
          1   -1    0    0  501    0  0.00000000000E+00 -0.00000000000E+00 -0.28087390636E+02  0.28087391088E+02  0.50400000000E-02 0. -1.
         23    2    1    2    0    0  0.00000000000E+00  0.00000000000E+00  0.43112012443E+02  0.99286794345E+02  0.89438369364E+02 0.  0.
    9000005    2    3    3    0    0  0.18421585607E+02  0.15120694155E+01  0.66290948680E+02  0.69640474924E+02  0.10661364853E+02 0.  0.
         22    1    3    3    0    0 -0.18421585607E+02 -0.15120694155E+01 -0.23178936237E+02  0.29646319422E+02  0.00000000000E+00 0. -1.
         22    1    4    4    0    0  0.16410124472E+02 -0.16031708337E+01  0.60933330269E+02  0.63124742214E+02  0.00000000000E+00 0. -1.
         22    1    4    4    0    0  0.20114611345E+01  0.31152402492E+01  0.53576184106E+01  0.65157327093E+01  0.00000000000E+00 0. -1.
<mgrwt>
<rscale>  0 0.89438369E+02</rscale>
<asrwt>0</asrwt>
<pdfrwt beam="2">  1        1 0.43211370E-02 0.89438369E+02</pdfrwt>
<pdfrwt beam="1">  1       -1 0.10953754E-01 0.89438369E+02</pdfrwt>
<totfact> 0.90640179E+04</totfact>
</mgrwt>
</event>
<event>
 7    1  0.2911475E-009  0.9097669E+02  0.7818608E-02  0.1300504E+00
          1   -1    0    0  501    0  0.00000000000E+00  0.00000000000E+00  0.23237879083E+03  0.23237879088E+03  0.50400000000E-02 0. -1.
         -1   -1    0    0    0  501 -0.00000000000E+00 -0.00000000000E+00 -0.89043803595E+01  0.89043817858E+01  0.50400000000E-02 0.  1.
         23    2    1    2    0    0  0.00000000000E+00  0.00000000000E+00  0.22347441047E+03  0.24128317267E+03  0.90976685357E+02 0.  0.
    9000005    2    3    3    0    0 -0.40529076451E+02  0.86175827703E+01  0.16042621300E+03  0.16583819951E+03  0.69906958577E+01 0.  0.
         22    1    3    3    0    0  0.40529076451E+02 -0.86175827703E+01  0.63048197469E+02  0.75444973159E+02  0.00000000000E+00 0.  1.
         22    1    4    4    0    0 -0.24868112841E+02  0.42139845700E+01  0.10991433945E+03  0.11277119632E+03  0.00000000000E+00 0. -1.
         22    1    4    4    0    0 -0.15660963610E+02  0.44035982003E+01  0.50511873545E+02  0.53067003187E+02  0.00000000000E+00 0. -1.
<mgrwt>
<rscale>  0 0.90976685E+02</rscale>
<asrwt>0</asrwt>
<pdfrwt beam="1">  1        1 0.35750586E-01 0.90976685E+02</pdfrwt>
<pdfrwt beam="2">  1       -1 0.13699047E-02 0.90976685E+02</pdfrwt>
<totfact> 0.12263853E+05</totfact>
</mgrwt>
</event>
