<event>
 7    1  0.3480999E-009  0.9345739E+02  0.7818608E-02  0.1294689E+00
         -2   -1    0    0    0  501 -0.00000000000E+00  0.00000000000E+00  0.46157264311E+02  0.46157264381E+02  0.25500000000E-02 0.  1.
          2   -1    0    0  501    0  0.00000000000E+00 -0.00000000000E+00 -0.47307198431E+02  0.47307198500E+02  0.25500000000E-02 0. -1.
         23    2    1    2    0    0  0.00000000000E+00  0.71054273576E-14 -0.11499341206E+01  0.93464462881E+02  0.93457388543E+02 0.  0.
    9000005    2    3    3    0    0 -0.24142301556E+02  0.37872211680E+02  0.60599759877E+01  0.47976684900E+02  0.15744327330E+02 0.  0.
         22    1    3    3    0    0  0.24142301556E+02 -0.37872211680E+02 -0.72099101082E+01  0.45487777981E+02  0.00000000000E+00 0.  1.
         22    1    4    4    0    0 -0.87611446481E+01  0.17739759568E+02 -0.48827790570E+01  0.20378867888E+02  0.00000000000E+00 0.  1.
         22    1    4    4    0    0 -0.15381156908E+02  0.20132452111E+02  0.10942755045E+02  0.27597817012E+02  0.00000000000E+00 0.  1.
<mgrwt>
<rscale>  0 0.93457389E+02</rscale>
<asrwt>0</asrwt>
<pdfrwt beam="2">  1        2 0.72780305E-02 0.93457389E+02</pdfrwt>
<pdfrwt beam="1">  1       -2 0.71011176E-02 0.93457389E+02</pdfrwt>
<totfact> 0.92803476E+04</totfact>
</mgrwt>
</event>
<event>
 7    1  0.3480999E-009  0.9496314E+02  0.7818608E-02  0.1291259E+00
         -2   -1    0    0    0  501 -0.00000000000E+00  0.00000000000E+00  0.50723310605E+01  0.50723317014E+01  0.25500000000E-02 0.  1.
          2   -1    0    0  501    0  0.00000000000E+00 -0.00000000000E+00 -0.44447003818E+03  0.44447003819E+03  0.25500000000E-02 0. -1.
         23    2    1    2    0    0  0.44408920985E-15  0.00000000000E+00 -0.43939770712E+03  0.44954236989E+03  0.94963136550E+02 0.  0.
    9000005    2    3    3    0    0  0.31624936242E+01 -0.10120413040E+02 -0.43848753593E+03  0.43890035234E+03  0.15804302893E+02 0.  0.
         22    1    3    3    0    0 -0.31624936242E+01  0.10120413040E+02 -0.91017119271E+00  0.10642017554E+02  0.00000000000E+00 0.  1.
         22    1    4    4    0    0 -0.11790841319E+01  0.12884985399E+01 -0.62219889971E+01  0.64624774629E+01  0.00000000000E+00 0.  1.
         22    1    4    4    0    0  0.43415777561E+01 -0.11408911580E+02 -0.43226554693E+03  0.43243787487E+03  0.00000000000E+00 0.  1.
<mgrwt>
<rscale>  0 0.94963137E+02</rscale>
<asrwt>0</asrwt>
<pdfrwt beam="2">  1        2 0.68379975E-01 0.94963137E+02</pdfrwt>
<pdfrwt beam="1">  1       -2 0.78035902E-03 0.94963137E+02</pdfrwt>
<totfact> 0.18592596E+05</totfact>
</mgrwt>
</event>
<event>
 7    1  0.3480999E-009  0.9214273E+02  0.7818608E-02  0.1297744E+00
          2   -1    0    0  501    0  0.00000000000E+00  0.00000000000E+00  0.40353569485E+03  0.40353569486E+03  0.25500000000E-02 0. -1.
         -2   -1    0    0    0  501 -0.00000000000E+00 -0.00000000000E+00 -0.52599325882E+01  0.52599332063E+01  0.25500000000E-02 0.  1.
         23    2    1    2    0    0  0.00000000000E+00  0.00000000000E+00  0.39827576226E+03  0.40879562806E+03  0.92142730149E+02 0.  0.
    9000005    2    3    3    0    0 -0.21103175959E+02  0.32315246115E+02  0.30905295775E+03  0.31158283049E+03  0.89727585450E+01 0.  0.
         22    1    3    3    0    0  0.21103175959E+02 -0.32315246115E+02  0.89222804513E+02  0.97212797574E+02  0.00000000000E+00 0.  1.
         22    1    4    4    0    0 -0.44645725720E+01  0.33287137076E+01  0.27907092479E+02  0.28457311079E+02  0.00000000000E+00 0.  1.
         22    1    4    4    0    0 -0.16638603387E+02  0.28986532407E+02  0.28114586527E+03  0.28312551941E+03  0.00000000000E+00 0.  1.
<mgrwt>
<rscale>  0 0.92142730E+02</rscale>
<asrwt>0</asrwt>
<pdfrwt beam="1">  1        2 0.62082407E-01 0.92142730E+02</pdfrwt>
<pdfrwt beam="2">  1       -2 0.80922055E-03 0.92142730E+02</pdfrwt>
<totfact> 0.19472319E+05</totfact>
</mgrwt>
</event>
<event>
 7    1  0.3480999E-009  0.9105118E+02  0.7818608E-02  0.1300326E+00
          2   -1    0    0  501    0  0.00000000000E+00  0.00000000000E+00  0.26369057307E+03  0.26369057308E+03  0.25500000000E-02 0. -1.
         -2   -1    0    0    0  501 -0.00000000000E+00 -0.00000000000E+00 -0.78598909266E+01  0.78598913402E+01  0.25500000000E-02 0.  1.
         23    2    1    2    0    0  0.88817841970E-15  0.00000000000E+00  0.25583068214E+03  0.27155046442E+03  0.91051176830E+02 0.  0.
    9000005    2    3    3    0    0 -0.67718024234E+01 -0.42957699268E+02  0.10407597083E+03  0.11368750601E+03  0.14206339537E+02 0.  0.
         22    1    3    3    0    0  0.67718024234E+01  0.42957699268E+02  0.15175471131E+03  0.15786295842E+03  0.00000000000E+00 0. -1.
         22    1    4    4    0    0 -0.47511168952E+01 -0.29279499810E+01  0.15188745683E+02  0.16181594429E+02  0.00000000000E+00 0. -1.
         22    1    4    4    0    0 -0.20206855282E+01 -0.40029749287E+02  0.88887225149E+02  0.97505911578E+02  0.00000000000E+00 0. -1.
<mgrwt>
<rscale>  0 0.91051177E+02</rscale>
<asrwt>0</asrwt>
<pdfrwt beam="1">  1        2 0.40567778E-01 0.91051177E+02</pdfrwt>
<pdfrwt beam="2">  1       -2 0.12092141E-02 0.91051177E+02</pdfrwt>
<totfact> 0.17185267E+05</totfact>
</mgrwt>
</event>
<event>
 7    1  0.3480999E-009  0.8932843E+02  0.7818608E-02  0.1304486E+00
          2   -1    0    0  501    0  0.00000000000E+00  0.00000000000E+00  0.17014644356E+02  0.17014644547E+02  0.25500000000E-02 0.  1.
         -2   -1    0    0    0  501 -0.00000000000E+00 -0.00000000000E+00 -0.11724558394E+03  0.11724558397E+03  0.25500000000E-02 0. -1.
         23    2    1    2    0    0  0.00000000000E+00  0.00000000000E+00 -0.10023093958E+03  0.13426022851E+03  0.89328426108E+02 0.  0.
    9000005    2    3    3    0    0  0.20178652540E+02  0.28477479983E+02 -0.91385899295E+02  0.98254956368E+02  0.91928763972E+01 0.  0.
         22    1    3    3    0    0 -0.20178652540E+02 -0.28477479983E+02 -0.88450402868E+01  0.36005272145E+02  0.00000000000E+00 0.  1.
         22    1    4    4    0    0  0.70001537519E+01  0.14456499315E+02 -0.51924844334E+02  0.54352387106E+02  0.00000000000E+00 0. -1.
         22    1    4    4    0    0  0.13178498788E+02  0.14020980668E+02 -0.39461054961E+02  0.43902569262E+02  0.00000000000E+00 0. -1.
<mgrwt>
<rscale>  0 0.89328426E+02</rscale>
<asrwt>0</asrwt>
<pdfrwt beam="1">  1        2 0.26176377E-02 0.89328426E+02</pdfrwt>
<pdfrwt beam="2">  1       -2 0.18037782E-01 0.89328426E+02</pdfrwt>
<totfact> 0.79981956E+04</totfact>
</mgrwt>
</event>
<event>
 7    1  0.3480999E-009  0.8961579E+02  0.7818608E-02  0.1303785E+00
          2   -1    0    0  501    0  0.00000000000E+00  0.00000000000E+00  0.31663572621E+03  0.31663572622E+03  0.25500000000E-02 0. -1.
         -2   -1    0    0    0  501 -0.00000000000E+00 -0.00000000000E+00 -0.63408737251E+01  0.63408742379E+01  0.25500000000E-02 0.  1.
         23    2    1    2    0    0  0.00000000000E+00  0.00000000000E+00  0.31029485249E+03  0.32297660046E+03  0.89615785244E+02 0.  0.
    9000005    2    3    3    0    0 -0.19731036528E+02  0.38703047490E+02  0.11944156824E+03  0.12724153514E+03  0.60729197329E+01 0.  0.
         22    1    3    3    0    0  0.19731036528E+02 -0.38703047490E+02  0.19085328425E+03  0.19573506532E+03  0.00000000000E+00 0. -1.
         22    1    4    4    0    0 -0.11392554439E+02  0.25606125476E+02  0.69350885604E+02  0.74799794736E+02  0.00000000000E+00 0. -1.
         22    1    4    4    0    0 -0.83384820892E+01  0.13096922014E+02  0.50090682639E+02  0.52441740408E+02  0.00000000000E+00 0. -1.
<mgrwt>
<rscale>  0 0.89615785E+02</rscale>
<asrwt>0</asrwt>
<pdfrwt beam="1">  1        2 0.48713208E-01 0.89615785E+02</pdfrwt>
<pdfrwt beam="2">  1       -2 0.97551869E-03 0.89615785E+02</pdfrwt>
<totfact> 0.19192243E+05</totfact>
</mgrwt>
</event>
<event>
 7    1  0.3480999E-009  0.8703520E+02  0.7818608E-02  0.1310194E+00
         -2   -1    0    0    0  501 -0.00000000000E+00  0.00000000000E+00  0.14926572335E+03  0.14926572338E+03  0.25500000000E-02 0.  1.
          2   -1    0    0  501    0  0.00000000000E+00 -0.00000000000E+00 -0.12687317766E+02  0.12687318022E+02  0.25500000000E-02 0. -1.
         23    2    1    2    0    0  0.00000000000E+00  0.00000000000E+00  0.13657840559E+03  0.16195304140E+03  0.87035204055E+02 0.  0.
    9000005    2    3    3    0    0  0.17513340768E+02 -0.21311261318E+02  0.57815252936E+01  0.28279143951E+02  0.23231409852E+01 0.  0.
         22    1    3    3    0    0 -0.17513340768E+02  0.21311261318E+02  0.13079688030E+03  0.13367389745E+03  0.00000000000E+00 0.  1.
         22    1    4    4    0    0  0.60578644866E+01 -0.76845688564E+01  0.31739108835E+01  0.10287080778E+02  0.00000000000E+00 0.  1.
         22    1    4    4    0    0  0.11455476281E+02 -0.13626692462E+02  0.26076144101E+01  0.17992063172E+02  0.00000000000E+00 0.  1.
<mgrwt>
<rscale>  0 0.87035204E+02</rscale>
<asrwt>0</asrwt>
<pdfrwt beam="2">  1        2 0.19518951E-02 0.87035204E+02</pdfrwt>
<pdfrwt beam="1">  1       -2 0.22963957E-01 0.87035204E+02</pdfrwt>
<totfact> 0.78709681E+04</totfact>
</mgrwt>
</event>
<event>
 7    1  0.3480999E-009  0.9023240E+02  0.7818608E-02  0.1302290E+00
         -2   -1    0    0    0  501 -0.00000000000E+00  0.00000000000E+00  0.78590399238E+01  0.78590403375E+01  0.25500000000E-02 0. -1.
          2   -1    0    0  501    0  0.00000000000E+00 -0.00000000000E+00 -0.25899747141E+03  0.25899747142E+03  0.25500000000E-02 0.  1.
         23    2    1    2    0    0  0.00000000000E+00  0.00000000000E+00 -0.25113843148E+03  0.26685651176E+03  0.90232400496E+02 0.  0.
    9000005    2    3    3    0    0 -0.33080724609E+02  0.45052018291E+01 -0.21472852741E+03  0.21745699457E+03  0.80357213179E+01 0.  0.
         22    1    3    3    0    0  0.33080724609E+02 -0.45052018291E+01 -0.36409904072E+02  0.49399517191E+02  0.00000000000E+00 0. -1.
         22    1    4    4    0    0 -0.22688502921E+02  0.34674928492E+01 -0.16897218280E+03  0.17052386997E+03  0.00000000000E+00 0. -1.
         22    1    4    4    0    0 -0.10392221689E+02  0.10377089799E+01 -0.45756344616E+02  0.46933124594E+02  0.00000000000E+00 0. -1.
<mgrwt>
<rscale>  0 0.90232400E+02</rscale>
<asrwt>0</asrwt>
<pdfrwt beam="2">  1        2 0.39845758E-01 0.90232400E+02</pdfrwt>
<pdfrwt beam="1">  1       -2 0.12090833E-02 0.90232400E+02</pdfrwt>
<totfact> 0.17487711E+05</totfact>
</mgrwt>
</event>
<event>
 7    1  0.3480999E-009  0.8915220E+02  0.7818608E-02  0.1304918E+00
          2   -1    0    0  501    0  0.00000000000E+00  0.00000000000E+00  0.10201656993E+03  0.10201656997E+03  0.25500000000E-02 0. -1.
         -2   -1    0    0    0  501 -0.00000000000E+00 -0.00000000000E+00 -0.19477509026E+02  0.19477509193E+02  0.25500000000E-02 0.  1.
         23    2    1    2    0    0  0.00000000000E+00  0.00000000000E+00  0.82539060907E+02  0.12149407916E+03  0.89152199609E+02 0.  0.
    9000005    2    3    3    0    0 -0.10743863630E+02  0.21302850364E+02  0.92573806425E+02  0.95610915578E+02  0.15150915009E+01 0.  0.
         22    1    3    3    0    0  0.10743863630E+02 -0.21302850364E+02 -0.10034745518E+02  0.25883163580E+02  0.00000000000E+00 0.  1.
         22    1    4    4    0    0 -0.30309623127E+01  0.67161689652E+01  0.26140533058E+02  0.27159181259E+02  0.00000000000E+00 0.  1.
         22    1    4    4    0    0 -0.77129013169E+01  0.14586681399E+02  0.66433273368E+02  0.68451734319E+02  0.00000000000E+00 0.  1.
<mgrwt>
<rscale>  0 0.89152200E+02</rscale>
<asrwt>0</asrwt>
<pdfrwt beam="1">  1        2 0.15694857E-01 0.89152200E+02</pdfrwt>
<pdfrwt beam="2">  1       -2 0.29965399E-02 0.89152200E+02</pdfrwt>
<totfact> 0.13127156E+05</totfact>
</mgrwt>
</event>
<event>
 7    1  0.3480999E-009  0.8743693E+02  0.7818608E-02  0.1309180E+00
         -2   -1    0    0    0  501 -0.00000000000E+00  0.00000000000E+00  0.17759326427E+01  0.17759344734E+01  0.25500000000E-02 0.  1.
          2   -1    0    0  501    0  0.00000000000E+00 -0.00000000000E+00 -0.10762250233E+04  0.10762250233E+04  0.25500000000E-02 0. -1.
         23    2    1    2    0    0  0.00000000000E+00  0.00000000000E+00 -0.10744490907E+04  0.10780009578E+04  0.87436928998E+02 0.  0.
    9000005    2    3    3    0    0  0.17357991107E+02  0.14904822361E+02 -0.99448647672E+03  0.99482960927E+03  0.12615288988E+02 0.  0.
         22    1    3    3    0    0 -0.17357991107E+02 -0.14904822361E+02 -0.79962613963E+02  0.83171348532E+02  0.00000000000E+00 0.  1.
         22    1    4    4    0    0  0.51717140063E+00  0.45294885316E+01 -0.80405921174E+02  0.80535060020E+02  0.00000000000E+00 0.  1.
         22    1    4    4    0    0  0.16840819706E+02  0.10375333829E+02 -0.91408055554E+03  0.91429454925E+03  0.00000000000E+00 0.  1.
<mgrwt>
<rscale>  0 0.87436929E+02</rscale>
<asrwt>0</asrwt>
<pdfrwt beam="2">  1        2 0.16557256E+00 0.87436929E+02</pdfrwt>
<pdfrwt beam="1">  1       -2 0.27322141E-03 0.87436929E+02</pdfrwt>
<totfact> 0.27942498E+05</totfact>
</mgrwt>
</event>
<event>
 7    1  0.3480999E-009  0.9167498E+02  0.7818608E-02  0.1298845E+00
          2   -1    0    0  501    0  0.00000000000E+00  0.00000000000E+00  0.14323931688E+04  0.14323931688E+04  0.25500000000E-02 0. -1.
         -2   -1    0    0    0  501 -0.00000000000E+00 -0.00000000000E+00 -0.14668277539E+01  0.14668299704E+01  0.25500000000E-02 0.  1.
         23    2    1    2    0    0  0.00000000000E+00  0.17763568394E-14  0.14309263411E+04  0.14338599988E+04  0.91674983399E+02 0.  0.
    9000005    2    3    3    0    0 -0.10919123418E+02  0.14476302754E+02  0.13738688617E+04  0.13739905864E+04  0.23856994375E+01 0.  0.
         22    1    3    3    0    0  0.10919123418E+02 -0.14476302754E+02  0.57057479355E+02  0.59869412457E+02  0.00000000000E+00 0.  1.
         22    1    4    4    0    0 -0.23016448329E+01  0.16944974320E+01  0.19524974576E+03  0.19527066372E+03  0.00000000000E+00 0. -1.
         22    1    4    4    0    0 -0.86174785846E+01  0.12781805322E+02  0.11786191160E+04  0.11787199226E+04  0.00000000000E+00 0. -1.
<mgrwt>
<rscale>  0 0.91674983E+02</rscale>
<asrwt>0</asrwt>
<pdfrwt beam="1">  1        2 0.22036816E+00 0.91674983E+02</pdfrwt>
<pdfrwt beam="2">  1       -2 0.22566600E-03 0.91674983E+02</pdfrwt>
<totfact> 0.23633923E+05</totfact>
</mgrwt>
</event>
<event>
 7    1  0.3480999E-009  0.1087968E+03  0.7818608E-02  0.1262814E+00
          2   -1    0    0  501    0  0.00000000000E+00  0.00000000000E+00  0.26540089286E+03  0.26540089287E+03  0.25500000000E-02 0. -1.
         -2   -1    0    0    0  501 -0.00000000000E+00 -0.00000000000E+00 -0.11149873344E+02  0.11149873636E+02  0.25500000000E-02 0.  1.
         23    2    1    2    0    0  0.00000000000E+00  0.00000000000E+00  0.25425101952E+03  0.27655076651E+03  0.10879680846E+03 0.  0.
    9000005    2    3    3    0    0  0.13384827733E+02  0.44403797243E+02  0.19905580941E+03  0.20445803427E+03  0.53871787072E+01 0.  0.
         22    1    3    3    0    0 -0.13384827733E+02 -0.44403797243E+02  0.55195210105E+02  0.72092732238E+02  0.00000000000E+00 0. -1.
         22    1    4    4    0    0  0.21047260615E+01  0.52924659413E+01  0.32857900289E+02  0.33347888673E+02  0.00000000000E+00 0.  1.
         22    1    4    4    0    0  0.11280101672E+02  0.39111331302E+02  0.16619790912E+03  0.17111014560E+03  0.00000000000E+00 0.  1.
<mgrwt>
<rscale>  0 0.10879681E+03</rscale>
<asrwt>0</asrwt>
<pdfrwt beam="1">  1        2 0.40830907E-01 0.10879681E+03</pdfrwt>
<pdfrwt beam="2">  1       -2 0.17153652E-02 0.10879681E+03</pdfrwt>
<totfact> 0.10646727E+05</totfact>
</mgrwt>
</event>
<event>
 7    1  0.3480999E-009  0.9226621E+02  0.7818608E-02  0.1297455E+00
          2   -1    0    0  501    0  0.00000000000E+00  0.00000000000E+00  0.51664373704E+02  0.51664373767E+02  0.25500000000E-02 0. -1.
         -2   -1    0    0    0  501 -0.00000000000E+00 -0.00000000000E+00 -0.41194019010E+02  0.41194019089E+02  0.25500000000E-02 0.  1.
         23    2    1    2    0    0 -0.71054273576E-14  0.00000000000E+00  0.10470354693E+02  0.92858392856E+02  0.92266206145E+02 0.  0.
    9000005    2    3    3    0    0 -0.42762530063E+02 -0.12194553513E+02  0.15710592648E+02  0.48083386361E+02  0.93727375843E+01 0.  0.
         22    1    3    3    0    0  0.42762530063E+02  0.12194553513E+02 -0.52402379545E+01  0.44775006495E+02  0.00000000000E+00 0. -1.
         22    1    4    4    0    0 -0.17439404166E+02 -0.32749391019E+00  0.69690284272E+01  0.18783168720E+02  0.00000000000E+00 0. -1.
         22    1    4    4    0    0 -0.25323125897E+02 -0.11867059603E+02  0.87415642206E+01  0.29300217641E+02  0.00000000000E+00 0. -1.
<mgrwt>
<rscale>  0 0.92266206E+02</rscale>
<asrwt>0</asrwt>
<pdfrwt beam="1">  1        2 0.79483652E-02 0.92266206E+02</pdfrwt>
<pdfrwt beam="2">  1       -2 0.63375414E-02 0.92266206E+02</pdfrwt>
<totfact> 0.98551950E+04</totfact>
</mgrwt>
</event>
<event>
 7    1  0.3480999E-009  0.9345356E+02  0.7818608E-02  0.1294698E+00
          2   -1    0    0  501    0  0.00000000000E+00  0.00000000000E+00  0.41251843940E+03  0.41251843940E+03  0.25500000000E-02 0. -1.
         -2   -1    0    0    0  501 -0.00000000000E+00 -0.00000000000E+00 -0.52928347212E+01  0.52928353354E+01  0.25500000000E-02 0.  1.
         23    2    1    2    0    0 -0.17763568394E-14  0.00000000000E+00  0.40722560467E+03  0.41781127474E+03  0.93453561711E+02 0.  0.
    9000005    2    3    3    0    0  0.13677387167E+02  0.42324393354E+02  0.14459008535E+03  0.15143589824E+03  0.69363753204E+01 0.  0.
         22    1    3    3    0    0 -0.13677387167E+02 -0.42324393354E+02  0.26263551933E+03  0.26637537650E+03  0.00000000000E+00 0. -1.
         22    1    4    4    0    0  0.78562230875E+01  0.14318833401E+02  0.48268334819E+02  0.50956661756E+02  0.00000000000E+00 0.  1.
         22    1    4    4    0    0  0.58211640797E+01  0.28005559953E+02  0.96321750527E+02  0.10047923648E+03  0.00000000000E+00 0.  1.
<mgrwt>
<rscale>  0 0.93453562E+02</rscale>
<asrwt>0</asrwt>
<pdfrwt beam="1">  1        2 0.63464359E-01 0.93453562E+02</pdfrwt>
<pdfrwt beam="2">  1       -2 0.81428252E-03 0.93453562E+02</pdfrwt>
<totfact> 0.18901757E+05</totfact>
</mgrwt>
</event>
<event>
 7    1  0.3480999E-009  0.9050622E+02  0.7818608E-02  0.1301630E+00
          2   -1    0    0  501    0  0.00000000000E+00  0.00000000000E+00  0.64187103684E+02  0.64187103734E+02  0.25500000000E-02 0. -1.
         -2   -1    0    0    0  501 -0.00000000000E+00 -0.00000000000E+00 -0.31904290135E+02  0.31904290236E+02  0.25500000000E-02 0.  1.
         23    2    1    2    0    0 -0.35527136788E-14  0.00000000000E+00  0.32282813549E+02  0.96091393971E+02  0.90506220475E+02 0.  0.
    9000005    2    3    3    0    0 -0.19007186487E+02 -0.31957174498E+01 -0.26851194896E+02  0.33895600681E+02  0.75126113969E+01 0.  0.
         22    1    3    3    0    0  0.19007186487E+02  0.31957174498E+01  0.59134008445E+02  0.62195793290E+02  0.00000000000E+00 0. -1.
         22    1    4    4    0    0 -0.16029654406E+02  0.15338453312E+00 -0.19034529560E+02  0.24885470918E+02  0.00000000000E+00 0. -1.
         22    1    4    4    0    0 -0.29775320809E+01 -0.33491019829E+01 -0.78166653356E+01  0.90101297634E+01  0.00000000000E+00 0. -1.
<mgrwt>
<rscale>  0 0.90506220E+02</rscale>
<asrwt>0</asrwt>
<pdfrwt beam="1">  1        2 0.98749391E-02 0.90506220E+02</pdfrwt>
<pdfrwt beam="2">  1       -2 0.49083523E-02 0.90506220E+02</pdfrwt>
<totfact> 0.11028086E+05</totfact>
</mgrwt>
</event>
<event>
 7    1  0.3480999E-009  0.9298330E+02  0.7818608E-02  0.1295784E+00
          2   -1    0    0  501    0  0.00000000000E+00  0.00000000000E+00  0.18710546078E+02  0.18710546252E+02  0.25500000000E-02 0. -1.
         -2   -1    0    0    0  501 -0.00000000000E+00 -0.00000000000E+00 -0.11552166523E+03  0.11552166525E+03  0.25500000000E-02 0.  1.
         23    2    1    2    0    0 -0.35527136788E-14 -0.88817841970E-15 -0.96811119148E+02  0.13423221151E+03  0.92983298582E+02 0.  0.
    9000005    2    3    3    0    0  0.24033327998E+02  0.39155225099E+01  0.86108408125E+01  0.26034606112E+02  0.32744411322E+01 0.  0.
         22    1    3    3    0    0 -0.24033327998E+02 -0.39155225099E+01 -0.10542195996E+03  0.10819760539E+03  0.00000000000E+00 0.  1.
         22    1    4    4    0    0  0.10731282262E+02  0.16760176016E+00  0.32869785916E+01  0.11224648663E+02  0.00000000000E+00 0.  1.
         22    1    4    4    0    0  0.13302045736E+02  0.37479207497E+01  0.53238622209E+01  0.14809957449E+02  0.00000000000E+00 0.  1.
<mgrwt>
<rscale>  0 0.92983299E+02</rscale>
<asrwt>0</asrwt>
<pdfrwt beam="1">  1        2 0.28785456E-02 0.92983299E+02</pdfrwt>
<pdfrwt beam="2">  1       -2 0.17772563E-01 0.92983299E+02</pdfrwt>
<totfact> 0.72676793E+04</totfact>
</mgrwt>
</event>
<event>
 7    1  0.3480999E-009  0.8992199E+02  0.7818608E-02  0.1303041E+00
          2   -1    0    0  501    0  0.00000000000E+00  0.00000000000E+00  0.59685539612E+03  0.59685539612E+03  0.25500000000E-02 0.  1.
         -2   -1    0    0    0  501 -0.00000000000E+00 -0.00000000000E+00 -0.33869022505E+01  0.33869032104E+01  0.25500000000E-02 0. -1.
         23    2    1    2    0    0  0.00000000000E+00  0.00000000000E+00  0.59346849387E+03  0.60024229934E+03  0.89921992284E+02 0.  0.
    9000005    2    3    3    0    0 -0.12773577815E+02 -0.27355259637E+02  0.51745801658E+03  0.51845558173E+03  0.11041593052E+02 0.  0.
         22    1    3    3    0    0  0.12773577815E+02  0.27355259637E+02  0.76010477285E+02  0.81786717608E+02  0.00000000000E+00 0. -1.
         22    1    4    4    0    0 -0.93946825819E+01 -0.15317848066E+02  0.21906599971E+03  0.21980174877E+03  0.00000000000E+00 0.  1.
         22    1    4    4    0    0 -0.33788952326E+01 -0.12037411571E+02  0.29839201687E+03  0.29865383296E+03  0.00000000000E+00 0.  1.
<mgrwt>
<rscale>  0 0.89921992E+02</rscale>
<asrwt>0</asrwt>
<pdfrwt beam="1">  1        2 0.91823889E-01 0.89921992E+02</pdfrwt>
<pdfrwt beam="2">  1       -2 0.52106206E-03 0.89921992E+02</pdfrwt>
<totfact> 0.23598387E+05</totfact>
</mgrwt>
</event>
<event>
 7    1  0.3480999E-009  0.9410652E+02  0.7818608E-02  0.1293201E+00
          2   -1    0    0  501    0  0.00000000000E+00  0.00000000000E+00  0.57984349145E+02  0.57984349201E+02  0.25500000000E-02 0. -1.
         -2   -1    0    0    0  501 -0.00000000000E+00 -0.00000000000E+00 -0.38182875786E+02  0.38182875871E+02  0.25500000000E-02 0.  1.
         23    2    1    2    0    0 -0.35527136788E-14  0.00000000000E+00  0.19801473360E+02  0.96167225072E+02  0.94106518536E+02 0.  0.
    9000005    2    3    3    0    0 -0.19844499944E+02 -0.41633672618E+02  0.21826692332E+01  0.46795278255E+02  0.76070459687E+01 0.  0.
         22    1    3    3    0    0  0.19844499944E+02  0.41633672618E+02  0.17618804127E+02  0.49371946817E+02  0.00000000000E+00 0. -1.
         22    1    4    4    0    0 -0.81339954787E+01 -0.25121007930E+02 -0.24829666554E+00  0.26406222242E+02  0.00000000000E+00 0.  1.
         22    1    4    4    0    0 -0.11710504465E+02 -0.16512664687E+02  0.24309658987E+01  0.20389056013E+02  0.00000000000E+00 0.  1.
<mgrwt>
<rscale>  0 0.94106519E+02</rscale>
<asrwt>0</asrwt>
<pdfrwt beam="1">  1        2 0.89206691E-02 0.94106519E+02</pdfrwt>
<pdfrwt beam="2">  1       -2 0.58742886E-02 0.94106519E+02</pdfrwt>
<totfact> 0.96084864E+04</totfact>
</mgrwt>
</event>
<event>
 7    1  0.3480999E-009  0.9304650E+02  0.7818608E-02  0.1295637E+00
          2   -1    0    0  501    0  0.00000000000E+00  0.00000000000E+00  0.32554792659E+03  0.32554792660E+03  0.25500000000E-02 0.  1.
         -2   -1    0    0    0  501 -0.00000000000E+00 -0.00000000000E+00 -0.66485224009E+01  0.66485228899E+01  0.25500000000E-02 0. -1.
         23    2    1    2    0    0 -0.17763568394E-14  0.00000000000E+00  0.31889940418E+03  0.33219644949E+03  0.93046499458E+02 0.  0.
    9000005    2    3    3    0    0 -0.15566089254E+02 -0.40528029275E+02  0.11626414867E+03  0.12496259350E+03  0.14610722611E+02 0.  0.
         22    1    3    3    0    0  0.15566089254E+02  0.40528029275E+02  0.20263525551E+03  0.20723385599E+03  0.00000000000E+00 0.  1.
         22    1    4    4    0    0 -0.14002415118E+02 -0.25896832471E+02  0.60396453229E+02  0.67189620655E+02  0.00000000000E+00 0.  1.
         22    1    4    4    0    0 -0.15636741359E+01 -0.14631196805E+02  0.55867695444E+02  0.57772972842E+02  0.00000000000E+00 0.  1.
<mgrwt>
<rscale>  0 0.93046499E+02</rscale>
<asrwt>0</asrwt>
<pdfrwt beam="1">  1        2 0.50084305E-01 0.93046499E+02</pdfrwt>
<pdfrwt beam="2">  1       -2 0.10228495E-02 0.93046499E+02</pdfrwt>
<totfact> 0.17542949E+05</totfact>
</mgrwt>
</event>
<event>
 7    1  0.3480999E-009  0.9288885E+02  0.7818608E-02  0.1296003E+00
          2   -1    0    0  501    0  0.00000000000E+00  0.00000000000E+00  0.75731763720E+02  0.75731763763E+02  0.25500000000E-02 0. -1.
         -2   -1    0    0    0  501 -0.00000000000E+00 -0.00000000000E+00 -0.28483223912E+02  0.28483224026E+02  0.25500000000E-02 0.  1.
         23    2    1    2    0    0  0.00000000000E+00  0.00000000000E+00  0.47248539808E+02  0.10421498779E+03  0.92888853830E+02 0.  0.
    9000005    2    3    3    0    0  0.75745335953E+01  0.18524245042E+02 -0.22855190473E+02  0.31310569453E+02  0.75809507536E+01 0.  0.
         22    1    3    3    0    0 -0.75745335953E+01 -0.18524245042E+02  0.70103730281E+02  0.72904418336E+02  0.00000000000E+00 0. -1.
         22    1    4    4    0    0  0.22259183177E+01  0.11862774835E+00 -0.21854146788E+01  0.31216697804E+01  0.00000000000E+00 0. -1.
         22    1    4    4    0    0  0.53486152776E+01  0.18405617294E+02 -0.20669775794E+02  0.28188899672E+02  0.00000000000E+00 0. -1.
<mgrwt>
<rscale>  0 0.92888854E+02</rscale>
<asrwt>0</asrwt>
<pdfrwt beam="1">  1        2 0.11651041E-01 0.92888854E+02</pdfrwt>
<pdfrwt beam="2">  1       -2 0.43820344E-02 0.92888854E+02</pdfrwt>
<totfact> 0.10735418E+05</totfact>
</mgrwt>
</event>
<event>
 7    1  0.3480999E-009  0.9195631E+02  0.7818608E-02  0.1298182E+00
         -2   -1    0    0    0  501 -0.00000000000E+00  0.00000000000E+00  0.39436761259E+01  0.39436769503E+01  0.25500000000E-02 0. -1.
          2   -1    0    0  501    0  0.00000000000E+00 -0.00000000000E+00 -0.53604570661E+03  0.53604570662E+03  0.25500000000E-02 0.  1.
         23    2    1    2    0    0  0.00000000000E+00  0.00000000000E+00 -0.53210203048E+03  0.53998938357E+03  0.91956313101E+02 0.  0.
    9000005    2    3    3    0    0 -0.69532766227E+01  0.44020250526E+02 -0.33156592875E+03  0.33456090791E+03  0.29842052305E+01 0.  0.
         22    1    3    3    0    0  0.69532766227E+01 -0.44020250526E+02 -0.20053610173E+03  0.20542847566E+03  0.00000000000E+00 0. -1.
         22    1    4    4    0    0 -0.55586053148E+01  0.39776232532E+02 -0.30218853032E+03  0.30484578827E+03  0.00000000000E+00 0. -1.
         22    1    4    4    0    0 -0.13946713079E+01  0.42440179944E+01 -0.29377398433E+02  0.29715119644E+02  0.00000000000E+00 0. -1.
<mgrwt>
<rscale>  0 0.91956313E+02</rscale>
<asrwt>0</asrwt>
<pdfrwt beam="2">  1        2 0.82468513E-01 0.91956313E+02</pdfrwt>
<pdfrwt beam="1">  1       -2 0.60671989E-03 0.91956313E+02</pdfrwt>
<totfact> 0.21541251E+05</totfact>
</mgrwt>
</event>
<event>
 7    1  0.3480999E-009  0.9429316E+02  0.7818608E-02  0.1292776E+00
          2   -1    0    0  501    0  0.00000000000E+00  0.00000000000E+00  0.14810640574E+02  0.14810640794E+02  0.25500000000E-02 0.  1.
         -2   -1    0    0    0  501 -0.00000000000E+00 -0.00000000000E+00 -0.15008129815E+03  0.15008129817E+03  0.25500000000E-02 0. -1.
         23    2    1    2    0    0 -0.35527136788E-14  0.00000000000E+00 -0.13527065757E+03  0.16489193896E+03  0.94293163774E+02 0.  0.
    9000005    2    3    3    0    0  0.27230059693E+02 -0.25471888886E+02 -0.11803219866E+03  0.12381326153E+03  0.27983092064E+01 0.  0.
         22    1    3    3    0    0 -0.27230059693E+02  0.25471888886E+02 -0.17238458910E+02  0.41078677436E+02  0.00000000000E+00 0. -1.
         22    1    4    4    0    0  0.93070134296E+01 -0.79149190211E+01 -0.42651833516E+02  0.44367165161E+02  0.00000000000E+00 0. -1.
         22    1    4    4    0    0  0.17923046263E+02 -0.17556969865E+02 -0.75380365147E+02  0.79446096366E+02  0.00000000000E+00 0. -1.
<mgrwt>
<rscale>  0 0.94293164E+02</rscale>
<asrwt>0</asrwt>
<pdfrwt beam="1">  1        2 0.22785602E-02 0.94293164E+02</pdfrwt>
<pdfrwt beam="2">  1       -2 0.23089429E-01 0.94293164E+02</pdfrwt>
<totfact> 0.64140469E+04</totfact>
</mgrwt>
</event>
<event>
 7    1  0.3480999E-009  0.9029563E+02  0.7818608E-02  0.1302137E+00
         -2   -1    0    0    0  501 -0.00000000000E+00  0.00000000000E+00  0.41258418164E+02  0.41258418243E+02  0.25500000000E-02 0. -1.
          2   -1    0    0  501    0  0.00000000000E+00 -0.00000000000E+00 -0.49403861788E+02  0.49403861854E+02  0.25500000000E-02 0.  1.
         23    2    1    2    0    0  0.00000000000E+00  0.00000000000E+00 -0.81454436241E+01  0.90662280097E+02  0.90295629909E+02 0.  0.
    9000005    2    3    3    0    0 -0.22130838018E+02 -0.17841257974E+01 -0.43395393142E+02  0.49002754929E+02  0.50152515874E+01 0.  0.
         22    1    3    3    0    0  0.22130838018E+02  0.17841257974E+01  0.35249949518E+02  0.41659525168E+02  0.00000000000E+00 0. -1.
         22    1    4    4    0    0 -0.15404458413E+02  0.46834421930E+00 -0.32954474142E+02  0.36380132645E+02  0.00000000000E+00 0. -1.
         22    1    4    4    0    0 -0.67263796050E+01 -0.22524700167E+01 -0.10440919000E+02  0.12622622285E+02  0.00000000000E+00 0. -1.
<mgrwt>
<rscale>  0 0.90295630E+02</rscale>
<asrwt>0</asrwt>
<pdfrwt beam="2">  1        2 0.76005941E-02 0.90295630E+02</pdfrwt>
<pdfrwt beam="1">  1       -2 0.63474490E-02 0.90295630E+02</pdfrwt>
<totfact> 0.10358856E+05</totfact>
</mgrwt>
</event>
<event>
 7    1  0.3480999E-009  0.9284002E+02  0.7818608E-02  0.1296116E+00
         -2   -1    0    0    0  501 -0.00000000000E+00  0.00000000000E+00  0.36522214364E+02  0.36522214453E+02  0.25500000000E-02 0.  1.
          2   -1    0    0  501    0  0.00000000000E+00 -0.00000000000E+00 -0.59000178190E+02  0.59000178245E+02  0.25500000000E-02 0. -1.
         23    2    1    2    0    0  0.00000000000E+00  0.00000000000E+00 -0.22477963825E+02  0.95522392698E+02  0.92840016421E+02 0.  0.
    9000005    2    3    3    0    0 -0.14981498693E+02  0.40888278146E+02  0.25400555324E+01  0.45300904415E+02  0.12223889147E+02 0.  0.
         22    1    3    3    0    0  0.14981498693E+02 -0.40888278146E+02 -0.25018019358E+02  0.50221488283E+02  0.00000000000E+00 0. -1.
         22    1    4    4    0    0 -0.11982458653E+02  0.15143567467E+02  0.10567042305E+01  0.19339689109E+02  0.00000000000E+00 0. -1.
         22    1    4    4    0    0 -0.29990400404E+01  0.25744710678E+02  0.14833513018E+01  0.25961215306E+02  0.00000000000E+00 0. -1.
<mgrwt>
<rscale>  0 0.92840016E+02</rscale>
<asrwt>0</asrwt>
<pdfrwt beam="2">  1        2 0.90769505E-02 0.92840016E+02</pdfrwt>
<pdfrwt beam="1">  1       -2 0.56188022E-02 0.92840016E+02</pdfrwt>
<totfact> 0.10032575E+05</totfact>
</mgrwt>
</event>
<event>
 7    1  0.3480999E-009  0.8685686E+02  0.7818608E-02  0.1310647E+00
         -2   -1    0    0    0  501 -0.00000000000E+00  0.00000000000E+00  0.13286452638E+03  0.13286452640E+03  0.25500000000E-02 0.  1.
          2   -1    0    0  501    0  0.00000000000E+00 -0.00000000000E+00 -0.14195123353E+02  0.14195123582E+02  0.25500000000E-02 0. -1.
         23    2    1    2    0    0  0.00000000000E+00  0.00000000000E+00  0.11866940302E+03  0.14705964998E+03  0.86856856030E+02 0.  0.
    9000005    2    3    3    0    0 -0.34843479602E+02  0.19950419584E+02  0.31599429483E+02  0.51178120977E+02  0.29306672877E+01 0.  0.
         22    1    3    3    0    0  0.34843479602E+02 -0.19950419584E+02  0.87069973539E+02  0.95881529005E+02  0.00000000000E+00 0.  1.
         22    1    4    4    0    0 -0.29660497584E+02  0.15788080543E+02  0.26787607494E+02  0.42971903837E+02  0.00000000000E+00 0. -1.
         22    1    4    4    0    0 -0.51829820177E+01  0.41623390408E+01  0.48118219898E+01  0.82062171399E+01  0.00000000000E+00 0. -1.
<mgrwt>
<rscale>  0 0.86856856E+02</rscale>
<asrwt>0</asrwt>
<pdfrwt beam="2">  1        2 0.21838652E-02 0.86856856E+02</pdfrwt>
<pdfrwt beam="1">  1       -2 0.20440696E-01 0.86856856E+02</pdfrwt>
<totfact> 0.82384641E+04</totfact>
</mgrwt>
</event>
<event>
 7    1  0.3480999E-009  0.1037744E+03  0.7818608E-02  0.1272553E+00
          2   -1    0    0  501    0  0.00000000000E+00  0.00000000000E+00  0.22114750514E+02  0.22114750661E+02  0.25500000000E-02 0. -1.
         -2   -1    0    0    0  501 -0.00000000000E+00 -0.00000000000E+00 -0.12174145909E+03  0.12174145912E+03  0.25500000000E-02 0.  1.
         23    2    1    2    0    0  0.00000000000E+00 -0.35527136788E-14 -0.99626708575E+02  0.14385620978E+03  0.10377440932E+03 0.  0.
    9000005    2    3    3    0    0 -0.80118146415E+01 -0.29185077064E+02  0.62353493100E+01  0.33752925553E+02  0.13580224788E+02 0.  0.
         22    1    3    3    0    0  0.80118146415E+01  0.29185077064E+02 -0.10586205788E+03  0.11010328422E+03  0.00000000000E+00 0.  1.
         22    1    4    4    0    0 -0.90702514750E+01 -0.96871694322E+01  0.52321841998E-01  0.13270774318E+02  0.00000000000E+00 0.  1.
         22    1    4    4    0    0  0.10584368334E+01 -0.19497907632E+02  0.61830274680E+01  0.20482151235E+02  0.00000000000E+00 0.  1.
<mgrwt>
<rscale>  0 0.10377441E+03</rscale>
<asrwt>0</asrwt>
<pdfrwt beam="1">  1        2 0.34022694E-02 0.10377441E+03</pdfrwt>
<pdfrwt beam="2">  1       -2 0.18729455E-01 0.10377441E+03</pdfrwt>
<totfact> 0.54241278E+04</totfact>
</mgrwt>
</event>
<event>
 7    1  0.3480999E-009  0.9004913E+02  0.7818608E-02  0.1302733E+00
         -2   -1    0    0    0  501 -0.00000000000E+00  0.00000000000E+00  0.16012836492E+02  0.16012836695E+02  0.25500000000E-02 0.  1.
          2   -1    0    0  501    0  0.00000000000E+00 -0.00000000000E+00 -0.12659914561E+03  0.12659914563E+03  0.25500000000E-02 0. -1.
         23    2    1    2    0    0  0.00000000000E+00  0.00000000000E+00 -0.11058630911E+03  0.14261198233E+03  0.90049129589E+02 0.  0.
    9000005    2    3    3    0    0 -0.92734576307E+01 -0.57073790526E+01 -0.12443813773E+03  0.12499255134E+03  0.44403353267E+01 0.  0.
         22    1    3    3    0    0  0.92734576307E+01  0.57073790526E+01  0.13851828617E+02  0.17619430982E+02  0.00000000000E+00 0.  1.
         22    1    4    4    0    0 -0.64862033289E+01 -0.41912005219E+01 -0.10620499463E+03  0.10648538811E+03  0.00000000000E+00 0.  1.
         22    1    4    4    0    0 -0.27872543018E+01 -0.15161785307E+01 -0.18233143098E+02  0.18507163238E+02  0.00000000000E+00 0.  1.
<mgrwt>
<rscale>  0 0.90049130E+02</rscale>
<asrwt>0</asrwt>
<pdfrwt beam="2">  1        2 0.19476791E-01 0.90049130E+02</pdfrwt>
<pdfrwt beam="1">  1       -2 0.24635134E-02 0.90049130E+02</pdfrwt>
<totfact> 0.13668809E+05</totfact>
</mgrwt>
</event>
<event>
 7    1  0.3480999E-009  0.9237684E+02  0.7818608E-02  0.1297196E+00
         -2   -1    0    0    0  501 -0.00000000000E+00  0.00000000000E+00  0.95730229370E+01  0.95730232766E+01  0.25500000000E-02 0.  1.
          2   -1    0    0  501    0  0.00000000000E+00 -0.00000000000E+00 -0.22285227426E+03  0.22285227427E+03  0.25500000000E-02 0. -1.
         23    2    1    2    0    0  0.00000000000E+00  0.00000000000E+00 -0.21327925132E+03  0.23242529755E+03  0.92376836365E+02 0.  0.
    9000005    2    3    3    0    0 -0.10599244279E+02 -0.44551221553E+02 -0.10716940078E+03  0.11685516428E+03  0.85260562491E+01 0.  0.
         22    1    3    3    0    0  0.10599244279E+02  0.44551221553E+02 -0.10610985054E+03  0.11557013327E+03  0.00000000000E+00 0. -1.
         22    1    4    4    0    0 -0.36993831205E+01 -0.28511067055E+02 -0.59333726727E+02  0.65932219039E+02  0.00000000000E+00 0. -1.
         22    1    4    4    0    0 -0.68998611585E+01 -0.16040154497E+02 -0.47835674052E+02  0.50922945244E+02  0.00000000000E+00 0. -1.
<mgrwt>
<rscale>  0 0.92376836E+02</rscale>
<asrwt>0</asrwt>
<pdfrwt beam="2">  1        2 0.34284961E-01 0.92376836E+02</pdfrwt>
<pdfrwt beam="1">  1       -2 0.14727730E-02 0.92376836E+02</pdfrwt>
<totfact> 0.15533845E+05</totfact>
</mgrwt>
</event>
<event>
 7    1  0.3480999E-009  0.9164717E+02  0.7818608E-02  0.1298911E+00
          2   -1    0    0  501    0  0.00000000000E+00  0.00000000000E+00  0.27289845628E+03  0.27289845629E+03  0.25500000000E-02 0.  1.
         -2   -1    0    0    0  501 -0.00000000000E+00 -0.00000000000E+00 -0.76944411440E+01  0.76944415666E+01  0.25500000000E-02 0. -1.
         23    2    1    2    0    0  0.00000000000E+00  0.00000000000E+00  0.26520401514E+03  0.28059289786E+03  0.91647174994E+02 0.  0.
    9000005    2    3    3    0    0  0.43543834208E+02  0.33431449724E+01  0.10347502610E+03  0.11307123355E+03  0.13068309597E+02 0.  0.
         22    1    3    3    0    0 -0.43543834208E+02 -0.33431449724E+01  0.16172898904E+03  0.16752166431E+03  0.00000000000E+00 0.  1.
         22    1    4    4    0    0  0.31107441049E+01  0.40363130771E+01  0.13346924448E+02  0.14286670164E+02  0.00000000000E+00 0.  1.
         22    1    4    4    0    0  0.40433090103E+02 -0.69316810478E+00  0.90128101648E+02  0.98784563389E+02  0.00000000000E+00 0.  1.
<mgrwt>
<rscale>  0 0.91647175E+02</rscale>
<asrwt>0</asrwt>
<pdfrwt beam="1">  1        2 0.41984374E-01 0.91647175E+02</pdfrwt>
<pdfrwt beam="2">  1       -2 0.11837603E-02 0.91647175E+02</pdfrwt>
<totfact> 0.17105495E+05</totfact>
</mgrwt>
</event>
<event>
 7    1  0.3480999E-009  0.8957051E+02  0.7818608E-02  0.1303895E+00
         -2   -1    0    0    0  501 -0.00000000000E+00  0.00000000000E+00  0.18670897042E+02  0.18670897217E+02  0.25500000000E-02 0. -1.
          2   -1    0    0  501    0  0.00000000000E+00 -0.00000000000E+00 -0.10742489984E+03  0.10742489987E+03  0.25500000000E-02 0.  1.
         23    2    1    2    0    0  0.35527136788E-14  0.00000000000E+00 -0.88754002801E+02  0.12609579709E+03  0.89570514292E+02 0.  0.
    9000005    2    3    3    0    0  0.26393060357E+02 -0.25144196354E+02 -0.78861455301E+02  0.88324290086E+02  0.15913102830E+02 0.  0.
         22    1    3    3    0    0 -0.26393060357E+02  0.25144196354E+02 -0.98925474995E+01  0.37771507004E+02  0.00000000000E+00 0. -1.
         22    1    4    4    0    0  0.12527592014E+01 -0.10423558902E+02 -0.24334598297E+02  0.26502691563E+02  0.00000000000E+00 0. -1.
         22    1    4    4    0    0  0.25140301156E+02 -0.14720637452E+02 -0.54526857004E+02  0.61821598523E+02  0.00000000000E+00 0. -1.
<mgrwt>
<rscale>  0 0.89570514E+02</rscale>
<asrwt>0</asrwt>
<pdfrwt beam="2">  1        2 0.16526907E-01 0.89570514E+02</pdfrwt>
<pdfrwt beam="1">  1       -2 0.28724458E-02 0.89570514E+02</pdfrwt>
<totfact> 0.13166679E+05</totfact>
</mgrwt>
</event>
<event>
 7    1  0.3480999E-009  0.9068040E+02  0.7818608E-02  0.1301212E+00
          2   -1    0    0  501    0  0.00000000000E+00  0.00000000000E+00  0.93580023795E+01  0.93580027269E+01  0.25500000000E-02 0. -1.
         -2   -1    0    0    0  501 -0.00000000000E+00 -0.00000000000E+00 -0.21967654105E+03  0.21967654106E+03  0.25500000000E-02 0.  1.
         23    2    1    2    0    0  0.35527136788E-14  0.35527136788E-14 -0.21031853867E+03  0.22903454379E+03  0.90680397779E+02 0.  0.
    9000005    2    3    3    0    0 -0.31391966938E+02 -0.15251334029E+02 -0.17614348622E+03  0.18018791660E+03  0.14936491336E+02 0.  0.
         22    1    3    3    0    0  0.31391966938E+02  0.15251334029E+02 -0.34175052452E+02  0.48846627192E+02  0.00000000000E+00 0. -1.
         22    1    4    4    0    0 -0.27576435615E+02 -0.17775050244E+02 -0.16305461193E+03  0.16632263431E+03  0.00000000000E+00 0.  1.
         22    1    4    4    0    0 -0.38155313232E+01  0.25237162153E+01 -0.13088874289E+02  0.13865282290E+02  0.00000000000E+00 0.  1.
<mgrwt>
<rscale>  0 0.90680398E+02</rscale>
<asrwt>0</asrwt>
<pdfrwt beam="1">  1        2 0.14396929E-02 0.90680398E+02</pdfrwt>
<pdfrwt beam="2">  1       -2 0.33796387E-01 0.90680398E+02</pdfrwt>
<totfact> 0.60605807E+04</totfact>
</mgrwt>
</event>
<event>
 7    1  0.3480999E-009  0.9310426E+02  0.7818608E-02  0.1295504E+00
          2   -1    0    0  501    0  0.00000000000E+00  0.00000000000E+00  0.88547205151E+02  0.88547205187E+02  0.25500000000E-02 0. -1.
         -2   -1    0    0    0  501 -0.00000000000E+00 -0.00000000000E+00 -0.24473959227E+02  0.24473959360E+02  0.25500000000E-02 0.  1.
         23    2    1    2    0    0  0.00000000000E+00  0.00000000000E+00  0.64073245923E+02  0.11302116455E+03  0.93104257649E+02 0.  0.
    9000005    2    3    3    0    0 -0.25953120049E+02  0.48413298952E+01 -0.12991691868E+02  0.31559470775E+02  0.11411100849E+02 0.  0.
         22    1    3    3    0    0  0.25953120049E+02 -0.48413298952E+01  0.77064937791E+02  0.81461693772E+02  0.00000000000E+00 0. -1.
         22    1    4    4    0    0 -0.70929041687E+01 -0.13725958214E+01 -0.85823816490E+01  0.11218314651E+02  0.00000000000E+00 0.  1.
         22    1    4    4    0    0 -0.18860215880E+02  0.62139257166E+01 -0.44093102188E+01  0.20341156124E+02  0.00000000000E+00 0.  1.
<mgrwt>
<rscale>  0 0.93104258E+02</rscale>
<asrwt>0</asrwt>
<pdfrwt beam="1">  1        2 0.13622647E-01 0.93104258E+02</pdfrwt>
<pdfrwt beam="2">  1       -2 0.37652246E-02 0.93104258E+02</pdfrwt>
<totfact> 0.11162080E+05</totfact>
</mgrwt>
</event>
<event>
 7    1  0.3480999E-009  0.9214425E+02  0.7818608E-02  0.1297741E+00
         -2   -1    0    0    0  501 -0.00000000000E+00  0.00000000000E+00  0.18450182757E+01  0.18450200378E+01  0.25500000000E-02 0.  1.
          2   -1    0    0  501    0  0.00000000000E+00 -0.00000000000E+00 -0.11504709304E+04  0.11504709304E+04  0.25500000000E-02 0. -1.
         23    2    1    2    0    0  0.35527136788E-14  0.00000000000E+00 -0.11486259121E+04  0.11523159504E+04  0.92144254494E+02 0.  0.
    9000005    2    3    3    0    0  0.16990747129E+02 -0.18606895993E+02 -0.10562242264E+04  0.10565403085E+04  0.57362841647E+01 0.  0.
         22    1    3    3    0    0 -0.16990747129E+02  0.18606895993E+02 -0.92401685649E+02  0.95775641879E+02  0.00000000000E+00 0.  1.
         22    1    4    4    0    0  0.35158730284E+01 -0.19132755196E+01 -0.10973609034E+03  0.10980906843E+03  0.00000000000E+00 0. -1.
         22    1    4    4    0    0  0.13474874101E+02 -0.16693620474E+02 -0.94648813610E+03  0.94673124009E+03  0.00000000000E+00 0. -1.
<mgrwt>
<rscale>  0 0.92144254E+02</rscale>
<asrwt>0</asrwt>
<pdfrwt beam="2">  1        2 0.17699495E+00 0.92144254E+02</pdfrwt>
<pdfrwt beam="1">  1       -2 0.28385002E-03 0.92144254E+02</pdfrwt>
<totfact> 0.24278383E+05</totfact>
</mgrwt>
</event>
<event>
 7    1  0.3480999E-009  0.8796085E+02  0.7818608E-02  0.1307866E+00
         -2   -1    0    0    0  501 -0.00000000000E+00  0.00000000000E+00  0.19389303323E+02  0.19389303491E+02  0.25500000000E-02 0.  1.
          2   -1    0    0  501    0  0.00000000000E+00 -0.00000000000E+00 -0.99760035282E+02  0.99760035314E+02  0.25500000000E-02 0. -1.
         23    2    1    2    0    0  0.35527136788E-14  0.00000000000E+00 -0.80370731958E+02  0.11914933881E+03  0.87960845734E+02 0.  0.
    9000005    2    3    3    0    0 -0.30391735018E+02 -0.65667225504E+01 -0.10266923715E+01  0.33930467536E+02  0.13544117821E+02 0.  0.
         22    1    3    3    0    0  0.30391735018E+02  0.65667225504E+01 -0.79344039587E+02  0.85218871269E+02  0.00000000000E+00 0. -1.
         22    1    4    4    0    0 -0.21222151862E+02 -0.97161586688E+01 -0.42276028133E+01  0.23720372984E+02  0.00000000000E+00 0.  1.
         22    1    4    4    0    0 -0.91695831555E+01  0.31494361184E+01  0.32009104418E+01  0.10210094552E+02  0.00000000000E+00 0.  1.
<mgrwt>
<rscale>  0 0.87960846E+02</rscale>
<asrwt>0</asrwt>
<pdfrwt beam="2">  1        2 0.15347697E-01 0.87960846E+02</pdfrwt>
<pdfrwt beam="1">  1       -2 0.29829698E-02 0.87960846E+02</pdfrwt>
<totfact> 0.13527991E+05</totfact>
</mgrwt>
</event>
<event>
 7    1  0.3480999E-009  0.9089391E+02  0.7818608E-02  0.1300701E+00
         -2   -1    0    0    0  501 -0.00000000000E+00  0.00000000000E+00  0.36134038204E+02  0.36134038294E+02  0.25500000000E-02 0. -1.
          2   -1    0    0  501    0  0.00000000000E+00 -0.00000000000E+00 -0.57160116726E+02  0.57160116783E+02  0.25500000000E-02 0.  1.
         23    2    1    2    0    0  0.00000000000E+00  0.00000000000E+00 -0.21026078522E+02  0.93294155077E+02  0.90893912852E+02 0.  0.
    9000005    2    3    3    0    0  0.20841929290E+02  0.31965506224E+02 -0.34084748421E+02  0.52961681012E+02  0.13674427813E+02 0.  0.
         22    1    3    3    0    0 -0.20841929290E+02 -0.31965506224E+02  0.13058669899E+02  0.40332474065E+02  0.00000000000E+00 0. -1.
         22    1    4    4    0    0  0.18454289787E+02  0.22915054791E+02 -0.18416895711E+02  0.34710842618E+02  0.00000000000E+00 0. -1.
         22    1    4    4    0    0  0.23876395033E+01  0.90504514323E+01 -0.15667852711E+02  0.18250838394E+02  0.00000000000E+00 0. -1.
<mgrwt>
<rscale>  0 0.90893913E+02</rscale>
<asrwt>0</asrwt>
<pdfrwt beam="2">  1        2 0.87938641E-02 0.90893913E+02</pdfrwt>
<pdfrwt beam="1">  1       -2 0.55590828E-02 0.90893913E+02</pdfrwt>
<totfact> 0.10562858E+05</totfact>
</mgrwt>
</event>
<event>
 7    1  0.3480999E-009  0.7614901E+02  0.7818608E-02  0.1340349E+00
          2   -1    0    0  501    0  0.00000000000E+00  0.00000000000E+00  0.52227308417E+03  0.52227308418E+03  0.25500000000E-02 0. -1.
         -2   -1    0    0    0  501 -0.00000000000E+00 -0.00000000000E+00 -0.27756887362E+01  0.27756899075E+01  0.25500000000E-02 0.  1.
         23    2    1    2    0    0  0.00000000000E+00  0.00000000000E+00  0.51949739544E+03  0.52504877409E+03  0.76149007245E+02 0.  0.
    9000005    2    3    3    0    0 -0.47090141347E+01  0.20039048744E+02  0.47957227893E+03  0.48012936606E+03  0.10530866749E+02 0.  0.
         22    1    3    3    0    0  0.47090141347E+01 -0.20039048744E+02  0.39925116510E+02  0.44919408022E+02  0.00000000000E+00 0.  1.
         22    1    4    4    0    0  0.15321245049E+01  0.84409437477E+01  0.27485335723E+03  0.27498720864E+03  0.00000000000E+00 0.  1.
         22    1    4    4    0    0 -0.62411386395E+01  0.11598104996E+02  0.20471892170E+03  0.20514215742E+03  0.00000000000E+00 0.  1.
<mgrwt>
<rscale>  0 0.76149007E+02</rscale>
<asrwt>0</asrwt>
<pdfrwt beam="1">  1        2 0.80349730E-01 0.76149007E+02</pdfrwt>
<pdfrwt beam="2">  1       -2 0.42702900E-03 0.76149007E+02</pdfrwt>
<totfact> 0.35032552E+05</totfact>
</mgrwt>
</event>
<event>
 7    1  0.3480999E-009  0.9083107E+02  0.7818608E-02  0.1300852E+00
          2   -1    0    0  501    0  0.00000000000E+00  0.00000000000E+00  0.20427308113E+03  0.20427308114E+03  0.25500000000E-02 0. -1.
         -2   -1    0    0    0  501 -0.00000000000E+00 -0.00000000000E+00 -0.10097124951E+02  0.10097125273E+02  0.25500000000E-02 0.  1.
         23    2    1    2    0    0  0.00000000000E+00  0.35527136788E-14  0.19417595618E+03  0.21437020642E+03  0.90831070908E+02 0.  0.
    9000005    2    3    3    0    0  0.27140129384E+02  0.29667710736E+02  0.14346378931E+03  0.14965171175E+03  0.14036249643E+02 0.  0.
         22    1    3    3    0    0 -0.27140129384E+02 -0.29667710736E+02  0.50712166868E+02  0.64718494666E+02  0.00000000000E+00 0.  1.
         22    1    4    4    0    0  0.72379793285E+00  0.50148465417E+01  0.81493421388E+01  0.95960589087E+01  0.00000000000E+00 0. -1.
         22    1    4    4    0    0  0.26416331452E+02  0.24652864194E+02  0.13531444717E+03  0.14005565284E+03  0.00000000000E+00 0. -1.
<mgrwt>
<rscale>  0 0.90831071E+02</rscale>
<asrwt>0</asrwt>
<pdfrwt beam="1">  1        2 0.31426627E-01 0.90831071E+02</pdfrwt>
<pdfrwt beam="2">  1       -2 0.15534039E-02 0.90831071E+02</pdfrwt>
<totfact> 0.15746974E+05</totfact>
</mgrwt>
</event>
<event>
 7    1  0.3480999E-009  0.8608106E+02  0.7818608E-02  0.1312629E+00
          2   -1    0    0  501    0  0.00000000000E+00  0.00000000000E+00  0.33615751419E+03  0.33615751420E+03  0.25500000000E-02 0. -1.
         -2   -1    0    0    0  501 -0.00000000000E+00 -0.00000000000E+00 -0.55107710739E+01  0.55107716639E+01  0.25500000000E-02 0.  1.
         23    2    1    2    0    0  0.00000000000E+00  0.00000000000E+00  0.33064674311E+03  0.34166828586E+03  0.86081059656E+02 0.  0.
    9000005    2    3    3    0    0 -0.40075899016E+02  0.76303876992E+01  0.13567027590E+03  0.14246958289E+03  0.15061798948E+02 0.  0.
         22    1    3    3    0    0  0.40075899016E+02 -0.76303876992E+01  0.19497646721E+03  0.19919870297E+03  0.00000000000E+00 0. -1.
         22    1    4    4    0    0 -0.94307218386E+01  0.86458218150E+01  0.37517398694E+02  0.39638919688E+02  0.00000000000E+00 0.  1.
         22    1    4    4    0    0 -0.30645177178E+02 -0.10154341159E+01  0.98152877211E+02  0.10283066321E+03  0.00000000000E+00 0.  1.
<mgrwt>
<rscale>  0 0.86081060E+02</rscale>
<asrwt>0</asrwt>
<pdfrwt beam="1">  1        2 0.51716549E-01 0.86081060E+02</pdfrwt>
<pdfrwt beam="2">  1       -2 0.84781085E-03 0.86081060E+02</pdfrwt>
<totfact> 0.21828741E+05</totfact>
</mgrwt>
</event>
<event>
 7    1  0.3480999E-009  0.8851943E+02  0.7818608E-02  0.1306477E+00
          2   -1    0    0  501    0  0.00000000000E+00  0.00000000000E+00  0.27742641602E+03  0.27742641603E+03  0.25500000000E-02 0. -1.
         -2   -1    0    0    0  501 -0.00000000000E+00 -0.00000000000E+00 -0.70610521606E+01  0.70610526210E+01  0.25500000000E-02 0.  1.
         23    2    1    2    0    0  0.00000000000E+00 -0.35527136788E-14  0.27036536386E+03  0.28448746866E+03  0.88519432023E+02 0.  0.
    9000005    2    3    3    0    0 -0.30241102233E+02  0.31879115226E+02  0.12901232101E+03  0.13646218374E+03  0.68517418085E+01 0.  0.
         22    1    3    3    0    0  0.30241102233E+02 -0.31879115226E+02  0.14135304285E+03  0.14802528492E+03  0.00000000000E+00 0.  1.
         22    1    4    4    0    0 -0.30268969169E+01  0.18553156216E+01  0.62891856100E+01  0.72220604150E+01  0.00000000000E+00 0. -1.
         22    1    4    4    0    0 -0.27214205316E+02  0.30023799604E+02  0.12272313540E+03  0.12924012332E+03  0.00000000000E+00 0. -1.
<mgrwt>
<rscale>  0 0.88519432E+02</rscale>
<asrwt>0</asrwt>
<pdfrwt beam="1">  1        2 0.42680988E-01 0.88519432E+02</pdfrwt>
<pdfrwt beam="2">  1       -2 0.10863157E-02 0.88519432E+02</pdfrwt>
<totfact> 0.18881361E+05</totfact>
</mgrwt>
</event>
<event>
 7    1  0.3480999E-009  0.9198001E+02  0.7818608E-02  0.1298126E+00
          2   -1    0    0  501    0  0.00000000000E+00  0.00000000000E+00  0.48852215764E+03  0.48852215765E+03  0.25500000000E-02 0.  1.
         -2   -1    0    0    0  501 -0.00000000000E+00 -0.00000000000E+00 -0.43295484712E+01  0.43295492222E+01  0.25500000000E-02 0. -1.
         23    2    1    2    0    0  0.00000000000E+00  0.88817841970E-15  0.48419260917E+03  0.49285170687E+03  0.91980009730E+02 0.  0.
    9000005    2    3    3    0    0  0.41943762268E+02 -0.75955759129E+01  0.32439204142E+03  0.32746369817E+03  0.13612682310E+02 0.  0.
         22    1    3    3    0    0 -0.41943762268E+02  0.75955759129E+01  0.15980056775E+03  0.16538800870E+03  0.00000000000E+00 0.  1.
         22    1    4    4    0    0  0.33757752888E+02 -0.45631507774E+00  0.25543909813E+03  0.25766048777E+03  0.00000000000E+00 0. -1.
         22    1    4    4    0    0  0.81860093802E+01 -0.71392608351E+01  0.68952943287E+02  0.69803210405E+02  0.00000000000E+00 0. -1.
<mgrwt>
<rscale>  0 0.91980010E+02</rscale>
<asrwt>0</asrwt>
<pdfrwt beam="1">  1        2 0.75157262E-01 0.91980010E+02</pdfrwt>
<pdfrwt beam="2">  1       -2 0.66608438E-03 0.91980010E+02</pdfrwt>
<totfact> 0.20895308E+05</totfact>
</mgrwt>
</event>
<event>
 7    1  0.3480999E-009  0.9036518E+02  0.7818608E-02  0.1301970E+00
          2   -1    0    0  501    0  0.00000000000E+00  0.00000000000E+00  0.17754645292E+03  0.17754645294E+03  0.25500000000E-02 0. -1.
         -2   -1    0    0    0  501 -0.00000000000E+00 -0.00000000000E+00 -0.11498211146E+02  0.11498211429E+02  0.25500000000E-02 0.  1.
         23    2    1    2    0    0  0.00000000000E+00  0.00000000000E+00  0.16604824178E+03  0.18904466437E+03  0.90365184278E+02 0.  0.
    9000005    2    3    3    0    0 -0.42940064168E+02  0.91419294124E+01  0.74221033022E+02  0.87262248149E+02  0.13360921564E+02 0.  0.
         22    1    3    3    0    0  0.42940064168E+02 -0.91419294124E+01  0.91827208757E+02  0.10178241622E+03  0.00000000000E+00 0.  1.
         22    1    4    4    0    0 -0.18883280741E+02  0.27405879998E+01  0.44979719980E+02  0.48859639004E+02  0.00000000000E+00 0. -1.
         22    1    4    4    0    0 -0.24056783426E+02  0.64013414126E+01  0.29241313043E+02  0.38402609145E+02  0.00000000000E+00 0. -1.
<mgrwt>
<rscale>  0 0.90365184E+02</rscale>
<asrwt>0</asrwt>
<pdfrwt beam="1">  1        2 0.27314839E-01 0.90365184E+02</pdfrwt>
<pdfrwt beam="2">  1       -2 0.17689556E-02 0.90365184E+02</pdfrwt>
<totfact> 0.15184249E+05</totfact>
</mgrwt>
</event>
<event>
 7    1  0.3480999E-009  0.8993189E+02  0.7818608E-02  0.1303017E+00
          2   -1    0    0  501    0  0.00000000000E+00  0.00000000000E+00  0.73812135013E+02  0.73812135057E+02  0.25500000000E-02 0.  1.
         -2   -1    0    0    0  501 -0.00000000000E+00 -0.00000000000E+00 -0.27393003292E+02  0.27393003410E+02  0.25500000000E-02 0. -1.
         23    2    1    2    0    0  0.00000000000E+00  0.00000000000E+00  0.46419131721E+02  0.10120513847E+03  0.89931886795E+02 0.  0.
    9000005    2    3    3    0    0  0.34055628900E+01  0.41888699806E+02  0.72851332580E+01  0.43779265677E+02  0.98635645953E+01 0.  0.
         22    1    3    3    0    0 -0.34055628900E+01 -0.41888699806E+02  0.39133998463E+02  0.57425872791E+02  0.00000000000E+00 0.  1.
         22    1    4    4    0    0 -0.29953883407E+01  0.89184843238E+01  0.32418398350E+01  0.99509416369E+01  0.00000000000E+00 0. -1.
         22    1    4    4    0    0  0.64009512308E+01  0.32970215483E+02  0.40432934229E+01  0.33828324040E+02  0.00000000000E+00 0. -1.
<mgrwt>
<rscale>  0 0.89931887E+02</rscale>
<asrwt>0</asrwt>
<pdfrwt beam="1">  1        2 0.11355713E-01 0.89931887E+02</pdfrwt>
<pdfrwt beam="2">  1       -2 0.42143083E-02 0.89931887E+02</pdfrwt>
<totfact> 0.11664884E+05</totfact>
</mgrwt>
</event>
<event>
 7    1  0.3480999E-009  0.9105569E+02  0.7818608E-02  0.1300315E+00
         -2   -1    0    0    0  501 -0.00000000000E+00  0.00000000000E+00  0.82684162554E+01  0.82684166486E+01  0.25500000000E-02 0.  1.
          2   -1    0    0  501    0  0.00000000000E+00 -0.00000000000E+00 -0.25068701769E+03  0.25068701771E+03  0.25500000000E-02 0. -1.
         23    2    1    2    0    0  0.00000000000E+00  0.35527136788E-14 -0.24241860144E+03  0.25895543436E+03  0.91055689876E+02 0.  0.
    9000005    2    3    3    0    0  0.10649198019E+02 -0.15811691891E+02 -0.23825183858E+03  0.23944192797E+03  0.14320728414E+02 0.  0.
         22    1    3    3    0    0 -0.10649198019E+02  0.15811691891E+02 -0.41667628582E+01  0.19513506389E+02  0.00000000000E+00 0.  1.
         22    1    4    4    0    0  0.99200859517E+01 -0.17453000152E+02 -0.17228950835E+03  0.17345515273E+03  0.00000000000E+00 0.  1.
         22    1    4    4    0    0  0.72911206730E+00  0.16413082613E+01 -0.65962330229E+02  0.65986775239E+02  0.00000000000E+00 0.  1.
<mgrwt>
<rscale>  0 0.91055690E+02</rscale>
<asrwt>0</asrwt>
<pdfrwt beam="2">  1        2 0.38567228E-01 0.91055690E+02</pdfrwt>
<pdfrwt beam="1">  1       -2 0.12720643E-02 0.91055690E+02</pdfrwt>
<totfact> 0.16863074E+05</totfact>
</mgrwt>
</event>
<event>
 7    1  0.3480999E-009  0.9420329E+02  0.7818608E-02  0.1292981E+00
          2   -1    0    0  501    0  0.00000000000E+00  0.00000000000E+00  0.12539807348E+02  0.12539807607E+02  0.25500000000E-02 0.  1.
         -2   -1    0    0    0  501 -0.00000000000E+00 -0.00000000000E+00 -0.17692175762E+03  0.17692175763E+03  0.25500000000E-02 0. -1.
         23    2    1    2    0    0  0.00000000000E+00  0.00000000000E+00 -0.16438195027E+03  0.18946156524E+03  0.94203286195E+02 0.  0.
    9000005    2    3    3    0    0 -0.15771980374E+02 -0.60081072043E+01 -0.17062882905E+03  0.17146500414E+03  0.10943603184E+01 0.  0.
         22    1    3    3    0    0  0.15771980374E+02  0.60081072043E+01  0.62468787797E+01  0.17996561105E+02  0.00000000000E+00 0.  1.
         22    1    4    4    0    0 -0.57693048403E+01 -0.27335435459E+01 -0.62655490989E+02  0.62979899092E+02  0.00000000000E+00 0. -1.
         22    1    4    4    0    0 -0.10002675534E+02 -0.32745636584E+01 -0.10797333806E+03  0.10848510504E+03  0.00000000000E+00 0. -1.
<mgrwt>
<rscale>  0 0.94203286E+02</rscale>
<asrwt>0</asrwt>
<pdfrwt beam="1">  1        2 0.19292013E-02 0.94203286E+02</pdfrwt>
<pdfrwt beam="2">  1       -2 0.27218730E-01 0.94203286E+02</pdfrwt>
<totfact> 0.60352923E+04</totfact>
</mgrwt>
</event>
<event>
 7    1  0.3480999E-009  0.8973444E+02  0.7818608E-02  0.1303496E+00
          2   -1    0    0  501    0  0.00000000000E+00  0.00000000000E+00  0.36378947772E+03  0.36378947773E+03  0.25500000000E-02 0.  1.
         -2   -1    0    0    0  501 -0.00000000000E+00 -0.00000000000E+00 -0.55336049576E+01  0.55336055452E+01  0.25500000000E-02 0. -1.
         23    2    1    2    0    0  0.00000000000E+00  0.00000000000E+00  0.35825587276E+03  0.36932308327E+03  0.89734438597E+02 0.  0.
    9000005    2    3    3    0    0 -0.19927331409E+02 -0.34822890792E+02  0.26150290996E+03  0.26458117156E+03  0.31132236932E+01 0.  0.
         22    1    3    3    0    0  0.19927331409E+02  0.34822890792E+02  0.96752962795E+02  0.10474191172E+03  0.00000000000E+00 0.  1.
         22    1    4    4    0    0 -0.16267302460E+02 -0.25763742588E+02  0.19911058454E+03  0.20142844992E+03  0.00000000000E+00 0.  1.
         22    1    4    4    0    0 -0.36600289488E+01 -0.90591482038E+01  0.62392325425E+02  0.63152721636E+02  0.00000000000E+00 0.  1.
<mgrwt>
<rscale>  0 0.89734439E+02</rscale>
<asrwt>0</asrwt>
<pdfrwt beam="1">  1        2 0.55967633E-01 0.89734439E+02</pdfrwt>
<pdfrwt beam="2">  1       -2 0.85132357E-03 0.89734439E+02</pdfrwt>
<totfact> 0.20123976E+05</totfact>
</mgrwt>
</event>
<event>
 7    1  0.3480999E-009  0.9017431E+02  0.7818608E-02  0.1302430E+00
         -2   -1    0    0    0  501 -0.00000000000E+00  0.00000000000E+00  0.19735619903E+03  0.19735619905E+03  0.25500000000E-02 0. -1.
          2   -1    0    0  501    0  0.00000000000E+00 -0.00000000000E+00 -0.10300418164E+02  0.10300418479E+02  0.25500000000E-02 0.  1.
         23    2    1    2    0    0 -0.35527136788E-14  0.00000000000E+00  0.18705578087E+03  0.20765661752E+03  0.90174307021E+02 0.  0.
    9000005    2    3    3    0    0 -0.31998487441E+02  0.93880305655E+00  0.16514380708E+03  0.16886333015E+03  0.14750006969E+02 0.  0.
         22    1    3    3    0    0  0.31998487441E+02 -0.93880305655E+00  0.21911973790E+02  0.38793287371E+02  0.00000000000E+00 0.  1.
         22    1    4    4    0    0  0.55642306789E-01 -0.89906305613E+00  0.27879974063E+02  0.27894522118E+02  0.00000000000E+00 0.  1.
         22    1    4    4    0    0 -0.32054129747E+02  0.18378661127E+01  0.13726383301E+03  0.14096880804E+03  0.00000000000E+00 0.  1.
<mgrwt>
<rscale>  0 0.90174307E+02</rscale>
<asrwt>0</asrwt>
<pdfrwt beam="2">  1        2 0.15846798E-02 0.90174307E+02</pdfrwt>
<pdfrwt beam="1">  1       -2 0.30362492E-01 0.90174307E+02</pdfrwt>
<totfact> 0.64470589E+04</totfact>
</mgrwt>
</event>
<event>
 7    1  0.3480999E-009  0.9132654E+02  0.7818608E-02  0.1299671E+00
         -2   -1    0    0    0  501 -0.00000000000E+00  0.00000000000E+00  0.16240129102E+02  0.16240129302E+02  0.25500000000E-02 0.  1.
          2   -1    0    0  501    0  0.00000000000E+00 -0.00000000000E+00 -0.12839393280E+03  0.12839393282E+03  0.25500000000E-02 0. -1.
         23    2    1    2    0    0 -0.17763568394E-14  0.00000000000E+00 -0.11215380370E+03  0.14463406213E+03  0.91326536359E+02 0.  0.
    9000005    2    3    3    0    0 -0.15362471383E+02 -0.39303444872E+02 -0.79282704114E+02  0.91143170438E+02  0.15510127016E+02 0.  0.
         22    1    3    3    0    0  0.15362471383E+02  0.39303444872E+02 -0.32871099583E+02  0.53490891688E+02  0.00000000000E+00 0.  1.
         22    1    4    4    0    0 -0.17526684505E+02 -0.25383935302E+02 -0.55837309588E+02  0.63791331568E+02  0.00000000000E+00 0. -1.
         22    1    4    4    0    0  0.21642131218E+01 -0.13919509570E+02 -0.23445394526E+02  0.27351838870E+02  0.00000000000E+00 0. -1.
<mgrwt>
<rscale>  0 0.91326536E+02</rscale>
<asrwt>0</asrwt>
<pdfrwt beam="2">  1        2 0.19752912E-01 0.91326536E+02</pdfrwt>
<pdfrwt beam="1">  1       -2 0.24984815E-02 0.91326536E+02</pdfrwt>
<totfact> 0.13214576E+05</totfact>
</mgrwt>
</event>
<event>
 7    1  0.3480999E-009  0.9150548E+02  0.7818608E-02  0.1299246E+00
          2   -1    0    0  501    0  0.00000000000E+00  0.00000000000E+00  0.76198864672E+02  0.76198864715E+02  0.25500000000E-02 0. -1.
         -2   -1    0    0    0  501 -0.00000000000E+00 -0.00000000000E+00 -0.27471708977E+02  0.27471709096E+02  0.25500000000E-02 0.  1.
         23    2    1    2    0    0  0.00000000000E+00 -0.35527136788E-14  0.48727155695E+02  0.10367057381E+03  0.91505476187E+02 0.  0.
    9000005    2    3    3    0    0  0.10975618868E+02 -0.23908122003E+02 -0.16627454099E+02  0.33219970346E+02  0.11620313798E+02 0.  0.
         22    1    3    3    0    0 -0.10975618868E+02  0.23908122003E+02  0.65354609794E+02  0.70450603465E+02  0.00000000000E+00 0. -1.
         22    1    4    4    0    0  0.51988506638E+01 -0.62633174438E+01 -0.11258602150E+02  0.13892923234E+02  0.00000000000E+00 0. -1.
         22    1    4    4    0    0  0.57767682044E+01 -0.17644804559E+02 -0.53688519488E+01  0.19327047112E+02  0.00000000000E+00 0. -1.
<mgrwt>
<rscale>  0 0.91505476E+02</rscale>
<asrwt>0</asrwt>
<pdfrwt beam="1">  1        2 0.11722902E-01 0.91505476E+02</pdfrwt>
<pdfrwt beam="2">  1       -2 0.42264167E-02 0.91505476E+02</pdfrwt>
<totfact> 0.11214630E+05</totfact>
</mgrwt>
</event>
<event>
 7    1  0.3480999E-009  0.8959100E+02  0.7818608E-02  0.1303845E+00
          2   -1    0    0  501    0  0.00000000000E+00  0.00000000000E+00  0.10114174501E+04  0.10114174501E+04  0.25500000000E-02 0. -1.
         -2   -1    0    0    0  501 -0.00000000000E+00 -0.00000000000E+00 -0.19839841534E+01  0.19839857921E+01  0.25500000000E-02 0.  1.
         23    2    1    2    0    0  0.88817841970E-15  0.00000000000E+00  0.10094334660E+04  0.10134014359E+04  0.89591004582E+02 0.  0.
    9000005    2    3    3    0    0  0.34253856175E+01  0.36397479800E+02  0.79171963581E+03  0.79263952425E+03  0.10996538898E+02 0.  0.
         22    1    3    3    0    0 -0.34253856175E+01 -0.36397479800E+02  0.21771383017E+03  0.22076191169E+03  0.00000000000E+00 0.  1.
         22    1    4    4    0    0  0.47656857350E+01  0.16822263091E+02  0.28125424512E+03  0.28179718006E+03  0.00000000000E+00 0.  1.
         22    1    4    4    0    0 -0.13403001175E+01  0.19575216709E+02  0.51046539070E+03  0.51084234419E+03  0.00000000000E+00 0.  1.
<mgrwt>
<rscale>  0 0.89591005E+02</rscale>
<asrwt>0</asrwt>
<pdfrwt beam="1">  1        2 0.15560248E+00 0.89591005E+02</pdfrwt>
<pdfrwt beam="2">  1       -2 0.30522886E-03 0.89591005E+02</pdfrwt>
<totfact> 0.26194126E+05</totfact>
</mgrwt>
</event>
<event>
 7    1  0.3480999E-009  0.8999525E+02  0.7818608E-02  0.1302863E+00
          2   -1    0    0  501    0  0.00000000000E+00  0.00000000000E+00  0.31016214931E+02  0.31016215036E+02  0.25500000000E-02 0.  1.
         -2   -1    0    0    0  501 -0.00000000000E+00 -0.00000000000E+00 -0.65281540724E+02  0.65281540774E+02  0.25500000000E-02 0. -1.
         23    2    1    2    0    0 -0.71054273576E-14  0.35527136788E-14 -0.34265325793E+02  0.96297755810E+02  0.89995251110E+02 0.  0.
    9000005    2    3    3    0    0  0.35869302888E+02 -0.25600584379E+02 -0.12098699218E+02  0.46968695978E+02  0.10848182744E+02 0.  0.
         22    1    3    3    0    0 -0.35869302888E+02  0.25600584379E+02 -0.22166626575E+02  0.49329059832E+02  0.00000000000E+00 0.  1.
         22    1    4    4    0    0  0.28618086024E+02 -0.17068827372E+02 -0.12926515914E+02  0.35741216113E+02  0.00000000000E+00 0. -1.
         22    1    4    4    0    0  0.72512168640E+01 -0.85317570071E+01  0.82781669571E+00  0.11227479865E+02  0.00000000000E+00 0. -1.
<mgrwt>
<rscale>  0 0.89995251E+02</rscale>
<asrwt>0</asrwt>
<pdfrwt beam="1">  1        2 0.47717254E-02 0.89995251E+02</pdfrwt>
<pdfrwt beam="2">  1       -2 0.10043314E-01 0.89995251E+02</pdfrwt>
<totfact> 0.92757826E+04</totfact>
</mgrwt>
</event>
<event>
 7    1  0.3768729E-009  0.8951625E+02  0.7818608E-02  0.1304027E+00
         -2   -1    0    0    0  501 -0.00000000000E+00  0.00000000000E+00  0.16041933864E+01  0.16041954131E+01  0.25500000000E-02 0.  1.
          2   -1    0    0  501    0  0.00000000000E+00 -0.00000000000E+00 -0.12487823097E+04  0.12487823097E+04  0.25500000000E-02 0. -1.
         23    2    1    2    0    0  0.88817841970E-15  0.88817841970E-15 -0.12471781164E+04  0.12503865052E+04  0.89516246370E+02 0.  0.
    9000005    2    3    3    0    0 -0.67002067435E+01  0.79553046426E+01 -0.12311082289E+04  0.12312443808E+04  0.15068985300E+02 0.  0.
         22    1    3    3    0    0  0.67002067435E+01 -0.79553046426E+01 -0.16069887434E+02  0.19142124347E+02  0.00000000000E+00 0.  1.
         22    1    4    4    0    0 -0.11256646953E+02  0.78293438237E+01 -0.95785908011E+03  0.95795721620E+03  0.00000000000E+00 0. -1.
         22    1    4    4    0    0  0.45564402090E+01  0.12596081889E+00 -0.27324914882E+03  0.27328716461E+03  0.00000000000E+00 0. -1.
<mgrwt>
<rscale>  0 0.89516246E+02</rscale>
<asrwt>0</asrwt>
<pdfrwt beam="2">  1        2 0.19211958E+00 0.89516246E+02</pdfrwt>
<pdfrwt beam="1">  1       -2 0.24680014E-03 0.89516246E+02</pdfrwt>
<totfact> 0.25965771E+05</totfact>
</mgrwt>
</event>
<event>
 7    1  0.4114104E-009  0.1014324E+03  0.7818608E-02  0.1277312E+00
         -2   -1    0    0    0  501 -0.00000000000E+00  0.00000000000E+00  0.22676291211E+02  0.22676291354E+02  0.25500000000E-02 0. -1.
          2   -1    0    0  501    0  0.00000000000E+00 -0.00000000000E+00 -0.11342823451E+03  0.11342823454E+03  0.25500000000E-02 0.  1.
         23    2    1    2    0    0  0.00000000000E+00  0.00000000000E+00 -0.90751943297E+02  0.13610452589E+03  0.10143237528E+03 0.  0.
    9000005    2    3    3    0    0 -0.43540839362E+02  0.39792920505E+01 -0.15223802108E+02  0.48834029336E+02  0.15535726985E+02 0.  0.
         22    1    3    3    0    0  0.43540839362E+02 -0.39792920505E+01 -0.75528141188E+02  0.87270496555E+02  0.00000000000E+00 0.  1.
         22    1    4    4    0    0 -0.30576284644E+02 -0.10601146101E+01 -0.37904587459E+01  0.30828567970E+02  0.00000000000E+00 0. -1.
         22    1    4    4    0    0 -0.12964554718E+02  0.50394066606E+01 -0.11433343363E+02  0.18005461366E+02  0.00000000000E+00 0. -1.
<mgrwt>
<rscale>  0 0.10143238E+03</rscale>
<asrwt>0</asrwt>
<pdfrwt beam="2">  1        2 0.17450497E-01 0.10143238E+03</pdfrwt>
<pdfrwt beam="1">  1       -2 0.34886603E-02 0.10143238E+03</pdfrwt>
<totfact> 0.95024440E+04</totfact>
</mgrwt>
</event>
<event>
 7    1  0.3480999E-009  0.9007226E+02  0.7818608E-02  0.1302677E+00
          2   -1    0    0  501    0  0.00000000000E+00  0.00000000000E+00  0.97146565905E+03  0.97146565905E+03  0.25500000000E-02 0. -1.
         -2   -1    0    0    0  501 -0.00000000000E+00 -0.00000000000E+00 -0.20878271656E+01  0.20878287229E+01  0.25500000000E-02 0.  1.
         23    2    1    2    0    0  0.00000000000E+00  0.00000000000E+00  0.96937783188E+03  0.97355348778E+03  0.90072263280E+02 0.  0.
    9000005    2    3    3    0    0  0.31229837549E+02  0.17179666060E+02  0.78073968094E+03  0.78157745888E+03  0.61992866554E+01 0.  0.
         22    1    3    3    0    0 -0.31229837549E+02 -0.17179666060E+02  0.18863815095E+03  0.19197602890E+03  0.00000000000E+00 0.  1.
         22    1    4    4    0    0  0.61893790251E+01  0.18106403479E+01  0.18718487311E+03  0.18729592508E+03  0.00000000000E+00 0.  1.
         22    1    4    4    0    0  0.25040458524E+02  0.15369025712E+02  0.59355480783E+03  0.59428153380E+03  0.00000000000E+00 0.  1.
<mgrwt>
<rscale>  0 0.90072263E+02</rscale>
<asrwt>0</asrwt>
<pdfrwt beam="1">  1        2 0.14945627E+00 0.90072263E+02</pdfrwt>
<pdfrwt beam="2">  1       -2 0.32120428E-03 0.90072263E+02</pdfrwt>
<totfact> 0.25776229E+05</totfact>
</mgrwt>
</event>
<event>
 7    1  0.3480999E-009  0.9487294E+02  0.7818608E-02  0.1291463E+00
         -2   -1    0    0    0  501 -0.00000000000E+00  0.00000000000E+00  0.15337884623E+03  0.15337884625E+03  0.25500000000E-02 0.  1.
          2   -1    0    0  501    0  0.00000000000E+00 -0.00000000000E+00 -0.14670984112E+02  0.14670984334E+02  0.25500000000E-02 0. -1.
         23    2    1    2    0    0  0.00000000000E+00  0.88817841970E-15  0.13870786212E+03  0.16804983059E+03  0.94872938958E+02 0.  0.
    9000005    2    3    3    0    0  0.46075103682E+02  0.41782668940E+01  0.62284507469E+02  0.78713935060E+02  0.13272174218E+02 0.  0.
         22    1    3    3    0    0 -0.46075103682E+02 -0.41782668940E+01  0.76423354651E+02  0.89335895527E+02  0.00000000000E+00 0. -1.
         22    1    4    4    0    0  0.36521508183E+02  0.28617392232E+01  0.56888107379E+02  0.67662891399E+02  0.00000000000E+00 0.  1.
         22    1    4    4    0    0  0.95535954989E+01  0.13165276708E+01  0.53964000900E+01  0.11051043661E+02  0.00000000000E+00 0.  1.
<mgrwt>
<rscale>  0 0.94872939E+02</rscale>
<asrwt>0</asrwt>
<pdfrwt beam="2">  1        2 0.22570745E-02 0.94872939E+02</pdfrwt>
<pdfrwt beam="1">  1       -2 0.23596745E-01 0.94872939E+02</pdfrwt>
<totfact> 0.62646005E+04</totfact>
</mgrwt>
</event>
<event>
 7    1  0.3480999E-009  0.9266730E+02  0.7818608E-02  0.1296518E+00
          2   -1    0    0  501    0  0.00000000000E+00  0.00000000000E+00  0.25418463130E+03  0.25418463131E+03  0.25500000000E-02 0. -1.
         -2   -1    0    0    0  501 -0.00000000000E+00 -0.00000000000E+00 -0.84458562197E+01  0.84458566046E+01  0.25500000000E-02 0.  1.
         23    2    1    2    0    0  0.00000000000E+00  0.71054273576E-14  0.24573877508E+03  0.26263048792E+03  0.92667295233E+02 0.  0.
    9000005    2    3    3    0    0  0.83127341140E+01 -0.43176751649E+02  0.16014874806E+03  0.16640686215E+03  0.10501849004E+02 0.  0.
         22    1    3    3    0    0 -0.83127341140E+01  0.43176751649E+02  0.85590027021E+02  0.96223625773E+02  0.00000000000E+00 0. -1.
         22    1    4    4    0    0  0.96155294132E+01 -0.37948992713E+02  0.14848282715E+03  0.15355694192E+03  0.00000000000E+00 0. -1.
         22    1    4    4    0    0 -0.13027952992E+01 -0.52277589360E+01  0.11665920911E+02  0.12849920225E+02  0.00000000000E+00 0. -1.
<mgrwt>
<rscale>  0 0.92667295E+02</rscale>
<asrwt>0</asrwt>
<pdfrwt beam="1">  1        2 0.39105321E-01 0.92667295E+02</pdfrwt>
<pdfrwt beam="2">  1       -2 0.12993627E-02 0.92667295E+02</pdfrwt>
<totfact> 0.16170934E+05</totfact>
</mgrwt>
</event>
<event>
 7    1  0.3480999E-009  0.8908383E+02  0.7818608E-02  0.1305086E+00
          2   -1    0    0  501    0  0.00000000000E+00  0.00000000000E+00  0.33760172654E+02  0.33760172750E+02  0.25500000000E-02 0.  1.
         -2   -1    0    0    0  501 -0.00000000000E+00 -0.00000000000E+00 -0.58766941515E+02  0.58766941570E+02  0.25500000000E-02 0. -1.
         23    2    1    2    0    0  0.17763568394E-14  0.00000000000E+00 -0.25006768861E+02  0.92527114320E+02  0.89083827913E+02 0.  0.
    9000005    2    3    3    0    0  0.91986474459E+01  0.41847802529E+02 -0.12915359935E+01  0.43555020621E+02  0.77147951868E+01 0.  0.
         22    1    3    3    0    0 -0.91986474459E+01 -0.41847802529E+02 -0.23715232868E+02  0.48972093699E+02  0.00000000000E+00 0. -1.
         22    1    4    4    0    0  0.23875024636E+00  0.16718571203E+02 -0.21778173269E+01  0.16861509809E+02  0.00000000000E+00 0. -1.
         22    1    4    4    0    0  0.89598971996E+01  0.25129231326E+02  0.88628133339E+00  0.26693510812E+02  0.00000000000E+00 0. -1.
<mgrwt>
<rscale>  0 0.89083828E+02</rscale>
<asrwt>0</asrwt>
<pdfrwt beam="1">  1        2 0.51938727E-02 0.89083828E+02</pdfrwt>
<pdfrwt beam="2">  1       -2 0.90410679E-02 0.89083828E+02</pdfrwt>
<totfact> 0.97691160E+04</totfact>
</mgrwt>
</event>
<event>
 7    1  0.3480999E-009  0.9186125E+02  0.7818608E-02  0.1298406E+00
          2   -1    0    0  501    0  0.00000000000E+00  0.00000000000E+00  0.24476665357E+03  0.24476665358E+03  0.25500000000E-02 0. -1.
         -2   -1    0    0    0  501 -0.00000000000E+00 -0.00000000000E+00 -0.86189113771E+01  0.86189117543E+01  0.25500000000E-02 0.  1.
         23    2    1    2    0    0 -0.44408920985E-15  0.35527136788E-14  0.23614774219E+03  0.25338556533E+03  0.91861246337E+02 0.  0.
    9000005    2    3    3    0    0  0.10106593104E+01 -0.16554139924E+02  0.23610961515E+03  0.23680055902E+03  0.71898125621E+01 0.  0.
         22    1    3    3    0    0 -0.10106593104E+01  0.16554139924E+02  0.38127041882E-01  0.16585006317E+02  0.00000000000E+00 0.  1.
         22    1    4    4    0    0 -0.23187893407E+01 -0.22680547618E+01  0.56438264145E+02  0.56531394075E+02  0.00000000000E+00 0.  1.
         22    1    4    4    0    0  0.33294486510E+01 -0.14286085162E+02  0.17967135100E+03  0.18026916494E+03  0.00000000000E+00 0.  1.
<mgrwt>
<rscale>  0 0.91861246E+02</rscale>
<asrwt>0</asrwt>
<pdfrwt beam="1">  1        2 0.37656411E-01 0.91861246E+02</pdfrwt>
<pdfrwt beam="2">  1       -2 0.13259863E-02 0.91861246E+02</pdfrwt>
<totfact> 0.16324453E+05</totfact>
</mgrwt>
</event>
<event>
 7    1  0.3480999E-009  0.9328852E+02  0.7818608E-02  0.1295078E+00
          2   -1    0    0  501    0  0.00000000000E+00  0.00000000000E+00  0.59796508625E+01  0.59796514062E+01  0.25500000000E-02 0. -1.
         -2   -1    0    0    0  501 -0.00000000000E+00 -0.00000000000E+00 -0.36384850996E+03  0.36384850996E+03  0.25500000000E-02 0.  1.
         23    2    1    2    0    0  0.35527136788E-14  0.88817841970E-15 -0.35786885909E+03  0.36982816137E+03  0.93288523593E+02 0.  0.
    9000005    2    3    3    0    0 -0.21578841878E+02 -0.71968289888E+01 -0.33939438252E+03  0.34052377519E+03  0.15825733027E+02 0.  0.
         22    1    3    3    0    0  0.21578841878E+02  0.71968289888E+01 -0.18474476578E+02  0.29304386175E+02  0.00000000000E+00 0. -1.
         22    1    4    4    0    0 -0.19415087413E+02 -0.10013743179E+02 -0.32352660134E+03  0.32426329186E+03  0.00000000000E+00 0. -1.
         22    1    4    4    0    0 -0.21637544657E+01  0.28169141897E+01 -0.15867781172E+02  0.16260483335E+02  0.00000000000E+00 0. -1.
<mgrwt>
<rscale>  0 0.93288524E+02</rscale>
<asrwt>0</asrwt>
<pdfrwt beam="1">  1        2 0.91994661E-03 0.93288524E+02</pdfrwt>
<pdfrwt beam="2">  1       -2 0.55976677E-01 0.93288524E+02</pdfrwt>
<totfact> 0.42820925E+04</totfact>
</mgrwt>
</event>
<event>
 7    1  0.3480999E-009  0.9059245E+02  0.7818608E-02  0.1301423E+00
         -2   -1    0    0    0  501 -0.00000000000E+00  0.00000000000E+00  0.13494710828E+02  0.13494711069E+02  0.25500000000E-02 0. -1.
          2   -1    0    0  501    0  0.00000000000E+00 -0.00000000000E+00 -0.15204090894E+03  0.15204090896E+03  0.25500000000E-02 0.  1.
         23    2    1    2    0    0  0.00000000000E+00  0.00000000000E+00 -0.13854619811E+03  0.16553562003E+03  0.90592452708E+02 0.  0.
    9000005    2    3    3    0    0 -0.38327081648E+02  0.12861603606E+02 -0.35146364862E+02  0.54513498131E+02  0.10102894661E+02 0.  0.
         22    1    3    3    0    0  0.38327081648E+02 -0.12861603606E+02 -0.10339983325E+03  0.11102212190E+03  0.00000000000E+00 0.  1.
         22    1    4    4    0    0 -0.25724191958E+02  0.36698514871E+01 -0.23652483506E+02  0.35137470567E+02  0.00000000000E+00 0.  1.
         22    1    4    4    0    0 -0.12602889690E+02  0.91917521193E+01 -0.11493881356E+02  0.19376027565E+02  0.00000000000E+00 0.  1.
<mgrwt>
<rscale>  0 0.90592453E+02</rscale>
<asrwt>0</asrwt>
<pdfrwt beam="2">  1        2 0.23390908E-01 0.90592453E+02</pdfrwt>
<pdfrwt beam="1">  1       -2 0.20761095E-02 0.90592453E+02</pdfrwt>
<totfact> 0.14292448E+05</totfact>
</mgrwt>
</event>
<event>
 7    1  0.3480999E-009  0.9064054E+02  0.7818608E-02  0.1301308E+00
         -2   -1    0    0    0  501 -0.00000000000E+00  0.00000000000E+00  0.71261914673E+01  0.71261919235E+01  0.25500000000E-02 0.  1.
          2   -1    0    0  501    0  0.00000000000E+00 -0.00000000000E+00 -0.28822220590E+03  0.28822220591E+03  0.25500000000E-02 0. -1.
         23    2    1    2    0    0  0.00000000000E+00  0.35527136788E-14 -0.28109601443E+03  0.29534839783E+03  0.90640536040E+02 0.  0.
    9000005    2    3    3    0    0 -0.37213138058E+02  0.20222762209E+02 -0.91168536505E+02  0.10075594005E+03  0.68029148904E+01 0.  0.
         22    1    3    3    0    0  0.37213138058E+02 -0.20222762209E+02 -0.18992747793E+03  0.19459245779E+03  0.00000000000E+00 0.  1.
         22    1    4    4    0    0 -0.74720903541E+01  0.23037671364E+01 -0.22267138897E+02  0.23600104914E+02  0.00000000000E+00 0. -1.
         22    1    4    4    0    0 -0.29741047704E+02  0.17918995072E+02 -0.68901397608E+02  0.77155835135E+02  0.00000000000E+00 0. -1.
<mgrwt>
<rscale>  0 0.90640536E+02</rscale>
<asrwt>0</asrwt>
<pdfrwt beam="2">  1        2 0.44341869E-01 0.90640536E+02</pdfrwt>
<pdfrwt beam="1">  1       -2 0.10963374E-02 0.90640536E+02</pdfrwt>
<totfact> 0.17980660E+05</totfact>
</mgrwt>
</event>
<event>
 7    1  0.3480999E-009  0.9215817E+02  0.7818608E-02  0.1297708E+00
          2   -1    0    0  501    0  0.00000000000E+00  0.00000000000E+00  0.57391251795E+02  0.57391251851E+02  0.25500000000E-02 0. -1.
         -2   -1    0    0    0  501 -0.00000000000E+00 -0.00000000000E+00 -0.36996618220E+02  0.36996618308E+02  0.25500000000E-02 0.  1.
         23    2    1    2    0    0  0.00000000000E+00  0.00000000000E+00  0.20394633575E+02  0.94387870159E+02  0.92158173563E+02 0.  0.
    9000005    2    3    3    0    0  0.21797914314E+02 -0.24067860975E+02 -0.22994321397E+02  0.40193660008E+02  0.56903855718E+01 0.  0.
         22    1    3    3    0    0 -0.21797914314E+02  0.24067860975E+02  0.43388954971E+02  0.54194210151E+02  0.00000000000E+00 0. -1.
         22    1    4    4    0    0  0.27521124464E+01 -0.73873157344E+00 -0.19145377126E+01  0.34329727509E+01  0.00000000000E+00 0. -1.
         22    1    4    4    0    0  0.19045801868E+02 -0.23329129402E+02 -0.21079783684E+02  0.36760687257E+02  0.00000000000E+00 0. -1.
<mgrwt>
<rscale>  0 0.92158174E+02</rscale>
<asrwt>0</asrwt>
<pdfrwt beam="1">  1        2 0.88294234E-02 0.92158174E+02</pdfrwt>
<pdfrwt beam="2">  1       -2 0.56917874E-02 0.92158174E+02</pdfrwt>
<totfact> 0.10168525E+05</totfact>
</mgrwt>
</event>
<event>
 7    1  0.3480999E-009  0.9114471E+02  0.7818608E-02  0.1300103E+00
          2   -1    0    0  501    0  0.00000000000E+00  0.00000000000E+00  0.45858413259E+02  0.45858413330E+02  0.25500000000E-02 0. -1.
         -2   -1    0    0    0  501 -0.00000000000E+00 -0.00000000000E+00 -0.45288078589E+02  0.45288078660E+02  0.25500000000E-02 0.  1.
         23    2    1    2    0    0  0.17763568394E-14  0.00000000000E+00  0.57033467031E+00  0.91146491990E+02  0.91144707583E+02 0.  0.
    9000005    2    3    3    0    0  0.14123167534E+02  0.36155028489E+02  0.21765629034E+02  0.46921041745E+02  0.14872511722E+02 0.  0.
         22    1    3    3    0    0 -0.14123167534E+02 -0.36155028489E+02 -0.21195294364E+02  0.44225450245E+02  0.00000000000E+00 0.  1.
         22    1    4    4    0    0  0.16052327348E+02  0.22808995421E+02  0.12528873379E+02  0.30576136995E+02  0.00000000000E+00 0. -1.
         22    1    4    4    0    0 -0.19291598135E+01  0.13346033068E+02  0.92367556554E+01  0.16344904750E+02  0.00000000000E+00 0. -1.
<mgrwt>
<rscale>  0 0.91144708E+02</rscale>
<asrwt>0</asrwt>
<pdfrwt beam="1">  1        2 0.70551405E-02 0.91144708E+02</pdfrwt>
<pdfrwt beam="2">  1       -2 0.69673967E-02 0.91144708E+02</pdfrwt>
<totfact> 0.98926063E+04</totfact>
</mgrwt>
</event>
<event>
 7    1  0.3480999E-009  0.8761595E+02  0.7818608E-02  0.1308730E+00
         -2   -1    0    0    0  501 -0.00000000000E+00  0.00000000000E+00  0.38117639773E+01  0.38117648302E+01  0.25500000000E-02 0.  1.
          2   -1    0    0  501    0  0.00000000000E+00 -0.00000000000E+00 -0.50347776037E+03  0.50347776038E+03  0.25500000000E-02 0. -1.
         23    2    1    2    0    0  0.00000000000E+00 -0.17763568394E-14 -0.49966599639E+03  0.50728952521E+03  0.87615948510E+02 0.  0.
    9000005    2    3    3    0    0 -0.73077226227E+01 -0.12441742821E+02 -0.48879226577E+03  0.48922193566E+03  0.14561026038E+02 0.  0.
         22    1    3    3    0    0  0.73077226227E+01  0.12441742821E+02 -0.10873730621E+02  0.18067589545E+02  0.00000000000E+00 0.  1.
         22    1    4    4    0    0 -0.47608550181E+00  0.22131006624E+01 -0.17397352463E+03  0.17398825174E+03  0.00000000000E+00 0.  1.
         22    1    4    4    0    0 -0.68316371209E+01 -0.14654843484E+02 -0.31481874115E+03  0.31523368392E+03  0.00000000000E+00 0.  1.
<mgrwt>
<rscale>  0 0.87615949E+02</rscale>
<asrwt>0</asrwt>
<pdfrwt beam="2">  1        2 0.77458064E-01 0.87615949E+02</pdfrwt>
<pdfrwt beam="1">  1       -2 0.58642569E-03 0.87615949E+02</pdfrwt>
<totfact> 0.23993409E+05</totfact>
</mgrwt>
</event>
<event>
 7    1  0.3480999E-009  0.9306814E+02  0.7818608E-02  0.1295587E+00
         -2   -1    0    0    0  501 -0.00000000000E+00  0.00000000000E+00  0.17883513283E+01  0.17883531463E+01  0.25500000000E-02 0.  1.
          2   -1    0    0  501    0  0.00000000000E+00 -0.00000000000E+00 -0.12108462408E+04  0.12108462408E+04  0.25500000000E-02 0. -1.
         23    2    1    2    0    0 -0.35527136788E-14  0.55511151231E-16 -0.12090578895E+04  0.12126345939E+04  0.93068138199E+02 0.  0.
    9000005    2    3    3    0    0  0.23360866829E+02  0.45658918619E+00 -0.11265784618E+04  0.11269094835E+04  0.14142659984E+02 0.  0.
         22    1    3    3    0    0 -0.23360866829E+02 -0.45658918619E+00 -0.82479427633E+02  0.85725110413E+02  0.00000000000E+00 0.  1.
         22    1    4    4    0    0  0.73228271149E+01 -0.24739272452E+01 -0.66184341286E+03  0.66188854595E+03  0.00000000000E+00 0. -1.
         22    1    4    4    0    0  0.16038039714E+02  0.29305164313E+01 -0.46473504897E+03  0.46502093757E+03  0.00000000000E+00 0. -1.
<mgrwt>
<rscale>  0 0.93068138E+02</rscale>
<asrwt>0</asrwt>
<pdfrwt beam="2">  1        2 0.18628338E+00 0.93068138E+02</pdfrwt>
<pdfrwt beam="1">  1       -2 0.27513208E-03 0.93068138E+02</pdfrwt>
<totfact> 0.23534524E+05</totfact>
</mgrwt>
</event>
<event>
 7    1  0.3480999E-009  0.8890626E+02  0.7818608E-02  0.1305522E+00
          2   -1    0    0  501    0  0.00000000000E+00  0.00000000000E+00  0.85878948962E+02  0.85878949000E+02  0.25500000000E-02 0. -1.
         -2   -1    0    0    0  501 -0.00000000000E+00 -0.00000000000E+00 -0.23010070266E+02  0.23010070408E+02  0.25500000000E-02 0.  1.
         23    2    1    2    0    0 -0.17763568394E-14  0.00000000000E+00  0.62868878696E+02  0.10888901941E+03  0.88906257592E+02 0.  0.
    9000005    2    3    3    0    0  0.15021676292E+02  0.40908479665E+02  0.40049662643E+02  0.59696834170E+02  0.77834481448E+01 0.  0.
         22    1    3    3    0    0 -0.15021676292E+02 -0.40908479665E+02  0.22819216053E+02  0.49192185237E+02  0.00000000000E+00 0.  1.
         22    1    4    4    0    0  0.70472412038E+01  0.10473072115E+02  0.13990207430E+02  0.18843427290E+02  0.00000000000E+00 0. -1.
         22    1    4    4    0    0  0.79744350879E+01  0.30435407550E+02  0.26059455213E+02  0.40853406880E+02  0.00000000000E+00 0. -1.
<mgrwt>
<rscale>  0 0.88906258E+02</rscale>
<asrwt>0</asrwt>
<pdfrwt beam="1">  1        2 0.13212146E-01 0.88906258E+02</pdfrwt>
<pdfrwt beam="2">  1       -2 0.35400108E-02 0.88906258E+02</pdfrwt>
<totfact> 0.12569211E+05</totfact>
</mgrwt>
</event>
<event>
 7    1  0.3480999E-009  0.9127037E+02  0.7818608E-02  0.1299804E+00
          2   -1    0    0  501    0  0.00000000000E+00  0.00000000000E+00  0.54018102111E+01  0.54018108130E+01  0.25500000000E-02 0. -1.
         -2   -1    0    0    0  501 -0.00000000000E+00 -0.00000000000E+00 -0.38553184760E+03  0.38553184761E+03  0.25500000000E-02 0.  1.
         23    2    1    2    0    0 -0.71054273576E-14  0.00000000000E+00 -0.38013003739E+03  0.39093365842E+03  0.91270367379E+02 0.  0.
    9000005    2    3    3    0    0 -0.37970064473E+02 -0.62717704945E+01 -0.28949306170E+03  0.29246476860E+03  0.15759035398E+02 0.  0.
         22    1    3    3    0    0  0.37970064473E+02  0.62717704945E+01 -0.90636975686E+02  0.98468889821E+02  0.00000000000E+00 0.  1.
         22    1    4    4    0    0 -0.19121274981E+01  0.57729718804E+00 -0.28426739583E+01  0.34742335623E+01  0.00000000000E+00 0.  1.
         22    1    4    4    0    0 -0.36057936975E+02 -0.68490676825E+01 -0.28665038774E+03  0.28899053504E+03  0.00000000000E+00 0.  1.
<mgrwt>
<rscale>  0 0.91270367E+02</rscale>
<asrwt>0</asrwt>
<pdfrwt beam="1">  1        2 0.83104808E-03 0.91270367E+02</pdfrwt>
<pdfrwt beam="2">  1       -2 0.59312570E-01 0.91270367E+02</pdfrwt>
<totfact> 0.43641154E+04</totfact>
</mgrwt>
</event>
<event>
 7    1  0.3480999E-009  0.9005829E+02  0.7818608E-02  0.1302711E+00
          2   -1    0    0  501    0  0.00000000000E+00  0.00000000000E+00  0.14043734935E+03  0.14043734937E+03  0.25500000000E-02 0.  1.
         -2   -1    0    0    0  501 -0.00000000000E+00 -0.00000000000E+00 -0.14437923414E+02  0.14437923639E+02  0.25500000000E-02 0. -1.
         23    2    1    2    0    0  0.00000000000E+00  0.71054273576E-14  0.12599942594E+03  0.15487527301E+03  0.90058285873E+02 0.  0.
    9000005    2    3    3    0    0 -0.11523941606E+02 -0.42676221565E+02  0.62232199526E+02  0.77284550105E+02  0.12082793961E+02 0.  0.
         22    1    3    3    0    0  0.11523941606E+02  0.42676221565E+02  0.63767226411E+02  0.77590722908E+02  0.00000000000E+00 0.  1.
         22    1    4    4    0    0 -0.51369776778E+01 -0.36610292522E+02  0.51625637901E+02  0.63497311336E+02  0.00000000000E+00 0. -1.
         22    1    4    4    0    0 -0.63869639283E+01 -0.60659290432E+01  0.10606561625E+02  0.13787238770E+02  0.00000000000E+00 0. -1.
<mgrwt>
<rscale>  0 0.90058286E+02</rscale>
<asrwt>0</asrwt>
<pdfrwt beam="1">  1        2 0.21605747E-01 0.90058286E+02</pdfrwt>
<pdfrwt beam="2">  1       -2 0.22212190E-02 0.90058286E+02</pdfrwt>
<totfact> 0.14139750E+05</totfact>
</mgrwt>
</event>
<event>
 7    1  0.3480999E-009  0.9232978E+02  0.7818608E-02  0.1297306E+00
          2   -1    0    0  501    0  0.00000000000E+00  0.00000000000E+00  0.66639265330E+02  0.66639265379E+02  0.25500000000E-02 0. -1.
         -2   -1    0    0    0  501 -0.00000000000E+00 -0.00000000000E+00 -0.31981097620E+02  0.31981097722E+02  0.25500000000E-02 0.  1.
         23    2    1    2    0    0  0.00000000000E+00  0.71054273576E-14  0.34658167710E+02  0.98620363101E+02  0.92329775420E+02 0.  0.
    9000005    2    3    3    0    0  0.37370855107E+01  0.42551575568E+02 -0.50752962353E+00  0.43291991894E+02  0.70240005948E+01 0.  0.
         22    1    3    3    0    0 -0.37370855107E+01 -0.42551575568E+02  0.35165697334E+02  0.55328371207E+02  0.00000000000E+00 0. -1.
         22    1    4    4    0    0  0.10274229216E+01  0.14785943324E+01  0.10791750569E+01  0.20991564646E+01  0.00000000000E+00 0. -1.
         22    1    4    4    0    0  0.27096625891E+01  0.41072981236E+02 -0.15867046804E+01  0.41192835429E+02  0.00000000000E+00 0. -1.
<mgrwt>
<rscale>  0 0.92329775E+02</rscale>
<asrwt>0</asrwt>
<pdfrwt beam="1">  1        2 0.10252194E-01 0.92329775E+02</pdfrwt>
<pdfrwt beam="2">  1       -2 0.49201690E-02 0.92329775E+02</pdfrwt>
<totfact> 0.10534346E+05</totfact>
</mgrwt>
</event>
<event>
 7    1  0.3480999E-009  0.9153101E+02  0.7818608E-02  0.1299186E+00
         -2   -1    0    0    0  501 -0.00000000000E+00  0.00000000000E+00  0.13937588894E+01  0.13937612221E+01  0.25500000000E-02 0.  1.
          2   -1    0    0  501    0  0.00000000000E+00 -0.00000000000E+00 -0.15027560024E+04  0.15027560024E+04  0.25500000000E-02 0. -1.
         23    2    1    2    0    0  0.00000000000E+00  0.00000000000E+00 -0.15013622435E+04  0.15041497636E+04  0.91531006612E+02 0.  0.
    9000005    2    3    3    0    0  0.13659504768E+02 -0.13973954605E+02 -0.14303764201E+04  0.14305234056E+04  0.62174891120E+01 0.  0.
         22    1    3    3    0    0 -0.13659504768E+02  0.13973954605E+02 -0.70985823378E+02  0.73626358041E+02  0.00000000000E+00 0.  1.
         22    1    4    4    0    0  0.26558265945E+01 -0.60045201080E+01 -0.59892529903E+03  0.59896128547E+03  0.00000000000E+00 0. -1.
         22    1    4    4    0    0  0.11003678173E+02 -0.79694344966E+01 -0.83145112108E+03  0.83156212009E+03  0.00000000000E+00 0. -1.
<mgrwt>
<rscale>  0 0.91531007E+02</rscale>
<asrwt>0</asrwt>
<pdfrwt beam="2">  1        2 0.23119194E+00 0.91531007E+02</pdfrwt>
<pdfrwt beam="1">  1       -2 0.21442583E-03 0.91531007E+02</pdfrwt>
<totfact> 0.23340493E+05</totfact>
</mgrwt>
</event>
<event>
 7    1  0.3480999E-009  0.8850493E+02  0.7818608E-02  0.1306513E+00
         -2   -1    0    0    0  501 -0.00000000000E+00  0.00000000000E+00  0.30487700891E+01  0.30487711555E+01  0.25500000000E-02 0.  1.
          2   -1    0    0  501    0  0.00000000000E+00 -0.00000000000E+00 -0.64231808029E+03  0.64231808029E+03  0.25500000000E-02 0. -1.
         23    2    1    2    0    0 -0.35527136788E-14  0.00000000000E+00 -0.63926931020E+03  0.64536685145E+03  0.88504926340E+02 0.  0.
    9000005    2    3    3    0    0 -0.28056977828E+02 -0.19472667065E+02 -0.51988674242E+03  0.52119529168E+03  0.13997440882E+02 0.  0.
         22    1    3    3    0    0  0.28056977828E+02  0.19472667065E+02 -0.11938256777E+03  0.12417155977E+03  0.00000000000E+00 0.  1.
         22    1    4    4    0    0 -0.11073305466E+02 -0.10843659192E+01 -0.11553680267E+03  0.11607130014E+03  0.00000000000E+00 0. -1.
         22    1    4    4    0    0 -0.16983672362E+02 -0.18388301145E+02 -0.40434993975E+03  0.40512399154E+03  0.00000000000E+00 0. -1.
<mgrwt>
<rscale>  0 0.88504926E+02</rscale>
<asrwt>0</asrwt>
<pdfrwt beam="2">  1        2 0.98818059E-01 0.88504926E+02</pdfrwt>
<pdfrwt beam="1">  1       -2 0.46904215E-03 0.88504926E+02</pdfrwt>
<totfact> 0.25105827E+05</totfact>
</mgrwt>
</event>
<event>
 7    1  0.3480999E-009  0.8960724E+02  0.7818608E-02  0.1303806E+00
          2   -1    0    0  501    0  0.00000000000E+00  0.00000000000E+00  0.47034239146E+02  0.47034239215E+02  0.25500000000E-02 0. -1.
         -2   -1    0    0    0  501 -0.00000000000E+00 -0.00000000000E+00 -0.42678785091E+02  0.42678785168E+02  0.25500000000E-02 0.  1.
         23    2    1    2    0    0  0.00000000000E+00  0.00000000000E+00  0.43554540548E+01  0.89713024383E+02  0.89607236113E+02 0.  0.
    9000005    2    3    3    0    0  0.21312049174E+02  0.22725102922E+02  0.33579955856E+02  0.46996455603E+02  0.10508075995E+02 0.  0.
         22    1    3    3    0    0 -0.21312049174E+02 -0.22725102922E+02 -0.29224501801E+02  0.42716568780E+02  0.00000000000E+00 0.  1.
         22    1    4    4    0    0  0.20972218429E+02  0.21049414026E+02  0.26833938402E+02  0.40037133100E+02  0.00000000000E+00 0.  1.
         22    1    4    4    0    0  0.33983074491E+00  0.16756888957E+01  0.67460174541E+01  0.69593225031E+01  0.00000000000E+00 0.  1.
<mgrwt>
<rscale>  0 0.89607236E+02</rscale>
<asrwt>0</asrwt>
<pdfrwt beam="1">  1        2 0.72360368E-02 0.89607236E+02</pdfrwt>
<pdfrwt beam="2">  1       -2 0.65659669E-02 0.89607236E+02</pdfrwt>
<totfact> 0.10453710E+05</totfact>
</mgrwt>
</event>
<event>
 7    1  0.3480999E-009  0.8878172E+02  0.7818608E-02  0.1305829E+00
         -2   -1    0    0    0  501 -0.00000000000E+00  0.00000000000E+00  0.36033012190E+01  0.36033021213E+01  0.25500000000E-02 0.  1.
          2   -1    0    0  501    0  0.00000000000E+00 -0.00000000000E+00 -0.54687302151E+03  0.54687302152E+03  0.25500000000E-02 0. -1.
         23    2    1    2    0    0  0.00000000000E+00  0.00000000000E+00 -0.54326972030E+03  0.55047632364E+03  0.88781720529E+02 0.  0.
    9000005    2    3    3    0    0 -0.18152904482E+02 -0.31733596730E+02 -0.42670602425E+03  0.42831395489E+03  0.61857676931E+01 0.  0.
         22    1    3    3    0    0  0.18152904482E+02  0.31733596730E+02 -0.11656369605E+03  0.12216236875E+03  0.00000000000E+00 0.  1.
         22    1    4    4    0    0 -0.18631339164E+02 -0.31098576221E+02 -0.41976243557E+03  0.42132499398E+03  0.00000000000E+00 0. -1.
         22    1    4    4    0    0  0.47843468143E+00 -0.63502050930E+00 -0.69435886815E+01  0.69889609077E+01  0.00000000000E+00 0. -1.
<mgrwt>
<rscale>  0 0.88781721E+02</rscale>
<asrwt>0</asrwt>
<pdfrwt beam="2">  1        2 0.84134245E-01 0.88781721E+02</pdfrwt>
<pdfrwt beam="1">  1       -2 0.55435454E-03 0.88781721E+02</pdfrwt>
<totfact> 0.23782329E+05</totfact>
</mgrwt>
</event>
<event>
 7    1  0.3480999E-009  0.9509981E+02  0.7818608E-02  0.1290951E+00
         -2   -1    0    0    0  501 -0.00000000000E+00  0.00000000000E+00  0.18197627093E+03  0.18197627094E+03  0.25500000000E-02 0.  1.
          2   -1    0    0  501    0  0.00000000000E+00 -0.00000000000E+00 -0.12424661905E+02  0.12424662167E+02  0.25500000000E-02 0. -1.
         23    2    1    2    0    0  0.00000000000E+00 -0.13877787808E-15  0.16955160902E+03  0.19440093311E+03  0.95099814262E+02 0.  0.
    9000005    2    3    3    0    0 -0.42511560085E+02 -0.81978734246E-01  0.12678298870E+03  0.13409840957E+03  0.10060703964E+02 0.  0.
         22    1    3    3    0    0  0.42511560085E+02  0.81978734246E-01  0.42768620326E+02  0.60302523545E+02  0.00000000000E+00 0. -1.
         22    1    4    4    0    0 -0.30175434913E+02 -0.24323871692E+01  0.10065791624E+03  0.10511179515E+03  0.00000000000E+00 0. -1.
         22    1    4    4    0    0 -0.12336125171E+02  0.23504084349E+01  0.26125072459E+02  0.28986614412E+02  0.00000000000E+00 0. -1.
<mgrwt>
<rscale>  0 0.95099814E+02</rscale>
<asrwt>0</asrwt>
<pdfrwt beam="2">  1        2 0.19114867E-02 0.95099814E+02</pdfrwt>
<pdfrwt beam="1">  1       -2 0.27996347E-01 0.95099814E+02</pdfrwt>
<totfact> 0.58239783E+04</totfact>
</mgrwt>
</event>
<event>
 7    1  0.3480999E-009  0.9183620E+02  0.7818608E-02  0.1298465E+00
          2   -1    0    0  501    0  0.00000000000E+00  0.00000000000E+00  0.37647083547E+03  0.37647083548E+03  0.25500000000E-02 0. -1.
         -2   -1    0    0    0  501 -0.00000000000E+00 -0.00000000000E+00 -0.56006249430E+01  0.56006255235E+01  0.25500000000E-02 0.  1.
         23    2    1    2    0    0 -0.35527136788E-14  0.00000000000E+00  0.37087021053E+03  0.38207146101E+03  0.91836203406E+02 0.  0.
    9000005    2    3    3    0    0  0.22982258461E+02  0.16321885074E+02  0.33496232730E+03  0.33642100411E+03  0.13592025708E+02 0.  0.
         22    1    3    3    0    0 -0.22982258461E+02 -0.16321885074E+02  0.35907883235E+02  0.45650456895E+02  0.00000000000E+00 0.  1.
         22    1    4    4    0    0  0.23204652576E+02  0.17958102705E+02  0.32509497443E+03  0.32641643916E+03  0.00000000000E+00 0.  1.
         22    1    4    4    0    0 -0.22239411544E+00 -0.16362176306E+01  0.98673528699E+01  0.10004564955E+02  0.00000000000E+00 0.  1.
<mgrwt>
<rscale>  0 0.91836203E+02</rscale>
<asrwt>0</asrwt>
<pdfrwt beam="1">  1        2 0.57918591E-01 0.91836203E+02</pdfrwt>
<pdfrwt beam="2">  1       -2 0.86163464E-03 0.91836203E+02</pdfrwt>
<totfact> 0.19160300E+05</totfact>
</mgrwt>
</event>
<event>
 7    1  0.3480999E-009  0.9210711E+02  0.7818608E-02  0.1297828E+00
         -2   -1    0    0    0  501 -0.00000000000E+00  0.00000000000E+00  0.42018760213E+01  0.42018767951E+01  0.25500000000E-02 0. -1.
          2   -1    0    0  501    0  0.00000000000E+00 -0.00000000000E+00 -0.50475779354E+03  0.50475779355E+03  0.25500000000E-02 0.  1.
         23    2    1    2    0    0  0.17763568394E-14  0.00000000000E+00 -0.50055591752E+03  0.50895967034E+03  0.92107108690E+02 0.  0.
    9000005    2    3    3    0    0  0.83874078610E+01  0.10980116731E+02 -0.49271896609E+03  0.49307479131E+03  0.12643524400E+02 0.  0.
         22    1    3    3    0    0 -0.83874078610E+01 -0.10980116731E+02 -0.78369514280E+01  0.15884879028E+02  0.00000000000E+00 0. -1.
         22    1    4    4    0    0  0.83416836082E+01  0.11690560814E+02 -0.29067121758E+03  0.29102578860E+03  0.00000000000E+00 0. -1.
         22    1    4    4    0    0  0.45724252777E-01 -0.71044408330E+00 -0.20204774851E+03  0.20204900272E+03  0.00000000000E+00 0. -1.
<mgrwt>
<rscale>  0 0.92107109E+02</rscale>
<asrwt>0</asrwt>
<pdfrwt beam="2">  1        2 0.77654997E-01 0.92107109E+02</pdfrwt>
<pdfrwt beam="1">  1       -2 0.64644293E-03 0.92107109E+02</pdfrwt>
<totfact> 0.21042443E+05</totfact>
</mgrwt>
</event>
<event>
 7    1  0.3480999E-009  0.9703483E+02  0.7818608E-02  0.1286658E+00
         -2   -1    0    0    0  501 -0.00000000000E+00  0.00000000000E+00  0.40566687253E+02  0.40566687333E+02  0.25500000000E-02 0. -1.
          2   -1    0    0  501    0  0.00000000000E+00 -0.00000000000E+00 -0.58026419239E+02  0.58026419295E+02  0.25500000000E-02 0.  1.
         23    2    1    2    0    0  0.22204460493E-15  0.00000000000E+00 -0.17459731986E+02  0.98593106628E+02  0.97034831033E+02 0.  0.
    9000005    2    3    3    0    0 -0.18076190687E+01 -0.44205865968E+02 -0.28091445633E+02  0.53090805503E+02  0.84898903715E+01 0.  0.
         22    1    3    3    0    0  0.18076190687E+01  0.44205865968E+02  0.10631713646E+02  0.45502301126E+02  0.00000000000E+00 0.  1.
         22    1    4    4    0    0 -0.34050619924E+01 -0.31939753451E+02 -0.23875944056E+02  0.40022531183E+02  0.00000000000E+00 0. -1.
         22    1    4    4    0    0  0.15974429237E+01 -0.12266112516E+02 -0.42155015771E+01  0.13068274320E+02  0.00000000000E+00 0. -1.
<mgrwt>
<rscale>  0 0.97034831E+02</rscale>
<asrwt>0</asrwt>
<pdfrwt beam="2">  1        2 0.89271414E-02 0.97034831E+02</pdfrwt>
<pdfrwt beam="1">  1       -2 0.62410288E-02 0.97034831E+02</pdfrwt>
<totfact> 0.88059083E+04</totfact>
</mgrwt>
</event>
<event>
 7    1  0.3480999E-009  0.9064036E+02  0.7818608E-02  0.1301308E+00
          2   -1    0    0  501    0  0.00000000000E+00  0.00000000000E+00  0.12440929144E+03  0.12440929147E+03  0.25500000000E-02 0. -1.
         -2   -1    0    0    0  501 -0.00000000000E+00 -0.00000000000E+00 -0.16509366602E+02  0.16509366799E+02  0.25500000000E-02 0.  1.
         23    2    1    2    0    0  0.00000000000E+00  0.00000000000E+00  0.10789992484E+03  0.14091865827E+03  0.90640357829E+02 0.  0.
    9000005    2    3    3    0    0  0.24185861298E+02  0.27901301380E+02  0.93649534272E+02  0.10133947009E+03  0.11662522179E+02 0.  0.
         22    1    3    3    0    0 -0.24185861298E+02 -0.27901301380E+02  0.14250390571E+02  0.39579188178E+02  0.00000000000E+00 0.  1.
         22    1    4    4    0    0  0.80448508484E+01  0.18151612663E+02  0.49250058062E+02  0.53101496085E+02  0.00000000000E+00 0. -1.
         22    1    4    4    0    0  0.16141010450E+02  0.97496887168E+01  0.44399476210E+02  0.48237974006E+02  0.00000000000E+00 0. -1.
<mgrwt>
<rscale>  0 0.90640358E+02</rscale>
<asrwt>0</asrwt>
<pdfrwt beam="1">  1        2 0.19139891E-01 0.90640358E+02</pdfrwt>
<pdfrwt beam="2">  1       -2 0.25399026E-02 0.90640358E+02</pdfrwt>
<totfact> 0.13351577E+05</totfact>
</mgrwt>
</event>
<event>
 7    1  0.3480999E-009  0.9240058E+02  0.7818608E-02  0.1297140E+00
         -2   -1    0    0    0  501 -0.00000000000E+00  0.00000000000E+00  0.16293252789E+02  0.16293252989E+02  0.25500000000E-02 0. -1.
          2   -1    0    0  501    0  0.00000000000E+00 -0.00000000000E+00 -0.13100310438E+03  0.13100310441E+03  0.25500000000E-02 0.  1.
         23    2    1    2    0    0  0.00000000000E+00  0.35527136788E-14 -0.11470985159E+03  0.14729635740E+03  0.92400578188E+02 0.  0.
    9000005    2    3    3    0    0 -0.18923544867E+02  0.25064865333E+02 -0.56152041076E+01  0.33771073276E+02  0.11072797683E+02 0.  0.
         22    1    3    3    0    0  0.18923544867E+02 -0.25064865333E+02 -0.10909464749E+03  0.11352528412E+03  0.00000000000E+00 0.  1.
         22    1    4    4    0    0 -0.52960726168E+01  0.13264385213E+01 -0.31136208880E+01  0.62850981971E+01  0.00000000000E+00 0. -1.
         22    1    4    4    0    0 -0.13627472250E+02  0.23738426812E+02 -0.25015832196E+01  0.27485975079E+02  0.00000000000E+00 0. -1.
<mgrwt>
<rscale>  0 0.92400578E+02</rscale>
<asrwt>0</asrwt>
<pdfrwt beam="2">  1        2 0.20154323E-01 0.92400578E+02</pdfrwt>
<pdfrwt beam="1">  1       -2 0.25066544E-02 0.92400578E+02</pdfrwt>
<totfact> 0.12884056E+05</totfact>
</mgrwt>
</event>
<event>
 7    1  0.3480999E-009  0.9086485E+02  0.7818608E-02  0.1300771E+00
         -2   -1    0    0    0  501 -0.00000000000E+00  0.00000000000E+00  0.61755769126E+01  0.61755774390E+01  0.25500000000E-02 0.  1.
          2   -1    0    0  501    0  0.00000000000E+00 -0.00000000000E+00 -0.33423682512E+03  0.33423682513E+03  0.25500000000E-02 0. -1.
         23    2    1    2    0    0  0.17763568394E-14 -0.35527136788E-14 -0.32806124820E+03  0.34041240256E+03  0.90864851549E+02 0.  0.
    9000005    2    3    3    0    0  0.13383333314E+02 -0.28832603647E+02 -0.28506957179E+03  0.28694543253E+03  0.79112481073E+01 0.  0.
         22    1    3    3    0    0 -0.13383333314E+02  0.28832603647E+02 -0.42991676412E+02  0.53466970032E+02  0.00000000000E+00 0.  1.
         22    1    4    4    0    0  0.13327551849E+01 -0.10022163509E+02 -0.71636421445E+02  0.72346367395E+02  0.00000000000E+00 0. -1.
         22    1    4    4    0    0  0.12050578129E+02 -0.18810440138E+02 -0.21343315035E+03  0.21459906514E+03  0.00000000000E+00 0. -1.
<mgrwt>
<rscale>  0 0.90864852E+02</rscale>
<asrwt>0</asrwt>
<pdfrwt beam="2">  1        2 0.51421036E-01 0.90864852E+02</pdfrwt>
<pdfrwt beam="1">  1       -2 0.95008906E-03 0.90864852E+02</pdfrwt>
<totfact> 0.18871875E+05</totfact>
</mgrwt>
</event>
<event>
 7    1  0.3480999E-009  0.9807484E+02  0.7818608E-02  0.1284397E+00
          2   -1    0    0  501    0  0.00000000000E+00  0.00000000000E+00  0.14012569803E+04  0.14012569803E+04  0.25500000000E-02 0. -1.
         -2   -1    0    0    0  501 -0.00000000000E+00 -0.00000000000E+00 -0.17160787328E+01  0.17160806274E+01  0.25500000000E-02 0.  1.
         23    2    1    2    0    0 -0.88817841970E-15  0.35527136788E-14  0.13995409015E+04  0.14029730609E+04  0.98074841496E+02 0.  0.
    9000005    2    3    3    0    0  0.69233350403E+01 -0.18170707221E+02  0.13437351893E+04  0.13438766593E+04  0.14522937447E+01 0.  0.
         22    1    3    3    0    0 -0.69233350403E+01  0.18170707221E+02  0.55805712220E+02  0.59096401627E+02  0.00000000000E+00 0.  1.
         22    1    4    4    0    0  0.43202486884E+01 -0.97225106547E+01  0.76396235512E+03  0.76403643356E+03  0.00000000000E+00 0. -1.
         22    1    4    4    0    0  0.26030863518E+01 -0.84481965660E+01  0.57977283418E+03  0.57984022569E+03  0.00000000000E+00 0. -1.
<mgrwt>
<rscale>  0 0.98074841E+02</rscale>
<asrwt>0</asrwt>
<pdfrwt beam="1">  1        2 0.21557741E+00 0.98074841E+02</pdfrwt>
<pdfrwt beam="2">  1       -2 0.26401298E-03 0.98074841E+02</pdfrwt>
<totfact> 0.19902725E+05</totfact>
</mgrwt>
</event>
<event>
 7    1  0.3480999E-009  0.9243166E+02  0.7818608E-02  0.1297068E+00
          2   -1    0    0  501    0  0.00000000000E+00  0.00000000000E+00  0.11002670381E+04  0.11002670381E+04  0.25500000000E-02 0. -1.
         -2   -1    0    0    0  501 -0.00000000000E+00 -0.00000000000E+00 -0.19412577146E+01  0.19412593895E+01  0.25500000000E-02 0.  1.
         23    2    1    2    0    0  0.17763568394E-14  0.00000000000E+00  0.10983257804E+04  0.11022082975E+04  0.92431656926E+02 0.  0.
    9000005    2    3    3    0    0  0.12573772753E+02  0.31457962901E+02  0.91669138015E+03  0.91744152954E+03  0.15105313310E+02 0.  0.
         22    1    3    3    0    0 -0.12573772753E+02 -0.31457962901E+02  0.18163440023E+03  0.18476676795E+03  0.00000000000E+00 0.  1.
         22    1    4    4    0    0  0.13675235252E+02  0.13960539855E+02  0.46881747967E+03  0.46922461357E+03  0.00000000000E+00 0.  1.
         22    1    4    4    0    0 -0.11014624984E+01  0.17497423046E+02  0.44787390048E+03  0.44821691598E+03  0.00000000000E+00 0.  1.
<mgrwt>
<rscale>  0 0.92431657E+02</rscale>
<asrwt>0</asrwt>
<pdfrwt beam="1">  1        2 0.16927243E+00 0.92431657E+02</pdfrwt>
<pdfrwt beam="2">  1       -2 0.29865414E-03 0.92431657E+02</pdfrwt>
<totfact> 0.24133978E+05</totfact>
</mgrwt>
</event>
<event>
 7    1  0.3480999E-009  0.9186515E+02  0.7818608E-02  0.1298397E+00
          2   -1    0    0  501    0  0.00000000000E+00  0.00000000000E+00  0.82380337754E+01  0.82380341700E+01  0.25500000000E-02 0. -1.
         -2   -1    0    0    0  501 -0.00000000000E+00 -0.00000000000E+00 -0.25610498935E+03  0.25610498936E+03  0.25500000000E-02 0.  1.
         23    2    1    2    0    0  0.00000000000E+00  0.35527136788E-14 -0.24786695557E+03  0.26434302353E+03  0.91865153484E+02 0.  0.
    9000005    2    3    3    0    0 -0.32404783193E+02 -0.25934733294E+02 -0.76397048047E+02  0.87921342461E+02  0.13075669964E+02 0.  0.
         22    1    3    3    0    0  0.32404783193E+02  0.25934733294E+02 -0.17146990753E+03  0.17642168107E+03  0.00000000000E+00 0.  1.
         22    1    4    4    0    0 -0.70665430230E+01 -0.11612326456E+02 -0.16917176487E+02  0.21701912734E+02  0.00000000000E+00 0. -1.
         22    1    4    4    0    0 -0.25338240170E+02 -0.14322406837E+02 -0.59479871561E+02  0.66219429727E+02  0.00000000000E+00 0. -1.
<mgrwt>
<rscale>  0 0.91865153E+02</rscale>
<asrwt>0</asrwt>
<pdfrwt beam="1">  1        2 0.12673900E-02 0.91865153E+02</pdfrwt>
<pdfrwt beam="2">  1       -2 0.39400762E-01 0.91865153E+02</pdfrwt>
<totfact> 0.54436920E+04</totfact>
</mgrwt>
</event>
<event>
 7    1  0.3480999E-009  0.1054399E+03  0.7818608E-02  0.1269255E+00
         -2   -1    0    0    0  501 -0.00000000000E+00  0.00000000000E+00  0.14027288841E+02  0.14027289073E+02  0.25500000000E-02 0. -1.
          2   -1    0    0  501    0  0.00000000000E+00 -0.00000000000E+00 -0.19814188394E+03  0.19814188395E+03  0.25500000000E-02 0.  1.
         23    2    1    2    0    0  0.00000000000E+00  0.00000000000E+00 -0.18411459510E+03  0.21216917303E+03  0.10543990637E+03 0.  0.
    9000005    2    3    3    0    0  0.11423344414E+02  0.47284508897E+02 -0.52071030762E+02  0.71450231654E+02  0.52369628130E+01 0.  0.
         22    1    3    3    0    0 -0.11423344414E+02 -0.47284508897E+02 -0.13204356433E+03  0.14071894137E+03  0.00000000000E+00 0. -1.
         22    1    4    4    0    0 -0.36073001464E+00  0.30376533274E+00 -0.32881578905E+00  0.57490811785E+00  0.00000000000E+00 0. -1.
         22    1    4    4    0    0  0.11784074429E+02  0.46980743564E+02 -0.51742214973E+02  0.70875323536E+02  0.00000000000E+00 0. -1.
<mgrwt>
<rscale>  0 0.10543991E+03</rscale>
<asrwt>0</asrwt>
<pdfrwt beam="2">  1        2 0.30483365E-01 0.10543991E+03</pdfrwt>
<pdfrwt beam="1">  1       -2 0.21580446E-02 0.10543991E+03</pdfrwt>
<totfact> 0.10384777E+05</totfact>
</mgrwt>
</event>
<event>
 7    1  0.3480999E-009  0.9349120E+02  0.7818608E-02  0.1294611E+00
         -2   -1    0    0    0  501 -0.00000000000E+00  0.00000000000E+00  0.37091493305E+02  0.37091493392E+02  0.25500000000E-02 0.  1.
          2   -1    0    0  501    0  0.00000000000E+00 -0.00000000000E+00 -0.58912459437E+02  0.58912459492E+02  0.25500000000E-02 0. -1.
         23    2    1    2    0    0  0.00000000000E+00  0.00000000000E+00 -0.21820966133E+02  0.96003952885E+02  0.93491199621E+02 0.  0.
    9000005    2    3    3    0    0 -0.29832777093E+02 -0.35039955279E+02 -0.87109789513E+01  0.48153510683E+02  0.11184202329E+02 0.  0.
         22    1    3    3    0    0  0.29832777093E+02  0.35039955279E+02 -0.13109987181E+02  0.47850442202E+02  0.00000000000E+00 0. -1.
         22    1    4    4    0    0 -0.25691775722E+02 -0.33993611302E+02 -0.98482929858E+01  0.43733532030E+02  0.00000000000E+00 0.  1.
         22    1    4    4    0    0 -0.41410013710E+01 -0.10463439767E+01  0.11373140346E+01  0.44199786522E+01  0.00000000000E+00 0.  1.
<mgrwt>
<rscale>  0 0.93491200E+02</rscale>
<asrwt>0</asrwt>
<pdfrwt beam="2">  1        2 0.90634553E-02 0.93491200E+02</pdfrwt>
<pdfrwt beam="1">  1       -2 0.57063836E-02 0.93491200E+02</pdfrwt>
<totfact> 0.98316294E+04</totfact>
</mgrwt>
</event>
<event>
 7    1  0.3480999E-009  0.9262956E+02  0.7818608E-02  0.1296606E+00
         -2   -1    0    0    0  501 -0.00000000000E+00  0.00000000000E+00  0.21613973771E+02  0.21613973921E+02  0.25500000000E-02 0.  1.
          2   -1    0    0  501    0  0.00000000000E+00 -0.00000000000E+00 -0.99244079753E+02  0.99244079786E+02  0.25500000000E-02 0. -1.
         23    2    1    2    0    0  0.71054273576E-14  0.88817841970E-15 -0.77630105983E+02  0.12085805371E+03  0.92629562187E+02 0.  0.
    9000005    2    3    3    0    0 -0.43603188778E+02 -0.51495305240E+01 -0.53339805632E+02  0.70680624246E+02  0.14928497669E+02 0.  0.
         22    1    3    3    0    0  0.43603188778E+02  0.51495305240E+01 -0.24290300351E+02  0.50177429462E+02  0.00000000000E+00 0. -1.
         22    1    4    4    0    0  0.88358425768E+00 -0.14303845292E+01 -0.26177601169E+01  0.31111716557E+01  0.00000000000E+00 0. -1.
         22    1    4    4    0    0 -0.44486773036E+02 -0.37191459948E+01 -0.50722045515E+02  0.67569452590E+02  0.00000000000E+00 0. -1.
<mgrwt>
<rscale>  0 0.92629562E+02</rscale>
<asrwt>0</asrwt>
<pdfrwt beam="2">  1        2 0.15268320E-01 0.92629562E+02</pdfrwt>
<pdfrwt beam="1">  1       -2 0.33252268E-02 0.92629562E+02</pdfrwt>
<totfact> 0.11716922E+05</totfact>
</mgrwt>
</event>
<event>
 7    1  0.3480999E-009  0.9053260E+02  0.7818608E-02  0.1301567E+00
         -2   -1    0    0    0  501 -0.00000000000E+00  0.00000000000E+00  0.83945321954E+01  0.83945325827E+01  0.25500000000E-02 0.  1.
          2   -1    0    0  501    0  0.00000000000E+00 -0.00000000000E+00 -0.24409197205E+03  0.24409197206E+03  0.25500000000E-02 0. -1.
         23    2    1    2    0    0 -0.35527136788E-14 -0.35527136788E-14 -0.23569743985E+03  0.25248650464E+03  0.90532601168E+02 0.  0.
    9000005    2    3    3    0    0 -0.31691970250E+02 -0.21637411359E+02 -0.18284828627E+03  0.18717500809E+03  0.11332665618E+02 0.  0.
         22    1    3    3    0    0  0.31691970250E+02  0.21637411359E+02 -0.52849153577E+02  0.65311496556E+02  0.00000000000E+00 0.  1.
         22    1    4    4    0    0 -0.96922929907E+01 -0.11035065128E+02 -0.88871829241E+02  0.90077273707E+02  0.00000000000E+00 0.  1.
         22    1    4    4    0    0 -0.21999677259E+02 -0.10602346231E+02 -0.93976457032E+02  0.97097734379E+02  0.00000000000E+00 0.  1.
<mgrwt>
<rscale>  0 0.90532601E+02</rscale>
<asrwt>0</asrwt>
<pdfrwt beam="2">  1        2 0.37552606E-01 0.90532601E+02</pdfrwt>
<pdfrwt beam="1">  1       -2 0.12914667E-02 0.90532601E+02</pdfrwt>
<totfact> 0.16957120E+05</totfact>
</mgrwt>
</event>
<event>
 7    1  0.3480999E-009  0.9060148E+02  0.7818608E-02  0.1301402E+00
          2   -1    0    0  501    0  0.00000000000E+00  0.00000000000E+00  0.29088814830E+03  0.29088814831E+03  0.25500000000E-02 0. -1.
         -2   -1    0    0    0  501 -0.00000000000E+00 -0.00000000000E+00 -0.70547981668E+01  0.70547986277E+01  0.25500000000E-02 0.  1.
         23    2    1    2    0    0  0.00000000000E+00  0.00000000000E+00  0.28383335013E+03  0.29794294693E+03  0.90601484440E+02 0.  0.
    9000005    2    3    3    0    0  0.11291693690E+02  0.15756870585E+01  0.28585141092E+03  0.28636461780E+03  0.12793751265E+02 0.  0.
         22    1    3    3    0    0 -0.11291693690E+02 -0.15756870585E+01 -0.20180607876E+01  0.11578329130E+02  0.00000000000E+00 0.  1.
         22    1    4    4    0    0  0.63177816718E+01 -0.55499413965E+00  0.44205464300E+02  0.44658095098E+02  0.00000000000E+00 0. -1.
         22    1    4    4    0    0  0.49739120183E+01  0.21306811981E+01  0.24164594662E+03  0.24170652271E+03  0.00000000000E+00 0. -1.
<mgrwt>
<rscale>  0 0.90601484E+02</rscale>
<asrwt>0</asrwt>
<pdfrwt beam="1">  1        2 0.44752033E-01 0.90601484E+02</pdfrwt>
<pdfrwt beam="2">  1       -2 0.10853534E-02 0.90601484E+02</pdfrwt>
<totfact> 0.18063201E+05</totfact>
</mgrwt>
</event>
<event>
 7    1  0.3480999E-009  0.9143921E+02  0.7818608E-02  0.1299403E+00
          2   -1    0    0  501    0  0.00000000000E+00  0.00000000000E+00  0.19728645274E+03  0.19728645276E+03  0.25500000000E-02 0.  1.
         -2   -1    0    0    0  501 -0.00000000000E+00 -0.00000000000E+00 -0.10595162762E+02  0.10595163069E+02  0.25500000000E-02 0. -1.
         23    2    1    2    0    0  0.00000000000E+00  0.71054273576E-14  0.18669128998E+03  0.20788161582E+03  0.91439206275E+02 0.  0.
    9000005    2    3    3    0    0 -0.11672560711E+02  0.33863576119E+02  0.29069013712E+02  0.46240740931E+02  0.31950121389E+01 0.  0.
         22    1    3    3    0    0  0.11672560711E+02 -0.33863576119E+02  0.15762227626E+03  0.16164087489E+03  0.00000000000E+00 0.  1.
         22    1    4    4    0    0 -0.70463480360E+01  0.23039419718E+02  0.21094440005E+02  0.32022512093E+02  0.00000000000E+00 0. -1.
         22    1    4    4    0    0 -0.46262126746E+01  0.10824156401E+02  0.79745737074E+01  0.14218228839E+02  0.00000000000E+00 0. -1.
<mgrwt>
<rscale>  0 0.91439206E+02</rscale>
<asrwt>0</asrwt>
<pdfrwt beam="1">  1        2 0.30351760E-01 0.91439206E+02</pdfrwt>
<pdfrwt beam="2">  1       -2 0.16300252E-02 0.91439206E+02</pdfrwt>
<totfact> 0.15273050E+05</totfact>
</mgrwt>
</event>
<event>
 7    1  0.3480999E-009  0.9005270E+02  0.7818608E-02  0.1302724E+00
          2   -1    0    0  501    0  0.00000000000E+00  0.00000000000E+00  0.21219513920E+03  0.21219513922E+03  0.25500000000E-02 0.  1.
         -2   -1    0    0    0  501 -0.00000000000E+00 -0.00000000000E+00 -0.95542827126E+01  0.95542830529E+01  0.25500000000E-02 0. -1.
         23    2    1    2    0    0 -0.35527136788E-14  0.00000000000E+00  0.20264085649E+03  0.22174942227E+03  0.90052704338E+02 0.  0.
    9000005    2    3    3    0    0 -0.25497600719E+02 -0.36924774192E+02  0.95482360330E+02  0.10557494189E+03  0.39522942965E+01 0.  0.
         22    1    3    3    0    0  0.25497600719E+02  0.36924774192E+02  0.10715849616E+03  0.11617448038E+03  0.00000000000E+00 0.  1.
         22    1    4    4    0    0 -0.65687744281E+01 -0.12632174978E+02  0.31324835914E+02  0.34408806826E+02  0.00000000000E+00 0.  1.
         22    1    4    4    0    0 -0.18928826290E+02 -0.24292599214E+02  0.64157524417E+02  0.71166135068E+02  0.00000000000E+00 0.  1.
<mgrwt>
<rscale>  0 0.90052704E+02</rscale>
<asrwt>0</asrwt>
<pdfrwt beam="1">  1        2 0.32645406E-01 0.90052704E+02</pdfrwt>
<pdfrwt beam="2">  1       -2 0.14698897E-02 0.90052704E+02</pdfrwt>
<totfact> 0.16339316E+05</totfact>
</mgrwt>
</event>
<event>
 7    1  0.3480999E-009  0.9326807E+02  0.7818608E-02  0.1295125E+00
          2   -1    0    0  501    0  0.00000000000E+00  0.00000000000E+00  0.43093438390E+02  0.43093438466E+02  0.25500000000E-02 0.  1.
         -2   -1    0    0    0  501 -0.00000000000E+00 -0.00000000000E+00 -0.50465535006E+02  0.50465535070E+02  0.25500000000E-02 0. -1.
         23    2    1    2    0    0 -0.35527136788E-14  0.00000000000E+00 -0.73720966157E+01  0.93558973536E+02  0.93268074498E+02 0.  0.
    9000005    2    3    3    0    0 -0.23931671972E+02 -0.18624741452E+02 -0.38099858962E+02  0.50387208499E+02  0.12948575593E+02 0.  0.
         22    1    3    3    0    0  0.23931671972E+02  0.18624741452E+02  0.30727762347E+02  0.43171765037E+02  0.00000000000E+00 0.  1.
         22    1    4    4    0    0 -0.35158400733E+01  0.16763772142E+01 -0.26156716370E+01  0.46918130928E+01  0.00000000000E+00 0.  1.
         22    1    4    4    0    0 -0.20415831899E+02 -0.20301118666E+02 -0.35484187325E+02  0.45695395407E+02  0.00000000000E+00 0.  1.
<mgrwt>
<rscale>  0 0.93268074E+02</rscale>
<asrwt>0</asrwt>
<pdfrwt beam="1">  1        2 0.66297598E-02 0.93268074E+02</pdfrwt>
<pdfrwt beam="2">  1       -2 0.77639285E-02 0.93268074E+02</pdfrwt>
<totfact> 0.91075554E+04</totfact>
</mgrwt>
</event>
<event>
 7    1  0.3480999E-009  0.9088026E+02  0.7818608E-02  0.1300734E+00
          2   -1    0    0  501    0  0.00000000000E+00  0.00000000000E+00  0.41702751923E+02  0.41702752001E+02  0.25500000000E-02 0.  1.
         -2   -1    0    0    0  501 -0.00000000000E+00 -0.00000000000E+00 -0.49512455043E+02  0.49512455109E+02  0.25500000000E-02 0. -1.
         23    2    1    2    0    0  0.00000000000E+00  0.00000000000E+00 -0.78097031203E+01  0.91215207110E+02  0.90880264883E+02 0.  0.
    9000005    2    3    3    0    0  0.24397265026E+02 -0.58448711527E+01  0.33689826819E+02  0.42721908143E+02  0.77953797041E+01 0.  0.
         22    1    3    3    0    0 -0.24397265026E+02  0.58448711527E+01 -0.41499529939E+02  0.48493298967E+02  0.00000000000E+00 0. -1.
         22    1    4    4    0    0  0.17160308117E+02 -0.23745863852E+01  0.17354023216E+02  0.24520949348E+02  0.00000000000E+00 0. -1.
         22    1    4    4    0    0  0.72369569085E+01 -0.34702847675E+01  0.16335803603E+02  0.18200958794E+02  0.00000000000E+00 0. -1.
<mgrwt>
<rscale>  0 0.90880265E+02</rscale>
<asrwt>0</asrwt>
<pdfrwt beam="1">  1        2 0.64158079E-02 0.90880265E+02</pdfrwt>
<pdfrwt beam="2">  1       -2 0.76173009E-02 0.90880265E+02</pdfrwt>
<totfact> 0.97334267E+04</totfact>
</mgrwt>
</event>
<event>
 7    1  0.3835067E-009  0.8999500E+02  0.7818608E-02  0.1302864E+00
         -2   -1    0    0    0  501 -0.00000000000E+00  0.00000000000E+00  0.22015554442E+02  0.22015554590E+02  0.25500000000E-02 0.  1.
          2   -1    0    0  501    0  0.00000000000E+00 -0.00000000000E+00 -0.91970206799E+02  0.91970206835E+02  0.25500000000E-02 0. -1.
         23    2    1    2    0    0  0.00000000000E+00  0.00000000000E+00 -0.69954652357E+02  0.11398576142E+03  0.89995002201E+02 0.  0.
    9000005    2    3    3    0    0  0.35123206759E+02  0.39955790406E+01 -0.24411240833E+01  0.37777620096E+02  0.13099052957E+02 0.  0.
         22    1    3    3    0    0 -0.35123206759E+02 -0.39955790406E+01 -0.67513528273E+02  0.76208141329E+02  0.00000000000E+00 0. -1.
         22    1    4    4    0    0  0.14851994361E+02  0.75142054145E+01  0.18922983471E+01  0.16751889820E+02  0.00000000000E+00 0. -1.
         22    1    4    4    0    0  0.20271212398E+02 -0.35186263739E+01 -0.43334224305E+01  0.21025730276E+02  0.00000000000E+00 0. -1.
<mgrwt>
<rscale>  0 0.89995002E+02</rscale>
<asrwt>0</asrwt>
<pdfrwt beam="2">  1        2 0.14149262E-01 0.89995002E+02</pdfrwt>
<pdfrwt beam="1">  1       -2 0.33870085E-02 0.89995002E+02</pdfrwt>
<totfact> 0.12400645E+05</totfact>
</mgrwt>
</event>
<event>
 7    1  0.3480999E-009  0.9039388E+02  0.7818608E-02  0.1301901E+00
         -2   -1    0    0    0  501 -0.00000000000E+00  0.00000000000E+00  0.55264348062E+02  0.55264348121E+02  0.25500000000E-02 0. -1.
          2   -1    0    0  501    0  0.00000000000E+00 -0.00000000000E+00 -0.36963491941E+02  0.36963492029E+02  0.25500000000E-02 0.  1.
         23    2    1    2    0    0  0.00000000000E+00  0.00000000000E+00  0.18300856121E+02  0.92227840150E+02  0.90393877911E+02 0.  0.
    9000005    2    3    3    0    0  0.33736637178E+02  0.26073190889E+02  0.22319829451E+02  0.49401164843E+02  0.11150261427E+02 0.  0.
         22    1    3    3    0    0 -0.33736637178E+02 -0.26073190889E+02 -0.40189733296E+01  0.42826675307E+02  0.00000000000E+00 0.  1.
         22    1    4    4    0    0  0.14620261949E+02  0.47372704462E+01  0.66166854780E+01  0.16732433100E+02  0.00000000000E+00 0. -1.
         22    1    4    4    0    0  0.19116375229E+02  0.21335920443E+02  0.15703143973E+02  0.32668731743E+02  0.00000000000E+00 0. -1.
<mgrwt>
<rscale>  0 0.90393878E+02</rscale>
<asrwt>0</asrwt>
<pdfrwt beam="2">  1        2 0.56866911E-02 0.90393878E+02</pdfrwt>
<pdfrwt beam="1">  1       -2 0.85022074E-02 0.90393878E+02</pdfrwt>
<totfact> 0.95831445E+04</totfact>
</mgrwt>
</event>
<event>
 7    1  0.3480999E-009  0.8952169E+02  0.7818608E-02  0.1304014E+00
          2   -1    0    0  501    0  0.00000000000E+00  0.00000000000E+00  0.30113358205E+02  0.30113358312E+02  0.25500000000E-02 0.  1.
         -2   -1    0    0    0  501 -0.00000000000E+00 -0.00000000000E+00 -0.66533034604E+02  0.66533034653E+02  0.25500000000E-02 0. -1.
         23    2    1    2    0    0  0.00000000000E+00  0.00000000000E+00 -0.36419676400E+02  0.96646392965E+02  0.89521687005E+02 0.  0.
    9000005    2    3    3    0    0 -0.77756475462E+01 -0.17775857413E+02  0.23175961622E+02  0.33971981339E+02  0.15508981832E+02 0.  0.
         22    1    3    3    0    0  0.77756475462E+01  0.17775857413E+02 -0.59595638021E+02  0.62674411626E+02  0.00000000000E+00 0. -1.
         22    1    4    4    0    0  0.44687853883E+01 -0.79942800954E+01  0.81200913078E+01  0.12239870912E+02  0.00000000000E+00 0. -1.
         22    1    4    4    0    0 -0.12244432934E+02 -0.97815773178E+01  0.15055870314E+02  0.21732110427E+02  0.00000000000E+00 0. -1.
<mgrwt>
<rscale>  0 0.89521687E+02</rscale>
<asrwt>0</asrwt>
<pdfrwt beam="1">  1        2 0.46328244E-02 0.89521687E+02</pdfrwt>
<pdfrwt beam="2">  1       -2 0.10235851E-01 0.89521687E+02</pdfrwt>
<totfact> 0.93485888E+04</totfact>
</mgrwt>
</event>
<event>
 7    1  0.3480999E-009  0.9677639E+02  0.7818608E-02  0.1287225E+00
         -2   -1    0    0    0  501 -0.00000000000E+00  0.00000000000E+00  0.37011321767E+02  0.37011321854E+02  0.25500000000E-02 0.  1.
          2   -1    0    0  501    0  0.00000000000E+00 -0.00000000000E+00 -0.63262187357E+02  0.63262187408E+02  0.25500000000E-02 0. -1.
         23    2    1    2    0    0  0.00000000000E+00  0.00000000000E+00 -0.26250865590E+02  0.10027350926E+03  0.96776385113E+02 0.  0.
    9000005    2    3    3    0    0 -0.13303947920E+02  0.25202479501E+02  0.26150805945E+02  0.40623738241E+02  0.12420283966E+02 0.  0.
         22    1    3    3    0    0  0.13303947920E+02 -0.25202479501E+02 -0.52401671536E+02  0.59649771022E+02  0.00000000000E+00 0. -1.
         22    1    4    4    0    0 -0.62553001371E+01  0.19987176768E+02  0.12470928728E+02  0.24374988786E+02  0.00000000000E+00 0.  1.
         22    1    4    4    0    0 -0.70486477834E+01  0.52153027325E+01  0.13679877217E+02  0.16248749455E+02  0.00000000000E+00 0.  1.
<mgrwt>
<rscale>  0 0.96776385E+02</rscale>
<asrwt>0</asrwt>
<pdfrwt beam="2">  1        2 0.97326442E-02 0.96776385E+02</pdfrwt>
<pdfrwt beam="1">  1       -2 0.56940495E-02 0.96776385E+02</pdfrwt>
<totfact> 0.90895729E+04</totfact>
</mgrwt>
</event>
<event>
 7    1  0.3480999E-009  0.9292073E+02  0.7818608E-02  0.1295929E+00
         -2   -1    0    0    0  501 -0.00000000000E+00  0.00000000000E+00  0.50483262092E+02  0.50483262157E+02  0.25500000000E-02 0.  1.
          2   -1    0    0  501    0  0.00000000000E+00 -0.00000000000E+00 -0.42758042564E+02  0.42758042640E+02  0.25500000000E-02 0. -1.
         23    2    1    2    0    0  0.00000000000E+00  0.00000000000E+00  0.77252195284E+01  0.93241304797E+02  0.92920729138E+02 0.  0.
    9000005    2    3    3    0    0  0.24215986125E+02 -0.75470176359E+01  0.42839825640E+02  0.49923790769E+02  0.37098200250E+01 0.  0.
         22    1    3    3    0    0 -0.24215986125E+02  0.75470176359E+01 -0.35114606112E+02  0.43317514028E+02  0.00000000000E+00 0. -1.
         22    1    4    4    0    0  0.19405323531E+02 -0.65615375031E+01  0.31608317867E+02  0.37665715367E+02  0.00000000000E+00 0. -1.
         22    1    4    4    0    0  0.48106625943E+01 -0.98548013283E+00  0.11231507773E+02  0.12258075401E+02  0.00000000000E+00 0. -1.
<mgrwt>
<rscale>  0 0.92920729E+02</rscale>
<asrwt>0</asrwt>
<pdfrwt beam="2">  1        2 0.65781604E-02 0.92920729E+02</pdfrwt>
<pdfrwt beam="1">  1       -2 0.77666557E-02 0.92920729E+02</pdfrwt>
<totfact> 0.91876135E+04</totfact>
</mgrwt>
</event>
<event>
 7    1  0.3480999E-009  0.9030723E+02  0.7818608E-02  0.1302109E+00
          2   -1    0    0  501    0  0.00000000000E+00  0.00000000000E+00  0.11033082809E+02  0.11033083104E+02  0.25500000000E-02 0. -1.
         -2   -1    0    0    0  501 -0.00000000000E+00 -0.00000000000E+00 -0.18479414201E+03  0.18479414203E+03  0.25500000000E-02 0.  1.
         23    2    1    2    0    0  0.00000000000E+00  0.00000000000E+00 -0.17376105920E+03  0.19582722513E+03  0.90307233421E+02 0.  0.
    9000005    2    3    3    0    0  0.22387850865E+02 -0.29362998359E+02 -0.14144997683E+03  0.14676188520E+03  0.12944244357E+02 0.  0.
         22    1    3    3    0    0 -0.22387850865E+02  0.29362998359E+02 -0.32311082369E+02  0.49065339934E+02  0.00000000000E+00 0. -1.
         22    1    4    4    0    0  0.79397954195E+01 -0.18235504279E+02 -0.90120876801E+02  0.92289470705E+02  0.00000000000E+00 0. -1.
         22    1    4    4    0    0  0.14448055446E+02 -0.11127494080E+02 -0.51329100032E+02  0.54472414494E+02  0.00000000000E+00 0. -1.
<mgrwt>
<rscale>  0 0.90307233E+02</rscale>
<asrwt>0</asrwt>
<pdfrwt beam="1">  1        2 0.16973975E-02 0.90307233E+02</pdfrwt>
<pdfrwt beam="2">  1       -2 0.28429866E-01 0.90307233E+02</pdfrwt>
<totfact> 0.66028535E+04</totfact>
</mgrwt>
</event>
<event>
 7    1  0.3480999E-009  0.1042263E+03  0.7818608E-02  0.1271652E+00
         -2   -1    0    0    0  501 -0.00000000000E+00  0.00000000000E+00  0.16604897319E+02  0.16604897515E+02  0.25500000000E-02 0. -1.
          2   -1    0    0  501    0  0.00000000000E+00 -0.00000000000E+00 -0.16355293399E+03  0.16355293401E+03  0.25500000000E-02 0.  1.
         23    2    1    2    0    0  0.35527136788E-14  0.00000000000E+00 -0.14694803667E+03  0.18015783153E+03  0.10422628641E+03 0.  0.
    9000005    2    3    3    0    0 -0.21250487124E+02  0.28058987636E+02 -0.13909156513E+03  0.14409380325E+03  0.13329315673E+02 0.  0.
         22    1    3    3    0    0  0.21250487124E+02 -0.28058987636E+02 -0.78564715469E+01  0.36064028274E+02  0.00000000000E+00 0. -1.
         22    1    4    4    0    0  0.11629890751E+01  0.53940963310E+01 -0.26997645470E+02  0.27555792127E+02  0.00000000000E+00 0. -1.
         22    1    4    4    0    0 -0.22413476199E+02  0.22664891305E+02 -0.11209391966E+03  0.11653801113E+03  0.00000000000E+00 0. -1.
<mgrwt>
<rscale>  0 0.10422629E+03</rscale>
<asrwt>0</asrwt>
<pdfrwt beam="2">  1        2 0.25161989E-01 0.10422629E+03</pdfrwt>
<pdfrwt beam="1">  1       -2 0.25545997E-02 0.10422629E+03</pdfrwt>
<totfact> 0.99940279E+04</totfact>
</mgrwt>
</event>
<event>
 7    1  0.3480999E-009  0.9171365E+02  0.7818608E-02  0.1298754E+00
          2   -1    0    0  501    0  0.00000000000E+00  0.00000000000E+00  0.24671496604E+03  0.24671496605E+03  0.25500000000E-02 0. -1.
         -2   -1    0    0    0  501 -0.00000000000E+00 -0.00000000000E+00 -0.85233910245E+01  0.85233914060E+01  0.25500000000E-02 0.  1.
         23    2    1    2    0    0  0.00000000000E+00  0.00000000000E+00  0.23819157502E+03  0.25523835746E+03  0.91713645169E+02 0.  0.
    9000005    2    3    3    0    0  0.88578979257E+01  0.23335802930E+02  0.22536211769E+03  0.22717384198E+03  0.14030264936E+02 0.  0.
         22    1    3    3    0    0 -0.88578979257E+01 -0.23335802930E+02  0.12829457325E+02  0.28064515484E+02  0.00000000000E+00 0.  1.
         22    1    4    4    0    0  0.38703867162E+01  0.73169322857E+01  0.13591878452E+03  0.13617060394E+03  0.00000000000E+00 0. -1.
         22    1    4    4    0    0  0.49875112094E+01  0.16018870645E+02  0.89443333170E+02  0.91003238038E+02  0.00000000000E+00 0. -1.
<mgrwt>
<rscale>  0 0.91713645E+02</rscale>
<asrwt>0</asrwt>
<pdfrwt beam="1">  1        2 0.37956153E-01 0.91713645E+02</pdfrwt>
<pdfrwt beam="2">  1       -2 0.13112908E-02 0.91713645E+02</pdfrwt>
<totfact> 0.16443211E+05</totfact>
</mgrwt>
</event>
<event>
 7    1  0.3480999E-009  0.8857785E+02  0.7818608E-02  0.1306333E+00
          2   -1    0    0  501    0  0.00000000000E+00  0.00000000000E+00  0.83577524266E+03  0.83577524266E+03  0.25500000000E-02 0. -1.
         -2   -1    0    0    0  501 -0.00000000000E+00 -0.00000000000E+00 -0.23469325572E+01  0.23469339425E+01  0.25500000000E-02 0.  1.
         23    2    1    2    0    0  0.00000000000E+00  0.00000000000E+00  0.83342831010E+03  0.83812217661E+03  0.88577846206E+02 0.  0.
    9000005    2    3    3    0    0  0.82285494843E+01  0.32706777308E+02  0.68058752277E+03  0.68160461024E+03  0.15748848941E+02 0.  0.
         22    1    3    3    0    0 -0.82285494843E+01 -0.32706777308E+02  0.15284078733E+03  0.15651756637E+03  0.00000000000E+00 0.  1.
         22    1    4    4    0    0  0.88867375755E+01  0.17444406298E+02  0.25830483185E+03  0.25904568627E+03  0.00000000000E+00 0.  1.
         22    1    4    4    0    0 -0.65818809120E+00  0.15262371009E+02  0.42228269092E+03  0.42255892397E+03  0.00000000000E+00 0.  1.
<mgrwt>
<rscale>  0 0.88577846E+02</rscale>
<asrwt>0</asrwt>
<pdfrwt beam="1">  1        2 0.12858079E+00 0.88577846E+02</pdfrwt>
<pdfrwt beam="2">  1       -2 0.36106670E-03 0.88577846E+02</pdfrwt>
<totfact> 0.26490838E+05</totfact>
</mgrwt>
</event>
<event>
 7    1  0.3480999E-009  0.9098357E+02  0.7818608E-02  0.1300487E+00
          2   -1    0    0  501    0  0.00000000000E+00  0.00000000000E+00  0.69842366923E+02  0.69842366969E+02  0.25500000000E-02 0. -1.
         -2   -1    0    0    0  501 -0.00000000000E+00 -0.00000000000E+00 -0.29631048533E+02  0.29631048643E+02  0.25500000000E-02 0.  1.
         23    2    1    2    0    0  0.00000000000E+00  0.00000000000E+00  0.40211318390E+02  0.99473415612E+02  0.90983571522E+02 0.  0.
    9000005    2    3    3    0    0  0.14515825342E+02 -0.25607108429E+02  0.56697800040E+02  0.65735643536E+02  0.15495196491E+02 0.  0.
         22    1    3    3    0    0 -0.14515825342E+02  0.25607108429E+02 -0.16486481651E+02  0.33737772076E+02  0.00000000000E+00 0.  1.
         22    1    4    4    0    0  0.28926626681E+01  0.17471822414E+01  0.80006132061E+01  0.86850420131E+01  0.00000000000E+00 0. -1.
         22    1    4    4    0    0  0.11623162674E+02 -0.27354290670E+02  0.48697186834E+02  0.57050601523E+02  0.00000000000E+00 0. -1.
<mgrwt>
<rscale>  0 0.90983572E+02</rscale>
<asrwt>0</asrwt>
<pdfrwt beam="1">  1        2 0.10744980E-01 0.90983572E+02</pdfrwt>
<pdfrwt beam="2">  1       -2 0.45586228E-02 0.90983572E+02</pdfrwt>
<totfact> 0.11120899E+05</totfact>
</mgrwt>
</event>
<event>
 7    1  0.3480999E-009  0.9139782E+02  0.7818608E-02  0.1299502E+00
          2   -1    0    0  501    0  0.00000000000E+00  0.00000000000E+00  0.83387313408E+02  0.83387313447E+02  0.25500000000E-02 0. -1.
         -2   -1    0    0    0  501 -0.00000000000E+00 -0.00000000000E+00 -0.25044461186E+02  0.25044461316E+02  0.25500000000E-02 0.  1.
         23    2    1    2    0    0  0.00000000000E+00 -0.35527136788E-14  0.58342852222E+02  0.10843177476E+03  0.91397819300E+02 0.  0.
    9000005    2    3    3    0    0  0.83329835616E+01 -0.30716277845E+02 -0.76426419288E+01  0.35171869098E+02  0.12873308065E+02 0.  0.
         22    1    3    3    0    0 -0.83329835616E+01  0.30716277845E+02  0.65985494150E+02  0.73259905664E+02  0.00000000000E+00 0. -1.
         22    1    4    4    0    0  0.70363641981E+01 -0.31839932873E+02 -0.74201532064E+01  0.33441746666E+02  0.00000000000E+00 0. -1.
         22    1    4    4    0    0  0.12966193635E+01  0.11236550285E+01 -0.22248872242E+00  0.17301224317E+01  0.00000000000E+00 0. -1.
<mgrwt>
<rscale>  0 0.91397819E+02</rscale>
<asrwt>0</asrwt>
<pdfrwt beam="1">  1        2 0.12828818E-01 0.91397819E+02</pdfrwt>
<pdfrwt beam="2">  1       -2 0.38529940E-02 0.91397819E+02</pdfrwt>
<totfact> 0.11545499E+05</totfact>
</mgrwt>
</event>
<event>
 7    1  0.3480999E-009  0.9140219E+02  0.7818608E-02  0.1299491E+00
          2   -1    0    0  501    0  0.00000000000E+00  0.00000000000E+00  0.40511555556E+03  0.40511555557E+03  0.25500000000E-02 0. -1.
         -2   -1    0    0    0  501 -0.00000000000E+00 -0.00000000000E+00 -0.51555414152E+01  0.51555420458E+01  0.25500000000E-02 0.  1.
         23    2    1    2    0    0  0.00000000000E+00  0.44408920985E-15  0.39996001414E+03  0.41027109761E+03  0.91402191563E+02 0.  0.
    9000005    2    3    3    0    0  0.17878308975E+02 -0.29219570847E+01  0.38825083395E+03  0.38870082488E+03  0.46313531511E+01 0.  0.
         22    1    3    3    0    0 -0.17878308975E+02  0.29219570847E+01  0.11709180190E+02  0.21570272732E+02  0.00000000000E+00 0.  1.
         22    1    4    4    0    0  0.12342210694E+02 -0.37349620690E+01  0.24247071954E+03  0.24281336442E+03  0.00000000000E+00 0. -1.
         22    1    4    4    0    0  0.55360982814E+01  0.81300498437E+00  0.14578011442E+03  0.14588746047E+03  0.00000000000E+00 0. -1.
<mgrwt>
<rscale>  0 0.91402192E+02</rscale>
<asrwt>0</asrwt>
<pdfrwt beam="1">  1        2 0.62325458E-01 0.91402192E+02</pdfrwt>
<pdfrwt beam="2">  1       -2 0.79316042E-03 0.91402192E+02</pdfrwt>
<totfact> 0.19922164E+05</totfact>
</mgrwt>
</event>
<event>
 7    1  0.3480999E-009  0.9225651E+02  0.7818608E-02  0.1297477E+00
         -2   -1    0    0    0  501 -0.00000000000E+00  0.00000000000E+00  0.80661874490E+01  0.80661878521E+01  0.25500000000E-02 0.  1.
          2   -1    0    0  501    0  0.00000000000E+00 -0.00000000000E+00 -0.26379451628E+03  0.26379451629E+03  0.25500000000E-02 0. -1.
         23    2    1    2    0    0  0.00000000000E+00  0.00000000000E+00 -0.25572832883E+03  0.27186070414E+03  0.92256513543E+02 0.  0.
    9000005    2    3    3    0    0 -0.26996549314E+02 -0.26737390539E+02 -0.20277070034E+03  0.20668239377E+03  0.12567945374E+02 0.  0.
         22    1    3    3    0    0  0.26996549314E+02  0.26737390539E+02 -0.52957628488E+02  0.65178310370E+02  0.00000000000E+00 0.  1.
         22    1    4    4    0    0 -0.26189762053E+02 -0.27208918295E+02 -0.18131027080E+03  0.18520162842E+03  0.00000000000E+00 0.  1.
         22    1    4    4    0    0 -0.80678726124E+00  0.47152775630E+00 -0.21460429539E+02  0.21480765352E+02  0.00000000000E+00 0.  1.
<mgrwt>
<rscale>  0 0.92256514E+02</rscale>
<asrwt>0</asrwt>
<pdfrwt beam="2">  1        2 0.40583765E-01 0.92256514E+02</pdfrwt>
<pdfrwt beam="1">  1       -2 0.12409522E-02 0.92256514E+02</pdfrwt>
<totfact> 0.16592902E+05</totfact>
</mgrwt>
</event>
<event>
 7    1  0.3480999E-009  0.9046636E+02  0.7818608E-02  0.1301726E+00
         -2   -1    0    0    0  501 -0.00000000000E+00  0.00000000000E+00  0.10828523650E+02  0.10828523951E+02  0.25500000000E-02 0.  1.
          2   -1    0    0  501    0  0.00000000000E+00 -0.00000000000E+00 -0.18894918080E+03  0.18894918081E+03  0.25500000000E-02 0. -1.
         23    2    1    2    0    0  0.00000000000E+00  0.00000000000E+00 -0.17812065715E+03  0.19977770476E+03  0.90466362913E+02 0.  0.
    9000005    2    3    3    0    0  0.54606800174E+01 -0.40386699381E+02 -0.48612422629E+02  0.64008461853E+02  0.85446498884E+01 0.  0.
         22    1    3    3    0    0 -0.54606800174E+01  0.40386699381E+02 -0.12950823452E+03  0.13576924291E+03  0.00000000000E+00 0. -1.
         22    1    4    4    0    0 -0.14861150355E+00 -0.15526103245E+02 -0.13204361237E+02  0.20382274727E+02  0.00000000000E+00 0. -1.
         22    1    4    4    0    0  0.56092915210E+01 -0.24860596136E+02 -0.35408061392E+02  0.43626187126E+02  0.00000000000E+00 0. -1.
<mgrwt>
<rscale>  0 0.90466363E+02</rscale>
<asrwt>0</asrwt>
<pdfrwt beam="2">  1        2 0.29069102E-01 0.90466363E+02</pdfrwt>
<pdfrwt beam="1">  1       -2 0.16659269E-02 0.90466363E+02</pdfrwt>
<totfact> 0.15477419E+05</totfact>
</mgrwt>
</event>
<event>
 7    1  0.3480999E-009  0.8914928E+02  0.7818608E-02  0.1304925E+00
          2   -1    0    0  501    0  0.00000000000E+00  0.00000000000E+00  0.12706715125E+02  0.12706715381E+02  0.25500000000E-02 0. -1.
         -2   -1    0    0    0  501 -0.00000000000E+00 -0.00000000000E+00 -0.15636601651E+03  0.15636601653E+03  0.25500000000E-02 0.  1.
         23    2    1    2    0    0  0.00000000000E+00  0.00000000000E+00 -0.14365930139E+03  0.16907273191E+03  0.89149278189E+02 0.  0.
    9000005    2    3    3    0    0 -0.37525686630E+02  0.16899085521E+02 -0.10294540699E+03  0.11118164931E+03  0.83573963408E+01 0.  0.
         22    1    3    3    0    0  0.37525686630E+02 -0.16899085521E+02 -0.40713894396E+02  0.57891082606E+02  0.00000000000E+00 0.  1.
         22    1    4    4    0    0 -0.26897403225E+02  0.11135723302E+02 -0.81773254757E+02  0.86800575040E+02  0.00000000000E+00 0. -1.
         22    1    4    4    0    0 -0.10628283404E+02  0.57633622189E+01 -0.21172152234E+02  0.24381074267E+02  0.00000000000E+00 0. -1.
<mgrwt>
<rscale>  0 0.89149278E+02</rscale>
<asrwt>0</asrwt>
<pdfrwt beam="1">  1        2 0.19548794E-02 0.89149278E+02</pdfrwt>
<pdfrwt beam="2">  1       -2 0.24056309E-01 0.89149278E+02</pdfrwt>
<totfact> 0.72827238E+04</totfact>
</mgrwt>
</event>
<event>
 7    1  0.3480999E-009  0.9256868E+02  0.7818608E-02  0.1296748E+00
         -2   -1    0    0    0  501 -0.00000000000E+00  0.00000000000E+00  0.90379239681E+02  0.90379239717E+02  0.25500000000E-02 0.  1.
          2   -1    0    0  501    0  0.00000000000E+00 -0.00000000000E+00 -0.23702789722E+02  0.23702789859E+02  0.25500000000E-02 0. -1.
         23    2    1    2    0    0  0.17763568394E-14  0.00000000000E+00  0.66676449959E+02  0.11408202958E+03  0.92568679870E+02 0.  0.
    9000005    2    3    3    0    0  0.10616527158E+02 -0.52671677437E+01  0.87968989351E+02  0.89713485534E+02  0.13019704080E+02 0.  0.
         22    1    3    3    0    0 -0.10616527158E+02  0.52671677437E+01 -0.21292539392E+02  0.24368544041E+02  0.00000000000E+00 0. -1.
         22    1    4    4    0    0  0.79375367908E+01 -0.66540754609E+01  0.84431159439E+02  0.85064104619E+02  0.00000000000E+00 0. -1.
         22    1    4    4    0    0  0.26789903671E+01  0.13869077172E+01  0.35378299125E+01  0.46493809151E+01  0.00000000000E+00 0. -1.
<mgrwt>
<rscale>  0 0.92568680E+02</rscale>
<asrwt>0</asrwt>
<pdfrwt beam="2">  1        2 0.36465830E-02 0.92568680E+02</pdfrwt>
<pdfrwt beam="1">  1       -2 0.13904499E-01 0.92568680E+02</pdfrwt>
<totfact> 0.79177668E+04</totfact>
</mgrwt>
</event>
<event>
 7    1  0.3480999E-009  0.9403713E+02  0.7818608E-02  0.1293360E+00
         -2   -1    0    0    0  501 -0.00000000000E+00  0.00000000000E+00  0.15947942731E+03  0.15947942733E+03  0.25500000000E-02 0. -1.
          2   -1    0    0  501    0  0.00000000000E+00 -0.00000000000E+00 -0.13862260700E+02  0.13862260934E+02  0.25500000000E-02 0.  1.
         23    2    1    2    0    0  0.00000000000E+00  0.00000000000E+00  0.14561716661E+03  0.17334168826E+03  0.94037129256E+02 0.  0.
    9000005    2    3    3    0    0  0.24257552920E+01  0.38352889100E+02  0.12221799597E+03  0.12834891576E+03  0.77056632458E+01 0.  0.
         22    1    3    3    0    0 -0.24257552920E+01 -0.38352889100E+02  0.23399170636E+02  0.44992772503E+02  0.00000000000E+00 0.  1.
         22    1    4    4    0    0  0.11109056300E+01  0.37613350593E+02  0.11601281387E+03  0.12196299126E+03  0.00000000000E+00 0. -1.
         22    1    4    4    0    0  0.13148496620E+01  0.73953850738E+00  0.62051821007E+01  0.63859245017E+01  0.00000000000E+00 0. -1.
<mgrwt>
<rscale>  0 0.94037129E+02</rscale>
<asrwt>0</asrwt>
<pdfrwt beam="2">  1        2 0.21326555E-02 0.94037129E+02</pdfrwt>
<pdfrwt beam="1">  1       -2 0.24535297E-01 0.94037129E+02</pdfrwt>
<totfact> 0.63136595E+04</totfact>
</mgrwt>
</event>
<event>
 7    1  0.3480999E-009  0.9202823E+02  0.7818608E-02  0.1298013E+00
          2   -1    0    0  501    0  0.00000000000E+00  0.00000000000E+00  0.29601664798E+01  0.29601675782E+01  0.25500000000E-02 0.  1.
         -2   -1    0    0    0  501 -0.00000000000E+00 -0.00000000000E+00 -0.71526322347E+03  0.71526322348E+03  0.25500000000E-02 0. -1.
         23    2    1    2    0    0  0.00000000000E+00 -0.71054273576E-14 -0.71230305699E+03  0.71822339105E+03  0.92028226419E+02 0.  0.
    9000005    2    3    3    0    0  0.54639550603E+01 -0.37276610206E+02 -0.56229278295E+03  0.56355444527E+03  0.10190913877E+01 0.  0.
         22    1    3    3    0    0 -0.54639550603E+01  0.37276610206E+02 -0.15001027404E+03  0.15466894579E+03  0.00000000000E+00 0.  1.
         22    1    4    4    0    0  0.12394228304E+01 -0.10278588770E+02 -0.16009589914E+03  0.16043030411E+03  0.00000000000E+00 0. -1.
         22    1    4    4    0    0  0.42245322299E+01 -0.26998021436E+02 -0.40219688381E+03  0.40312414115E+03  0.00000000000E+00 0. -1.
<mgrwt>
<rscale>  0 0.92028226E+02</rscale>
<asrwt>0</asrwt>
<pdfrwt beam="1">  1        2 0.45541088E-03 0.92028226E+02</pdfrwt>
<pdfrwt beam="2">  1       -2 0.11004036E+00 0.92028226E+02</pdfrwt>
<totfact> 0.25995137E+04</totfact>
</mgrwt>
</event>
<event>
 7    1  0.3480999E-009  0.8678477E+02  0.7818608E-02  0.1310830E+00
         -2   -1    0    0    0  501 -0.00000000000E+00  0.00000000000E+00  0.47150205683E+02  0.47150205752E+02  0.25500000000E-02 0.  1.
          2   -1    0    0  501    0  0.00000000000E+00 -0.00000000000E+00 -0.39934059763E+02  0.39934059845E+02  0.25500000000E-02 0. -1.
         23    2    1    2    0    0 -0.22204460493E-15  0.00000000000E+00  0.72161459196E+01  0.87084265597E+02  0.86784771433E+02 0.  0.
    9000005    2    3    3    0    0  0.15660395985E+01 -0.29559744682E+02  0.35029863045E+02  0.46466118840E+02  0.74684609797E+01 0.  0.
         22    1    3    3    0    0 -0.15660395985E+01  0.29559744682E+02 -0.27813717125E+02  0.40618146757E+02  0.00000000000E+00 0. -1.
         22    1    4    4    0    0  0.22137417451E+00 -0.23334192036E+02  0.22527354251E+02  0.32434784014E+02  0.00000000000E+00 0.  1.
         22    1    4    4    0    0  0.13446654240E+01 -0.62255526460E+01  0.12502508793E+02  0.14031334825E+02  0.00000000000E+00 0.  1.
<mgrwt>
<rscale>  0 0.86784771E+02</rscale>
<asrwt>0</asrwt>
<pdfrwt beam="2">  1        2 0.61437015E-02 0.86784771E+02</pdfrwt>
<pdfrwt beam="1">  1       -2 0.72538778E-02 0.86784771E+02</pdfrwt>
<totfact> 0.10991270E+05</totfact>
</mgrwt>
</event>
<event>
 7    1  0.3480999E-009  0.9137661E+02  0.7818608E-02  0.1299552E+00
         -2   -1    0    0    0  501 -0.00000000000E+00  0.00000000000E+00  0.89805139341E+01  0.89805142962E+01  0.25500000000E-02 0.  1.
          2   -1    0    0  501    0  0.00000000000E+00 -0.00000000000E+00 -0.23243892756E+03  0.23243892758E+03  0.25500000000E-02 0. -1.
         23    2    1    2    0    0  0.00000000000E+00  0.00000000000E+00 -0.22345841363E+03  0.24141944187E+03  0.91376606924E+02 0.  0.
    9000005    2    3    3    0    0 -0.86227066856E+01 -0.53375729834E+01 -0.22942043975E+03  0.22965566224E+03  0.22680973946E+01 0.  0.
         22    1    3    3    0    0  0.86227066856E+01  0.53375729834E+01  0.59620261199E+01  0.11763779639E+02  0.00000000000E+00 0.  1.
         22    1    4    4    0    0 -0.77258330987E+01 -0.38532854380E+01 -0.19651797032E+03  0.19670752137E+03  0.00000000000E+00 0. -1.
         22    1    4    4    0    0 -0.89687358687E+00 -0.14842875454E+01 -0.32902469429E+02  0.32948140863E+02  0.00000000000E+00 0. -1.
<mgrwt>
<rscale>  0 0.91376607E+02</rscale>
<asrwt>0</asrwt>
<pdfrwt beam="2">  1        2 0.35759831E-01 0.91376607E+02</pdfrwt>
<pdfrwt beam="1">  1       -2 0.13816177E-02 0.91376607E+02</pdfrwt>
<totfact> 0.16245017E+05</totfact>
</mgrwt>
</event>
<event>
 7    1  0.3480999E-009  0.9006507E+02  0.7818608E-02  0.1302694E+00
         -2   -1    0    0    0  501 -0.00000000000E+00  0.00000000000E+00  0.77379286123E+00  0.77379706292E+00  0.25500000000E-02 0. -1.
          2   -1    0    0  501    0  0.00000000000E+00 -0.00000000000E+00 -0.26207576838E+04  0.26207576838E+04  0.25500000000E-02 0.  1.
         23    2    1    2    0    0  0.00000000000E+00  0.00000000000E+00 -0.26199838910E+04  0.26215314809E+04  0.90065067497E+02 0.  0.
    9000005    2    3    3    0    0 -0.40516621830E+01 -0.17399225150E+02 -0.25128982923E+04  0.25129659503E+04  0.45706296498E+01 0.  0.
         22    1    3    3    0    0  0.40516621830E+01  0.17399225150E+02 -0.10708559862E+03  0.10856553060E+03  0.00000000000E+00 0. -1.
         22    1    4    4    0    0  0.41868644386E+00 -0.17336593130E+01 -0.13385675635E+03  0.13386863745E+03  0.00000000000E+00 0. -1.
         22    1    4    4    0    0 -0.44703486268E+01 -0.15665565837E+02 -0.23790415360E+04  0.23790973128E+04  0.00000000000E+00 0. -1.
<mgrwt>
<rscale>  0 0.90065067E+02</rscale>
<asrwt>0</asrwt>
<pdfrwt beam="2">  1        2 0.40318638E+00 0.90065067E+02</pdfrwt>
<pdfrwt beam="1">  1       -2 0.11904748E-03 0.90065067E+02</pdfrwt>
<totfact> 0.14137589E+05</totfact>
</mgrwt>
</event>
<event>
 7    1  0.3480999E-009  0.9157999E+02  0.7818608E-02  0.1299070E+00
         -2   -1    0    0    0  501 -0.00000000000E+00  0.00000000000E+00  0.88926367943E+01  0.88926371599E+01  0.25500000000E-02 0. -1.
          2   -1    0    0  501    0  0.00000000000E+00 -0.00000000000E+00 -0.23578199628E+03  0.23578199630E+03  0.25500000000E-02 0.  1.
         23    2    1    2    0    0 -0.71054273576E-14  0.00000000000E+00 -0.22688935949E+03  0.24467463346E+03  0.91579991308E+02 0.  0.
    9000005    2    3    3    0    0  0.33921925617E+02 -0.21186330645E+02 -0.17110004142E+03  0.17603058306E+03  0.10582266119E+02 0.  0.
         22    1    3    3    0    0 -0.33921925617E+02  0.21186330645E+02 -0.55789318071E+02  0.68644050394E+02  0.00000000000E+00 0. -1.
         22    1    4    4    0    0  0.27881821083E+01 -0.62111383020E+01 -0.26478068323E+02  0.27339354429E+02  0.00000000000E+00 0.  1.
         22    1    4    4    0    0  0.31133743508E+02 -0.14975192343E+02 -0.14462197310E+03  0.14869122863E+03  0.00000000000E+00 0.  1.
<mgrwt>
<rscale>  0 0.91579991E+02</rscale>
<asrwt>0</asrwt>
<pdfrwt beam="2">  1        2 0.36274149E-01 0.91579991E+02</pdfrwt>
<pdfrwt beam="1">  1       -2 0.13680982E-02 0.91579991E+02</pdfrwt>
<totfact> 0.16233534E+05</totfact>
</mgrwt>
</event>
<event>
 7    1  0.3480999E-009  0.9098809E+02  0.7818608E-02  0.1300476E+00
         -2   -1    0    0    0  501 -0.00000000000E+00  0.00000000000E+00  0.15877363195E+02  0.15877363399E+02  0.25500000000E-02 0.  1.
          2   -1    0    0  501    0  0.00000000000E+00 -0.00000000000E+00 -0.13035590817E+03  0.13035590820E+03  0.25500000000E-02 0. -1.
         23    2    1    2    0    0  0.00000000000E+00  0.00000000000E+00 -0.11447854498E+03  0.14623327160E+03  0.90988089669E+02 0.  0.
    9000005    2    3    3    0    0  0.50587907727E+01  0.42940015963E+02 -0.39031904812E+02  0.59275627612E+02  0.10985176405E+02 0.  0.
         22    1    3    3    0    0 -0.50587907727E+01 -0.42940015963E+02 -0.75446640165E+02  0.86957643983E+02  0.00000000000E+00 0. -1.
         22    1    4    4    0    0  0.38314163220E+01  0.34663254610E+02 -0.36616548296E+02  0.50566714154E+02  0.00000000000E+00 0. -1.
         22    1    4    4    0    0  0.12273744507E+01  0.82767613526E+01 -0.24153565157E+01  0.87089134585E+01  0.00000000000E+00 0. -1.
<mgrwt>
<rscale>  0 0.90988090E+02</rscale>
<asrwt>0</asrwt>
<pdfrwt beam="2">  1        2 0.20054754E-01 0.90988090E+02</pdfrwt>
<pdfrwt beam="1">  1       -2 0.24426714E-02 0.90988090E+02</pdfrwt>
<totfact> 0.13415634E+05</totfact>
</mgrwt>
</event>
<event>
 7    1  0.3480999E-009  0.8913898E+02  0.7818608E-02  0.1304950E+00
         -2   -1    0    0    0  501 -0.00000000000E+00  0.00000000000E+00  0.26890638908E+01  0.26890650999E+01  0.25500000000E-02 0.  1.
          2   -1    0    0  501    0  0.00000000000E+00 -0.00000000000E+00 -0.73871027161E+03  0.73871027161E+03  0.25500000000E-02 0. -1.
         23    2    1    2    0    0  0.17763568394E-14  0.00000000000E+00 -0.73602120772E+03  0.74139933671E+03  0.89138982875E+02 0.  0.
    9000005    2    3    3    0    0 -0.12672506212E+02  0.34509263600E+02 -0.57657428162E+03  0.57776925412E+03  0.52846088519E+01 0.  0.
         22    1    3    3    0    0  0.12672506212E+02 -0.34509263600E+02 -0.15944692610E+03  0.16363008259E+03  0.00000000000E+00 0.  1.
         22    1    4    4    0    0 -0.13040861952E+02  0.34196405060E+02 -0.57195753966E+03  0.57312728549E+03  0.00000000000E+00 0.  1.
         22    1    4    4    0    0  0.36835574013E+00  0.31285854034E+00 -0.46167419602E+01  0.46419686281E+01  0.00000000000E+00 0.  1.
<mgrwt>
<rscale>  0 0.89138983E+02</rscale>
<asrwt>0</asrwt>
<pdfrwt beam="2">  1        2 0.11364757E+00 0.89138983E+02</pdfrwt>
<pdfrwt beam="1">  1       -2 0.41370282E-03 0.89138983E+02</pdfrwt>
<totfact> 0.25471719E+05</totfact>
</mgrwt>
</event>
<event>
 7    1  0.3480999E-009  0.9268588E+02  0.7818608E-02  0.1296475E+00
         -2   -1    0    0    0  501 -0.00000000000E+00  0.00000000000E+00  0.56801628165E+01  0.56801633889E+01  0.25500000000E-02 0.  1.
          2   -1    0    0  501    0  0.00000000000E+00 -0.00000000000E+00 -0.37809974755E+03  0.37809974756E+03  0.25500000000E-02 0. -1.
         23    2    1    2    0    0 -0.17763568394E-14  0.00000000000E+00 -0.37241958473E+03  0.38377991095E+03  0.92685883250E+02 0.  0.
    9000005    2    3    3    0    0  0.11103539345E+02 -0.12033587011E+02 -0.36538841778E+03  0.36596045217E+03  0.12258095389E+02 0.  0.
         22    1    3    3    0    0 -0.11103539345E+02  0.12033587011E+02 -0.70311669507E+01  0.17819458774E+02  0.00000000000E+00 0.  1.
         22    1    4    4    0    0  0.62771978895E+01 -0.10739712479E+02 -0.15026992210E+03  0.15078393192E+03  0.00000000000E+00 0.  1.
         22    1    4    4    0    0  0.48263414553E+01 -0.12938745313E+01 -0.21511849568E+03  0.21517652025E+03  0.00000000000E+00 0.  1.
<mgrwt>
<rscale>  0 0.92685883E+02</rscale>
<asrwt>0</asrwt>
<pdfrwt beam="2">  1        2 0.58169172E-01 0.92685883E+02</pdfrwt>
<pdfrwt beam="1">  1       -2 0.87387155E-03 0.92685883E+02</pdfrwt>
<totfact> 0.18725630E+05</totfact>
</mgrwt>
</event>
<event>
 7    1  0.3480999E-009  0.9088174E+02  0.7818608E-02  0.1300730E+00
         -2   -1    0    0    0  501 -0.00000000000E+00  0.00000000000E+00  0.32121430465E+01  0.32121440586E+01  0.25500000000E-02 0.  1.
          2   -1    0    0  501    0  0.00000000000E+00 -0.00000000000E+00 -0.64283319416E+03  0.64283319416E+03  0.25500000000E-02 0. -1.
         23    2    1    2    0    0  0.22204460493E-15  0.17763568394E-14 -0.63962105111E+03  0.64604533822E+03  0.90881736410E+02 0.  0.
    9000005    2    3    3    0    0 -0.11938458903E+01 -0.11568322177E+02 -0.63167798701E+03  0.63196188647E+03  0.14949760063E+02 0.  0.
         22    1    3    3    0    0  0.11938458903E+01  0.11568322177E+02 -0.79430640975E+01  0.14083451752E+02  0.00000000000E+00 0.  1.
         22    1    4    4    0    0  0.52916023057E+01 -0.28794122738E+00 -0.11772965880E+03  0.11784887156E+03  0.00000000000E+00 0.  1.
         22    1    4    4    0    0 -0.64854481960E+01 -0.11280380950E+02 -0.51394832821E+03  0.51411301491E+03  0.00000000000E+00 0.  1.
<mgrwt>
<rscale>  0 0.90881736E+02</rscale>
<asrwt>0</asrwt>
<pdfrwt beam="2">  1        2 0.98897312E-01 0.90881736E+02</pdfrwt>
<pdfrwt beam="1">  1       -2 0.49417644E-03 0.90881736E+02</pdfrwt>
<totfact> 0.23417775E+05</totfact>
</mgrwt>
</event>
<event>
 7    1  0.3480999E-009  0.9978266E+02  0.7818608E-02  0.1280754E+00
         -2   -1    0    0    0  501 -0.00000000000E+00  0.00000000000E+00  0.12686335369E+02  0.12686335625E+02  0.25500000000E-02 0.  1.
          2   -1    0    0  501    0  0.00000000000E+00 -0.00000000000E+00 -0.19620677647E+03  0.19620677649E+03  0.25500000000E-02 0. -1.
         23    2    1    2    0    0  0.00000000000E+00  0.00000000000E+00 -0.18352044110E+03  0.20889311211E+03  0.99782663752E+02 0.  0.
    9000005    2    3    3    0    0 -0.45363363302E+01 -0.45943229801E+02 -0.12832915173E+03  0.13693870200E+03  0.12348206756E+02 0.  0.
         22    1    3    3    0    0  0.45363363302E+01  0.45943229801E+02 -0.55191289370E+02  0.71954410110E+02  0.00000000000E+00 0.  1.
         22    1    4    4    0    0 -0.87922553800E+01 -0.31494253406E+02 -0.85640263155E+02  0.91670313764E+02  0.00000000000E+00 0.  1.
         22    1    4    4    0    0  0.42559190498E+01 -0.14448976395E+02 -0.42688888575E+02  0.45268388237E+02  0.00000000000E+00 0.  1.
<mgrwt>
<rscale>  0 0.99782664E+02</rscale>
<asrwt>0</asrwt>
<pdfrwt beam="2">  1        2 0.30185656E-01 0.99782664E+02</pdfrwt>
<pdfrwt beam="1">  1       -2 0.19517441E-02 0.99782664E+02</pdfrwt>
<totfact> 0.12030380E+05</totfact>
</mgrwt>
</event>
<event>
 7    1  0.3480999E-009  0.9056612E+02  0.7818608E-02  0.1301487E+00
          2   -1    0    0  501    0  0.00000000000E+00  0.00000000000E+00  0.16303601211E+02  0.16303601410E+02  0.25500000000E-02 0. -1.
         -2   -1    0    0    0  501 -0.00000000000E+00 -0.00000000000E+00 -0.12577316955E+03  0.12577316957E+03  0.25500000000E-02 0.  1.
         23    2    1    2    0    0 -0.71054273576E-14 -0.44408920985E-15 -0.10946956834E+03  0.14207677098E+03  0.90566122040E+02 0.  0.
    9000005    2    3    3    0    0  0.43723210799E+02  0.39362402666E+01 -0.65925421838E+02  0.80243884554E+02  0.12872708096E+02 0.  0.
         22    1    3    3    0    0 -0.43723210799E+02 -0.39362402666E+01 -0.43544146497E+02  0.61832886429E+02  0.00000000000E+00 0. -1.
         22    1    4    4    0    0  0.39059738137E+02  0.34959120852E+00 -0.61604134116E+02  0.72944188922E+02  0.00000000000E+00 0.  1.
         22    1    4    4    0    0  0.46634726616E+01  0.35866490581E+01 -0.43212877224E+01  0.72996956315E+01  0.00000000000E+00 0.  1.
<mgrwt>
<rscale>  0 0.90566122E+02</rscale>
<asrwt>0</asrwt>
<pdfrwt beam="1">  1        2 0.25082464E-02 0.90566122E+02</pdfrwt>
<pdfrwt beam="2">  1       -2 0.19349718E-01 0.90566122E+02</pdfrwt>
<totfact> 0.75529530E+04</totfact>
</mgrwt>
</event>
<event>
 7    1  0.3480999E-009  0.9083778E+02  0.7818608E-02  0.1300835E+00
         -2   -1    0    0    0  501 -0.00000000000E+00  0.00000000000E+00  0.14734484226E+02  0.14734484447E+02  0.25500000000E-02 0.  1.
          2   -1    0    0  501    0  0.00000000000E+00 -0.00000000000E+00 -0.14000322825E+03  0.14000322827E+03  0.25500000000E-02 0. -1.
         23    2    1    2    0    0  0.00000000000E+00  0.00000000000E+00 -0.12526874402E+03  0.15473771272E+03  0.90837775778E+02 0.  0.
    9000005    2    3    3    0    0 -0.39966067710E+02  0.20180788436E+02 -0.57034004017E+02  0.73125639263E+02  0.94831805471E+01 0.  0.
         22    1    3    3    0    0  0.39966067710E+02 -0.20180788436E+02 -0.68234740006E+02  0.81612073456E+02  0.00000000000E+00 0.  1.
         22    1    4    4    0    0 -0.36080367737E+02  0.17606394111E+02 -0.54864110391E+02  0.67984179473E+02  0.00000000000E+00 0.  1.
         22    1    4    4    0    0 -0.38856999732E+01  0.25743943247E+01 -0.21698936257E+01  0.51414597896E+01  0.00000000000E+00 0.  1.
<mgrwt>
<rscale>  0 0.90837776E+02</rscale>
<asrwt>0</asrwt>
<pdfrwt beam="2">  1        2 0.21538957E-01 0.90837776E+02</pdfrwt>
<pdfrwt beam="1">  1       -2 0.22668438E-02 0.90837776E+02</pdfrwt>
<totfact> 0.13798521E+05</totfact>
</mgrwt>
</event>
<event>
 7    1  0.3480999E-009  0.8930789E+02  0.7818608E-02  0.1304536E+00
          2   -1    0    0  501    0  0.00000000000E+00  0.00000000000E+00  0.15847184747E+04  0.15847184747E+04  0.25500000000E-02 0. -1.
         -2   -1    0    0    0  501 -0.00000000000E+00 -0.00000000000E+00 -0.12582503767E+01  0.12582529606E+01  0.25500000000E-02 0.  1.
         23    2    1    2    0    0  0.44408920985E-15 -0.35527136788E-14  0.15834602243E+04  0.15859767277E+04  0.89307886962E+02 0.  0.
    9000005    2    3    3    0    0 -0.33824258816E+01  0.16267239498E+02  0.15266064367E+04  0.15267448355E+04  0.12104386549E+02 0.  0.
         22    1    3    3    0    0  0.33824258816E+01 -0.16267239498E+02  0.56853787644E+02  0.59231892214E+02  0.00000000000E+00 0.  1.
         22    1    4    4    0    0  0.28510520592E+00  0.35854456213E+00  0.20322546396E+01  0.20832422091E+01  0.00000000000E+00 0. -1.
         22    1    4    4    0    0 -0.36675310875E+01  0.15908694936E+02  0.15245741821E+04  0.15246615933E+04  0.00000000000E+00 0. -1.
<mgrwt>
<rscale>  0 0.89307887E+02</rscale>
<asrwt>0</asrwt>
<pdfrwt beam="1">  1        2 0.24380373E+00 0.89307887E+02</pdfrwt>
<pdfrwt beam="2">  1       -2 0.19357647E-03 0.89307887E+02</pdfrwt>
<totfact> 0.24351435E+05</totfact>
</mgrwt>
</event>
<event>
 7    1  0.3480999E-009  0.9247032E+02  0.7818608E-02  0.1296977E+00
         -2   -1    0    0    0  501 -0.00000000000E+00  0.00000000000E+00  0.93072778873E+02  0.93072778908E+02  0.25500000000E-02 0.  1.
          2   -1    0    0  501    0  0.00000000000E+00 -0.00000000000E+00 -0.22967942250E+02  0.22967942392E+02  0.25500000000E-02 0. -1.
         23    2    1    2    0    0  0.00000000000E+00  0.00000000000E+00  0.70104836623E+02  0.11604072130E+03  0.92470324330E+02 0.  0.
    9000005    2    3    3    0    0 -0.11328712897E+02 -0.28000067662E+02 -0.55090536114E+01  0.34617113412E+02  0.15989100798E+02 0.  0.
         22    1    3    3    0    0  0.11328712897E+02  0.28000067662E+02  0.75613890234E+02  0.81423607887E+02  0.00000000000E+00 0.  1.
         22    1    4    4    0    0  0.80426534688E+00 -0.11359799644E+02  0.38157450871E+01  0.12010487137E+02  0.00000000000E+00 0. -1.
         22    1    4    4    0    0 -0.12132978244E+02 -0.16640268018E+02 -0.93247986985E+01  0.22606626275E+02  0.00000000000E+00 0. -1.
<mgrwt>
<rscale>  0 0.92470324E+02</rscale>
<asrwt>0</asrwt>
<pdfrwt beam="2">  1        2 0.35335295E-02 0.92470324E+02</pdfrwt>
<pdfrwt beam="1">  1       -2 0.14318889E-01 0.92470324E+02</pdfrwt>
<totfact> 0.78711028E+04</totfact>
</mgrwt>
</event>
<event>
 7    1  0.3480999E-009  0.9115285E+02  0.7818608E-02  0.1300084E+00
         -2   -1    0    0    0  501 -0.00000000000E+00  0.00000000000E+00  0.63240300161E+02  0.63240300212E+02  0.25500000000E-02 0. -1.
          2   -1    0    0  501    0  0.00000000000E+00 -0.00000000000E+00 -0.32846312673E+02  0.32846312772E+02  0.25500000000E-02 0.  1.
         23    2    1    2    0    0  0.00000000000E+00  0.00000000000E+00  0.30393987488E+02  0.96086612984E+02  0.91152853599E+02 0.  0.
    9000005    2    3    3    0    0  0.95719094069E+01  0.52968584811E+01  0.61074040022E+02  0.63514480985E+02  0.13578393527E+02 0.  0.
         22    1    3    3    0    0 -0.95719094069E+01 -0.52968584811E+01 -0.30680052534E+02  0.32572131999E+02  0.00000000000E+00 0.  1.
         22    1    4    4    0    0  0.33755341128E+01 -0.38349248075E+01  0.96425298612E+01  0.10912344430E+02  0.00000000000E+00 0. -1.
         22    1    4    4    0    0  0.61963752941E+01  0.91317832886E+01  0.51431510161E+02  0.52602136556E+02  0.00000000000E+00 0. -1.
<mgrwt>
<rscale>  0 0.91152854E+02</rscale>
<asrwt>0</asrwt>
<pdfrwt beam="2">  1        2 0.50532789E-02 0.91152854E+02</pdfrwt>
<pdfrwt beam="1">  1       -2 0.97292770E-02 0.91152854E+02</pdfrwt>
<totfact> 0.90686754E+04</totfact>
</mgrwt>
</event>
<event>
 7    1  0.3480999E-009  0.9200078E+02  0.7818608E-02  0.1298078E+00
         -2   -1    0    0    0  501 -0.00000000000E+00  0.00000000000E+00  0.94211845742E+01  0.94211849193E+01  0.25500000000E-02 0.  1.
          2   -1    0    0  501    0  0.00000000000E+00 -0.00000000000E+00 -0.22460400972E+03  0.22460400973E+03  0.25500000000E-02 0. -1.
         23    2    1    2    0    0  0.00000000000E+00  0.88817841970E-15 -0.21518282514E+03  0.23402519465E+03  0.92000779860E+02 0.  0.
    9000005    2    3    3    0    0  0.44657156639E+02 -0.51089349561E+01 -0.11210062942E+03  0.12156941699E+03  0.13863952328E+02 0.  0.
         22    1    3    3    0    0 -0.44657156639E+02  0.51089349561E+01 -0.10308219572E+03  0.11245577767E+03  0.00000000000E+00 0.  1.
         22    1    4    4    0    0  0.28798301071E+02  0.22121653530E+01 -0.59408462776E+02  0.66057560275E+02  0.00000000000E+00 0. -1.
         22    1    4    4    0    0  0.15858855568E+02 -0.73211003091E+01 -0.52692166645E+02  0.55511856710E+02  0.00000000000E+00 0. -1.
<mgrwt>
<rscale>  0 0.92000780E+02</rscale>
<asrwt>0</asrwt>
<pdfrwt beam="2">  1        2 0.34554459E-01 0.92000780E+02</pdfrwt>
<pdfrwt beam="1">  1       -2 0.14494132E-02 0.92000780E+02</pdfrwt>
<totfact> 0.15750530E+05</totfact>
</mgrwt>
</event>
<event>
 7    1  0.3480999E-009  0.8925616E+02  0.7818608E-02  0.1304663E+00
         -2   -1    0    0    0  501 -0.00000000000E+00  0.00000000000E+00  0.11042255384E+03  0.11042255387E+03  0.25500000000E-02 0.  1.
          2   -1    0    0  501    0  0.00000000000E+00 -0.00000000000E+00 -0.18036762856E+02  0.18036763036E+02  0.25500000000E-02 0. -1.
         23    2    1    2    0    0 -0.35527136788E-14  0.00000000000E+00  0.92385790981E+02  0.12845931690E+03  0.89256157904E+02 0.  0.
    9000005    2    3    3    0    0  0.26618228994E+02 -0.27425043618E+02  0.15095617798E+02  0.42236152944E+02  0.97648249635E+01 0.  0.
         22    1    3    3    0    0 -0.26618228994E+02  0.27425043618E+02  0.77290173183E+02  0.86223163958E+02  0.00000000000E+00 0.  1.
         22    1    4    4    0    0 -0.82907214643E+00 -0.42177600568E+00  0.52262109348E+00  0.10669528716E+01  0.00000000000E+00 0. -1.
         22    1    4    4    0    0  0.27447301141E+02 -0.27003267613E+02  0.14572996704E+02  0.41169200073E+02  0.00000000000E+00 0. -1.
<mgrwt>
<rscale>  0 0.89256158E+02</rscale>
<asrwt>0</asrwt>
<pdfrwt beam="2">  1        2 0.27748867E-02 0.89256158E+02</pdfrwt>
<pdfrwt beam="1">  1       -2 0.16988085E-01 0.89256158E+02</pdfrwt>
<totfact> 0.81662647E+04</totfact>
</mgrwt>
</event>
<event>
 7    1  0.3480999E-009  0.9312481E+02  0.7818608E-02  0.1295456E+00
          2   -1    0    0  501    0  0.00000000000E+00  0.00000000000E+00  0.19716651162E+02  0.19716651327E+02  0.25500000000E-02 0. -1.
         -2   -1    0    0    0  501 -0.00000000000E+00 -0.00000000000E+00 -0.10996073154E+03  0.10996073157E+03  0.25500000000E-02 0.  1.
         23    2    1    2    0    0 -0.17763568394E-14  0.00000000000E+00 -0.90244080382E+02  0.12967738290E+03  0.93124806535E+02 0.  0.
    9000005    2    3    3    0    0 -0.14136841468E+02 -0.20801065576E+02 -0.99034689978E+02  0.10303513388E+03  0.13260255624E+02 0.  0.
         22    1    3    3    0    0  0.14136841468E+02  0.20801065576E+02  0.87906095959E+01  0.26642249020E+02  0.00000000000E+00 0. -1.
         22    1    4    4    0    0 -0.69325904343E+01 -0.23288589626E+01 -0.42494558578E+02  0.43119275306E+02  0.00000000000E+00 0. -1.
         22    1    4    4    0    0 -0.72042510335E+01 -0.18472206613E+02 -0.56540131400E+02  0.59915858575E+02  0.00000000000E+00 0. -1.
<mgrwt>
<rscale>  0 0.93124807E+02</rscale>
<asrwt>0</asrwt>
<pdfrwt beam="1">  1        2 0.30333310E-02 0.93124807E+02</pdfrwt>
<pdfrwt beam="2">  1       -2 0.16917035E-01 0.93124807E+02</pdfrwt>
<totfact> 0.73539216E+04</totfact>
</mgrwt>
</event>
<event>
 7    1  0.3480999E-009  0.9125704E+02  0.7818608E-02  0.1299836E+00
         -2   -1    0    0    0  501 -0.00000000000E+00  0.00000000000E+00  0.25042877875E+02  0.25042878005E+02  0.25500000000E-02 0.  1.
          2   -1    0    0  501    0  0.00000000000E+00 -0.00000000000E+00 -0.83135879925E+02  0.83135879964E+02  0.25500000000E-02 0. -1.
         23    2    1    2    0    0  0.00000000000E+00  0.00000000000E+00 -0.58093002050E+02  0.10817875797E+03  0.91257036926E+02 0.  0.
    9000005    2    3    3    0    0 -0.33211226536E+02 -0.20279507731E+02 -0.56880586807E+02  0.69246586792E+02  0.67412628622E+01 0.  0.
         22    1    3    3    0    0  0.33211226536E+02  0.20279507731E+02 -0.12124152435E+01  0.38932171177E+02  0.00000000000E+00 0.  1.
         22    1    4    4    0    0 -0.32112731762E+02 -0.19101403803E+02 -0.51476564938E+02  0.63607608871E+02  0.00000000000E+00 0.  1.
         22    1    4    4    0    0 -0.10984947746E+01 -0.11781039278E+01 -0.54040218690E+01  0.56389779211E+01  0.00000000000E+00 0.  1.
<mgrwt>
<rscale>  0 0.91257037E+02</rscale>
<asrwt>0</asrwt>
<pdfrwt beam="2">  1        2 0.12790135E-01 0.91257037E+02</pdfrwt>
<pdfrwt beam="1">  1       -2 0.38527505E-02 0.91257037E+02</pdfrwt>
<totfact> 0.11584914E+05</totfact>
</mgrwt>
</event>
<event>
 7    1  0.3480999E-009  0.9286075E+02  0.7818608E-02  0.1296068E+00
         -2   -1    0    0    0  501 -0.00000000000E+00  0.00000000000E+00  0.11245940133E+02  0.11245940422E+02  0.25500000000E-02 0.  1.
          2   -1    0    0  501    0  0.00000000000E+00 -0.00000000000E+00 -0.19169406010E+03  0.19169406012E+03  0.25500000000E-02 0. -1.
         23    2    1    2    0    0  0.00000000000E+00  0.00000000000E+00 -0.18044811997E+03  0.20294000054E+03  0.92860754998E+02 0.  0.
    9000005    2    3    3    0    0 -0.43114169500E+02 -0.12010435255E+02 -0.10566387045E+03  0.11578630789E+03  0.15444526836E+02 0.  0.
         22    1    3    3    0    0  0.43114169500E+02  0.12010435255E+02 -0.74784249516E+02  0.87153692649E+02  0.00000000000E+00 0.  1.
         22    1    4    4    0    0 -0.11419372221E+02 -0.10611224105E+02 -0.32849460143E+02  0.36360516644E+02  0.00000000000E+00 0. -1.
         22    1    4    4    0    0 -0.31694797279E+02 -0.13992111503E+01 -0.72814410309E+02  0.79425791246E+02  0.00000000000E+00 0. -1.
<mgrwt>
<rscale>  0 0.92860755E+02</rscale>
<asrwt>0</asrwt>
<pdfrwt beam="2">  1        2 0.29491391E-01 0.92860755E+02</pdfrwt>
<pdfrwt beam="1">  1       -2 0.17301448E-02 0.92860755E+02</pdfrwt>
<totfact> 0.14498820E+05</totfact>
</mgrwt>
</event>
<event>
 7    1  0.4464013E-009  0.9111961E+02  0.7818608E-02  0.1300163E+00
          2   -1    0    0  501    0  0.00000000000E+00  0.00000000000E+00  0.69312573878E+03  0.69312573878E+03  0.25500000000E-02 0. -1.
         -2   -1    0    0    0  501 -0.00000000000E+00 -0.00000000000E+00 -0.29946884890E+01  0.29946895747E+01  0.25500000000E-02 0.  1.
         23    2    1    2    0    0  0.00000000000E+00 -0.17763568394E-14  0.69013105029E+03  0.69612042836E+03  0.91119614812E+02 0.  0.
    9000005    2    3    3    0    0  0.51839346971E+01  0.11975867382E+02  0.67799389152E+03  0.67829894689E+03  0.15602879396E+02 0.  0.
         22    1    3    3    0    0 -0.51839346971E+01 -0.11975867382E+02  0.12137158774E+02  0.17821481465E+02  0.00000000000E+00 0.  1.
         22    1    4    4    0    0  0.62356660404E+01 -0.28958319767E+00  0.37946191055E+03  0.37951325266E+03  0.00000000000E+00 0. -1.
         22    1    4    4    0    0 -0.10517313434E+01  0.12265450580E+02  0.29853198097E+03  0.29878569423E+03  0.00000000000E+00 0. -1.
<mgrwt>
<rscale>  0 0.91119615E+02</rscale>
<asrwt>0</asrwt>
<pdfrwt beam="1">  1        2 0.10663469E+00 0.91119615E+02</pdfrwt>
<pdfrwt beam="2">  1       -2 0.46072154E-03 0.91119615E+02</pdfrwt>
<totfact> 0.23698670E+05</totfact>
</mgrwt>
</event>
<event>
 7    1  0.3480999E-009  0.8325636E+02  0.7818608E-02  0.1320056E+00
          2   -1    0    0  501    0  0.00000000000E+00  0.00000000000E+00  0.56123731023E+02  0.56123731081E+02  0.25500000000E-02 0. -1.
         -2   -1    0    0    0  501 -0.00000000000E+00 -0.00000000000E+00 -0.30876517033E+02  0.30876517138E+02  0.25500000000E-02 0.  1.
         23    2    1    2    0    0  0.00000000000E+00  0.00000000000E+00  0.25247213990E+02  0.87000248219E+02  0.83256359372E+02 0.  0.
    9000005    2    3    3    0    0  0.22317631664E+02  0.34398857913E+02  0.11288149780E+02  0.43684967054E+02  0.99797751632E+01 0.  0.
         22    1    3    3    0    0 -0.22317631664E+02 -0.34398857913E+02  0.13959064210E+02  0.43315281165E+02  0.00000000000E+00 0. -1.
         22    1    4    4    0    0  0.16694495586E+02  0.18506774440E+02  0.97285309383E+01  0.26755395666E+02  0.00000000000E+00 0.  1.
         22    1    4    4    0    0  0.56231360777E+01  0.15892083473E+02  0.15596188418E+01  0.16929571388E+02  0.00000000000E+00 0.  1.
<mgrwt>
<rscale>  0 0.83256359E+02</rscale>
<asrwt>0</asrwt>
<pdfrwt beam="1">  1        2 0.86344202E-02 0.83256359E+02</pdfrwt>
<pdfrwt beam="2">  1       -2 0.47502334E-02 0.83256359E+02</pdfrwt>
<totfact> 0.13446514E+05</totfact>
</mgrwt>
</event>
<event>
 7    1  0.3480999E-009  0.9275291E+02  0.7818608E-02  0.1296319E+00
         -2   -1    0    0    0  501 -0.00000000000E+00  0.00000000000E+00  0.11839489392E+01  0.11839516853E+01  0.25500000000E-02 0.  1.
          2   -1    0    0  501    0  0.00000000000E+00 -0.00000000000E+00 -0.18166095763E+04  0.18166095763E+04  0.25500000000E-02 0. -1.
         23    2    1    2    0    0 -0.88817841970E-15 -0.17763568394E-14 -0.18154256274E+04  0.18177935280E+04  0.92752907843E+02 0.  0.
    9000005    2    3    3    0    0 -0.71539857769E+01 -0.10726115292E+02 -0.17805656434E+04  0.17806256986E+04  0.69020927458E+01 0.  0.
         22    1    3    3    0    0  0.71539857769E+01  0.10726115292E+02 -0.34859983922E+02  0.37167829379E+02  0.00000000000E+00 0.  1.
         22    1    4    4    0    0 -0.22157238517E+01 -0.51301495947E+01 -0.11867362537E+04  0.11867494106E+04  0.00000000000E+00 0. -1.
         22    1    4    4    0    0 -0.49382619252E+01 -0.55959656975E+01 -0.59382938980E+03  0.59387628800E+03  0.00000000000E+00 0. -1.
<mgrwt>
<rscale>  0 0.92752908E+02</rscale>
<asrwt>0</asrwt>
<pdfrwt beam="2">  1        2 0.27947616E+00 0.92752908E+02</pdfrwt>
<pdfrwt beam="1">  1       -2 0.18214766E-03 0.92752908E+02</pdfrwt>
<totfact> 0.20352873E+05</totfact>
</mgrwt>
</event>
<event>
 7    1  0.3480999E-009  0.9099990E+02  0.7818608E-02  0.1300448E+00
         -2   -1    0    0    0  501 -0.00000000000E+00  0.00000000000E+00  0.16744953042E+03  0.16744953044E+03  0.25500000000E-02 0.  1.
          2   -1    0    0  501    0  0.00000000000E+00 -0.00000000000E+00 -0.12363400536E+02  0.12363400799E+02  0.25500000000E-02 0. -1.
         23    2    1    2    0    0  0.00000000000E+00  0.00000000000E+00  0.15508612988E+03  0.17981293124E+03  0.90999904165E+02 0.  0.
    9000005    2    3    3    0    0 -0.40289285882E+02  0.85551041485E+01  0.47743652498E+02  0.64839787351E+02  0.15110436990E+02 0.  0.
         22    1    3    3    0    0  0.40289285882E+02 -0.85551041485E+01  0.10734247739E+03  0.11497314389E+03  0.00000000000E+00 0.  1.
         22    1    4    4    0    0 -0.14399118729E+01  0.26538120716E+01  0.96493244992E+01  0.10110664073E+02  0.00000000000E+00 0.  1.
         22    1    4    4    0    0 -0.38849374009E+02  0.59012920769E+01  0.38094327999E+02  0.54729123278E+02  0.00000000000E+00 0.  1.
<mgrwt>
<rscale>  0 0.90999904E+02</rscale>
<asrwt>0</asrwt>
<pdfrwt beam="2">  1        2 0.19020618E-02 0.90999904E+02</pdfrwt>
<pdfrwt beam="1">  1       -2 0.25761464E-01 0.90999904E+02</pdfrwt>
<totfact> 0.67358996E+04</totfact>
</mgrwt>
</event>
<event>
 7    1  0.3480999E-009  0.1021128E+03  0.7818608E-02  0.1275915E+00
         -2   -1    0    0    0  501 -0.00000000000E+00  0.00000000000E+00  0.80922146310E+02  0.80922146350E+02  0.25500000000E-02 0.  1.
          2   -1    0    0  501    0  0.00000000000E+00 -0.00000000000E+00 -0.32213132799E+02  0.32213132900E+02  0.25500000000E-02 0. -1.
         23    2    1    2    0    0  0.00000000000E+00  0.35527136788E-14  0.48709013512E+02  0.11313527925E+03  0.10211279750E+03 0.  0.
    9000005    2    3    3    0    0  0.16404423338E+02  0.23362770099E+02 -0.21048409468E+02  0.37762723286E+02  0.12963934476E+02 0.  0.
         22    1    3    3    0    0 -0.16404423338E+02 -0.23362770099E+02  0.69757422980E+02  0.75372555964E+02  0.00000000000E+00 0.  1.
         22    1    4    4    0    0  0.31531291318E+01 -0.12560046817E+01 -0.22785134019E+01  0.40879572411E+01  0.00000000000E+00 0. -1.
         22    1    4    4    0    0  0.13251294206E+02  0.24618774781E+02 -0.18769896066E+02  0.33674766045E+02  0.00000000000E+00 0. -1.
<mgrwt>
<rscale>  0 0.10211280E+03</rscale>
<asrwt>0</asrwt>
<pdfrwt beam="2">  1        2 0.49558667E-02 0.10211280E+03</pdfrwt>
<pdfrwt beam="1">  1       -2 0.12449561E-01 0.10211280E+03</pdfrwt>
<totfact> 0.64232075E+04</totfact>
</mgrwt>
</event>
<event>
 7    1  0.3480999E-009  0.8931577E+02  0.7818608E-02  0.1304517E+00
         -2   -1    0    0    0  501 -0.00000000000E+00  0.00000000000E+00  0.42267502445E+03  0.42267502446E+03  0.25500000000E-02 0.  1.
          2   -1    0    0  501    0  0.00000000000E+00 -0.00000000000E+00 -0.47183452427E+01  0.47183459318E+01  0.25500000000E-02 0. -1.
         23    2    1    2    0    0 -0.17763568394E-14  0.00000000000E+00  0.41795667921E+03  0.42739337039E+03  0.89315773293E+02 0.  0.
    9000005    2    3    3    0    0 -0.14887962645E+02 -0.28080241013E+02  0.35790993074E+03  0.35945396085E+03  0.98732001725E+01 0.  0.
         22    1    3    3    0    0  0.14887962645E+02  0.28080241013E+02  0.60046748472E+02  0.67939409544E+02  0.00000000000E+00 0. -1.
         22    1    4    4    0    0 -0.57477243266E+01 -0.16469573745E+02  0.23770589291E+03  0.23834507487E+03  0.00000000000E+00 0. -1.
         22    1    4    4    0    0 -0.91402383187E+01 -0.11610667269E+02  0.12020403783E+03  0.12110888598E+03  0.00000000000E+00 0. -1.
<mgrwt>
<rscale>  0 0.89315773E+02</rscale>
<asrwt>0</asrwt>
<pdfrwt beam="2">  1        2 0.72589937E-03 0.89315773E+02</pdfrwt>
<pdfrwt beam="1">  1       -2 0.65026922E-01 0.89315773E+02</pdfrwt>
<totfact> 0.43351489E+04</totfact>
</mgrwt>
</event>
<event>
 7    1  0.3480999E-009  0.7956683E+02  0.7818608E-02  0.1330285E+00
         -2   -1    0    0    0  501 -0.00000000000E+00  0.00000000000E+00  0.17260951645E+03  0.17260951647E+03  0.25500000000E-02 0.  1.
          2   -1    0    0  501    0  0.00000000000E+00 -0.00000000000E+00 -0.91693665956E+01  0.91693669502E+01  0.25500000000E-02 0. -1.
         23    2    1    2    0    0  0.00000000000E+00  0.00000000000E+00  0.16344014985E+03  0.18177888342E+03  0.79566826458E+02 0.  0.
    9000005    2    3    3    0    0  0.16504473157E+02  0.18913869032E+02  0.15081153913E+03  0.15367881430E+03  0.15586069153E+02 0.  0.
         22    1    3    3    0    0 -0.16504473157E+02 -0.18913869032E+02  0.12628610720E+02  0.28100069122E+02  0.00000000000E+00 0. -1.
         22    1    4    4    0    0 -0.20873587121E-01 -0.13794646994E+01  0.13051580272E+01  0.18991566654E+01  0.00000000000E+00 0.  1.
         22    1    4    4    0    0  0.16525346744E+02  0.20293333732E+02  0.14950638111E+03  0.15177965763E+03  0.00000000000E+00 0.  1.
<mgrwt>
<rscale>  0 0.79566826E+02</rscale>
<asrwt>0</asrwt>
<pdfrwt beam="2">  1        2 0.14106717E-02 0.79566826E+02</pdfrwt>
<pdfrwt beam="1">  1       -2 0.26555312E-01 0.79566826E+02</pdfrwt>
<totfact> 0.93580224E+04</totfact>
</mgrwt>
</event>
<event>
 7    1  0.3480999E-009  0.8983507E+02  0.7818608E-02  0.1303252E+00
          2   -1    0    0  501    0  0.00000000000E+00  0.00000000000E+00  0.93410162682E+02  0.93410162717E+02  0.25500000000E-02 0.  1.
         -2   -1    0    0    0  501 -0.00000000000E+00 -0.00000000000E+00 -0.21599203089E+02  0.21599203239E+02  0.25500000000E-02 0. -1.
         23    2    1    2    0    0  0.00000000000E+00  0.00000000000E+00  0.71810959593E+02  0.11500936596E+03  0.89835072994E+02 0.  0.
    9000005    2    3    3    0    0 -0.23700840902E+02 -0.35141136742E+02  0.21590069678E+02  0.49292038447E+02  0.12920704108E+02 0.  0.
         22    1    3    3    0    0  0.23700840902E+02  0.35141136742E+02  0.50220889915E+02  0.65717327508E+02  0.00000000000E+00 0.  1.
         22    1    4    4    0    0 -0.10293149920E+02 -0.61450747466E+01  0.31048839852E+01  0.12383504491E+02  0.00000000000E+00 0.  1.
         22    1    4    4    0    0 -0.13407690981E+02 -0.28996061995E+02  0.18485185693E+02  0.36908533956E+02  0.00000000000E+00 0.  1.
<mgrwt>
<rscale>  0 0.89835073E+02</rscale>
<asrwt>0</asrwt>
<pdfrwt beam="1">  1        2 0.14370795E-01 0.89835073E+02</pdfrwt>
<pdfrwt beam="2">  1       -2 0.33229543E-02 0.89835073E+02</pdfrwt>
<totfact> 0.12519062E+05</totfact>
</mgrwt>
</event>
<event>
 7    1  0.3480999E-009  0.9275609E+02  0.7818608E-02  0.1296311E+00
          2   -1    0    0  501    0  0.00000000000E+00  0.00000000000E+00  0.65255515074E+01  0.65255520057E+01  0.25500000000E-02 0. -1.
         -2   -1    0    0    0  501 -0.00000000000E+00 -0.00000000000E+00 -0.32961548349E+03  0.32961548350E+03  0.25500000000E-02 0.  1.
         23    2    1    2    0    0 -0.17763568394E-14  0.35527136788E-14 -0.32308993198E+03  0.33614103551E+03  0.92756086605E+02 0.  0.
    9000005    2    3    3    0    0  0.14373385610E+02 -0.24231391492E+02 -0.29386802085E+03  0.29554947681E+03  0.14047242187E+02 0.  0.
         22    1    3    3    0    0 -0.14373385610E+02  0.24231391492E+02 -0.29221911129E+02  0.40591558698E+02  0.00000000000E+00 0. -1.
         22    1    4    4    0    0  0.35442070357E+01 -0.16608729605E+02 -0.12266393182E+03  0.12383396736E+03  0.00000000000E+00 0.  1.
         22    1    4    4    0    0  0.10829178574E+02 -0.76226618867E+01 -0.17120408904E+03  0.17171550945E+03  0.00000000000E+00 0.  1.
<mgrwt>
<rscale>  0 0.92756087E+02</rscale>
<asrwt>0</asrwt>
<pdfrwt beam="1">  1        2 0.10039313E-02 0.92756087E+02</pdfrwt>
<pdfrwt beam="2">  1       -2 0.50710061E-01 0.92756087E+02</pdfrwt>
<totfact> 0.46197087E+04</totfact>
</mgrwt>
</event>
<event>
 7    1  0.3480999E-009  0.9047443E+02  0.7818608E-02  0.1301707E+00
         -2   -1    0    0    0  501 -0.00000000000E+00  0.00000000000E+00  0.91307749538E+01  0.91307753099E+01  0.25500000000E-02 0.  1.
          2   -1    0    0  501    0  0.00000000000E+00 -0.00000000000E+00 -0.22412178033E+03  0.22412178035E+03  0.25500000000E-02 0. -1.
         23    2    1    2    0    0  0.00000000000E+00  0.00000000000E+00 -0.21499100538E+03  0.23325255566E+03  0.90474429132E+02 0.  0.
    9000005    2    3    3    0    0 -0.90457529587E+01  0.35833925470E+02 -0.41031477403E+02  0.55410453682E+02  0.45651263114E+01 0.  0.
         22    1    3    3    0    0  0.90457529587E+01 -0.35833925470E+02 -0.17395952797E+03  0.17784210197E+03  0.00000000000E+00 0. -1.
         22    1    4    4    0    0 -0.75943151624E+01  0.26677737929E+02 -0.33300910329E+02  0.43339657965E+02  0.00000000000E+00 0.  1.
         22    1    4    4    0    0 -0.14514377963E+01  0.91561875409E+01 -0.77305670737E+01  0.12070795717E+02  0.00000000000E+00 0.  1.
<mgrwt>
<rscale>  0 0.90474429E+02</rscale>
<asrwt>0</asrwt>
<pdfrwt beam="2">  1        2 0.34480270E-01 0.90474429E+02</pdfrwt>
<pdfrwt beam="1">  1       -2 0.14047348E-02 0.90474429E+02</pdfrwt>
<totfact> 0.16461338E+05</totfact>
</mgrwt>
</event>
<event>
 7    1  0.3480999E-009  0.8891697E+02  0.7818608E-02  0.1305496E+00
         -2   -1    0    0    0  501 -0.00000000000E+00  0.00000000000E+00  0.14878487135E+03  0.14878487137E+03  0.25500000000E-02 0.  1.
          2   -1    0    0  501    0  0.00000000000E+00 -0.00000000000E+00 -0.13284663848E+02  0.13284664093E+02  0.25500000000E-02 0. -1.
         23    2    1    2    0    0  0.00000000000E+00 -0.35527136788E-14  0.13550020750E+03  0.16206953546E+03  0.88916973029E+02 0.  0.
    9000005    2    3    3    0    0  0.38543406806E+02 -0.19487671144E+02  0.50272280368E+02  0.66522881423E+02  0.57120963477E+01 0.  0.
         22    1    3    3    0    0 -0.38543406806E+02  0.19487671144E+02  0.85227927134E+02  0.95546654041E+02  0.00000000000E+00 0. -1.
         22    1    4    4    0    0  0.28954378353E+02 -0.16082785433E+02  0.35154993781E+02  0.48299954460E+02  0.00000000000E+00 0. -1.
         22    1    4    4    0    0  0.95890284532E+01 -0.34048857116E+01  0.15117286586E+02  0.18222926964E+02  0.00000000000E+00 0. -1.
<mgrwt>
<rscale>  0 0.88916973E+02</rscale>
<asrwt>0</asrwt>
<pdfrwt beam="2">  1        2 0.20437946E-02 0.88916973E+02</pdfrwt>
<pdfrwt beam="1">  1       -2 0.22889979E-01 0.88916973E+02</pdfrwt>
<totfact> 0.74653563E+04</totfact>
</mgrwt>
</event>
<event>
 7    1  0.3480999E-009  0.9162156E+02  0.7818608E-02  0.1298972E+00
         -2   -1    0    0    0  501 -0.00000000000E+00  0.00000000000E+00  0.84905314840E+00  0.84905697766E+00  0.25500000000E-02 0.  1.
          2   -1    0    0  501    0  0.00000000000E+00 -0.00000000000E+00 -0.24717216113E+04  0.24717216113E+04  0.25500000000E-02 0. -1.
         23    2    1    2    0    0  0.00000000000E+00  0.00000000000E+00 -0.24708725581E+04  0.24725706683E+04  0.91621564093E+02 0.  0.
    9000005    2    3    3    0    0 -0.15973919099E+02 -0.68291653177E+01 -0.23791854663E+04  0.23792522543E+04  0.40003202194E+01 0.  0.
         22    1    3    3    0    0  0.15973919099E+02  0.68291653177E+01 -0.91687091794E+02  0.93318414002E+02  0.00000000000E+00 0.  1.
         22    1    4    4    0    0 -0.20594176313E+01 -0.15116211856E+01 -0.55896114293E+03  0.55896698069E+03  0.00000000000E+00 0.  1.
         22    1    4    4    0    0 -0.13914501467E+02 -0.53175441321E+01 -0.18202243234E+04  0.18202852736E+04  0.00000000000E+00 0.  1.
<mgrwt>
<rscale>  0 0.91621564E+02</rscale>
<asrwt>0</asrwt>
<pdfrwt beam="2">  1        2 0.38025910E+00 0.91621564E+02</pdfrwt>
<pdfrwt beam="1">  1       -2 0.13062583E-03 0.91621564E+02</pdfrwt>
<totfact> 0.14937656E+05</totfact>
</mgrwt>
</event>
<event>
 7    1  0.3480999E-009  0.9043624E+02  0.7818608E-02  0.1301799E+00
         -2   -1    0    0    0  501 -0.00000000000E+00  0.00000000000E+00  0.44314516369E+01  0.44314523706E+01  0.25500000000E-02 0.  1.
          2   -1    0    0  501    0  0.00000000000E+00 -0.00000000000E+00 -0.46140145504E+03  0.46140145505E+03  0.25500000000E-02 0. -1.
         23    2    1    2    0    0  0.00000000000E+00  0.35527136788E-14 -0.45697000341E+03  0.46583290742E+03  0.90436240650E+02 0.  0.
    9000005    2    3    3    0    0  0.32118156672E+02 -0.27543874204E+02 -0.29581179452E+03  0.29921295277E+03  0.15281764891E+02 0.  0.
         22    1    3    3    0    0 -0.32118156672E+02  0.27543874204E+02 -0.16115820889E+03  0.16661995465E+03  0.00000000000E+00 0.  1.
         22    1    4    4    0    0  0.25781424516E+02 -0.14669574825E+02 -0.22628184125E+03  0.22821776871E+03  0.00000000000E+00 0.  1.
         22    1    4    4    0    0  0.63367321559E+01 -0.12874299379E+02 -0.69529953264E+02  0.70995184061E+02  0.00000000000E+00 0.  1.
<mgrwt>
<rscale>  0 0.90436241E+02</rscale>
<asrwt>0</asrwt>
<pdfrwt beam="2">  1        2 0.70984801E-01 0.90436241E+02</pdfrwt>
<pdfrwt beam="1">  1       -2 0.68176221E-03 0.90436241E+02</pdfrwt>
<totfact> 0.21440195E+05</totfact>
</mgrwt>
</event>
<event>
 7    1  0.3480999E-009  0.9755558E+02  0.7818608E-02  0.1285522E+00
         -2   -1    0    0    0  501 -0.00000000000E+00  0.00000000000E+00  0.15980581642E+02  0.15980581845E+02  0.25500000000E-02 0.  1.
          2   -1    0    0  501    0  0.00000000000E+00 -0.00000000000E+00 -0.14888524461E+03  0.14888524463E+03  0.25500000000E-02 0. -1.
         23    2    1    2    0    0  0.00000000000E+00  0.00000000000E+00 -0.13290466297E+03  0.16486582648E+03  0.97555580574E+02 0.  0.
    9000005    2    3    3    0    0  0.38251600014E+02  0.69133103148E+01 -0.19715145186E+02  0.45187734501E+02  0.11927515942E+02 0.  0.
         22    1    3    3    0    0 -0.38251600014E+02 -0.69133103148E+01 -0.11318951778E+03  0.11967809198E+03  0.00000000000E+00 0. -1.
         22    1    4    4    0    0  0.19197651658E+02 -0.48649659392E+00 -0.45486153734E+01  0.19735156699E+02  0.00000000000E+00 0.  1.
         22    1    4    4    0    0  0.19053948356E+02  0.73998069087E+01 -0.15166529813E+02  0.25452577802E+02  0.00000000000E+00 0.  1.
<mgrwt>
<rscale>  0 0.97555581E+02</rscale>
<asrwt>0</asrwt>
<pdfrwt beam="2">  1        2 0.22905421E-01 0.97555581E+02</pdfrwt>
<pdfrwt beam="1">  1       -2 0.24585511E-02 0.97555581E+02</pdfrwt>
<totfact> 0.11595824E+05</totfact>
</mgrwt>
</event>
<event>
 7    1  0.3480999E-009  0.9003962E+02  0.7818608E-02  0.1302756E+00
         -2   -1    0    0    0  501 -0.00000000000E+00  0.00000000000E+00  0.17228598760E+03  0.17228598762E+03  0.25500000000E-02 0.  1.
          2   -1    0    0  501    0  0.00000000000E+00 -0.00000000000E+00 -0.11764062854E+02  0.11764063130E+02  0.25500000000E-02 0. -1.
         23    2    1    2    0    0  0.00000000000E+00  0.00000000000E+00  0.16052192475E+03  0.18405005075E+03  0.90039618261E+02 0.  0.
    9000005    2    3    3    0    0 -0.21040569913E+02 -0.33881075889E+02  0.39306801877E+02  0.56442296683E+02  0.70763899956E+01 0.  0.
         22    1    3    3    0    0  0.21040569913E+02  0.33881075889E+02  0.12121512287E+03  0.12760775407E+03  0.00000000000E+00 0.  1.
         22    1    4    4    0    0 -0.11026663920E+02 -0.11226888248E+02  0.15116184318E+02  0.21820388751E+02  0.00000000000E+00 0. -1.
         22    1    4    4    0    0 -0.10013905994E+02 -0.22654187641E+02  0.24190617559E+02  0.34621907932E+02  0.00000000000E+00 0. -1.
<mgrwt>
<rscale>  0 0.90039618E+02</rscale>
<asrwt>0</asrwt>
<pdfrwt beam="2">  1        2 0.18098559E-02 0.90039618E+02</pdfrwt>
<pdfrwt beam="1">  1       -2 0.26505535E-01 0.90039618E+02</pdfrwt>
<totfact> 0.68432676E+04</totfact>
</mgrwt>
</event>
<event>
 7    1  0.3480999E-009  0.9066635E+02  0.7818608E-02  0.1301246E+00
         -2   -1    0    0    0  501 -0.00000000000E+00  0.00000000000E+00  0.29809969321E+02  0.29809969430E+02  0.25500000000E-02 0.  1.
          2   -1    0    0  501    0  0.00000000000E+00 -0.00000000000E+00 -0.68939916849E+02  0.68939916896E+02  0.25500000000E-02 0. -1.
         23    2    1    2    0    0  0.00000000000E+00  0.00000000000E+00 -0.39129947528E+02  0.98749886326E+02  0.90666351288E+02 0.  0.
    9000005    2    3    3    0    0 -0.20484593841E+02  0.39320516005E+02 -0.20128265077E+02  0.50513121305E+02  0.13442723134E+02 0.  0.
         22    1    3    3    0    0  0.20484593841E+02 -0.39320516005E+02 -0.19001682451E+02  0.48236765021E+02  0.00000000000E+00 0. -1.
         22    1    4    4    0    0 -0.13185998778E+02  0.17356897545E+02 -0.15912454396E+02  0.26987750204E+02  0.00000000000E+00 0.  1.
         22    1    4    4    0    0 -0.72985950633E+01  0.21963618460E+02 -0.42158106811E+01  0.23525371102E+02  0.00000000000E+00 0.  1.
<mgrwt>
<rscale>  0 0.90666351E+02</rscale>
<asrwt>0</asrwt>
<pdfrwt beam="2">  1        2 0.10606141E-01 0.90666351E+02</pdfrwt>
<pdfrwt beam="1">  1       -2 0.45861492E-02 0.90666351E+02</pdfrwt>
<totfact> 0.11189735E+05</totfact>
</mgrwt>
</event>
<event>
 7    1  0.3480999E-009  0.9184298E+02  0.7818608E-02  0.1298449E+00
          2   -1    0    0  501    0  0.00000000000E+00  0.00000000000E+00  0.63658385166E+03  0.63658385167E+03  0.25500000000E-02 0. -1.
         -2   -1    0    0    0  501 -0.00000000000E+00 -0.00000000000E+00 -0.33126554687E+01  0.33126564502E+01  0.25500000000E-02 0.  1.
         23    2    1    2    0    0  0.00000000000E+00 -0.35527136788E-14  0.63327119619E+03  0.63989650812E+03  0.91842981075E+02 0.  0.
    9000005    2    3    3    0    0  0.11007265856E+02 -0.19023928895E+02  0.59750925854E+03  0.59792049167E+03  0.29207092849E+01 0.  0.
         22    1    3    3    0    0 -0.11007265856E+02  0.19023928895E+02  0.35761937648E+02  0.41976016444E+02  0.00000000000E+00 0.  1.
         22    1    4    4    0    0  0.14449739040E+01 -0.17480134960E+01  0.86882391782E+02  0.86911987105E+02  0.00000000000E+00 0. -1.
         22    1    4    4    0    0  0.95622919518E+01 -0.17275915399E+02  0.51062686676E+03  0.51100850457E+03  0.00000000000E+00 0. -1.
<mgrwt>
<rscale>  0 0.91842981E+02</rscale>
<asrwt>0</asrwt>
<pdfrwt beam="1">  1        2 0.97935991E-01 0.91842981E+02</pdfrwt>
<pdfrwt beam="2">  1       -2 0.50963931E-03 0.91842981E+02</pdfrwt>
<totfact> 0.22717375E+05</totfact>
</mgrwt>
</event>
<event>
 7    1  0.3480999E-009  0.9077196E+02  0.7818608E-02  0.1300993E+00
          2   -1    0    0  501    0  0.00000000000E+00  0.00000000000E+00  0.37067533805E+02  0.37067533892E+02  0.25500000000E-02 0. -1.
         -2   -1    0    0    0  501 -0.00000000000E+00 -0.00000000000E+00 -0.55571192395E+02  0.55571192453E+02  0.25500000000E-02 0.  1.
         23    2    1    2    0    0  0.00000000000E+00 -0.35527136788E-14 -0.18503658590E+02  0.92638726346E+02  0.90771957331E+02 0.  0.
    9000005    2    3    3    0    0 -0.29556249673E+02 -0.31294687757E+02 -0.21094463504E+02  0.49515163800E+02  0.12403454319E+02 0.  0.
         22    1    3    3    0    0  0.29556249673E+02  0.31294687757E+02  0.25908049141E+01  0.43123562546E+02  0.00000000000E+00 0. -1.
         22    1    4    4    0    0 -0.88725413758E+00 -0.11545611343E+01  0.15723278252E+01  0.21429993251E+01  0.00000000000E+00 0.  1.
         22    1    4    4    0    0 -0.28668995535E+02 -0.30140126623E+02 -0.22666791329E+02  0.47372164475E+02  0.00000000000E+00 0.  1.
<mgrwt>
<rscale>  0 0.90771957E+02</rscale>
<asrwt>0</asrwt>
<pdfrwt beam="1">  1        2 0.57026975E-02 0.90771957E+02</pdfrwt>
<pdfrwt beam="2">  1       -2 0.85494142E-02 0.90771957E+02</pdfrwt>
<totfact> 0.94744472E+04</totfact>
</mgrwt>
</event>
<event>
 7    1  0.3480999E-009  0.8863662E+02  0.7818608E-02  0.1306187E+00
          2   -1    0    0  501    0  0.00000000000E+00  0.00000000000E+00  0.47557533965E+03  0.47557533966E+03  0.25500000000E-02 0. -1.
         -2   -1    0    0    0  501 -0.00000000000E+00 -0.00000000000E+00 -0.41299714394E+01  0.41299722266E+01  0.25500000000E-02 0.  1.
         23    2    1    2    0    0  0.00000000000E+00  0.00000000000E+00  0.47144536821E+03  0.47970531189E+03  0.88636623593E+02 0.  0.
    9000005    2    3    3    0    0 -0.14372568898E+02 -0.41152435552E+02  0.26669207233E+03  0.27036347215E+03  0.84647469766E+01 0.  0.
         22    1    3    3    0    0  0.14372568898E+02  0.41152435552E+02  0.20475329588E+03  0.20934183974E+03  0.00000000000E+00 0.  1.
         22    1    4    4    0    0 -0.43328059715E+01 -0.21271488009E+02  0.15030183629E+03  0.15186142170E+03  0.00000000000E+00 0. -1.
         22    1    4    4    0    0 -0.10039762927E+02 -0.19880947543E+02  0.11639023604E+03  0.11850205045E+03  0.00000000000E+00 0. -1.
<mgrwt>
<rscale>  0 0.88636624E+02</rscale>
<asrwt>0</asrwt>
<pdfrwt beam="1">  1        2 0.73165415E-01 0.88636624E+02</pdfrwt>
<pdfrwt beam="2">  1       -2 0.63538048E-03 0.88636624E+02</pdfrwt>
<totfact> 0.22840773E+05</totfact>
</mgrwt>
</event>
<event>
 7    1  0.3480999E-009  0.9186426E+02  0.7818608E-02  0.1298399E+00
         -2   -1    0    0    0  501 -0.00000000000E+00  0.00000000000E+00  0.88492289695E+01  0.88492293370E+01  0.25500000000E-02 0.  1.
          2   -1    0    0  501    0  0.00000000000E+00 -0.00000000000E+00 -0.23841179001E+03  0.23841179002E+03  0.25500000000E-02 0. -1.
         23    2    1    2    0    0  0.22204460493E-15  0.00000000000E+00 -0.22956256104E+03  0.24726101936E+03  0.91864259992E+02 0.  0.
    9000005    2    3    3    0    0  0.10483474142E+01  0.19898037934E+02 -0.22590827914E+03  0.22700306482E+03  0.99403172824E+01 0.  0.
         22    1    3    3    0    0 -0.10483474142E+01 -0.19898037934E+02 -0.36542818995E+01  0.20257954540E+02  0.00000000000E+00 0.  1.
         22    1    4    4    0    0 -0.29376449911E+01  0.10511132464E+02 -0.15246430504E+03  0.15285443394E+03  0.00000000000E+00 0.  1.
         22    1    4    4    0    0  0.39859924053E+01  0.93869054705E+01 -0.73443974102E+02  0.74148630881E+02  0.00000000000E+00 0.  1.
<mgrwt>
<rscale>  0 0.91864260E+02</rscale>
<asrwt>0</asrwt>
<pdfrwt beam="2">  1        2 0.36678732E-01 0.91864260E+02</pdfrwt>
<pdfrwt beam="1">  1       -2 0.13614200E-02 0.91864260E+02</pdfrwt>
<totfact> 0.16165046E+05</totfact>
</mgrwt>
</event>
<event>
 7    1  0.3480999E-009  0.5453587E+02  0.7818608E-02  0.1422307E+00
         -2   -1    0    0    0  501 -0.00000000000E+00  0.00000000000E+00  0.63612031193E+02  0.63612031244E+02  0.25500000000E-02 0.  1.
          2   -1    0    0  501    0  0.00000000000E+00 -0.00000000000E+00 -0.11688672503E+02  0.11688672782E+02  0.25500000000E-02 0. -1.
         23    2    1    2    0    0  0.00000000000E+00  0.00000000000E+00  0.51923358689E+02  0.75300704026E+02  0.54535867548E+02 0.  0.
    9000005    2    3    3    0    0  0.17229846212E+02  0.18444273554E+02  0.23054530161E+02  0.36954021144E+02  0.14036719359E+02 0.  0.
         22    1    3    3    0    0 -0.17229846212E+02 -0.18444273554E+02  0.28868828528E+02  0.38346682881E+02  0.00000000000E+00 0. -1.
         22    1    4    4    0    0  0.12007565716E+02  0.63452596223E+01  0.18626716798E+02  0.23052083047E+02  0.00000000000E+00 0. -1.
         22    1    4    4    0    0  0.52222804954E+01  0.12099013932E+02  0.44278133627E+01  0.13901938098E+02  0.00000000000E+00 0. -1.
<mgrwt>
<rscale>  0 0.54535868E+02</rscale>
<asrwt>0</asrwt>
<pdfrwt beam="2">  1        2 0.17982574E-02 0.54535868E+02</pdfrwt>
<pdfrwt beam="1">  1       -2 0.97864662E-02 0.54535868E+02</pdfrwt>
<totfact> 0.31605493E+05</totfact>
</mgrwt>
</event>
<event>
 7    1  0.3480999E-009  0.8797956E+02  0.7818608E-02  0.1307820E+00
          2   -1    0    0  501    0  0.00000000000E+00  0.00000000000E+00  0.79504654923E+03  0.79504654924E+03  0.25500000000E-02 0. -1.
         -2   -1    0    0    0  501 -0.00000000000E+00 -0.00000000000E+00 -0.24339458687E+01  0.24339472045E+01  0.25500000000E-02 0.  1.
         23    2    1    2    0    0  0.00000000000E+00 -0.35527136788E-14  0.79261260337E+03  0.79748049644E+03  0.87979561222E+02 0.  0.
    9000005    2    3    3    0    0  0.34584764140E+02 -0.16980191828E+02  0.57360453761E+03  0.57510926249E+03  0.15622592815E+02 0.  0.
         22    1    3    3    0    0 -0.34584764140E+02  0.16980191828E+02  0.21900806575E+03  0.22237123395E+03  0.00000000000E+00 0. -1.
         22    1    4    4    0    0  0.15122492038E+01  0.16193216021E+01  0.10681575636E+02  0.10908948536E+02  0.00000000000E+00 0.  1.
         22    1    4    4    0    0  0.33072514936E+02 -0.18599513430E+02  0.56292296198E+03  0.56420031395E+03  0.00000000000E+00 0.  1.
<mgrwt>
<rscale>  0 0.87979561E+02</rscale>
<asrwt>0</asrwt>
<pdfrwt beam="1">  1        2 0.12231488E+00 0.87979561E+02</pdfrwt>
<pdfrwt beam="2">  1       -2 0.37445325E-03 0.87979561E+02</pdfrwt>
<totfact> 0.26743925E+05</totfact>
</mgrwt>
</event>
<event>
 7    1  0.3480999E-009  0.9474165E+02  0.7818608E-02  0.1291759E+00
         -2   -1    0    0    0  501 -0.00000000000E+00  0.00000000000E+00  0.20864119795E+01  0.20864135378E+01  0.25500000000E-02 0.  1.
          2   -1    0    0  501    0  0.00000000000E+00 -0.00000000000E+00 -0.10755278270E+04  0.10755278270E+04  0.25500000000E-02 0. -1.
         23    2    1    2    0    0  0.00000000000E+00  0.00000000000E+00 -0.10734414151E+04  0.10776142406E+04  0.94741648368E+02 0.  0.
    9000005    2    3    3    0    0 -0.13108861076E+02  0.20115072941E+02 -0.99995513522E+03  0.10003051743E+04  0.11122542925E+02 0.  0.
         22    1    3    3    0    0  0.13108861076E+02 -0.20115072941E+02 -0.73486279831E+02  0.77309066231E+02  0.00000000000E+00 0.  1.
         22    1    4    4    0    0 -0.34039316691E+01  0.15200989974E+02 -0.57906293347E+03  0.57927242103E+03  0.00000000000E+00 0.  1.
         22    1    4    4    0    0 -0.97049294067E+01  0.49140829665E+01 -0.42089220175E+03  0.42103275331E+03  0.00000000000E+00 0.  1.
<mgrwt>
<rscale>  0 0.94741648E+02</rscale>
<asrwt>0</asrwt>
<pdfrwt beam="2">  1        2 0.16546538E+00 0.94741648E+02</pdfrwt>
<pdfrwt beam="1">  1       -2 0.32098744E-03 0.94741648E+02</pdfrwt>
<totfact> 0.22622762E+05</totfact>
</mgrwt>
</event>
<event>
 7    1  0.3480999E-009  0.9099430E+02  0.7818608E-02  0.1300462E+00
          2   -1    0    0  501    0  0.00000000000E+00  0.00000000000E+00  0.20927380984E+02  0.20927381140E+02  0.25500000000E-02 0. -1.
         -2   -1    0    0    0  501 -0.00000000000E+00 -0.00000000000E+00 -0.98913034782E+02  0.98913034815E+02  0.25500000000E-02 0.  1.
         23    2    1    2    0    0 -0.35527136788E-14  0.00000000000E+00 -0.77985653798E+02  0.11984041595E+03  0.90994302557E+02 0.  0.
    9000005    2    3    3    0    0 -0.19265084929E+02 -0.36852398445E+02 -0.62625148576E+02  0.75509976196E+02  0.71136841717E+01 0.  0.
         22    1    3    3    0    0  0.19265084929E+02  0.36852398445E+02 -0.15360505222E+02  0.44330439759E+02  0.00000000000E+00 0.  1.
         22    1    4    4    0    0 -0.15706751019E+02 -0.33023493804E+02 -0.57798309370E+02  0.68395158723E+02  0.00000000000E+00 0.  1.
         22    1    4    4    0    0 -0.35583339102E+01 -0.38289046410E+01 -0.48268392054E+01  0.71148174734E+01  0.00000000000E+00 0.  1.
<mgrwt>
<rscale>  0 0.90994303E+02</rscale>
<asrwt>0</asrwt>
<pdfrwt beam="1">  1        2 0.32195972E-02 0.90994303E+02</pdfrwt>
<pdfrwt beam="2">  1       -2 0.15217390E-01 0.90994303E+02</pdfrwt>
<totfact> 0.80466691E+04</totfact>
</mgrwt>
</event>
<event>
 7    1  0.3480999E-009  0.9104275E+02  0.7818608E-02  0.1300346E+00
         -2   -1    0    0    0  501 -0.00000000000E+00  0.00000000000E+00  0.90013971900E+00  0.90014333093E+00  0.25500000000E-02 0.  1.
          2   -1    0    0  501    0  0.00000000000E+00 -0.00000000000E+00 -0.23020777526E+04  0.23020777526E+04  0.25500000000E-02 0. -1.
         23    2    1    2    0    0  0.00000000000E+00  0.00000000000E+00 -0.23011776129E+04  0.23029778960E+04  0.91042754398E+02 0.  0.
    9000005    2    3    3    0    0 -0.11785529658E+02 -0.29753584022E+01 -0.22601234958E+04  0.22601621045E+04  0.51740579337E+01 0.  0.
         22    1    3    3    0    0  0.11785529658E+02  0.29753584022E+01 -0.41054117110E+02  0.42815791463E+02  0.00000000000E+00 0.  1.
         22    1    4    4    0    0 -0.11242146474E+02 -0.17874785858E+01 -0.21612802529E+04  0.21613102305E+04  0.00000000000E+00 0.  1.
         22    1    4    4    0    0 -0.54338318359E+00 -0.11878798165E+01 -0.98843242895E+02  0.98851873982E+02  0.00000000000E+00 0.  1.
<mgrwt>
<rscale>  0 0.91042754E+02</rscale>
<asrwt>0</asrwt>
<pdfrwt beam="2">  1        2 0.35416109E+00 0.91042754E+02</pdfrwt>
<pdfrwt beam="1">  1       -2 0.13848515E-03 0.91042754E+02</pdfrwt>
<totfact> 0.16860255E+05</totfact>
</mgrwt>
</event>
<event>
 7    1  0.3480999E-009  0.9203758E+02  0.7818608E-02  0.1297991E+00
         -2   -1    0    0    0  501 -0.00000000000E+00  0.00000000000E+00  0.81894814122E+01  0.81894818092E+01  0.25500000000E-02 0. -1.
          2   -1    0    0  501    0  0.00000000000E+00 -0.00000000000E+00 -0.25859132367E+03  0.25859132369E+03  0.25500000000E-02 0.  1.
         23    2    1    2    0    0  0.00000000000E+00  0.00000000000E+00 -0.25040184226E+03  0.26678080550E+03  0.92037576961E+02 0.  0.
    9000005    2    3    3    0    0  0.21971276963E+02 -0.36415072316E+02 -0.74543412753E+02  0.85852693439E+02  0.22737815838E+01 0.  0.
         22    1    3    3    0    0 -0.21971276963E+02  0.36415072316E+02 -0.17585842951E+03  0.18092811206E+03  0.00000000000E+00 0.  1.
         22    1    4    4    0    0  0.15281756183E+02 -0.25481177148E+02 -0.54132890285E+02  0.61751050772E+02  0.00000000000E+00 0.  1.
         22    1    4    4    0    0  0.66895207792E+01 -0.10933895168E+02 -0.20410522469E+02  0.24101642667E+02  0.00000000000E+00 0.  1.
<mgrwt>
<rscale>  0 0.92037577E+02</rscale>
<asrwt>0</asrwt>
<pdfrwt beam="2">  1        2 0.39783274E-01 0.92037577E+02</pdfrwt>
<pdfrwt beam="1">  1       -2 0.12599204E-02 0.92037577E+02</pdfrwt>
<totfact> 0.16575144E+05</totfact>
</mgrwt>
</event>
<event>
 7    1  0.3480999E-009  0.9125545E+02  0.7818608E-02  0.1299840E+00
         -2   -1    0    0    0  501 -0.00000000000E+00  0.00000000000E+00  0.11647579741E+02  0.11647580020E+02  0.25500000000E-02 0.  1.
          2   -1    0    0  501    0  0.00000000000E+00 -0.00000000000E+00 -0.17874005905E+03  0.17874005906E+03  0.25500000000E-02 0. -1.
         23    2    1    2    0    0  0.00000000000E+00  0.35527136788E-14 -0.16709247930E+03  0.19038763908E+03  0.91255446279E+02 0.  0.
    9000005    2    3    3    0    0 -0.28859991378E+02 -0.27017019702E+02 -0.37881948931E+02  0.55264807499E+02  0.75058934945E+01 0.  0.
         22    1    3    3    0    0  0.28859991378E+02  0.27017019702E+02 -0.12921053037E+03  0.13512283158E+03  0.00000000000E+00 0. -1.
         22    1    4    4    0    0 -0.14256671070E+02 -0.99739849366E+01 -0.20425307043E+02  0.26831440761E+02  0.00000000000E+00 0. -1.
         22    1    4    4    0    0 -0.14603320307E+02 -0.17043034766E+02 -0.17456641888E+02  0.28433366738E+02  0.00000000000E+00 0. -1.
<mgrwt>
<rscale>  0 0.91255446E+02</rscale>
<asrwt>0</asrwt>
<pdfrwt beam="2">  1        2 0.27498469E-01 0.91255446E+02</pdfrwt>
<pdfrwt beam="1">  1       -2 0.17919355E-02 0.91255446E+02</pdfrwt>
<totfact> 0.14823010E+05</totfact>
</mgrwt>
</event>
<event>
 7    1  0.3480999E-009  0.8967158E+02  0.7818608E-02  0.1303649E+00
          2   -1    0    0  501    0  0.00000000000E+00  0.00000000000E+00  0.52521425788E+02  0.52521425850E+02  0.25500000000E-02 0. -1.
         -2   -1    0    0    0  501 -0.00000000000E+00 -0.00000000000E+00 -0.38274821288E+02  0.38274821373E+02  0.25500000000E-02 0.  1.
         23    2    1    2    0    0  0.00000000000E+00  0.00000000000E+00  0.14246604500E+02  0.90796247224E+02  0.89671582846E+02 0.  0.
    9000005    2    3    3    0    0 -0.18239775241E+02  0.30341081918E+02 -0.18916416586E+02  0.42287932262E+02  0.13310437473E+02 0.  0.
         22    1    3    3    0    0  0.18239775241E+02 -0.30341081918E+02  0.33163021086E+02  0.48508314961E+02  0.00000000000E+00 0. -1.
         22    1    4    4    0    0 -0.64117867177E+01  0.13903899554E+02 -0.11596191426E+01  0.15354938889E+02  0.00000000000E+00 0. -1.
         22    1    4    4    0    0 -0.11827988524E+02  0.16437182364E+02 -0.17756797444E+02  0.26932993373E+02  0.00000000000E+00 0. -1.
<mgrwt>
<rscale>  0 0.89671583E+02</rscale>
<asrwt>0</asrwt>
<pdfrwt beam="1">  1        2 0.80802194E-02 0.89671583E+02</pdfrwt>
<pdfrwt beam="2">  1       -2 0.58884340E-02 0.89671583E+02</pdfrwt>
<totfact> 0.10733913E+05</totfact>
</mgrwt>
</event>
<event>
 7    1  0.3480999E-009  0.1001879E+03  0.7818608E-02  0.1279901E+00
         -2   -1    0    0    0  501 -0.00000000000E+00  0.00000000000E+00  0.35077215496E+01  0.35077224765E+01  0.25500000000E-02 0.  1.
          2   -1    0    0  501    0  0.00000000000E+00 -0.00000000000E+00 -0.71539372368E+03  0.71539372369E+03  0.25500000000E-02 0. -1.
         23    2    1    2    0    0  0.00000000000E+00 -0.17763568394E-14 -0.71188600213E+03  0.71890144616E+03  0.10018786984E+03 0.  0.
    9000005    2    3    3    0    0 -0.44037698177E+02 -0.11778953336E+02 -0.49936876869E+03  0.50155003229E+03  0.10256955942E+02 0.  0.
         22    1    3    3    0    0  0.44037698177E+02  0.11778953336E+02 -0.21251723344E+03  0.21735141387E+03  0.00000000000E+00 0.  1.
         22    1    4    4    0    0 -0.52624324194E+01  0.18097164993E+01 -0.51049387405E+02  0.51351808373E+02  0.00000000000E+00 0. -1.
         22    1    4    4    0    0 -0.38775265758E+02 -0.13588669835E+02 -0.44831938129E+03  0.45019822392E+03  0.00000000000E+00 0. -1.
<mgrwt>
<rscale>  0 0.10018787E+03</rscale>
<asrwt>0</asrwt>
<pdfrwt beam="2">  1        2 0.11006046E+00 0.10018787E+03</pdfrwt>
<pdfrwt beam="1">  1       -2 0.53965011E-03 0.10018787E+03</pdfrwt>
<totfact> 0.18565028E+05</totfact>
</mgrwt>
</event>
<event>
 7    1  0.3480999E-009  0.9148424E+02  0.7818608E-02  0.1299297E+00
         -2   -1    0    0    0  501 -0.00000000000E+00  0.00000000000E+00  0.60678570639E+02  0.60678570693E+02  0.25500000000E-02 0.  1.
          2   -1    0    0  501    0  0.00000000000E+00 -0.00000000000E+00 -0.34482382917E+02  0.34482383011E+02  0.25500000000E-02 0. -1.
         23    2    1    2    0    0  0.00000000000E+00  0.00000000000E+00  0.26196187722E+02  0.95160953704E+02  0.91484243773E+02 0.  0.
    9000005    2    3    3    0    0 -0.24429351605E+02  0.33630455586E+02 -0.48519876646E+01  0.43278490794E+02  0.11031102317E+02 0.  0.
         22    1    3    3    0    0  0.24429351605E+02 -0.33630455586E+02  0.31048175387E+02  0.51882462910E+02  0.00000000000E+00 0. -1.
         22    1    4    4    0    0 -0.32185079653E+01  0.24989214154E+01  0.26601565648E+01  0.48661930410E+01  0.00000000000E+00 0. -1.
         22    1    4    4    0    0 -0.21210843640E+02  0.31131534171E+02 -0.75121442294E+01  0.38412297753E+02  0.00000000000E+00 0. -1.
<mgrwt>
<rscale>  0 0.91484244E+02</rscale>
<asrwt>0</asrwt>
<pdfrwt beam="2">  1        2 0.53049821E-02 0.91484244E+02</pdfrwt>
<pdfrwt beam="1">  1       -2 0.93351646E-02 0.91484244E+02</pdfrwt>
<totfact> 0.90877060E+04</totfact>
</mgrwt>
</event>
<event>
 7    1  0.3480999E-009  0.9277840E+02  0.7818608E-02  0.1296260E+00
          2   -1    0    0  501    0  0.00000000000E+00  0.00000000000E+00  0.11550916869E+03  0.11550916871E+03  0.25500000000E-02 0. -1.
         -2   -1    0    0    0  501 -0.00000000000E+00 -0.00000000000E+00 -0.18630189686E+02  0.18630189861E+02  0.25500000000E-02 0.  1.
         23    2    1    2    0    0  0.17763568394E-14  0.00000000000E+00  0.96878979000E+02  0.13413935857E+03  0.92778396984E+02 0.  0.
    9000005    2    3    3    0    0  0.13273852305E+02 -0.43067518697E+02  0.55924383169E+02  0.73243667090E+02  0.14355898239E+02 0.  0.
         22    1    3    3    0    0 -0.13273852305E+02  0.43067518697E+02  0.40954595831E+02  0.60895691485E+02  0.00000000000E+00 0.  1.
         22    1    4    4    0    0  0.20166030510E+01 -0.77403765273E+01  0.20327149846E+02  0.21844293019E+02  0.00000000000E+00 0. -1.
         22    1    4    4    0    0  0.11257249254E+02 -0.35327142169E+02  0.35597233323E+02  0.51399374071E+02  0.00000000000E+00 0. -1.
<mgrwt>
<rscale>  0 0.92778397E+02</rscale>
<asrwt>0</asrwt>
<pdfrwt beam="1">  1        2 0.17770642E-01 0.92778397E+02</pdfrwt>
<pdfrwt beam="2">  1       -2 0.28661830E-02 0.92778397E+02</pdfrwt>
<totfact> 0.12231126E+05</totfact>
</mgrwt>
</event>
<event>
 7    1  0.3480999E-009  0.9631019E+02  0.7818608E-02  0.1288252E+00
          2   -1    0    0  501    0  0.00000000000E+00  0.00000000000E+00  0.39669236780E+02  0.39669236862E+02  0.25500000000E-02 0. -1.
         -2   -1    0    0    0  501 -0.00000000000E+00 -0.00000000000E+00 -0.58456206212E+02  0.58456206268E+02  0.25500000000E-02 0.  1.
         23    2    1    2    0    0  0.00000000000E+00  0.00000000000E+00 -0.18786969432E+02  0.98125443130E+02  0.96310188293E+02 0.  0.
    9000005    2    3    3    0    0  0.11779505477E+02  0.39776232601E+01 -0.56417898476E+02  0.58493826247E+02  0.91635257642E+01 0.  0.
         22    1    3    3    0    0 -0.11779505477E+02 -0.39776232601E+01  0.37630929044E+02  0.39631616884E+02  0.00000000000E+00 0. -1.
         22    1    4    4    0    0  0.44263828939E+01 -0.25705324834E+01 -0.26732020949E+02  0.27217667917E+02  0.00000000000E+00 0.  1.
         22    1    4    4    0    0  0.73531225835E+01  0.65481557435E+01 -0.29685877526E+02  0.31276158330E+02  0.00000000000E+00 0.  1.
<mgrwt>
<rscale>  0 0.96310188E+02</rscale>
<asrwt>0</asrwt>
<pdfrwt beam="1">  1        2 0.61029595E-02 0.96310188E+02</pdfrwt>
<pdfrwt beam="2">  1       -2 0.89932625E-02 0.96310188E+02</pdfrwt>
<totfact> 0.81121719E+04</totfact>
</mgrwt>
</event>
<event>
 7    1  0.3480999E-009  0.9121609E+02  0.7818608E-02  0.1299933E+00
         -2   -1    0    0    0  501 -0.00000000000E+00  0.00000000000E+00  0.89458425464E+02  0.89458425501E+02  0.25500000000E-02 0.  1.
          2   -1    0    0  501    0  0.00000000000E+00 -0.00000000000E+00 -0.23252071523E+02  0.23252071663E+02  0.25500000000E-02 0. -1.
         23    2    1    2    0    0  0.00000000000E+00  0.00000000000E+00  0.66206353941E+02  0.11271049716E+03  0.91216088870E+02 0.  0.
    9000005    2    3    3    0    0  0.13723976536E+02 -0.24055672892E+02 -0.10480769905E+02  0.31175609575E+02  0.97493160958E+01 0.  0.
         22    1    3    3    0    0 -0.13723976536E+02  0.24055672892E+02  0.76687123846E+02  0.81534887588E+02  0.00000000000E+00 0.  1.
         22    1    4    4    0    0  0.85460811216E+01 -0.10911651760E+02 -0.48259090723E+00  0.13868400797E+02  0.00000000000E+00 0.  1.
         22    1    4    4    0    0  0.51778954144E+01 -0.13144021132E+02 -0.99981789974E+01  0.17307208779E+02  0.00000000000E+00 0.  1.
<mgrwt>
<rscale>  0 0.91216089E+02</rscale>
<asrwt>0</asrwt>
<pdfrwt beam="2">  1        2 0.35772418E-02 0.91216089E+02</pdfrwt>
<pdfrwt beam="1">  1       -2 0.13762835E-01 0.91216089E+02</pdfrwt>
<totfact> 0.82359202E+04</totfact>
</mgrwt>
</event>
<event>
 7    1  0.3480999E-009  0.9345732E+02  0.7818608E-02  0.1294689E+00
         -2   -1    0    0    0  501 -0.00000000000E+00  0.00000000000E+00  0.26269163798E+03  0.26269163799E+03  0.25500000000E-02 0.  1.
          2   -1    0    0  501    0  0.00000000000E+00 -0.00000000000E+00 -0.83122847983E+01  0.83122851894E+01  0.25500000000E-02 0. -1.
         23    2    1    2    0    0 -0.71054273576E-14  0.00000000000E+00  0.25437935318E+03  0.27100392318E+03  0.93457322103E+02 0.  0.
    9000005    2    3    3    0    0 -0.32961495403E+02  0.23845755298E+02  0.19279700477E+03  0.19719697323E+03  0.78026263885E+01 0.  0.
         22    1    3    3    0    0  0.32961495403E+02 -0.23845755298E+02  0.61582348408E+02  0.73806949946E+02  0.00000000000E+00 0. -1.
         22    1    4    4    0    0 -0.44622048746E+00  0.19678480255E+01  0.14782214257E+02  0.14919296126E+02  0.00000000000E+00 0.  1.
         22    1    4    4    0    0 -0.32515274915E+02  0.21877907273E+02  0.17801479051E+03  0.18227767711E+03  0.00000000000E+00 0.  1.
<mgrwt>
<rscale>  0 0.93457322E+02</rscale>
<asrwt>0</asrwt>
<pdfrwt beam="2">  1        2 0.12788129E-02 0.93457322E+02</pdfrwt>
<pdfrwt beam="1">  1       -2 0.40414103E-01 0.93457322E+02</pdfrwt>
<totfact> 0.51410397E+04</totfact>
</mgrwt>
</event>
<event>
 7    1  0.3480999E-009  0.9052534E+02  0.7818608E-02  0.1301584E+00
         -2   -1    0    0    0  501 -0.00000000000E+00  0.00000000000E+00  0.11198312341E+01  0.11198341374E+01  0.25500000000E-02 0. -1.
          2   -1    0    0  501    0  0.00000000000E+00 -0.00000000000E+00 -0.18294781638E+04  0.18294781638E+04  0.25500000000E-02 0.  1.
         23    2    1    2    0    0  0.00000000000E+00 -0.44408920985E-15 -0.18283583326E+04  0.18305979979E+04  0.90525343390E+02 0.  0.
    9000005    2    3    3    0    0  0.19344451690E+02 -0.38730420891E+01 -0.17349556587E+04  0.17351345612E+04  0.15218396564E+02 0.  0.
         22    1    3    3    0    0 -0.19344451690E+02  0.38730420891E+01 -0.93402673841E+02  0.95463436701E+02  0.00000000000E+00 0. -1.
         22    1    4    4    0    0 -0.25000028327E+01  0.41648471044E+00 -0.13202727475E+03  0.13205159882E+03  0.00000000000E+00 0. -1.
         22    1    4    4    0    0  0.21844454523E+02 -0.42895267995E+01 -0.16029283840E+04  0.16030829624E+04  0.00000000000E+00 0. -1.
<mgrwt>
<rscale>  0 0.90525343E+02</rscale>
<asrwt>0</asrwt>
<pdfrwt beam="2">  1        2 0.28145579E+00 0.90525343E+02</pdfrwt>
<pdfrwt beam="1">  1       -2 0.17228342E-03 0.90525343E+02</pdfrwt>
<totfact> 0.21591901E+05</totfact>
</mgrwt>
</event>
<event>
 7    1  0.3480999E-009  0.9210994E+02  0.7818608E-02  0.1297821E+00
          2   -1    0    0  501    0  0.00000000000E+00  0.00000000000E+00  0.59544363083E+03  0.59544363084E+03  0.25500000000E-02 0. -1.
         -2   -1    0    0    0  501 -0.00000000000E+00 -0.00000000000E+00 -0.35621506050E+01  0.35621515177E+01  0.25500000000E-02 0.  1.
         23    2    1    2    0    0  0.00000000000E+00  0.00000000000E+00  0.59188148023E+03  0.59900578236E+03  0.92109937896E+02 0.  0.
    9000005    2    3    3    0    0  0.25371361231E+02 -0.33226931157E+02  0.41553853344E+03  0.41777507357E+03  0.10770533832E+02 0.  0.
         22    1    3    3    0    0 -0.25371361231E+02  0.33226931157E+02  0.17634294679E+03  0.18123070878E+03  0.00000000000E+00 0.  1.
         22    1    4    4    0    0  0.23506780126E+02 -0.24958845592E+02  0.35381709916E+03  0.35547440463E+03  0.00000000000E+00 0.  1.
         22    1    4    4    0    0  0.18645811051E+01 -0.82680855650E+01  0.61721434281E+02  0.62300668948E+02  0.00000000000E+00 0.  1.
<mgrwt>
<rscale>  0 0.92109938E+02</rscale>
<asrwt>0</asrwt>
<pdfrwt beam="1">  1        2 0.91606651E-01 0.92109938E+02</pdfrwt>
<pdfrwt beam="2">  1       -2 0.54802361E-03 0.92109938E+02</pdfrwt>
<totfact> 0.22131768E+05</totfact>
</mgrwt>
</event>
<event>
 7    1  0.3480999E-009  0.9060860E+02  0.7818608E-02  0.1301385E+00
         -2   -1    0    0    0  501 -0.00000000000E+00  0.00000000000E+00  0.14651445225E+03  0.14651445227E+03  0.25500000000E-02 0.  1.
          2   -1    0    0  501    0  0.00000000000E+00 -0.00000000000E+00 -0.14008716042E+02  0.14008716274E+02  0.25500000000E-02 0. -1.
         23    2    1    2    0    0  0.00000000000E+00  0.00000000000E+00  0.13250573621E+03  0.16052316855E+03  0.90608595135E+02 0.  0.
    9000005    2    3    3    0    0  0.21700303190E+02  0.17826759612E+02  0.12841166688E+03  0.13214257799E+03  0.13542828721E+02 0.  0.
         22    1    3    3    0    0 -0.21700303190E+02 -0.17826759612E+02  0.40940693283E+01  0.28380590558E+02  0.00000000000E+00 0. -1.
         22    1    4    4    0    0  0.22972354318E+02  0.16901877092E+02  0.10907297950E+03  0.11274004333E+03  0.00000000000E+00 0. -1.
         22    1    4    4    0    0 -0.12720511287E+01  0.92488251993E+00  0.19338687378E+02  0.19402534660E+02  0.00000000000E+00 0. -1.
<mgrwt>
<rscale>  0 0.90608595E+02</rscale>
<asrwt>0</asrwt>
<pdfrwt beam="2">  1        2 0.21551871E-02 0.90608595E+02</pdfrwt>
<pdfrwt beam="1">  1       -2 0.22540685E-01 0.90608595E+02</pdfrwt>
<totfact> 0.71575584E+04</totfact>
</mgrwt>
</event>
<event>
 7    1  0.3480999E-009  0.9579233E+02  0.7818608E-02  0.1289401E+00
          2   -1    0    0  501    0  0.00000000000E+00  0.00000000000E+00  0.34698192729E+02  0.34698192822E+02  0.25500000000E-02 0. -1.
         -2   -1    0    0    0  501 -0.00000000000E+00 -0.00000000000E+00 -0.66114187591E+02  0.66114187640E+02  0.25500000000E-02 0.  1.
         23    2    1    2    0    0  0.17763568394E-14 -0.35527136788E-14 -0.31415994862E+02  0.10081238046E+03  0.95792334355E+02 0.  0.
    9000005    2    3    3    0    0  0.15129176343E+02 -0.21281135458E+02  0.25760071892E+02  0.37956344056E+02  0.97634034523E+01 0.  0.
         22    1    3    3    0    0 -0.15129176343E+02  0.21281135458E+02 -0.57176066754E+02  0.62856036406E+02  0.00000000000E+00 0.  1.
         22    1    4    4    0    0 -0.12972987679E+01 -0.61295233995E+00  0.18191161278E+01  0.23168681772E+01  0.00000000000E+00 0.  1.
         22    1    4    4    0    0  0.16426475111E+02 -0.20668183118E+02  0.23940955764E+02  0.35639475879E+02  0.00000000000E+00 0.  1.
<mgrwt>
<rscale>  0 0.95792334E+02</rscale>
<asrwt>0</asrwt>
<pdfrwt beam="1">  1        2 0.53381835E-02 0.95792334E+02</pdfrwt>
<pdfrwt beam="2">  1       -2 0.10171413E-01 0.95792334E+02</pdfrwt>
<totfact> 0.79467912E+04</totfact>
</mgrwt>
</event>
<event>
 7    1  0.3480999E-009  0.9302542E+02  0.7818608E-02  0.1295686E+00
          2   -1    0    0  501    0  0.00000000000E+00  0.00000000000E+00  0.62283927932E+02  0.62283927984E+02  0.25500000000E-02 0. -1.
         -2   -1    0    0    0  501 -0.00000000000E+00 -0.00000000000E+00 -0.34735002748E+02  0.34735002841E+02  0.25500000000E-02 0.  1.
         23    2    1    2    0    0  0.71054273576E-14 -0.11102230246E-15  0.27548925184E+02  0.97018930826E+02  0.93025424803E+02 0.  0.
    9000005    2    3    3    0    0  0.44162993828E+02 -0.65747126334E+00  0.26291687655E+02  0.52833153267E+02  0.12218303978E+02 0.  0.
         22    1    3    3    0    0 -0.44162993828E+02  0.65747126334E+00  0.12572375294E+01  0.44185777559E+02  0.00000000000E+00 0.  1.
         22    1    4    4    0    0  0.61692481693E+01  0.16107392933E+01  0.89957607891E+01  0.11026233093E+02  0.00000000000E+00 0.  1.
         22    1    4    4    0    0  0.37993745658E+02 -0.22682105566E+01  0.17295926866E+02  0.41806920174E+02  0.00000000000E+00 0.  1.
<mgrwt>
<rscale>  0 0.93025425E+02</rscale>
<asrwt>0</asrwt>
<pdfrwt beam="1">  1        2 0.95821427E-02 0.93025425E+02</pdfrwt>
<pdfrwt beam="2">  1       -2 0.53438466E-02 0.93025425E+02</pdfrwt>
<totfact> 0.10124051E+05</totfact>
</mgrwt>
</event>
<event>
 7    1  0.3480999E-009  0.8057837E+02  0.7818608E-02  0.1327418E+00
         -2   -1    0    0    0  501 -0.00000000000E+00  0.00000000000E+00  0.16262452573E+02  0.16262452773E+02  0.25500000000E-02 0.  1.
          2   -1    0    0  501    0  0.00000000000E+00 -0.00000000000E+00 -0.99813876500E+02  0.99813876533E+02  0.25500000000E-02 0. -1.
         23    2    1    2    0    0  0.00000000000E+00  0.00000000000E+00 -0.83551423927E+02  0.11607632931E+03  0.80578370454E+02 0.  0.
    9000005    2    3    3    0    0  0.15180730087E+02 -0.33921120487E+02 -0.60308657210E+02  0.72243428584E+02  0.14173279723E+02 0.  0.
         22    1    3    3    0    0 -0.15180730087E+02  0.33921120487E+02 -0.23242766717E+02  0.43832900722E+02  0.00000000000E+00 0.  1.
         22    1    4    4    0    0  0.12948337496E+02 -0.11782046167E+02 -0.25531911689E+02  0.30957302374E+02  0.00000000000E+00 0. -1.
         22    1    4    4    0    0  0.22323925908E+01 -0.22139074320E+02 -0.34776745521E+02  0.41286126210E+02  0.00000000000E+00 0. -1.
<mgrwt>
<rscale>  0 0.80578370E+02</rscale>
<asrwt>0</asrwt>
<pdfrwt beam="2">  1        2 0.15355981E-01 0.80578370E+02</pdfrwt>
<pdfrwt beam="1">  1       -2 0.25019159E-02 0.80578370E+02</pdfrwt>
<totfact> 0.17173456E+05</totfact>
</mgrwt>
</event>
<event>
 7    1  0.3480999E-009  0.9045607E+02  0.7818608E-02  0.1301751E+00
          2   -1    0    0  501    0  0.00000000000E+00  0.00000000000E+00  0.16699672131E+03  0.16699672133E+03  0.25500000000E-02 0.  1.
         -2   -1    0    0    0  501 -0.00000000000E+00 -0.00000000000E+00 -0.12249194655E+02  0.12249194921E+02  0.25500000000E-02 0. -1.
         23    2    1    2    0    0  0.00000000000E+00  0.00000000000E+00  0.15474752665E+03  0.17924591625E+03  0.90456074901E+02 0.  0.
    9000005    2    3    3    0    0  0.30127079209E+02  0.21518323877E+02  0.12781786251E+03  0.13346506900E+03  0.10239116269E+02 0.  0.
         22    1    3    3    0    0 -0.30127079209E+02 -0.21518323877E+02  0.26929664144E+02  0.45780847251E+02  0.00000000000E+00 0.  1.
         22    1    4    4    0    0  0.54133632291E+01  0.14760369633E+00  0.12841305689E+02  0.13936478038E+02  0.00000000000E+00 0.  1.
         22    1    4    4    0    0  0.24713715979E+02  0.21370720180E+02  0.11497655682E+03  0.11952859096E+03  0.00000000000E+00 0.  1.
<mgrwt>
<rscale>  0 0.90456075E+02</rscale>
<asrwt>0</asrwt>
<pdfrwt beam="1">  1        2 0.25691802E-01 0.90456075E+02</pdfrwt>
<pdfrwt beam="2">  1       -2 0.18844916E-02 0.90456075E+02</pdfrwt>
<totfact> 0.14821856E+05</totfact>
</mgrwt>
</event>
<event>
 7    1  0.3480999E-009  0.9400753E+02  0.7818608E-02  0.1293427E+00
          2   -1    0    0  501    0  0.00000000000E+00  0.00000000000E+00  0.92580208834E+01  0.92580212346E+01  0.25500000000E-02 0. -1.
         -2   -1    0    0    0  501 -0.00000000000E+00 -0.00000000000E+00 -0.23864214141E+03  0.23864214143E+03  0.25500000000E-02 0.  1.
         23    2    1    2    0    0  0.00000000000E+00  0.00000000000E+00 -0.22938412053E+03  0.24790016266E+03  0.94007531061E+02 0.  0.
    9000005    2    3    3    0    0 -0.41906077769E+02  0.17103889496E+02 -0.13423100674E+03  0.14253044475E+03  0.15757605111E+02 0.  0.
         22    1    3    3    0    0  0.41906077769E+02 -0.17103889496E+02 -0.95153113784E+02  0.10536971791E+03  0.00000000000E+00 0. -1.
         22    1    4    4    0    0 -0.17414402029E+02  0.10369278394E+02 -0.38773112770E+02  0.43750858349E+02  0.00000000000E+00 0.  1.
         22    1    4    4    0    0 -0.24491675740E+02  0.67346111026E+01 -0.95457893974E+02  0.98779586400E+02  0.00000000000E+00 0.  1.
<mgrwt>
<rscale>  0 0.94007531E+02</rscale>
<asrwt>0</asrwt>
<pdfrwt beam="1">  1        2 0.14243111E-02 0.94007531E+02</pdfrwt>
<pdfrwt beam="2">  1       -2 0.36714171E-01 0.94007531E+02</pdfrwt>
<totfact> 0.53136685E+04</totfact>
</mgrwt>
</event>
<event>
 7    1  0.3480999E-009  0.8987802E+02  0.7818608E-02  0.1303147E+00
          2   -1    0    0  501    0  0.00000000000E+00  0.00000000000E+00  0.16410742527E+04  0.16410742527E+04  0.25500000000E-02 0. -1.
         -2   -1    0    0    0  501 -0.00000000000E+00 -0.00000000000E+00 -0.12306039276E+01  0.12306065696E+01  0.25500000000E-02 0.  1.
         23    2    1    2    0    0 -0.17763568394E-14  0.83266726847E-16  0.16398436488E+04  0.16423048593E+04  0.89878019380E+02 0.  0.
    9000005    2    3    3    0    0  0.15840891237E+02 -0.22646969566E+00  0.15867483831E+04  0.15868964451E+04  0.14795644342E+02 0.  0.
         22    1    3    3    0    0 -0.15840891237E+02  0.22646969566E+00  0.53095265678E+02  0.55408414173E+02  0.00000000000E+00 0.  1.
         22    1    4    4    0    0  0.15230349593E+02  0.22046205709E+01  0.82251080808E+03  0.82265475949E+03  0.00000000000E+00 0.  1.
         22    1    4    4    0    0  0.61054164390E+00 -0.24310902665E+01  0.76423757502E+03  0.76424168561E+03  0.00000000000E+00 0.  1.
<mgrwt>
<rscale>  0 0.89878019E+02</rscale>
<asrwt>0</asrwt>
<pdfrwt beam="1">  1        2 0.25247369E+00 0.89878019E+02</pdfrwt>
<pdfrwt beam="2">  1       -2 0.18932334E-03 0.89878019E+02</pdfrwt>
<totfact> 0.23539458E+05</totfact>
</mgrwt>
</event>
<event>
 7    1  0.3480999E-009  0.9287016E+02  0.7818608E-02  0.1296046E+00
         -2   -1    0    0    0  501 -0.00000000000E+00  0.00000000000E+00  0.10303606230E+01  0.10303637784E+01  0.25500000000E-02 0.  1.
          2   -1    0    0  501    0  0.00000000000E+00 -0.00000000000E+00 -0.20926784963E+04  0.20926784963E+04  0.25500000000E-02 0. -1.
         23    2    1    2    0    0  0.00000000000E+00 -0.22204460493E-15 -0.20916481356E+04  0.20937088600E+04  0.92870163647E+02 0.  0.
    9000005    2    3    3    0    0  0.12902607838E+02 -0.16342951515E+01 -0.20495947026E+04  0.20496902340E+04  0.14915165109E+02 0.  0.
         22    1    3    3    0    0 -0.12902607838E+02  0.16342951515E+01 -0.42053433018E+02  0.44018626038E+02  0.00000000000E+00 0.  1.
         22    1    4    4    0    0  0.12853115602E+02 -0.12527545041E+00 -0.87354840588E+03  0.87364296809E+03  0.00000000000E+00 0. -1.
         22    1    4    4    0    0  0.49492235374E-01 -0.15090197011E+01 -0.11760462967E+04  0.11760472659E+04  0.00000000000E+00 0. -1.
<mgrwt>
<rscale>  0 0.92870164E+02</rscale>
<asrwt>0</asrwt>
<pdfrwt beam="2">  1        2 0.32194714E+00 0.92870164E+02</pdfrwt>
<pdfrwt beam="1">  1       -2 0.15851894E-03 0.92870164E+02</pdfrwt>
<totfact> 0.17922330E+05</totfact>
</mgrwt>
</event>
<event>
 7    1  0.4308055E-009  0.8957153E+02  0.7818608E-02  0.1303893E+00
          2   -1    0    0  501    0  0.00000000000E+00  0.00000000000E+00  0.11434459379E+03  0.11434459382E+03  0.25500000000E-02 0. -1.
         -2   -1    0    0    0  501 -0.00000000000E+00 -0.00000000000E+00 -0.17541406023E+02  0.17541406208E+02  0.25500000000E-02 0.  1.
         23    2    1    2    0    0  0.00000000000E+00  0.00000000000E+00  0.96803187771E+02  0.13188600003E+03  0.89571534772E+02 0.  0.
    9000005    2    3    3    0    0  0.15794662914E+02 -0.21327825714E+01  0.10936689217E+03  0.11159149816E+03  0.15411853236E+02 0.  0.
         22    1    3    3    0    0 -0.15794662914E+02  0.21327825714E+01 -0.12563704398E+02  0.20294501873E+02  0.00000000000E+00 0.  1.
         22    1    4    4    0    0  0.18305503271E+02  0.51680050265E+00  0.84793352904E+02  0.86748321191E+02  0.00000000000E+00 0.  1.
         22    1    4    4    0    0 -0.25108403564E+01 -0.26495830741E+01  0.24573539265E+02  0.24843176966E+02  0.00000000000E+00 0.  1.
<mgrwt>
<rscale>  0 0.89571535E+02</rscale>
<asrwt>0</asrwt>
<pdfrwt beam="1">  1        2 0.17591476E-01 0.89571535E+02</pdfrwt>
<pdfrwt beam="2">  1       -2 0.26986779E-02 0.89571535E+02</pdfrwt>
<totfact> 0.13424741E+05</totfact>
</mgrwt>
</event>
<event>
 7    1  0.3480999E-009  0.9496301E+02  0.7818608E-02  0.1291259E+00
         -2   -1    0    0    0  501 -0.00000000000E+00  0.00000000000E+00  0.12706023707E+03  0.12706023709E+03  0.25500000000E-02 0.  1.
          2   -1    0    0  501    0  0.00000000000E+00 -0.00000000000E+00 -0.17743498102E+02  0.17743498285E+02  0.25500000000E-02 0. -1.
         23    2    1    2    0    0  0.00000000000E+00  0.00000000000E+00  0.10931673897E+03  0.14480373538E+03  0.94963005225E+02 0.  0.
    9000005    2    3    3    0    0 -0.32997347887E+02 -0.26677940401E+02  0.83825359996E+02  0.95302746768E+02  0.15980772554E+02 0.  0.
         22    1    3    3    0    0  0.32997347887E+02  0.26677940401E+02  0.25491378970E+02  0.49500988610E+02  0.00000000000E+00 0. -1.
         22    1    4    4    0    0 -0.21566792009E+02 -0.73456510717E+01  0.45376695860E+02  0.50775285665E+02  0.00000000000E+00 0.  1.
         22    1    4    4    0    0 -0.11430555878E+02 -0.19332289329E+02  0.38448664137E+02  0.44527461103E+02  0.00000000000E+00 0.  1.
<mgrwt>
<rscale>  0 0.94963005E+02</rscale>
<asrwt>0</asrwt>
<pdfrwt beam="2">  1        2 0.27297690E-02 0.94963005E+02</pdfrwt>
<pdfrwt beam="1">  1       -2 0.19547728E-01 0.94963005E+02</pdfrwt>
<totfact> 0.66807355E+04</totfact>
</mgrwt>
</event>
<event>
 7    1  0.3480999E-009  0.9195957E+02  0.7818608E-02  0.1298175E+00
          2   -1    0    0  501    0  0.00000000000E+00  0.00000000000E+00  0.20483502500E+02  0.20483502659E+02  0.25500000000E-02 0. -1.
         -2   -1    0    0    0  501 -0.00000000000E+00 -0.00000000000E+00 -0.10321186770E+03  0.10321186773E+03  0.25500000000E-02 0.  1.
         23    2    1    2    0    0  0.11102230246E-15  0.35527136788E-14 -0.82728365198E+02  0.12369537039E+03  0.91959568547E+02 0.  0.
    9000005    2    3    3    0    0 -0.60597991324E+00 -0.17570125976E+02 -0.98109622907E+02  0.10033601194E+03  0.11521312719E+02 0.  0.
         22    1    3    3    0    0  0.60597991324E+00  0.17570125976E+02  0.15381257708E+02  0.23359358449E+02  0.00000000000E+00 0. -1.
         22    1    4    4    0    0 -0.97021094224E+00 -0.17432280234E+02 -0.98343807188E+02  0.99881580462E+02  0.00000000000E+00 0.  1.
         22    1    4    4    0    0  0.36423102900E+00 -0.13784574166E+00  0.23418428110E+00  0.45443147832E+00  0.00000000000E+00 0.  1.
<mgrwt>
<rscale>  0 0.91959569E+02</rscale>
<asrwt>0</asrwt>
<pdfrwt beam="1">  1        2 0.31513082E-02 0.91959569E+02</pdfrwt>
<pdfrwt beam="2">  1       -2 0.15878749E-01 0.91959569E+02</pdfrwt>
<totfact> 0.77384307E+04</totfact>
</mgrwt>
</event>
<event>
 7    1  0.3480999E-009  0.8627218E+02  0.7818608E-02  0.1312139E+00
          2   -1    0    0  501    0  0.00000000000E+00  0.00000000000E+00  0.45504745706E+03  0.45504745707E+03  0.25500000000E-02 0. -1.
         -2   -1    0    0    0  501 -0.00000000000E+00 -0.00000000000E+00 -0.40890721161E+01  0.40890729112E+01  0.25500000000E-02 0.  1.
         23    2    1    2    0    0  0.00000000000E+00  0.00000000000E+00  0.45095838494E+03  0.45913652998E+03  0.86272175174E+02 0.  0.
    9000005    2    3    3    0    0 -0.33709327168E+02  0.26895903937E+02  0.22622562523E+03  0.23030357415E+03  0.14122204980E+01 0.  0.
         22    1    3    3    0    0  0.33709327168E+02 -0.26895903937E+02  0.22473275971E+03  0.22883295583E+03  0.00000000000E+00 0. -1.
         22    1    4    4    0    0 -0.16350587708E+02  0.13143849276E+02  0.10630886968E+03  0.10835902485E+03  0.00000000000E+00 0.  1.
         22    1    4    4    0    0 -0.17358739459E+02  0.13752054661E+02  0.11991675555E+03  0.12194454930E+03  0.00000000000E+00 0.  1.
<mgrwt>
<rscale>  0 0.86272175E+02</rscale>
<asrwt>0</asrwt>
<pdfrwt beam="1">  1        2 0.70007293E-01 0.86272175E+02</pdfrwt>
<pdfrwt beam="2">  1       -2 0.62908815E-03 0.86272175E+02</pdfrwt>
<totfact> 0.24167402E+05</totfact>
</mgrwt>
</event>
<event>
 7    1  0.3480999E-009  0.8545683E+02  0.7818608E-02  0.1314242E+00
         -2   -1    0    0    0  501 -0.00000000000E+00  0.00000000000E+00  0.98165453498E+02  0.98165453531E+02  0.25500000000E-02 0.  1.
          2   -1    0    0  501    0  0.00000000000E+00 -0.00000000000E+00 -0.18598369880E+02  0.18598370055E+02  0.25500000000E-02 0. -1.
         23    2    1    2    0    0  0.00000000000E+00  0.00000000000E+00  0.79567083618E+02  0.11676382359E+03  0.85456829469E+02 0.  0.
    9000005    2    3    3    0    0  0.37963722089E+02  0.77483251898E+01  0.62842501121E+02  0.74562017963E+02  0.10441926910E+02 0.  0.
         22    1    3    3    0    0 -0.37963722089E+02 -0.77483251898E+01  0.16724582497E+02  0.42201805622E+02  0.00000000000E+00 0. -1.
         22    1    4    4    0    0  0.33693263517E+02  0.70489363292E+01  0.47768245400E+02  0.58878933231E+02  0.00000000000E+00 0.  1.
         22    1    4    4    0    0  0.42704585713E+01  0.69938886059E+00  0.15074255721E+02  0.15683084732E+02  0.00000000000E+00 0.  1.
<mgrwt>
<rscale>  0 0.85456829E+02</rscale>
<asrwt>0</asrwt>
<pdfrwt beam="2">  1        2 0.28612877E-02 0.85456829E+02</pdfrwt>
<pdfrwt beam="1">  1       -2 0.15102377E-01 0.85456829E+02</pdfrwt>
<totfact> 0.94266894E+04</totfact>
</mgrwt>
</event>
<event>
 7    1  0.3480999E-009  0.9168780E+02  0.7818608E-02  0.1298815E+00
         -2   -1    0    0    0  501 -0.00000000000E+00  0.00000000000E+00  0.38234061982E+02  0.38234062067E+02  0.25500000000E-02 0.  1.
          2   -1    0    0  501    0  0.00000000000E+00 -0.00000000000E+00 -0.54968350091E+02  0.54968350150E+02  0.25500000000E-02 0. -1.
         23    2    1    2    0    0  0.00000000000E+00  0.00000000000E+00 -0.16734288109E+02  0.93202412217E+02  0.91687803139E+02 0.  0.
    9000005    2    3    3    0    0 -0.31881243780E+02 -0.30684887935E+02 -0.13207595088E+01  0.46345684669E+02  0.13718674472E+02 0.  0.
         22    1    3    3    0    0  0.31881243780E+02  0.30684887935E+02 -0.15413528600E+02  0.46856727547E+02  0.00000000000E+00 0. -1.
         22    1    4    4    0    0 -0.22571785923E+02 -0.25130317756E+02  0.44399107721E+01  0.34069505396E+02  0.00000000000E+00 0. -1.
         22    1    4    4    0    0 -0.93094578571E+01 -0.55545701783E+01 -0.57606702809E+01  0.12276179273E+02  0.00000000000E+00 0. -1.
<mgrwt>
<rscale>  0 0.91687803E+02</rscale>
<asrwt>0</asrwt>
<pdfrwt beam="2">  1        2 0.84566693E-02 0.91687803E+02</pdfrwt>
<pdfrwt beam="1">  1       -2 0.58821634E-02 0.91687803E+02</pdfrwt>
<totfact> 0.10199359E+05</totfact>
</mgrwt>
</event>
<event>
 7    1  0.3480999E-009  0.8569632E+02  0.7818608E-02  0.1313622E+00
         -2   -1    0    0    0  501 -0.00000000000E+00  0.00000000000E+00  0.10744848889E+03  0.10744848892E+03  0.25500000000E-02 0. -1.
          2   -1    0    0  501    0  0.00000000000E+00 -0.00000000000E+00 -0.17086928807E+02  0.17086928997E+02  0.25500000000E-02 0.  1.
         23    2    1    2    0    0  0.00000000000E+00  0.00000000000E+00  0.90361560085E+02  0.12453541792E+03  0.85696317162E+02 0.  0.
    9000005    2    3    3    0    0 -0.26362506088E+02 -0.12661378552E+02  0.89321082719E+02  0.95271535278E+02  0.15592221841E+02 0.  0.
         22    1    3    3    0    0  0.26362506088E+02  0.12661378552E+02  0.10404773652E+01  0.29263882641E+02  0.00000000000E+00 0.  1.
         22    1    4    4    0    0 -0.59995407430E+01 -0.65186442356E+01  0.47861483721E+02  0.48674519369E+02  0.00000000000E+00 0.  1.
         22    1    4    4    0    0 -0.20362965345E+02 -0.61427343163E+01  0.41459598998E+02  0.46597015909E+02  0.00000000000E+00 0.  1.
<mgrwt>
<rscale>  0 0.85696317E+02</rscale>
<asrwt>0</asrwt>
<pdfrwt beam="2">  1        2 0.26287583E-02 0.85696317E+02</pdfrwt>
<pdfrwt beam="1">  1       -2 0.16530537E-01 0.85696317E+02</pdfrwt>
<totfact> 0.91155170E+04</totfact>
</mgrwt>
</event>
<event>
 7    1  0.3480999E-009  0.8883689E+02  0.7818608E-02  0.1305693E+00
          2   -1    0    0  501    0  0.00000000000E+00  0.00000000000E+00  0.76895155538E+02  0.76895155580E+02  0.25500000000E-02 0. -1.
         -2   -1    0    0    0  501 -0.00000000000E+00 -0.00000000000E+00 -0.25658292392E+02  0.25658292518E+02  0.25500000000E-02 0.  1.
         23    2    1    2    0    0  0.17763568394E-14  0.71054273576E-14  0.51236863146E+02  0.10255344810E+03  0.88836893078E+02 0.  0.
    9000005    2    3    3    0    0 -0.84092605936E+01 -0.36639539157E+02  0.51726716850E+02  0.64958083357E+02  0.11433628640E+02 0.  0.
         22    1    3    3    0    0  0.84092605936E+01  0.36639539157E+02 -0.48985370408E+00  0.37595364741E+02  0.00000000000E+00 0.  1.
         22    1    4    4    0    0 -0.63950489188E-01 -0.12740779756E+01  0.80134416358E+01  0.81143460120E+01  0.00000000000E+00 0. -1.
         22    1    4    4    0    0 -0.83453101044E+01 -0.35365461182E+02  0.43713275215E+02  0.56843737345E+02  0.00000000000E+00 0. -1.
<mgrwt>
<rscale>  0 0.88836893E+02</rscale>
<asrwt>0</asrwt>
<pdfrwt beam="1">  1        2 0.11830024E-01 0.88836893E+02</pdfrwt>
<pdfrwt beam="2">  1       -2 0.39474297E-02 0.88836893E+02</pdfrwt>
<totfact> 0.12206961E+05</totfact>
</mgrwt>
</event>
<event>
 7    1  0.3480999E-009  0.9135488E+02  0.7818608E-02  0.1299603E+00
         -2   -1    0    0    0  501 -0.00000000000E+00  0.00000000000E+00  0.10363544451E+02  0.10363544764E+02  0.25500000000E-02 0.  1.
          2   -1    0    0  501    0  0.00000000000E+00 -0.00000000000E+00 -0.20132381147E+03  0.20132381148E+03  0.25500000000E-02 0. -1.
         23    2    1    2    0    0  0.00000000000E+00 -0.35527136788E-14 -0.19096026702E+03  0.21168735625E+03  0.91354875163E+02 0.  0.
    9000005    2    3    3    0    0  0.36674649485E+02  0.24510681249E+02 -0.79366982302E+02  0.91692087160E+02  0.12748237439E+02 0.  0.
         22    1    3    3    0    0 -0.36674649485E+02 -0.24510681249E+02 -0.11159328471E+03  0.11999526909E+03  0.00000000000E+00 0.  1.
         22    1    4    4    0    0 -0.72837514222E+00 -0.50635138276E+00 -0.11172150603E+01  0.14265663537E+01  0.00000000000E+00 0. -1.
         22    1    4    4    0    0  0.37403024627E+02  0.25017032632E+02 -0.78249767242E+02  0.90265520806E+02  0.00000000000E+00 0. -1.
<mgrwt>
<rscale>  0 0.91354875E+02</rscale>
<asrwt>0</asrwt>
<pdfrwt beam="2">  1        2 0.30972891E-01 0.91354875E+02</pdfrwt>
<pdfrwt beam="1">  1       -2 0.15943916E-02 0.91354875E+02</pdfrwt>
<totfact> 0.15423646E+05</totfact>
</mgrwt>
</event>
<event>
 7    1  0.3480999E-009  0.8972116E+02  0.7818608E-02  0.1303528E+00
          2   -1    0    0  501    0  0.00000000000E+00  0.00000000000E+00  0.50866553326E+02  0.50866553390E+02  0.25500000000E-02 0.  1.
         -2   -1    0    0    0  501 -0.00000000000E+00 -0.00000000000E+00 -0.39563749029E+02  0.39563749111E+02  0.25500000000E-02 0. -1.
         23    2    1    2    0    0  0.00000000000E+00  0.00000000000E+00  0.11302804297E+02  0.90430302501E+02  0.89721158182E+02 0.  0.
    9000005    2    3    3    0    0  0.30211900781E+02 -0.10062352850E+02 -0.25415033153E+02  0.41827735895E+02  0.94670843584E+01 0.  0.
         22    1    3    3    0    0 -0.30211900781E+02  0.10062352850E+02  0.36717837450E+02  0.48602566606E+02  0.00000000000E+00 0.  1.
         22    1    4    4    0    0  0.12467749996E+02 -0.62955123901E+01 -0.16493904664E+02  0.21613124653E+02  0.00000000000E+00 0. -1.
         22    1    4    4    0    0  0.17744150785E+02 -0.37668404599E+01 -0.89211284895E+01  0.20214611242E+02  0.00000000000E+00 0. -1.
<mgrwt>
<rscale>  0 0.89721158E+02</rscale>
<asrwt>0</asrwt>
<pdfrwt beam="1">  1        2 0.78256236E-02 0.89721158E+02</pdfrwt>
<pdfrwt beam="2">  1       -2 0.60867307E-02 0.89721158E+02</pdfrwt>
<totfact> 0.10628525E+05</totfact>
</mgrwt>
</event>
<event>
 7    1  0.3480999E-009  0.9285004E+02  0.7818608E-02  0.1296093E+00
         -2   -1    0    0    0  501 -0.00000000000E+00  0.00000000000E+00  0.23951837193E+02  0.23951837328E+02  0.25500000000E-02 0.  1.
          2   -1    0    0  501    0  0.00000000000E+00 -0.00000000000E+00 -0.89984005995E+02  0.89984006031E+02  0.25500000000E-02 0. -1.
         23    2    1    2    0    0  0.00000000000E+00  0.00000000000E+00 -0.66032168802E+02  0.11393584336E+03  0.92850035462E+02 0.  0.
    9000005    2    3    3    0    0  0.21958722524E+02 -0.37993369065E+02 -0.16241968529E+02  0.47567585652E+02  0.85552367183E+01 0.  0.
         22    1    3    3    0    0 -0.21958722524E+02  0.37993369065E+02 -0.49790200274E+02  0.66368257707E+02  0.00000000000E+00 0. -1.
         22    1    4    4    0    0  0.19644568697E+02 -0.37502720485E+02 -0.15193579862E+02  0.44980084394E+02  0.00000000000E+00 0. -1.
         22    1    4    4    0    0  0.23141538277E+01 -0.49064858006E+00 -0.10483886663E+01  0.25875012586E+01  0.00000000000E+00 0. -1.
<mgrwt>
<rscale>  0 0.92850035E+02</rscale>
<asrwt>0</asrwt>
<pdfrwt beam="2">  1        2 0.13843693E-01 0.92850035E+02</pdfrwt>
<pdfrwt beam="1">  1       -2 0.36848981E-02 0.92850035E+02</pdfrwt>
<totfact> 0.11301105E+05</totfact>
</mgrwt>
</event>
<event>
 7    1  0.3480999E-009  0.8851137E+02  0.7818608E-02  0.1306497E+00
         -2   -1    0    0    0  501 -0.00000000000E+00  0.00000000000E+00  0.11771034530E+02  0.11771034806E+02  0.25500000000E-02 0. -1.
          2   -1    0    0  501    0  0.00000000000E+00 -0.00000000000E+00 -0.16638856659E+03  0.16638856661E+03  0.25500000000E-02 0.  1.
         23    2    1    2    0    0  0.00000000000E+00  0.00000000000E+00 -0.15461753206E+03  0.17815960142E+03  0.88511368515E+02 0.  0.
    9000005    2    3    3    0    0  0.38362314954E+02  0.21422721563E+01 -0.35618731071E+02  0.53111725882E+02  0.87123409304E+01 0.  0.
         22    1    3    3    0    0 -0.38362314954E+02 -0.21422721563E+01 -0.11899880099E+03  0.12504787553E+03  0.00000000000E+00 0. -1.
         22    1    4    4    0    0  0.34382588455E+02  0.43912147885E+00 -0.27977050483E+02  0.44329116506E+02  0.00000000000E+00 0.  1.
         22    1    4    4    0    0  0.39797264990E+01  0.17031506774E+01 -0.76416805883E+01  0.87826093760E+01  0.00000000000E+00 0.  1.
<mgrwt>
<rscale>  0 0.88511369E+02</rscale>
<asrwt>0</asrwt>
<pdfrwt beam="2">  1        2 0.25598239E-01 0.88511369E+02</pdfrwt>
<pdfrwt beam="1">  1       -2 0.18109285E-02 0.88511369E+02</pdfrwt>
<totfact> 0.15696730E+05</totfact>
</mgrwt>
</event>
<event>
 7    1  0.3480999E-009  0.9030348E+02  0.7818608E-02  0.1302118E+00
          2   -1    0    0  501    0  0.00000000000E+00  0.00000000000E+00  0.39123186273E+03  0.39123186274E+03  0.25500000000E-02 0. -1.
         -2   -1    0    0    0  501 -0.00000000000E+00 -0.00000000000E+00 -0.52109240985E+01  0.52109247225E+01  0.25500000000E-02 0.  1.
         23    2    1    2    0    0  0.71054273576E-14  0.00000000000E+00  0.38602093863E+03  0.39644278746E+03  0.90303480928E+02 0.  0.
    9000005    2    3    3    0    0 -0.42004373018E+02  0.88269752817E+01  0.13201385002E+03  0.13883478310E+03  0.22710253992E+01 0.  0.
         22    1    3    3    0    0  0.42004373018E+02 -0.88269752817E+01  0.25400708861E+03  0.25760800436E+03  0.00000000000E+00 0. -1.
         22    1    4    4    0    0 -0.15839308723E+02  0.26546461542E+01  0.46561747771E+02  0.49253702425E+02  0.00000000000E+00 0. -1.
         22    1    4    4    0    0 -0.26165064295E+02  0.61723291275E+01  0.85452102248E+02  0.89581080675E+02  0.00000000000E+00 0. -1.
<mgrwt>
<rscale>  0 0.90303481E+02</rscale>
<asrwt>0</asrwt>
<pdfrwt beam="1">  1        2 0.60189552E-01 0.90303481E+02</pdfrwt>
<pdfrwt beam="2">  1       -2 0.80168022E-03 0.90303481E+02</pdfrwt>
<totfact> 0.20316750E+05</totfact>
</mgrwt>
</event>
<event>
 7    1  0.3480999E-009  0.9276864E+02  0.7818608E-02  0.1296282E+00
         -2   -1    0    0    0  501 -0.00000000000E+00  0.00000000000E+00  0.24923338215E+02  0.24923338345E+02  0.25500000000E-02 0.  1.
          2   -1    0    0  501    0  0.00000000000E+00 -0.00000000000E+00 -0.86324925150E+02  0.86324925187E+02  0.25500000000E-02 0. -1.
         23    2    1    2    0    0  0.00000000000E+00  0.88817841970E-15 -0.61401586935E+02  0.11124826353E+03  0.92768643737E+02 0.  0.
    9000005    2    3    3    0    0 -0.25683671268E+02 -0.63117775468E+01  0.13350321799E+02  0.31955531426E+02  0.11976451519E+02 0.  0.
         22    1    3    3    0    0  0.25683671268E+02  0.63117775468E+01 -0.74751908734E+02  0.79292732107E+02  0.00000000000E+00 0. -1.
         22    1    4    4    0    0 -0.11668145164E+02 -0.26483881160E+01 -0.41489701397E+00  0.11972122231E+02  0.00000000000E+00 0.  1.
         22    1    4    4    0    0 -0.14015526103E+02 -0.36633894308E+01  0.13765218813E+02  0.19983409195E+02  0.00000000000E+00 0.  1.
<mgrwt>
<rscale>  0 0.92768644E+02</rscale>
<asrwt>0</asrwt>
<pdfrwt beam="2">  1        2 0.13280758E-01 0.92768644E+02</pdfrwt>
<pdfrwt beam="1">  1       -2 0.38343598E-02 0.92768644E+02</pdfrwt>
<totfact> 0.11190241E+05</totfact>
</mgrwt>
</event>
<event>
 7    1  0.3480999E-009  0.9202909E+02  0.7818608E-02  0.1298011E+00
         -2   -1    0    0    0  501 -0.00000000000E+00  0.00000000000E+00  0.19372115146E+02  0.19372115314E+02  0.25500000000E-02 0. -1.
          2   -1    0    0  501    0  0.00000000000E+00 -0.00000000000E+00 -0.10929826119E+03  0.10929826122E+03  0.25500000000E-02 0.  1.
         23    2    1    2    0    0  0.35527136788E-14 -0.35527136788E-14 -0.89926146046E+02  0.12867037654E+03  0.92029093525E+02 0.  0.
    9000005    2    3    3    0    0 -0.28298349624E+02  0.30172632830E+02 -0.71699370337E+02  0.83466397550E+02  0.10707728516E+02 0.  0.
         22    1    3    3    0    0  0.28298349624E+02 -0.30172632830E+02 -0.18226775709E+02  0.45203978985E+02  0.00000000000E+00 0. -1.
         22    1    4    4    0    0 -0.21446812449E+02  0.26817980221E+02 -0.63984314392E+02  0.72616542988E+02  0.00000000000E+00 0. -1.
         22    1    4    4    0    0 -0.68515371746E+01  0.33546526088E+01 -0.77150559454E+01  0.10849854562E+02  0.00000000000E+00 0. -1.
<mgrwt>
<rscale>  0 0.92029094E+02</rscale>
<asrwt>0</asrwt>
<pdfrwt beam="2">  1        2 0.16815117E-01 0.92029094E+02</pdfrwt>
<pdfrwt beam="1">  1       -2 0.29803255E-02 0.92029094E+02</pdfrwt>
<totfact> 0.12290304E+05</totfact>
</mgrwt>
</event>
<event>
 7    1  0.3480999E-009  0.9107810E+02  0.7818608E-02  0.1300262E+00
          2   -1    0    0  501    0  0.00000000000E+00  0.00000000000E+00  0.13268023973E+03  0.13268023976E+03  0.25500000000E-02 0. -1.
         -2   -1    0    0    0  501 -0.00000000000E+00 -0.00000000000E+00 -0.15630096543E+02  0.15630096751E+02  0.25500000000E-02 0.  1.
         23    2    1    2    0    0  0.00000000000E+00  0.35527136788E-14  0.11705014319E+03  0.14831033651E+03  0.91078097776E+02 0.  0.
    9000005    2    3    3    0    0 -0.13626320099E+02  0.25012960450E+02  0.11598277181E+03  0.11980658111E+03  0.95020382879E+01 0.  0.
         22    1    3    3    0    0  0.13626320099E+02 -0.25012960450E+02  0.10673713794E+01  0.28503755394E+02  0.00000000000E+00 0.  1.
         22    1    4    4    0    0 -0.70251243851E+01  0.87601866065E+01  0.63066786130E+02  0.64058666508E+02  0.00000000000E+00 0. -1.
         22    1    4    4    0    0 -0.66011957144E+01  0.16252773843E+02  0.52915985679E+02  0.55747914605E+02  0.00000000000E+00 0. -1.
<mgrwt>
<rscale>  0 0.91078098E+02</rscale>
<asrwt>0</asrwt>
<pdfrwt beam="1">  1        2 0.20412345E-01 0.91078098E+02</pdfrwt>
<pdfrwt beam="2">  1       -2 0.24046302E-02 0.91078098E+02</pdfrwt>
<totfact> 0.13457552E+05</totfact>
</mgrwt>
</event>
<event>
 7    1  0.3480999E-009  0.9200263E+02  0.7818608E-02  0.1298073E+00
         -2   -1    0    0    0  501 -0.00000000000E+00  0.00000000000E+00  0.83117283033E+01  0.83117286945E+01  0.25500000000E-02 0.  1.
          2   -1    0    0  501    0  0.00000000000E+00 -0.00000000000E+00 -0.25459457218E+03  0.25459457219E+03  0.25500000000E-02 0. -1.
         23    2    1    2    0    0  0.00000000000E+00  0.00000000000E+00 -0.24628284387E+03  0.26290630088E+03  0.92002629626E+02 0.  0.
    9000005    2    3    3    0    0  0.91956309519E+01 -0.43307872130E+02 -0.15589771007E+03  0.16226036788E+03  0.80124630058E+01 0.  0.
         22    1    3    3    0    0 -0.91956309519E+01  0.43307872130E+02 -0.90385133805E+02  0.10064593300E+03  0.00000000000E+00 0. -1.
         22    1    4    4    0    0  0.33129227005E-01 -0.50680440673E+01 -0.27976151701E+02  0.28431518289E+02  0.00000000000E+00 0.  1.
         22    1    4    4    0    0  0.91625017249E+01 -0.38239828062E+02 -0.12792155837E+03  0.13382884959E+03  0.00000000000E+00 0.  1.
<mgrwt>
<rscale>  0 0.92002630E+02</rscale>
<asrwt>0</asrwt>
<pdfrwt beam="2">  1        2 0.39168390E-01 0.92002630E+02</pdfrwt>
<pdfrwt beam="1">  1       -2 0.12787277E-02 0.92002630E+02</pdfrwt>
<totfact> 0.16496112E+05</totfact>
</mgrwt>
</event>
<event>
 7    1  0.3480999E-009  0.8159379E+02  0.7818608E-02  0.1324588E+00
          2   -1    0    0  501    0  0.00000000000E+00  0.00000000000E+00  0.37721045587E+03  0.37721045588E+03  0.25500000000E-02 0.  1.
         -2   -1    0    0    0  501 -0.00000000000E+00 -0.00000000000E+00 -0.44123554704E+01  0.44123562073E+01  0.25500000000E-02 0. -1.
         23    2    1    2    0    0  0.00000000000E+00  0.00000000000E+00  0.37279810040E+03  0.38162281209E+03  0.81593792919E+02 0.  0.
    9000005    2    3    3    0    0  0.27931315214E+02 -0.64450286280E+01  0.32077976341E+03  0.32222917482E+03  0.10501796692E+02 0.  0.
         22    1    3    3    0    0 -0.27931315214E+02  0.64450286280E+01  0.52018336996E+02  0.59393637263E+02  0.00000000000E+00 0. -1.
         22    1    4    4    0    0  0.31791062930E+01 -0.44291335364E+01  0.43716486656E+02  0.44055137569E+02  0.00000000000E+00 0.  1.
         22    1    4    4    0    0  0.24752208921E+02 -0.20158950917E+01  0.27706327675E+03  0.27817403726E+03  0.00000000000E+00 0.  1.
<mgrwt>
<rscale>  0 0.81593793E+02</rscale>
<asrwt>0</asrwt>
<pdfrwt beam="1">  1        2 0.58032406E-01 0.81593793E+02</pdfrwt>
<pdfrwt beam="2">  1       -2 0.67882364E-03 0.81593793E+02</pdfrwt>
<totfact> 0.26205356E+05</totfact>
</mgrwt>
</event>
<event>
 7    1  0.3480999E-009  0.8897398E+02  0.7818608E-02  0.1305356E+00
         -2   -1    0    0    0  501 -0.00000000000E+00  0.00000000000E+00  0.21803041506E+02  0.21803041655E+02  0.25500000000E-02 0.  1.
          2   -1    0    0  501    0  0.00000000000E+00 -0.00000000000E+00 -0.90771382752E+02  0.90771382788E+02  0.25500000000E-02 0. -1.
         23    2    1    2    0    0  0.00000000000E+00  0.00000000000E+00 -0.68968341246E+02  0.11257442444E+03  0.88973979030E+02 0.  0.
    9000005    2    3    3    0    0  0.17479498392E+02 -0.29121323305E+02 -0.69195018734E+02  0.78609211095E+02  0.15423135746E+02 0.  0.
         22    1    3    3    0    0 -0.17479498392E+02  0.29121323305E+02  0.22667748787E+00  0.33965213348E+02  0.00000000000E+00 0.  1.
         22    1    4    4    0    0  0.10975770691E+02 -0.22158553017E+02 -0.61751447462E+02  0.66518495756E+02  0.00000000000E+00 0.  1.
         22    1    4    4    0    0  0.65037277018E+01 -0.69627702885E+01 -0.74435712719E+01  0.12090715338E+02  0.00000000000E+00 0.  1.
<mgrwt>
<rscale>  0 0.88973979E+02</rscale>
<asrwt>0</asrwt>
<pdfrwt beam="2">  1        2 0.13964828E-01 0.88973979E+02</pdfrwt>
<pdfrwt beam="1">  1       -2 0.33543141E-02 0.88973979E+02</pdfrwt>
<totfact> 0.12746937E+05</totfact>
</mgrwt>
</event>
<event>
 7    1  0.3480999E-009  0.9160247E+02  0.7818608E-02  0.1299017E+00
          2   -1    0    0  501    0  0.00000000000E+00  0.00000000000E+00  0.20740654758E+02  0.20740654914E+02  0.25500000000E-02 0. -1.
         -2   -1    0    0    0  501 -0.00000000000E+00 -0.00000000000E+00 -0.10114207734E+03  0.10114207737E+03  0.25500000000E-02 0.  1.
         23    2    1    2    0    0  0.00000000000E+00  0.00000000000E+00 -0.80401422579E+02  0.12188273228E+03  0.91602465447E+02 0.  0.
    9000005    2    3    3    0    0  0.23261883855E+02  0.17871969034E+02  0.35392085316E+01  0.32963937482E+02  0.14614125346E+02 0.  0.
         22    1    3    3    0    0 -0.23261883855E+02 -0.17871969034E+02 -0.83940631110E+02  0.88918794801E+02  0.00000000000E+00 0.  1.
         22    1    4    4    0    0  0.54134682428E+01  0.12307716526E+02  0.46714599309E+01  0.14234045889E+02  0.00000000000E+00 0.  1.
         22    1    4    4    0    0  0.17848415612E+02  0.55642525086E+01 -0.11322513993E+01  0.18729891593E+02  0.00000000000E+00 0.  1.
<mgrwt>
<rscale>  0 0.91602465E+02</rscale>
<asrwt>0</asrwt>
<pdfrwt beam="1">  1        2 0.31908700E-02 0.91602465E+02</pdfrwt>
<pdfrwt beam="2">  1       -2 0.15560319E-01 0.91602465E+02</pdfrwt>
<totfact> 0.78617824E+04</totfact>
</mgrwt>
</event>
<event>
 7    1  0.3480999E-009  0.8784120E+02  0.7818608E-02  0.1308165E+00
          2   -1    0    0  501    0  0.00000000000E+00  0.00000000000E+00  0.63680213043E+01  0.63680218149E+01  0.25500000000E-02 0.  1.
         -2   -1    0    0    0  501 -0.00000000000E+00 -0.00000000000E+00 -0.30292281544E+03  0.30292281545E+03  0.25500000000E-02 0. -1.
         23    2    1    2    0    0  0.35527136788E-14  0.00000000000E+00 -0.29655479414E+03  0.30929083727E+03  0.87841198145E+02 0.  0.
    9000005    2    3    3    0    0  0.29223753149E+02 -0.30974733497E+02 -0.16521719882E+03  0.17122192039E+03  0.14379199334E+02 0.  0.
         22    1    3    3    0    0 -0.29223753149E+02  0.30974733497E+02 -0.13133759532E+03  0.13806891688E+03  0.00000000000E+00 0. -1.
         22    1    4    4    0    0  0.18848227519E+02 -0.11509676641E+02 -0.66530293849E+02  0.70099988135E+02  0.00000000000E+00 0.  1.
         22    1    4    4    0    0  0.10375525630E+02 -0.19465056857E+02 -0.98686904968E+02  0.10112193225E+03  0.00000000000E+00 0.  1.
<mgrwt>
<rscale>  0 0.87841198E+02</rscale>
<asrwt>0</asrwt>
<pdfrwt beam="1">  1        2 0.97969586E-03 0.87841198E+02</pdfrwt>
<pdfrwt beam="2">  1       -2 0.46603499E-01 0.87841198E+02</pdfrwt>
<totfact> 0.55825284E+04</totfact>
</mgrwt>
</event>
<event>
 7    1  0.3480999E-009  0.9032831E+02  0.7818608E-02  0.1302059E+00
         -2   -1    0    0    0  501 -0.00000000000E+00  0.00000000000E+00  0.47931193684E+01  0.47931200467E+01  0.25500000000E-02 0. -1.
          2   -1    0    0  501    0  0.00000000000E+00 -0.00000000000E+00 -0.42556856571E+03  0.42556856572E+03  0.25500000000E-02 0.  1.
         23    2    1    2    0    0  0.00000000000E+00  0.00000000000E+00 -0.42077544634E+03  0.43036168576E+03  0.90328314110E+02 0.  0.
    9000005    2    3    3    0    0 -0.22156423364E+02 -0.11330514367E+02 -0.38884557561E+03  0.38987953788E+03  0.13633955316E+02 0.  0.
         22    1    3    3    0    0  0.22156423364E+02  0.11330514367E+02 -0.31929870736E+02  0.40482147884E+02  0.00000000000E+00 0. -1.
         22    1    4    4    0    0 -0.11478865072E+02  0.63935779918E+00 -0.21064961874E+03  0.21096311288E+03  0.00000000000E+00 0. -1.
         22    1    4    4    0    0 -0.10677558292E+02 -0.11969872166E+02 -0.17819595687E+03  0.17891642500E+03  0.00000000000E+00 0. -1.
<mgrwt>
<rscale>  0 0.90328314E+02</rscale>
<asrwt>0</asrwt>
<pdfrwt beam="2">  1        2 0.65472057E-01 0.90328314E+02</pdfrwt>
<pdfrwt beam="1">  1       -2 0.73740337E-03 0.90328314E+02</pdfrwt>
<totfact> 0.20917221E+05</totfact>
</mgrwt>
</event>
<event>
 7    1  0.3480999E-009  0.9613026E+02  0.7818608E-02  0.1288651E+00
          2   -1    0    0  501    0  0.00000000000E+00  0.00000000000E+00  0.83351075608E+01  0.83351079508E+01  0.25500000000E-02 0. -1.
         -2   -1    0    0    0  501 -0.00000000000E+00 -0.00000000000E+00 -0.27717181651E+03  0.27717181652E+03  0.25500000000E-02 0.  1.
         23    2    1    2    0    0  0.88817841970E-15  0.17763568394E-14 -0.26883670895E+03  0.28550692447E+03  0.96130264970E+02 0.  0.
    9000005    2    3    3    0    0  0.66797906988E+01  0.88345647327E+01 -0.27312205363E+03  0.27363117958E+03  0.12477865086E+02 0.  0.
         22    1    3    3    0    0 -0.66797906988E+01 -0.88345647327E+01  0.42853446843E+01  0.11875744897E+02  0.00000000000E+00 0. -1.
         22    1    4    4    0    0  0.34392788040E+01  0.11679479315E+02 -0.18168086439E+03  0.18208837239E+03  0.00000000000E+00 0.  1.
         22    1    4    4    0    0  0.32405118948E+01 -0.28449145822E+01 -0.91441189245E+02  0.91542807182E+02  0.00000000000E+00 0.  1.
<mgrwt>
<rscale>  0 0.96130265E+02</rscale>
<asrwt>0</asrwt>
<pdfrwt beam="1">  1        2 0.12823245E-02 0.96130265E+02</pdfrwt>
<pdfrwt beam="2">  1       -2 0.42641811E-01 0.96130265E+02</pdfrwt>
<totfact> 0.46476272E+04</totfact>
</mgrwt>
</event>
<event>
 7    1  0.3480999E-009  0.8823529E+02  0.7818608E-02  0.1307182E+00
         -2   -1    0    0    0  501 -0.00000000000E+00  0.00000000000E+00  0.29836975703E+02  0.29836975812E+02  0.25500000000E-02 0.  1.
          2   -1    0    0  501    0  0.00000000000E+00 -0.00000000000E+00 -0.65233375366E+02  0.65233375416E+02  0.25500000000E-02 0. -1.
         23    2    1    2    0    0  0.00000000000E+00  0.00000000000E+00 -0.35396399663E+02  0.95070351227E+02  0.88235290975E+02 0.  0.
    9000005    2    3    3    0    0 -0.14878579866E+02  0.39252753665E+02 -0.50011012884E+01  0.43243476226E+02  0.91014511414E+01 0.  0.
         22    1    3    3    0    0  0.14878579866E+02 -0.39252753665E+02 -0.30395298375E+02  0.51826875001E+02  0.00000000000E+00 0. -1.
         22    1    4    4    0    0 -0.49430396327E+01  0.24880121487E+02 -0.45092750047E+01  0.25764076678E+02  0.00000000000E+00 0. -1.
         22    1    4    4    0    0 -0.99355402328E+01  0.14372632178E+02 -0.49182628373E+00  0.17479399548E+02  0.00000000000E+00 0. -1.
<mgrwt>
<rscale>  0 0.88235291E+02</rscale>
<asrwt>0</asrwt>
<pdfrwt beam="2">  1        2 0.10035904E-01 0.88235291E+02</pdfrwt>
<pdfrwt beam="1">  1       -2 0.45903040E-02 0.88235291E+02</pdfrwt>
<totfact> 0.11892067E+05</totfact>
</mgrwt>
</event>
<event>
 7    1  0.3480999E-009  0.9030404E+02  0.7818608E-02  0.1302117E+00
          2   -1    0    0  501    0  0.00000000000E+00  0.00000000000E+00  0.39201181587E+03  0.39201181588E+03  0.25500000000E-02 0. -1.
         -2   -1    0    0    0  501 -0.00000000000E+00 -0.00000000000E+00 -0.52006203118E+01  0.52006209369E+01  0.25500000000E-02 0.  1.
         23    2    1    2    0    0 -0.35527136788E-14 -0.35527136788E-14  0.38681119556E+03  0.39721243681E+03  0.90304036186E+02 0.  0.
    9000005    2    3    3    0    0 -0.19352325890E+02 -0.20163321769E+02  0.34826755600E+03  0.34960272969E+03  0.12276236496E+02 0.  0.
         22    1    3    3    0    0  0.19352325890E+02  0.20163321769E+02  0.38543639558E+02  0.47609707124E+02  0.00000000000E+00 0.  1.
         22    1    4    4    0    0 -0.95528927149E+01 -0.30649196947E+01  0.83003551789E+02  0.83607661740E+02  0.00000000000E+00 0.  1.
         22    1    4    4    0    0 -0.97994331756E+01 -0.17098402074E+02  0.26526400421E+03  0.26599506795E+03  0.00000000000E+00 0.  1.
<mgrwt>
<rscale>  0 0.90304036E+02</rscale>
<asrwt>0</asrwt>
<pdfrwt beam="1">  1        2 0.60309511E-01 0.90304036E+02</pdfrwt>
<pdfrwt beam="2">  1       -2 0.80009547E-03 0.90304036E+02</pdfrwt>
<totfact> 0.20330954E+05</totfact>
</mgrwt>
</event>
<event>
 7    1  0.3480999E-009  0.9274861E+02  0.7818608E-02  0.1296329E+00
         -2   -1    0    0    0  501 -0.00000000000E+00  0.00000000000E+00  0.42254442793E+02  0.42254442870E+02  0.25500000000E-02 0. -1.
          2   -1    0    0  501    0  0.00000000000E+00 -0.00000000000E+00 -0.50895855602E+02  0.50895855666E+02  0.25500000000E-02 0.  1.
         23    2    1    2    0    0  0.71054273576E-14 -0.88817841970E-15 -0.86414128088E+01  0.93150298537E+02  0.92748607009E+02 0.  0.
    9000005    2    3    3    0    0 -0.45803202022E+02  0.52497893867E+01 -0.21437613373E+00  0.46283374686E+02  0.40756853594E+01 0.  0.
         22    1    3    3    0    0  0.45803202022E+02 -0.52497893867E+01 -0.84270366751E+01  0.46866923850E+02  0.00000000000E+00 0.  1.
         22    1    4    4    0    0 -0.20645792207E+02  0.34700904372E+01  0.16099652472E+01  0.20997196279E+02  0.00000000000E+00 0.  1.
         22    1    4    4    0    0 -0.25157409815E+02  0.17796989495E+01 -0.18243413809E+01  0.25286178407E+02  0.00000000000E+00 0.  1.
<mgrwt>
<rscale>  0 0.92748607E+02</rscale>
<asrwt>0</asrwt>
<pdfrwt beam="2">  1        2 0.78301316E-02 0.92748607E+02</pdfrwt>
<pdfrwt beam="1">  1       -2 0.65006835E-02 0.92748607E+02</pdfrwt>
<totfact> 0.96709279E+04</totfact>
</mgrwt>
</event>
<event>
 7    1  0.3480999E-009  0.9039529E+02  0.7818608E-02  0.1301897E+00
          2   -1    0    0  501    0  0.00000000000E+00  0.00000000000E+00  0.78713265570E+02  0.78713265612E+02  0.25500000000E-02 0. -1.
         -2   -1    0    0    0  501 -0.00000000000E+00 -0.00000000000E+00 -0.25952769287E+02  0.25952769412E+02  0.25500000000E-02 0.  1.
         23    2    1    2    0    0  0.00000000000E+00  0.00000000000E+00  0.52760496283E+02  0.10466603502E+03  0.90395292574E+02 0.  0.
    9000005    2    3    3    0    0 -0.34743295565E+02  0.21980868816E+02  0.47949776131E+02  0.63272820495E+02  0.37434745503E+01 0.  0.
         22    1    3    3    0    0  0.34743295565E+02 -0.21980868816E+02  0.48107201520E+01  0.41393214529E+02  0.00000000000E+00 0.  1.
         22    1    4    4    0    0 -0.30239382516E+02  0.20531094885E+02  0.42336456224E+02  0.55931401178E+02  0.00000000000E+00 0. -1.
         22    1    4    4    0    0 -0.45039130492E+01  0.14497739308E+01  0.56133199071E+01  0.73414193168E+01  0.00000000000E+00 0. -1.
<mgrwt>
<rscale>  0 0.90395293E+02</rscale>
<asrwt>0</asrwt>
<pdfrwt beam="1">  1        2 0.12109733E-01 0.90395293E+02</pdfrwt>
<pdfrwt beam="2">  1       -2 0.39927338E-02 0.90395293E+02</pdfrwt>
<totfact> 0.11709207E+05</totfact>
</mgrwt>
</event>
<event>
 7    1  0.3480999E-009  0.8744964E+02  0.7818608E-02  0.1309148E+00
         -2   -1    0    0    0  501 -0.00000000000E+00  0.00000000000E+00  0.39399797902E+01  0.39399806154E+01  0.25500000000E-02 0.  1.
          2   -1    0    0  501    0  0.00000000000E+00 -0.00000000000E+00 -0.48524609160E+03  0.48524609160E+03  0.25500000000E-02 0. -1.
         23    2    1    2    0    0  0.00000000000E+00  0.00000000000E+00 -0.48130611181E+03  0.48918607222E+03  0.87449642598E+02 0.  0.
    9000005    2    3    3    0    0 -0.99002272070E+01  0.37140718017E+02 -0.34864323806E+03  0.35106697324E+03  0.14780555377E+02 0.  0.
         22    1    3    3    0    0  0.99002272070E+01 -0.37140718017E+02 -0.13266287374E+03  0.13811909898E+03  0.00000000000E+00 0.  1.
         22    1    4    4    0    0 -0.22532668909E+01  0.93672560509E+01 -0.42844630807E+02  0.43914520225E+02  0.00000000000E+00 0.  1.
         22    1    4    4    0    0 -0.76469603161E+01  0.27773461966E+02 -0.30579860726E+03  0.30715245301E+03  0.00000000000E+00 0.  1.
<mgrwt>
<rscale>  0 0.87449643E+02</rscale>
<asrwt>0</asrwt>
<pdfrwt beam="2">  1        2 0.74653198E-01 0.87449643E+02</pdfrwt>
<pdfrwt beam="1">  1       -2 0.60615118E-03 0.87449643E+02</pdfrwt>
<totfact> 0.23825790E+05</totfact>
</mgrwt>
</event>
<event>
 7    1  0.3480999E-009  0.8998500E+02  0.7818608E-02  0.1302888E+00
          2   -1    0    0  501    0  0.00000000000E+00  0.00000000000E+00  0.15926041282E+02  0.15926041486E+02  0.25500000000E-02 0.  1.
         -2   -1    0    0    0  501 -0.00000000000E+00 -0.00000000000E+00 -0.12710787073E+03  0.12710787076E+03  0.25500000000E-02 0. -1.
         23    2    1    2    0    0  0.00000000000E+00  0.00000000000E+00 -0.11118182945E+03  0.14303391224E+03  0.89985003484E+02 0.  0.
    9000005    2    3    3    0    0 -0.22410993015E+02 -0.38644716217E+02 -0.49033419709E+02  0.66495741814E+02  0.46626957483E+01 0.  0.
         22    1    3    3    0    0  0.22410993015E+02  0.38644716217E+02 -0.62148409741E+02  0.76538170430E+02  0.00000000000E+00 0. -1.
         22    1    4    4    0    0 -0.17560162325E+01 -0.15181597607E+01 -0.36822662832E+01  0.43528711270E+01  0.00000000000E+00 0.  1.
         22    1    4    4    0    0 -0.20654976782E+02 -0.37126556456E+02 -0.45351153426E+02  0.62142870687E+02  0.00000000000E+00 0.  1.
<mgrwt>
<rscale>  0 0.89985003E+02</rscale>
<asrwt>0</asrwt>
<pdfrwt beam="1">  1        2 0.24501603E-02 0.89985003E+02</pdfrwt>
<pdfrwt beam="2">  1       -2 0.19555056E-01 0.89985003E+02</pdfrwt>
<totfact> 0.76492871E+04</totfact>
</mgrwt>
</event>
<event>
 7    1  0.3480999E-009  0.9147797E+02  0.7818608E-02  0.1299312E+00
          2   -1    0    0  501    0  0.00000000000E+00  0.00000000000E+00  0.46333498667E+03  0.46333498668E+03  0.25500000000E-02 0. -1.
         -2   -1    0    0    0  501 -0.00000000000E+00 -0.00000000000E+00 -0.45152096710E+01  0.45152103911E+01  0.25500000000E-02 0.  1.
         23    2    1    2    0    0  0.00000000000E+00  0.00000000000E+00  0.45881977700E+03  0.46785019707E+03  0.91477970743E+02 0.  0.
    9000005    2    3    3    0    0 -0.37720947226E+02  0.60919620423E+00  0.36146033688E+03  0.36343706782E+03  0.31122575297E+01 0.  0.
         22    1    3    3    0    0  0.37720947226E+02 -0.60919620423E+00  0.97359440122E+02  0.10441312925E+03  0.00000000000E+00 0.  1.
         22    1    4    4    0    0 -0.36176018825E+02  0.10580767789E+01  0.34954268969E+03  0.35141131994E+03  0.00000000000E+00 0. -1.
         22    1    4    4    0    0 -0.15449284009E+01 -0.44888057463E+00  0.11917647190E+02  0.12025747880E+02  0.00000000000E+00 0. -1.
<mgrwt>
<rscale>  0 0.91477971E+02</rscale>
<asrwt>0</asrwt>
<pdfrwt beam="1">  1        2 0.71282317E-01 0.91477971E+02</pdfrwt>
<pdfrwt beam="2">  1       -2 0.69464759E-03 0.91477971E+02</pdfrwt>
<totfact> 0.20829068E+05</totfact>
</mgrwt>
</event>
<event>
 7    1  0.3480999E-009  0.9186785E+02  0.7818608E-02  0.1298390E+00
          2   -1    0    0  501    0  0.00000000000E+00  0.00000000000E+00  0.22317336086E+02  0.22317336232E+02  0.25500000000E-02 0. -1.
         -2   -1    0    0    0  501 -0.00000000000E+00 -0.00000000000E+00 -0.94541997375E+02  0.94541997410E+02  0.25500000000E-02 0.  1.
         23    2    1    2    0    0  0.55511151231E-16  0.00000000000E+00 -0.72224661289E+02  0.11685933364E+03  0.91867851617E+02 0.  0.
    9000005    2    3    3    0    0  0.15732248236E+00  0.30036782620E+02 -0.79164794840E+02  0.86030799550E+02  0.15231568162E+02 0.  0.
         22    1    3    3    0    0 -0.15732248236E+00 -0.30036782620E+02  0.69401335510E+01  0.30828534091E+02  0.00000000000E+00 0. -1.
         22    1    4    4    0    0 -0.67441328813E+01  0.19668703557E+02 -0.55899457472E+02  0.59641349529E+02  0.00000000000E+00 0.  1.
         22    1    4    4    0    0  0.69014553636E+01  0.10368079063E+02 -0.23265337368E+02  0.26389450021E+02  0.00000000000E+00 0.  1.
<mgrwt>
<rscale>  0 0.91867852E+02</rscale>
<asrwt>0</asrwt>
<pdfrwt beam="1">  1        2 0.34334364E-02 0.91867852E+02</pdfrwt>
<pdfrwt beam="2">  1       -2 0.14544923E-01 0.91867852E+02</pdfrwt>
<totfact> 0.79632294E+04</totfact>
</mgrwt>
</event>
<event>
 7    1  0.3480999E-009  0.8923135E+02  0.7818608E-02  0.1304724E+00
          2   -1    0    0  501    0  0.00000000000E+00  0.00000000000E+00  0.28994718227E+03  0.28994718228E+03  0.25500000000E-02 0. -1.
         -2   -1    0    0    0  501 -0.00000000000E+00 -0.00000000000E+00 -0.68652446126E+01  0.68652450862E+01  0.25500000000E-02 0.  1.
         23    2    1    2    0    0  0.00000000000E+00  0.00000000000E+00  0.28308193765E+03  0.29681242736E+03  0.89231348817E+02 0.  0.
    9000005    2    3    3    0    0 -0.27900935173E+02 -0.22462897315E+02  0.22930760574E+03  0.23220033320E+03  0.72092128059E+01 0.  0.
         22    1    3    3    0    0  0.27900935173E+02  0.22462897315E+02  0.53774331912E+02  0.64612094161E+02  0.00000000000E+00 0.  1.
         22    1    4    4    0    0 -0.86012450519E+01 -0.10579141720E+02  0.73671628270E+02  0.74922683267E+02  0.00000000000E+00 0.  1.
         22    1    4    4    0    0 -0.19299690121E+02 -0.11883755594E+02  0.15563597747E+03  0.15727764993E+03  0.00000000000E+00 0.  1.
<mgrwt>
<rscale>  0 0.89231349E+02</rscale>
<asrwt>0</asrwt>
<pdfrwt beam="1">  1        2 0.44607264E-01 0.89231349E+02</pdfrwt>
<pdfrwt beam="2">  1       -2 0.10561914E-02 0.89231349E+02</pdfrwt>
<totfact> 0.18788881E+05</totfact>
</mgrwt>
</event>
<event>
 7    1  0.3480999E-009  0.9153778E+02  0.7818608E-02  0.1299170E+00
         -2   -1    0    0    0  501 -0.00000000000E+00  0.00000000000E+00  0.42362356767E+02  0.42362356844E+02  0.25500000000E-02 0.  1.
          2   -1    0    0  501    0  0.00000000000E+00 -0.00000000000E+00 -0.49449354019E+02  0.49449354085E+02  0.25500000000E-02 0. -1.
         23    2    1    2    0    0  0.00000000000E+00  0.00000000000E+00 -0.70869972527E+01  0.91811710929E+02  0.91537777631E+02 0.  0.
    9000005    2    3    3    0    0 -0.16170948998E+02 -0.30826070086E+02 -0.31850459812E+02  0.49091981688E+02  0.13558196317E+02 0.  0.
         22    1    3    3    0    0  0.16170948998E+02  0.30826070086E+02  0.24763462559E+02  0.42719729241E+02  0.00000000000E+00 0.  1.
         22    1    4    4    0    0 -0.12579102578E+02 -0.99582589807E+01 -0.15841134117E+02  0.22546447031E+02  0.00000000000E+00 0. -1.
         22    1    4    4    0    0 -0.35918464205E+01 -0.20867811106E+02 -0.16009325695E+02  0.26545534658E+02  0.00000000000E+00 0. -1.
<mgrwt>
<rscale>  0 0.91537778E+02</rscale>
<asrwt>0</asrwt>
<pdfrwt beam="2">  1        2 0.76075929E-02 0.91537778E+02</pdfrwt>
<pdfrwt beam="1">  1       -2 0.65172857E-02 0.91537778E+02</pdfrwt>
<totfact> 0.99653321E+04</totfact>
</mgrwt>
</event>
<event>
 7    1  0.3480999E-009  0.9317368E+02  0.7818608E-02  0.1295343E+00
          2   -1    0    0  501    0  0.00000000000E+00  0.00000000000E+00  0.63476519409E+01  0.63476524531E+01  0.25500000000E-02 0. -1.
         -2   -1    0    0    0  501 -0.00000000000E+00 -0.00000000000E+00 -0.34191127665E+03  0.34191127666E+03  0.25500000000E-02 0.  1.
         23    2    1    2    0    0  0.00000000000E+00  0.00000000000E+00 -0.33556362471E+03  0.34825892911E+03  0.93173684475E+02 0.  0.
    9000005    2    3    3    0    0 -0.27767191742E+02 -0.16920789168E+02 -0.29205825199E+03  0.29394458940E+03  0.69331837230E+01 0.  0.
         22    1    3    3    0    0  0.27767191742E+02  0.16920789168E+02 -0.43505372716E+02  0.54314339714E+02  0.00000000000E+00 0. -1.
         22    1    4    4    0    0 -0.98465339215E+01 -0.65085358455E+01 -0.13695839992E+03  0.13746606336E+03  0.00000000000E+00 0.  1.
         22    1    4    4    0    0 -0.17920657821E+02 -0.10412253323E+02 -0.15509985207E+03  0.15647852603E+03  0.00000000000E+00 0.  1.
<mgrwt>
<rscale>  0 0.93173684E+02</rscale>
<asrwt>0</asrwt>
<pdfrwt beam="1">  1        2 0.97656214E-03 0.93173684E+02</pdfrwt>
<pdfrwt beam="2">  1       -2 0.52601721E-01 0.93173684E+02</pdfrwt>
<totfact> 0.44661985E+04</totfact>
</mgrwt>
</event>
<event>
 7    1  0.3480999E-009  0.9223546E+02  0.7818608E-02  0.1297527E+00
         -2   -1    0    0    0  501 -0.00000000000E+00  0.00000000000E+00  0.88648083129E+02  0.88648083166E+02  0.25500000000E-02 0.  1.
          2   -1    0    0  501    0  0.00000000000E+00 -0.00000000000E+00 -0.23991999679E+02  0.23991999814E+02  0.25500000000E-02 0. -1.
         23    2    1    2    0    0 -0.16653345369E-15  0.00000000000E+00  0.64656083450E+02  0.11264008298E+03  0.92235455041E+02 0.  0.
    9000005    2    3    3    0    0 -0.26836629540E+00  0.45533896911E+02  0.29790477286E+02  0.55290119757E+02  0.98039286741E+01 0.  0.
         22    1    3    3    0    0  0.26836629540E+00 -0.45533896911E+02  0.34865606165E+02  0.57349963223E+02  0.00000000000E+00 0.  1.
         22    1    4    4    0    0  0.41290228722E+01  0.10867178103E+02  0.78962289057E+01  0.14053285051E+02  0.00000000000E+00 0. -1.
         22    1    4    4    0    0 -0.43973891677E+01  0.34666718809E+02  0.21894248380E+02  0.41236834706E+02  0.00000000000E+00 0. -1.
<mgrwt>
<rscale>  0 0.92235455E+02</rscale>
<asrwt>0</asrwt>
<pdfrwt beam="2">  1        2 0.36910769E-02 0.92235455E+02</pdfrwt>
<pdfrwt beam="1">  1       -2 0.13638167E-01 0.92235455E+02</pdfrwt>
<totfact> 0.80334345E+04</totfact>
</mgrwt>
</event>
<event>
 7    1  0.3480999E-009  0.8966342E+02  0.7818608E-02  0.1303669E+00
          2   -1    0    0  501    0  0.00000000000E+00  0.00000000000E+00  0.18856232849E+03  0.18856232851E+03  0.25500000000E-02 0. -1.
         -2   -1    0    0    0  501 -0.00000000000E+00 -0.00000000000E+00 -0.10658980855E+02  0.10658981160E+02  0.25500000000E-02 0.  1.
         23    2    1    2    0    0  0.00000000000E+00  0.00000000000E+00  0.17790334764E+03  0.19922130967E+03  0.89663421339E+02 0.  0.
    9000005    2    3    3    0    0 -0.45039815511E+01 -0.43274684895E+02  0.73846771507E+02  0.86434984087E+02  0.11165868059E+02 0.  0.
         22    1    3    3    0    0  0.45039815511E+01  0.43274684895E+02  0.10405657613E+03  0.11278632558E+03  0.00000000000E+00 0. -1.
         22    1    4    4    0    0  0.18563818416E+01 -0.31614078744E+01  0.28558419101E+01  0.46472019868E+01  0.00000000000E+00 0.  1.
         22    1    4    4    0    0 -0.63603633927E+01 -0.40113277021E+02  0.70990929597E+02  0.81787782100E+02  0.00000000000E+00 0.  1.
<mgrwt>
<rscale>  0 0.89663421E+02</rscale>
<asrwt>0</asrwt>
<pdfrwt beam="1">  1        2 0.29009589E-01 0.89663421E+02</pdfrwt>
<pdfrwt beam="2">  1       -2 0.16398432E-02 0.89663421E+02</pdfrwt>
<totfact> 0.15841508E+05</totfact>
</mgrwt>
</event>
<event>
 7    1  0.3480999E-009  0.9224706E+02  0.7818608E-02  0.1297500E+00
         -2   -1    0    0    0  501 -0.00000000000E+00  0.00000000000E+00  0.12969018615E+02  0.12969018866E+02  0.25500000000E-02 0.  1.
          2   -1    0    0  501    0  0.00000000000E+00 -0.00000000000E+00 -0.16403553600E+03  0.16403553602E+03  0.25500000000E-02 0. -1.
         23    2    1    2    0    0  0.00000000000E+00  0.00000000000E+00 -0.15106651739E+03  0.17700455489E+03  0.92247058357E+02 0.  0.
    9000005    2    3    3    0    0  0.71456132752E+01 -0.45115587677E+02 -0.66738125868E+02  0.81099635010E+02  0.60578307840E+01 0.  0.
         22    1    3    3    0    0 -0.71456132752E+01  0.45115587677E+02 -0.84328391520E+02  0.95904919878E+02  0.00000000000E+00 0.  1.
         22    1    4    4    0    0  0.63710782829E+01 -0.21659745313E+02 -0.31214233148E+02  0.38523545483E+02  0.00000000000E+00 0. -1.
         22    1    4    4    0    0  0.77453499234E+00 -0.23455842364E+02 -0.35523892719E+02  0.42576089527E+02  0.00000000000E+00 0. -1.
<mgrwt>
<rscale>  0 0.92247058E+02</rscale>
<asrwt>0</asrwt>
<pdfrwt beam="2">  1        2 0.25236235E-01 0.92247058E+02</pdfrwt>
<pdfrwt beam="1">  1       -2 0.19952338E-02 0.92247058E+02</pdfrwt>
<totfact> 0.13968420E+05</totfact>
</mgrwt>
</event>
<event>
 7    1  0.3480999E-009  0.9760341E+02  0.7818608E-02  0.1285418E+00
         -2   -1    0    0    0  501 -0.00000000000E+00  0.00000000000E+00  0.54721932163E+01  0.54721938104E+01  0.25500000000E-02 0.  1.
          2   -1    0    0  501    0  0.00000000000E+00 -0.00000000000E+00 -0.43521966140E+03  0.43521966141E+03  0.25500000000E-02 0. -1.
         23    2    1    2    0    0  0.00000000000E+00  0.35527136788E-14 -0.42974746819E+03  0.44069185522E+03  0.97603405910E+02 0.  0.
    9000005    2    3    3    0    0 -0.70413105326E+01  0.29559466560E+02 -0.38702188190E+03  0.38826268547E+03  0.62156045893E+01 0.  0.
         22    1    3    3    0    0  0.70413105326E+01 -0.29559466560E+02 -0.42725586284E+02  0.52429169750E+02  0.00000000000E+00 0.  1.
         22    1    4    4    0    0 -0.79007524148E+01  0.21713641230E+02 -0.29391602999E+03  0.29482289054E+03  0.00000000000E+00 0. -1.
         22    1    4    4    0    0  0.85944188222E+00  0.78458253307E+01 -0.93105851913E+02  0.93439794926E+02  0.00000000000E+00 0. -1.
<mgrwt>
<rscale>  0 0.97603406E+02</rscale>
<asrwt>0</asrwt>
<pdfrwt beam="2">  1        2 0.66956844E-01 0.97603406E+02</pdfrwt>
<pdfrwt beam="1">  1       -2 0.84187627E-03 0.97603406E+02</pdfrwt>
<totfact> 0.17155152E+05</totfact>
</mgrwt>
</event>
<event>
 7    1  0.3480999E-009  0.9421251E+02  0.7818608E-02  0.1292960E+00
         -2   -1    0    0    0  501 -0.00000000000E+00  0.00000000000E+00  0.83758248496E+01  0.83758252377E+01  0.25500000000E-02 0.  1.
          2   -1    0    0  501    0  0.00000000000E+00 -0.00000000000E+00 -0.26492905104E+03  0.26492905105E+03  0.25500000000E-02 0. -1.
         23    2    1    2    0    0  0.00000000000E+00  0.35527136788E-14 -0.25655322619E+03  0.27330487629E+03  0.94212512626E+02 0.  0.
    9000005    2    3    3    0    0 -0.37931279736E+02  0.19676572812E+02 -0.82493151928E+02  0.94076365857E+02  0.14808544753E+02 0.  0.
         22    1    3    3    0    0  0.37931279736E+02 -0.19676572812E+02 -0.17406007426E+03  0.17922851044E+03  0.00000000000E+00 0. -1.
         22    1    4    4    0    0 -0.31522665317E+02  0.10958514887E+02 -0.70003531707E+02  0.77551672636E+02  0.00000000000E+00 0.  1.
         22    1    4    4    0    0 -0.64086144184E+01  0.87180579253E+01 -0.12489620221E+02  0.16524693220E+02  0.00000000000E+00 0.  1.
<mgrwt>
<rscale>  0 0.94212513E+02</rscale>
<asrwt>0</asrwt>
<pdfrwt beam="2">  1        2 0.40758309E-01 0.94212513E+02</pdfrwt>
<pdfrwt beam="1">  1       -2 0.12885887E-02 0.94212513E+02</pdfrwt>
<totfact> 0.15709825E+05</totfact>
</mgrwt>
</event>
<event>
 7    1  0.3480999E-009  0.9530037E+02  0.7818608E-02  0.1290501E+00
         -2   -1    0    0    0  501 -0.00000000000E+00  0.00000000000E+00  0.48593829806E+02  0.48593829873E+02  0.25500000000E-02 0.  1.
          2   -1    0    0  501    0  0.00000000000E+00 -0.00000000000E+00 -0.46724861227E+02  0.46724861296E+02  0.25500000000E-02 0. -1.
         23    2    1    2    0    0  0.00000000000E+00  0.00000000000E+00  0.18689685790E+01  0.95318691169E+02  0.95300366435E+02 0.  0.
    9000005    2    3    3    0    0 -0.41935280539E+02  0.40222540405E+01 -0.18436511137E+02  0.48552690827E+02  0.15579234970E+02 0.  0.
         22    1    3    3    0    0  0.41935280539E+02 -0.40222540405E+01  0.20305479716E+02  0.46766000341E+02  0.00000000000E+00 0.  1.
         22    1    4    4    0    0 -0.22060149470E+02 -0.36610257513E+00 -0.15705490041E+01  0.22119015573E+02  0.00000000000E+00 0.  1.
         22    1    4    4    0    0 -0.19875131068E+02  0.43883566157E+01 -0.16865962133E+02  0.26433675254E+02  0.00000000000E+00 0.  1.
<mgrwt>
<rscale>  0 0.95300366E+02</rscale>
<asrwt>0</asrwt>
<pdfrwt beam="2">  1        2 0.71884403E-02 0.95300366E+02</pdfrwt>
<pdfrwt beam="1">  1       -2 0.74759738E-02 0.95300366E+02</pdfrwt>
<totfact> 0.87428132E+04</totfact>
</mgrwt>
</event>
<event>
 7    1  0.3480999E-009  0.9146745E+02  0.7818608E-02  0.1299336E+00
         -2   -1    0    0    0  501 -0.00000000000E+00  0.00000000000E+00  0.36696654048E+02  0.36696654137E+02  0.25500000000E-02 0.  1.
          2   -1    0    0  501    0  0.00000000000E+00 -0.00000000000E+00 -0.56996303590E+02  0.56996303647E+02  0.25500000000E-02 0. -1.
         23    2    1    2    0    0  0.00000000000E+00  0.00000000000E+00 -0.20299649541E+02  0.93692957784E+02  0.91467450860E+02 0.  0.
    9000005    2    3    3    0    0 -0.31984608481E+02  0.31001375468E+02 -0.46889176409E+01  0.46493430127E+02  0.12472074234E+02 0.  0.
         22    1    3    3    0    0  0.31984608481E+02 -0.31001375468E+02 -0.15610731901E+02  0.47199527657E+02  0.00000000000E+00 0.  1.
         22    1    4    4    0    0 -0.17625165831E+02  0.18462363213E+02  0.34659820091E+01  0.25758850076E+02  0.00000000000E+00 0.  1.
         22    1    4    4    0    0 -0.14359442650E+02  0.12539012255E+02 -0.81548996500E+01  0.20734580050E+02  0.00000000000E+00 0.  1.
<mgrwt>
<rscale>  0 0.91467451E+02</rscale>
<asrwt>0</asrwt>
<pdfrwt beam="2">  1        2 0.87686621E-02 0.91467451E+02</pdfrwt>
<pdfrwt beam="1">  1       -2 0.56456391E-02 0.91467451E+02</pdfrwt>
<totfact> 0.10368567E+05</totfact>
</mgrwt>
</event>
<event>
 7    1  0.3480999E-009  0.8992000E+02  0.7818608E-02  0.1303046E+00
          2   -1    0    0  501    0  0.00000000000E+00  0.00000000000E+00  0.82382709535E+03  0.82382709535E+03  0.25500000000E-02 0.  1.
         -2   -1    0    0    0  501 -0.00000000000E+00 -0.00000000000E+00 -0.24536714306E+01  0.24536727557E+01  0.25500000000E-02 0. -1.
         23    2    1    2    0    0  0.00000000000E+00  0.00000000000E+00  0.82137342392E+03  0.82628076811E+03  0.89919999036E+02 0.  0.
    9000005    2    3    3    0    0 -0.17443467895E+02  0.34592760438E+02  0.61114834381E+03  0.61251566817E+03  0.13122955456E+02 0.  0.
         22    1    3    3    0    0  0.17443467895E+02 -0.34592760438E+02  0.21022508010E+03  0.21376509994E+03  0.00000000000E+00 0. -1.
         22    1    4    4    0    0  0.53119724654E+00 -0.73365909095E+00  0.31871575305E+02  0.31884443520E+02  0.00000000000E+00 0.  1.
         22    1    4    4    0    0 -0.17974665142E+02  0.35326419529E+02  0.57927676851E+03  0.58063122465E+03  0.00000000000E+00 0.  1.
<mgrwt>
<rscale>  0 0.89919999E+02</rscale>
<asrwt>0</asrwt>
<pdfrwt beam="1">  1        2 0.12674275E+00 0.89919999E+02</pdfrwt>
<pdfrwt beam="2">  1       -2 0.37748765E-03 0.89919999E+02</pdfrwt>
<totfact> 0.25406434E+05</totfact>
</mgrwt>
</event>
<event>
 7    1  0.3480999E-009  0.9171051E+02  0.7818608E-02  0.1298762E+00
         -2   -1    0    0    0  501 -0.00000000000E+00  0.00000000000E+00  0.42185953082E+02  0.42185953159E+02  0.25500000000E-02 0. -1.
          2   -1    0    0  501    0  0.00000000000E+00 -0.00000000000E+00 -0.49843713949E+02  0.49843714015E+02  0.25500000000E-02 0.  1.
         23    2    1    2    0    0  0.00000000000E+00  0.71054273576E-14 -0.76577608673E+01  0.92029667174E+02  0.91710513784E+02 0.  0.
    9000005    2    3    3    0    0 -0.29150827983E+02  0.33968425641E+02  0.50381195715E+01  0.45502147438E+02  0.64372400888E+01 0.  0.
         22    1    3    3    0    0  0.29150827983E+02 -0.33968425641E+02 -0.12695880439E+02  0.46527519736E+02  0.00000000000E+00 0.  1.
         22    1    4    4    0    0 -0.87311358238E-01 -0.18610797377E+00  0.35688720107E+00  0.41185910875E+00  0.00000000000E+00 0. -1.
         22    1    4    4    0    0 -0.29063516625E+02  0.34154533615E+02  0.46812323705E+01  0.45090288329E+02  0.00000000000E+00 0. -1.
<mgrwt>
<rscale>  0 0.91710514E+02</rscale>
<asrwt>0</asrwt>
<pdfrwt beam="2">  1        2 0.76682638E-02 0.91710514E+02</pdfrwt>
<pdfrwt beam="1">  1       -2 0.64901466E-02 0.91710514E+02</pdfrwt>
<totfact> 0.99324278E+04</totfact>
</mgrwt>
</event>
<event>
 7    1  0.3480999E-009  0.6896157E+02  0.7818608E-02  0.1363660E+00
         -2   -1    0    0    0  501 -0.00000000000E+00  0.00000000000E+00  0.76663553771E+02  0.76663553813E+02  0.25500000000E-02 0.  1.
          2   -1    0    0  501    0  0.00000000000E+00 -0.00000000000E+00 -0.15508340522E+02  0.15508340731E+02  0.25500000000E-02 0. -1.
         23    2    1    2    0    0  0.00000000000E+00  0.00000000000E+00  0.61155213249E+02  0.92171894545E+02  0.68961569271E+02 0.  0.
    9000005    2    3    3    0    0 -0.21415970842E+02 -0.26196044192E+02  0.26818403999E+02  0.43965121079E+02  0.82962967673E+01 0.  0.
         22    1    3    3    0    0  0.21415970842E+02  0.26196044192E+02  0.34336809251E+02  0.48206773465E+02  0.00000000000E+00 0. -1.
         22    1    4    4    0    0 -0.11585532562E+02 -0.93203944296E+01  0.81906545777E+01  0.16975898783E+02  0.00000000000E+00 0.  1.
         22    1    4    4    0    0 -0.98304382804E+01 -0.16875649762E+02  0.18627749421E+02  0.26989222297E+02  0.00000000000E+00 0.  1.
<mgrwt>
<rscale>  0 0.68961569E+02</rscale>
<asrwt>0</asrwt>
<pdfrwt beam="2">  1        2 0.23858986E-02 0.68961569E+02</pdfrwt>
<pdfrwt beam="1">  1       -2 0.11794393E-01 0.68961569E+02</pdfrwt>
<totfact> 0.17098101E+05</totfact>
</mgrwt>
</event>
<event>
 7    1  0.3480999E-009  0.9126014E+02  0.7818608E-02  0.1299828E+00
         -2   -1    0    0    0  501 -0.00000000000E+00  0.00000000000E+00  0.87392990760E+02  0.87392990797E+02  0.25500000000E-02 0.  1.
          2   -1    0    0  501    0  0.00000000000E+00 -0.00000000000E+00 -0.23824603575E+02  0.23824603711E+02  0.25500000000E-02 0. -1.
         23    2    1    2    0    0 -0.35527136788E-14  0.00000000000E+00  0.63568387185E+02  0.11121759451E+03  0.91260141786E+02 0.  0.
    9000005    2    3    3    0    0 -0.28581753035E+02 -0.85740768352E+01 -0.76572638435E+01  0.33993733140E+02  0.14370414158E+02 0.  0.
         22    1    3    3    0    0  0.28581753035E+02  0.85740768352E+01  0.71225651029E+02  0.77223861368E+02  0.00000000000E+00 0.  1.
         22    1    4    4    0    0 -0.68613708995E+01  0.22557824871E+01  0.25562544954E+01  0.76616840378E+01  0.00000000000E+00 0.  1.
         22    1    4    4    0    0 -0.21720382136E+02 -0.10829859322E+02 -0.10213518339E+02  0.26332049102E+02  0.00000000000E+00 0.  1.
<mgrwt>
<rscale>  0 0.91260142E+02</rscale>
<asrwt>0</asrwt>
<pdfrwt beam="2">  1        2 0.36653236E-02 0.91260142E+02</pdfrwt>
<pdfrwt beam="1">  1       -2 0.13445076E-01 0.91260142E+02</pdfrwt>
<totfact> 0.82811207E+04</totfact>
</mgrwt>
</event>
<event>
 7    1  0.3480999E-009  0.9353758E+02  0.7818608E-02  0.1294504E+00
         -2   -1    0    0    0  501 -0.00000000000E+00  0.00000000000E+00  0.27390631306E+03  0.27390631307E+03  0.25500000000E-02 0.  1.
          2   -1    0    0  501    0  0.00000000000E+00 -0.00000000000E+00 -0.79856481907E+01  0.79856485978E+01  0.25500000000E-02 0. -1.
         23    2    1    2    0    0  0.00000000000E+00  0.00000000000E+00  0.26592066487E+03  0.28189196167E+03  0.93537575602E+02 0.  0.
    9000005    2    3    3    0    0  0.89805199971E+01  0.38104791010E+02  0.65105894638E+02  0.77296759428E+02  0.14261369645E+02 0.  0.
         22    1    3    3    0    0 -0.89805199971E+01 -0.38104791010E+02  0.20081477023E+03  0.20459520224E+03  0.00000000000E+00 0.  1.
         22    1    4    4    0    0 -0.22770705351E+01  0.21385713348E+02  0.34068420194E+02  0.40288845108E+02  0.00000000000E+00 0.  1.
         22    1    4    4    0    0  0.11257590532E+02  0.16719077661E+02  0.31037474445E+02  0.37007914320E+02  0.00000000000E+00 0.  1.
<mgrwt>
<rscale>  0 0.93537576E+02</rscale>
<asrwt>0</asrwt>
<pdfrwt beam="2">  1        2 0.12285611E-02 0.93537576E+02</pdfrwt>
<pdfrwt beam="1">  1       -2 0.42139440E-01 0.93537576E+02</pdfrwt>
<totfact> 0.50185421E+04</totfact>
</mgrwt>
</event>
<event>
 7    1  0.3480999E-009  0.8671820E+02  0.7818608E-02  0.1310999E+00
         -2   -1    0    0    0  501 -0.00000000000E+00  0.00000000000E+00  0.23282642969E+02  0.23282643108E+02  0.25500000000E-02 0.  1.
          2   -1    0    0  501    0  0.00000000000E+00 -0.00000000000E+00 -0.80747344914E+02  0.80747344954E+02  0.25500000000E-02 0. -1.
         23    2    1    2    0    0  0.00000000000E+00  0.35527136788E-14 -0.57464701946E+02  0.10402998806E+03  0.86718201357E+02 0.  0.
    9000005    2    3    3    0    0  0.17029955054E+02  0.22267958734E+02  0.89731629787E+01  0.31919855272E+02  0.12348204382E+02 0.  0.
         22    1    3    3    0    0 -0.17029955054E+02 -0.22267958734E+02 -0.66437864924E+02  0.72110132790E+02  0.00000000000E+00 0. -1.
         22    1    4    4    0    0  0.39846309275E+01  0.35703475868E+01  0.73124826402E+01  0.90607432301E+01  0.00000000000E+00 0.  1.
         22    1    4    4    0    0  0.13045324127E+02  0.18697611147E+02  0.16606803386E+01  0.22859112042E+02  0.00000000000E+00 0.  1.
<mgrwt>
<rscale>  0 0.86718201E+02</rscale>
<asrwt>0</asrwt>
<pdfrwt beam="2">  1        2 0.12422668E-01 0.86718201E+02</pdfrwt>
<pdfrwt beam="1">  1       -2 0.35819451E-02 0.86718201E+02</pdfrwt>
<totfact> 0.13228571E+05</totfact>
</mgrwt>
</event>
<event>
 7    1  0.3480999E-009  0.9337026E+02  0.7818608E-02  0.1294889E+00
          2   -1    0    0  501    0  0.00000000000E+00  0.00000000000E+00  0.29199998611E+02  0.29199998722E+02  0.25500000000E-02 0. -1.
         -2   -1    0    0    0  501 -0.00000000000E+00 -0.00000000000E+00 -0.74640464155E+02  0.74640464198E+02  0.25500000000E-02 0.  1.
         23    2    1    2    0    0  0.00000000000E+00  0.00000000000E+00 -0.45440465544E+02  0.10384046292E+03  0.93370262025E+02 0.  0.
    9000005    2    3    3    0    0 -0.36802432682E+02 -0.25755053673E+02 -0.11206982724E+02  0.47363271179E+02  0.99970572659E+01 0.  0.
         22    1    3    3    0    0  0.36802432682E+02  0.25755053673E+02 -0.34233482820E+02  0.56477191741E+02  0.00000000000E+00 0. -1.
         22    1    4    4    0    0 -0.84304986979E+00 -0.35037805915E+01  0.47760003303E-01  0.36040938576E+01  0.00000000000E+00 0.  1.
         22    1    4    4    0    0 -0.35959382812E+02 -0.22251273082E+02 -0.11254742727E+02  0.43759177321E+02  0.00000000000E+00 0.  1.
<mgrwt>
<rscale>  0 0.93370262E+02</rscale>
<asrwt>0</asrwt>
<pdfrwt beam="1">  1        2 0.44923075E-02 0.93370262E+02</pdfrwt>
<pdfrwt beam="2">  1       -2 0.11483148E-01 0.93370262E+02</pdfrwt>
<totfact> 0.81808433E+04</totfact>
</mgrwt>
</event>
<event>
 7    1  0.3480999E-009  0.9209068E+02  0.7818608E-02  0.1297866E+00
          2   -1    0    0  501    0  0.00000000000E+00  0.00000000000E+00  0.23694832351E+03  0.23694832352E+03  0.25500000000E-02 0.  1.
         -2   -1    0    0    0  501 -0.00000000000E+00 -0.00000000000E+00 -0.89478298556E+01  0.89478302190E+01  0.25500000000E-02 0. -1.
         23    2    1    2    0    0  0.71054273576E-14  0.00000000000E+00  0.22800049365E+03  0.24589615374E+03  0.92090679869E+02 0.  0.
    9000005    2    3    3    0    0 -0.39825833355E+02  0.15048253553E+02  0.15475410476E+03  0.16117555163E+03  0.14703012049E+02 0.  0.
         22    1    3    3    0    0  0.39825833355E+02 -0.15048253553E+02  0.73246388888E+02  0.84720602114E+02  0.00000000000E+00 0.  1.
         22    1    4    4    0    0 -0.19110930532E+02  0.92578078853E+01  0.10233797409E+03  0.10451792006E+03  0.00000000000E+00 0.  1.
         22    1    4    4    0    0 -0.20714902823E+02  0.57904456676E+01  0.52416130677E+02  0.56657631570E+02  0.00000000000E+00 0.  1.
<mgrwt>
<rscale>  0 0.92090680E+02</rscale>
<asrwt>0</asrwt>
<pdfrwt beam="1">  1        2 0.36453591E-01 0.92090680E+02</pdfrwt>
<pdfrwt beam="2">  1       -2 0.13765891E-02 0.92090680E+02</pdfrwt>
<totfact> 0.16022055E+05</totfact>
</mgrwt>
</event>
<event>
 7    1  0.3519021E-009  0.9149534E+02  0.7818608E-02  0.1299270E+00
         -2   -1    0    0    0  501 -0.00000000000E+00  0.00000000000E+00  0.84519152582E+01  0.84519156428E+01  0.25500000000E-02 0.  1.
          2   -1    0    0  501    0  0.00000000000E+00 -0.00000000000E+00 -0.24761831854E+03  0.24761831855E+03  0.25500000000E-02 0. -1.
         23    2    1    2    0    0  0.00000000000E+00  0.00000000000E+00 -0.23916640328E+03  0.25607023420E+03  0.91495335304E+02 0.  0.
    9000005    2    3    3    0    0  0.37587133877E+02  0.22481354893E+02 -0.14344538021E+03  0.15080524377E+03  0.15730241408E+02 0.  0.
         22    1    3    3    0    0 -0.37587133877E+02 -0.22481354893E+02 -0.95721023073E+02  0.10526499042E+03  0.00000000000E+00 0. -1.
         22    1    4    4    0    0  0.12248579279E+02  0.13810655625E+02 -0.76639288468E+02  0.78831100716E+02  0.00000000000E+00 0.  1.
         22    1    4    4    0    0  0.25338554598E+02  0.86706992682E+01 -0.66806091741E+02  0.71974143056E+02  0.00000000000E+00 0.  1.
<mgrwt>
<rscale>  0 0.91495335E+02</rscale>
<asrwt>0</asrwt>
<pdfrwt beam="2">  1        2 0.38095120E-01 0.91495335E+02</pdfrwt>
<pdfrwt beam="1">  1       -2 0.13002949E-02 0.91495335E+02</pdfrwt>
<totfact> 0.16571047E+05</totfact>
</mgrwt>
</event>
<event>
 7    1  0.3480999E-009  0.9333126E+02  0.7818608E-02  0.1294979E+00
         -2   -1    0    0    0  501 -0.00000000000E+00  0.00000000000E+00  0.10499051402E+02  0.10499051712E+02  0.25500000000E-02 0.  1.
          2   -1    0    0  501    0  0.00000000000E+00 -0.00000000000E+00 -0.20741691457E+03  0.20741691459E+03  0.25500000000E-02 0. -1.
         23    2    1    2    0    0  0.00000000000E+00  0.35527136788E-14 -0.19691786317E+03  0.21791596630E+03  0.93331256999E+02 0.  0.
    9000005    2    3    3    0    0  0.21152742162E+02  0.28231280930E+02 -0.27504100841E+02  0.44868381542E+02  0.35003393032E+01 0.  0.
         22    1    3    3    0    0 -0.21152742162E+02 -0.28231280930E+02 -0.16941376233E+03  0.17304758476E+03  0.00000000000E+00 0. -1.
         22    1    4    4    0    0  0.41961278409E+00  0.94026910371E+00 -0.16178522766E+01  0.19177139685E+01  0.00000000000E+00 0.  1.
         22    1    4    4    0    0  0.20733129378E+02  0.27291011826E+02 -0.25886248564E+02  0.42950667574E+02  0.00000000000E+00 0.  1.
<mgrwt>
<rscale>  0 0.93331257E+02</rscale>
<asrwt>0</asrwt>
<pdfrwt beam="2">  1        2 0.31910292E-01 0.93331257E+02</pdfrwt>
<pdfrwt beam="1">  1       -2 0.16152389E-02 0.93331257E+02</pdfrwt>
<totfact> 0.14717236E+05</totfact>
</mgrwt>
</event>
<event>
 7    1  0.3480999E-009  0.9377483E+02  0.7818608E-02  0.1293960E+00
         -2   -1    0    0    0  501 -0.00000000000E+00  0.00000000000E+00  0.16942721558E+02  0.16942721750E+02  0.25500000000E-02 0.  1.
          2   -1    0    0  501    0  0.00000000000E+00 -0.00000000000E+00 -0.12975657952E+03  0.12975657954E+03  0.25500000000E-02 0. -1.
         23    2    1    2    0    0 -0.35527136788E-14  0.00000000000E+00 -0.11281385796E+03  0.14669930129E+03  0.93774828456E+02 0.  0.
    9000005    2    3    3    0    0  0.27850677894E+02  0.21044357263E+02 -0.11528559532E+02  0.39567434375E+02  0.14633828834E+02 0.  0.
         22    1    3    3    0    0 -0.27850677894E+02 -0.21044357263E+02 -0.10128529843E+03  0.10713186692E+03  0.00000000000E+00 0.  1.
         22    1    4    4    0    0  0.14748548962E+02  0.15152779451E+02  0.38378713726E-02  0.21145364417E+02  0.00000000000E+00 0. -1.
         22    1    4    4    0    0  0.13102128932E+02  0.58915778115E+01 -0.11532397404E+02  0.18422069958E+02  0.00000000000E+00 0. -1.
<mgrwt>
<rscale>  0 0.93774828E+02</rscale>
<asrwt>0</asrwt>
<pdfrwt beam="2">  1        2 0.19962550E-01 0.93774828E+02</pdfrwt>
<pdfrwt beam="1">  1       -2 0.26065727E-02 0.93774828E+02</pdfrwt>
<totfact> 0.12334995E+05</totfact>
</mgrwt>
</event>
<event>
 6    1  0.6889085E-009  0.1734109E+03  0.7818608E-02  0.1174337E+00
         -2   -1    0    0    0  501 -0.00000000000E+00  0.00000000000E+00  0.76607583122E+01  0.76607587366E+01  0.25500000000E-02 0. -1.
          2   -1    0    0  501    0  0.00000000000E+00 -0.00000000000E+00 -0.98134313181E+03  0.98134313182E+03  0.25500000000E-02 0.  1.
    9000005    2    1    2    0    0 -0.18264554724E+02  0.64140556283E+02 -0.80182441285E+03  0.80465974619E+03  0.10359207813E+02 0.  0.
         22    1    1    2    0    0  0.18264554724E+02 -0.64140556283E+02 -0.17185796065E+03  0.18434414436E+03  0.00000000000E+00 0. -1.
         22    1    3    3    0    0 -0.47918056177E+01  0.29477727068E+02 -0.40309391891E+03  0.40419872001E+03  0.00000000000E+00 0. -1.
         22    1    3    3    0    0 -0.13472749107E+02  0.34662829215E+02 -0.39873049394E+03  0.40046102619E+03  0.00000000000E+00 0. -1.
<mgrwt>
<rscale>  0 0.17341087E+03</rscale>
<asrwt>0</asrwt>
<pdfrwt beam="2">  1        2 0.15097577E+00 0.17341087E+03</pdfrwt>
<pdfrwt beam="1">  1       -2 0.11785790E-02 0.17341087E+03</pdfrwt>
<totfact> 0.43561353E+04</totfact>
</mgrwt>
</event>
<event>
 7    1  0.3480999E-009  0.9815045E+02  0.7818608E-02  0.1284234E+00
          2   -1    0    0  501    0  0.00000000000E+00  0.00000000000E+00  0.85785811877E+02  0.85785811915E+02  0.25500000000E-02 0. -1.
         -2   -1    0    0    0  501 -0.00000000000E+00 -0.00000000000E+00 -0.28074311194E+02  0.28074311310E+02  0.25500000000E-02 0.  1.
         23    2    1    2    0    0  0.35527136788E-14  0.00000000000E+00  0.57711500683E+02  0.11386012322E+03  0.98150447526E+02 0.  0.
    9000005    2    3    3    0    0 -0.23531456430E+02  0.41225543862E+02  0.43236652893E+02  0.64233556479E+02  0.18074058969E+01 0.  0.
         22    1    3    3    0    0  0.23531456430E+02 -0.41225543862E+02  0.14474847790E+02  0.49626566746E+02  0.00000000000E+00 0.  1.
         22    1    4    4    0    0 -0.21149150732E+02  0.37002475975E+02  0.39535714617E+02  0.58133832966E+02  0.00000000000E+00 0. -1.
         22    1    4    4    0    0 -0.23823056978E+01  0.42230678867E+01  0.37009382762E+01  0.60997235133E+01  0.00000000000E+00 0. -1.
<mgrwt>
<rscale>  0 0.98150448E+02</rscale>
<asrwt>0</asrwt>
<pdfrwt beam="1">  1        2 0.13197817E-01 0.98150448E+02</pdfrwt>
<pdfrwt beam="2">  1       -2 0.43191249E-02 0.98150448E+02</pdfrwt>
<totfact> 0.95421639E+04</totfact>
</mgrwt>
</event>
<event>
 7    1  0.3480999E-009  0.9161651E+02  0.7818608E-02  0.1298984E+00
         -2   -1    0    0    0  501 -0.00000000000E+00  0.00000000000E+00  0.10829991060E+02  0.10829991360E+02  0.25500000000E-02 0.  1.
          2   -1    0    0  501    0  0.00000000000E+00 -0.00000000000E+00 -0.19375788991E+03  0.19375788993E+03  0.25500000000E-02 0. -1.
         23    2    1    2    0    0  0.00000000000E+00  0.00000000000E+00 -0.18292789885E+03  0.20458788129E+03  0.91616510476E+02 0.  0.
    9000005    2    3    3    0    0 -0.57184955337E+01 -0.35943870656E+02 -0.15147132155E+03  0.15648196393E+03  0.14777711460E+02 0.  0.
         22    1    3    3    0    0  0.57184955337E+01  0.35943870656E+02 -0.31456577301E+02  0.48105917353E+02  0.00000000000E+00 0.  1.
         22    1    4    4    0    0 -0.66803096790E+01 -0.26210491827E+02 -0.82507438619E+02  0.86827955445E+02  0.00000000000E+00 0. -1.
         22    1    4    4    0    0  0.96181414530E+00 -0.97333788282E+01 -0.68963882929E+02  0.69654008489E+02  0.00000000000E+00 0. -1.
<mgrwt>
<rscale>  0 0.91616510E+02</rscale>
<asrwt>0</asrwt>
<pdfrwt beam="2">  1        2 0.29808904E-01 0.91616510E+02</pdfrwt>
<pdfrwt beam="1">  1       -2 0.16661526E-02 0.91616510E+02</pdfrwt>
<totfact> 0.15094899E+05</totfact>
</mgrwt>
</event>
<event>
 7    1  0.3480999E-009  0.9111054E+02  0.7818608E-02  0.1300184E+00
         -2   -1    0    0    0  501 -0.00000000000E+00  0.00000000000E+00  0.12316244580E+03  0.12316244582E+03  0.25500000000E-02 0.  1.
          2   -1    0    0  501    0  0.00000000000E+00 -0.00000000000E+00 -0.16849962223E+02  0.16849962416E+02  0.25500000000E-02 0. -1.
         23    2    1    2    0    0  0.00000000000E+00 -0.17763568394E-14  0.10631248357E+03  0.14001240824E+03  0.91110538891E+02 0.  0.
    9000005    2    3    3    0    0 -0.17551570486E+02  0.15774825548E+02 -0.62336750685E+01  0.25018753749E+02  0.54933220106E+01 0.  0.
         22    1    3    3    0    0  0.17551570486E+02 -0.15774825548E+02  0.11254615864E+03  0.11499365449E+03  0.00000000000E+00 0.  1.
         22    1    4    4    0    0 -0.17619420310E+02  0.14634092641E+02 -0.52205998886E+01  0.23491600684E+02  0.00000000000E+00 0.  1.
         22    1    4    4    0    0  0.67849824700E-01  0.11407329072E+01 -0.10130751800E+01  0.15271530652E+01  0.00000000000E+00 0.  1.
<mgrwt>
<rscale>  0 0.91110539E+02</rscale>
<asrwt>0</asrwt>
<pdfrwt beam="2">  1        2 0.25923019E-02 0.91110539E+02</pdfrwt>
<pdfrwt beam="1">  1       -2 0.18948068E-01 0.91110539E+02</pdfrwt>
<totfact> 0.74917326E+04</totfact>
</mgrwt>
</event>
<event>
 6    1  0.3480999E-009  0.1457765E+03  0.7818608E-02  0.1205761E+00
          2   -1    0    0  501    0  0.00000000000E+00  0.00000000000E+00  0.53205888948E+03  0.53205888948E+03  0.25500000000E-02 0. -1.
         -2   -1    0    0    0  501 -0.00000000000E+00 -0.00000000000E+00 -0.99851666029E+01  0.99851669285E+01  0.25500000000E-02 0.  1.
    9000005    2    1    2    0    0  0.27963196231E+02  0.50846073359E+02  0.42390263132E+03  0.42800534923E+03  0.11308165529E+02 0.  0.
         22    1    1    2    0    0 -0.27963196231E+02 -0.50846073359E+02  0.98171091555E+02  0.11403870719E+03  0.00000000000E+00 0.  1.
         22    1    3    3    0    0  0.13849392178E+02  0.35357199244E+02  0.28926947715E+03  0.29175120842E+03  0.00000000000E+00 0. -1.
         22    1    3    3    0    0  0.14113804053E+02  0.15488874114E+02  0.13463315417E+03  0.13625414081E+03  0.00000000000E+00 0. -1.
<mgrwt>
<rscale>  0 0.14577650E+03</rscale>
<asrwt>0</asrwt>
<pdfrwt beam="1">  1        2 0.81855227E-01 0.14577650E+03</pdfrwt>
<pdfrwt beam="2">  1       -2 0.15361792E-02 0.14577650E+03</pdfrwt>
<totfact> 0.61603882E+04</totfact>
</mgrwt>
</event>
<event>
 7    1  0.3480999E-009  0.9128692E+02  0.7818608E-02  0.1299765E+00
          2   -1    0    0  501    0  0.00000000000E+00  0.00000000000E+00  0.31079884901E+03  0.31079884902E+03  0.25500000000E-02 0. -1.
         -2   -1    0    0    0  501 -0.00000000000E+00 -0.00000000000E+00 -0.67031307157E+01  0.67031312007E+01  0.25500000000E-02 0.  1.
         23    2    1    2    0    0  0.00000000000E+00  0.00000000000E+00  0.30409571829E+03  0.31750198022E+03  0.91286918884E+02 0.  0.
    9000005    2    3    3    0    0 -0.18210599368E+02  0.39262593095E+02  0.11235443726E+03  0.12093673406E+03  0.11357681417E+02 0.  0.
         22    1    3    3    0    0  0.18210599368E+02 -0.39262593095E+02  0.19174128103E+03  0.19656524616E+03  0.00000000000E+00 0. -1.
         22    1    4    4    0    0 -0.10353475267E+02  0.26003982721E+02  0.85611960120E+02  0.90071134572E+02  0.00000000000E+00 0.  1.
         22    1    4    4    0    0 -0.78571241007E+01  0.13258610374E+02  0.26742477144E+02  0.30865599491E+02  0.00000000000E+00 0.  1.
<mgrwt>
<rscale>  0 0.91286919E+02</rscale>
<asrwt>0</asrwt>
<pdfrwt beam="1">  1        2 0.47815196E-01 0.91286919E+02</pdfrwt>
<pdfrwt beam="2">  1       -2 0.10312512E-02 0.91286919E+02</pdfrwt>
<totfact> 0.18145378E+05</totfact>
</mgrwt>
</event>
<event>
 7    1  0.3480999E-009  0.8049502E+02  0.7818608E-02  0.1327652E+00
          2   -1    0    0  501    0  0.00000000000E+00  0.00000000000E+00  0.12718624141E+02  0.12718624396E+02  0.25500000000E-02 0. -1.
         -2   -1    0    0    0  501 -0.00000000000E+00 -0.00000000000E+00 -0.12736140935E+03  0.12736140937E+03  0.25500000000E-02 0.  1.
         23    2    1    2    0    0  0.00000000000E+00  0.00000000000E+00 -0.11464278521E+03  0.14008003377E+03  0.80495016373E+02 0.  0.
    9000005    2    3    3    0    0 -0.38813562551E+02  0.54053699943E+01 -0.58575811548E+02  0.71675237169E+02  0.13057689771E+02 0.  0.
         22    1    3    3    0    0  0.38813562551E+02 -0.54053699943E+01 -0.56066973660E+02  0.68404796601E+02  0.00000000000E+00 0. -1.
         22    1    4    4    0    0 -0.45786551236E+00  0.64156126492E+00  0.60338609910E+00  0.99263108386E+00  0.00000000000E+00 0.  1.
         22    1    4    4    0    0 -0.38355697038E+02  0.47638087294E+01 -0.59179197647E+02  0.70682606086E+02  0.00000000000E+00 0.  1.
<mgrwt>
<rscale>  0 0.80495016E+02</rscale>
<asrwt>0</asrwt>
<pdfrwt beam="1">  1        2 0.19567115E-02 0.80495016E+02</pdfrwt>
<pdfrwt beam="2">  1       -2 0.19594062E-01 0.80495016E+02</pdfrwt>
<totfact> 0.10115580E+05</totfact>
</mgrwt>
</event>
<event>
 7    1  0.3480999E-009  0.1236731E+03  0.7818608E-02  0.1237158E+00
          2   -1    0    0  501    0  0.00000000000E+00  0.00000000000E+00  0.61517149547E+03  0.61517149548E+03  0.25500000000E-02 0. -1.
         -2   -1    0    0    0  501 -0.00000000000E+00 -0.00000000000E+00 -0.62157655696E+01  0.62157660927E+01  0.25500000000E-02 0.  1.
         23    2    1    2    0    0  0.00000000000E+00  0.00000000000E+00  0.60895572990E+03  0.62138726157E+03  0.12367314931E+03 0.  0.
    9000005    2    3    3    0    0  0.78434243354E+01  0.53781947572E+02  0.44967011034E+03  0.45308418439E+03  0.11316042531E+02 0.  0.
         22    1    3    3    0    0 -0.78434243354E+01 -0.53781947572E+02  0.15928561956E+03  0.16830307718E+03  0.00000000000E+00 0.  1.
         22    1    4    4    0    0  0.59666070865E+00  0.15328953807E+02  0.90760565810E+02  0.92047885011E+02  0.00000000000E+00 0. -1.
         22    1    4    4    0    0  0.72467636268E+01  0.38452993765E+02  0.35890954453E+03  0.36103629938E+03  0.00000000000E+00 0. -1.
<mgrwt>
<rscale>  0 0.12367315E+03</rscale>
<asrwt>0</asrwt>
<pdfrwt beam="1">  1        2 0.94641765E-01 0.12367315E+03</pdfrwt>
<pdfrwt beam="2">  1       -2 0.95627170E-03 0.12367315E+03</pdfrwt>
<totfact> 0.10129283E+05</totfact>
</mgrwt>
</event>
<event>
 7    1  0.3480999E-009  0.8988777E+02  0.7818608E-02  0.1303124E+00
         -2   -1    0    0    0  501 -0.00000000000E+00  0.00000000000E+00  0.87854970664E+01  0.87854974364E+01  0.25500000000E-02 0.  1.
          2   -1    0    0  501    0  0.00000000000E+00 -0.00000000000E+00 -0.22991900793E+03  0.22991900794E+03  0.25500000000E-02 0. -1.
         23    2    1    2    0    0  0.00000000000E+00 -0.88817841970E-15 -0.22113351086E+03  0.23870450538E+03  0.89887770369E+02 0.  0.
    9000005    2    3    3    0    0 -0.13994877982E+02  0.77896470188E+01 -0.22201650102E+03  0.22266346794E+03  0.55819368377E+01 0.  0.
         22    1    3    3    0    0  0.13994877982E+02 -0.77896470188E+01  0.88299016189E+00  0.16041037436E+02  0.00000000000E+00 0.  1.
         22    1    4    4    0    0 -0.10789323832E+01 -0.86882368063E+00 -0.21883303256E+02  0.21927104485E+02  0.00000000000E+00 0.  1.
         22    1    4    4    0    0 -0.12915945599E+02  0.86584706994E+01 -0.20013319777E+03  0.20073636346E+03  0.00000000000E+00 0.  1.
<mgrwt>
<rscale>  0 0.89887770E+02</rscale>
<asrwt>0</asrwt>
<pdfrwt beam="2">  1        2 0.35372151E-01 0.89887770E+02</pdfrwt>
<pdfrwt beam="1">  1       -2 0.13516151E-02 0.89887770E+02</pdfrwt>
<totfact> 0.16908259E+05</totfact>
</mgrwt>
</event>
<event>
 7    1  0.3480999E-009  0.8997078E+02  0.7818608E-02  0.1302922E+00
          2   -1    0    0  501    0  0.00000000000E+00  0.00000000000E+00  0.18535307980E+02  0.18535308156E+02  0.25500000000E-02 0. -1.
         -2   -1    0    0    0  501 -0.00000000000E+00 -0.00000000000E+00 -0.10918001881E+03  0.10918001884E+03  0.25500000000E-02 0.  1.
         23    2    1    2    0    0  0.00000000000E+00  0.00000000000E+00 -0.90644710830E+02  0.12771532699E+03  0.89970779412E+02 0.  0.
    9000005    2    3    3    0    0  0.20143288025E+02 -0.33798787031E+02 -0.15193036125E+02  0.42620877864E+02  0.61319512356E+01 0.  0.
         22    1    3    3    0    0 -0.20143288025E+02  0.33798787031E+02 -0.75451674704E+02  0.85094449131E+02  0.00000000000E+00 0.  1.
         22    1    4    4    0    0  0.13646926437E+02 -0.23701707751E+02 -0.13485231418E+02  0.30493622577E+02  0.00000000000E+00 0. -1.
         22    1    4    4    0    0  0.64963615880E+01 -0.10097079281E+02 -0.17078047078E+01  0.12127255287E+02  0.00000000000E+00 0. -1.
<mgrwt>
<rscale>  0 0.89970779E+02</rscale>
<asrwt>0</asrwt>
<pdfrwt beam="1">  1        2 0.28515859E-02 0.89970779E+02</pdfrwt>
<pdfrwt beam="2">  1       -2 0.16796926E-01 0.89970779E+02</pdfrwt>
<totfact> 0.80332215E+04</totfact>
</mgrwt>
</event>
<event>
 7    1  0.3480999E-009  0.9166293E+02  0.7818608E-02  0.1298874E+00
         -2   -1    0    0    0  501 -0.00000000000E+00  0.00000000000E+00  0.10114459209E+03  0.10114459212E+03  0.25500000000E-02 0.  1.
          2   -1    0    0  501    0  0.00000000000E+00 -0.00000000000E+00 -0.20767526635E+02  0.20767526792E+02  0.25500000000E-02 0. -1.
         23    2    1    2    0    0  0.00000000000E+00  0.00000000000E+00  0.80377065457E+02  0.12191211892E+03  0.91662926460E+02 0.  0.
    9000005    2    3    3    0    0  0.12019612891E+02  0.22605513161E+02 -0.98673267438E+01  0.28106305435E+02  0.60926142810E+01 0.  0.
         22    1    3    3    0    0 -0.12019612891E+02 -0.22605513161E+02  0.90244392201E+02  0.93805813482E+02  0.00000000000E+00 0.  1.
         22    1    4    4    0    0  0.18427882578E+01  0.24617722122E+01  0.74974218042E+00  0.31651705048E+01  0.00000000000E+00 0. -1.
         22    1    4    4    0    0  0.10176824633E+02  0.20143740949E+02 -0.10617068924E+02  0.24941134930E+02  0.00000000000E+00 0. -1.
<mgrwt>
<rscale>  0 0.91662926E+02</rscale>
<asrwt>0</asrwt>
<pdfrwt beam="2">  1        2 0.31950041E-02 0.91662926E+02</pdfrwt>
<pdfrwt beam="1">  1       -2 0.15560707E-01 0.91662926E+02</pdfrwt>
<totfact> 0.78488068E+04</totfact>
</mgrwt>
</event>
<event>
 7    1  0.3480999E-009  0.9229534E+02  0.7818608E-02  0.1297387E+00
          2   -1    0    0  501    0  0.00000000000E+00  0.00000000000E+00  0.52964388687E+01  0.52964394825E+01  0.25500000000E-02 0. -1.
         -2   -1    0    0    0  501 -0.00000000000E+00 -0.00000000000E+00 -0.40208286280E+03  0.40208286281E+03  0.25500000000E-02 0.  1.
         23    2    1    2    0    0 -0.71054273576E-14  0.00000000000E+00 -0.39678642393E+03  0.40737930229E+03  0.92295339636E+02 0.  0.
    9000005    2    3    3    0    0  0.33023826067E+02  0.13887550659E+02 -0.32542933787E+03  0.32753400886E+03  0.95307850511E+01 0.  0.
         22    1    3    3    0    0 -0.33023826067E+02 -0.13887550659E+02 -0.71357086058E+02  0.79845293425E+02  0.00000000000E+00 0. -1.
         22    1    4    4    0    0  0.13016769281E+02  0.10216490984E+02 -0.12998575423E+03  0.13103476361E+03  0.00000000000E+00 0. -1.
         22    1    4    4    0    0  0.20007056786E+02  0.36710596754E+01 -0.19544358364E+03  0.19649924526E+03  0.00000000000E+00 0. -1.
<mgrwt>
<rscale>  0 0.92295340E+02</rscale>
<asrwt>0</asrwt>
<pdfrwt beam="1">  1        2 0.81483711E-03 0.92295340E+02</pdfrwt>
<pdfrwt beam="2">  1       -2 0.61858878E-01 0.92295340E+02</pdfrwt>
<totfact> 0.41221200E+04</totfact>
</mgrwt>
</event>
<event>
 7    1  0.3480999E-009  0.8979307E+02  0.7818608E-02  0.1303354E+00
          2   -1    0    0  501    0  0.00000000000E+00  0.00000000000E+00  0.23218490899E+03  0.23218490900E+03  0.25500000000E-02 0.  1.
         -2   -1    0    0    0  501 -0.00000000000E+00 -0.00000000000E+00 -0.86814377042E+01  0.86814380787E+01  0.25500000000E-02 0. -1.
         23    2    1    2    0    0  0.35527136788E-14  0.17763568394E-14  0.22350347128E+03  0.24086634708E+03  0.89793070334E+02 0.  0.
    9000005    2    3    3    0    0  0.23298158088E+02  0.12257173705E+02  0.20870739525E+03  0.21066756658E+03  0.11358005963E+02 0.  0.
         22    1    3    3    0    0 -0.23298158088E+02 -0.12257173705E+02  0.14796076028E+02  0.30198780494E+02  0.00000000000E+00 0. -1.
         22    1    4    4    0    0  0.23459993897E+02  0.13499282739E+02  0.18999157032E+03  0.19190987140E+03  0.00000000000E+00 0.  1.
         22    1    4    4    0    0 -0.16183580888E+00 -0.12421090338E+01  0.18715824932E+02  0.18757695183E+02  0.00000000000E+00 0.  1.
<mgrwt>
<rscale>  0 0.89793070E+02</rscale>
<asrwt>0</asrwt>
<pdfrwt beam="1">  1        2 0.35720755E-01 0.89793070E+02</pdfrwt>
<pdfrwt beam="2">  1       -2 0.13356058E-02 0.89793070E+02</pdfrwt>
<totfact> 0.17017160E+05</totfact>
</mgrwt>
</event>
<event>
 7    1  0.3480999E-009  0.9084554E+02  0.7818608E-02  0.1300817E+00
          2   -1    0    0  501    0  0.00000000000E+00  0.00000000000E+00  0.13734289842E+03  0.13734289845E+03  0.25500000000E-02 0. -1.
         -2   -1    0    0    0  501 -0.00000000000E+00 -0.00000000000E+00 -0.15022457238E+02  0.15022457455E+02  0.25500000000E-02 0.  1.
         23    2    1    2    0    0  0.00000000000E+00  0.35527136788E-14  0.12232044119E+03  0.15236535590E+03  0.90845535650E+02 0.  0.
    9000005    2    3    3    0    0 -0.19955839060E+02  0.25710104800E+02  0.13067987166E+02  0.38368234400E+02  0.15559695402E+02 0.  0.
         22    1    3    3    0    0  0.19955839060E+02 -0.25710104800E+02  0.10925245402E+03  0.11399712150E+03  0.00000000000E+00 0. -1.
         22    1    4    4    0    0 -0.22417189495E+02  0.21052604367E+02  0.11881740569E+02  0.32968443919E+02  0.00000000000E+00 0. -1.
         22    1    4    4    0    0  0.24613504355E+01  0.46575004330E+01  0.11862465968E+01  0.53997904809E+01  0.00000000000E+00 0. -1.
<mgrwt>
<rscale>  0 0.90845536E+02</rscale>
<asrwt>0</asrwt>
<pdfrwt beam="1">  1        2 0.21129677E-01 0.90845536E+02</pdfrwt>
<pdfrwt beam="2">  1       -2 0.23111472E-02 0.90845536E+02</pdfrwt>
<totfact> 0.13707380E+05</totfact>
</mgrwt>
</event>
<event>
 7    1  0.3480999E-009  0.9410451E+02  0.7818608E-02  0.1293206E+00
         -2   -1    0    0    0  501 -0.00000000000E+00  0.00000000000E+00  0.73452622098E+02  0.73452622142E+02  0.25500000000E-02 0. -1.
          2   -1    0    0  501    0  0.00000000000E+00 -0.00000000000E+00 -0.30140717274E+02  0.30140717382E+02  0.25500000000E-02 0.  1.
         23    2    1    2    0    0  0.00000000000E+00  0.00000000000E+00  0.43311904824E+02  0.10359333952E+03  0.94104510488E+02 0.  0.
    9000005    2    3    3    0    0  0.43765212937E+02 -0.56480465489E+01  0.38990137782E+02  0.59254057125E+02  0.65968286507E+01 0.  0.
         22    1    3    3    0    0 -0.43765212937E+02  0.56480465489E+01  0.43217670421E+01  0.44339282399E+02  0.00000000000E+00 0.  1.
         22    1    4    4    0    0  0.18814006695E+02  0.57316096586E+00  0.14729439033E+02  0.23900873115E+02  0.00000000000E+00 0.  1.
         22    1    4    4    0    0  0.24951206242E+02 -0.62212075147E+01  0.24260698748E+02  0.35353184010E+02  0.00000000000E+00 0.  1.
<mgrwt>
<rscale>  0 0.94104510E+02</rscale>
<asrwt>0</asrwt>
<pdfrwt beam="2">  1        2 0.46370335E-02 0.94104510E+02</pdfrwt>
<pdfrwt beam="1">  1       -2 0.11300403E-01 0.94104510E+02</pdfrwt>
<totfact> 0.80612876E+04</totfact>
</mgrwt>
</event>
<event>
 7    1  0.3480999E-009  0.9211322E+02  0.7818608E-02  0.1297813E+00
          2   -1    0    0  501    0  0.00000000000E+00  0.00000000000E+00  0.36495026771E+02  0.36495026860E+02  0.25500000000E-02 0.  1.
         -2   -1    0    0    0  501 -0.00000000000E+00 -0.00000000000E+00 -0.58123292788E+02  0.58123292844E+02  0.25500000000E-02 0. -1.
         23    2    1    2    0    0 -0.71054273576E-14 -0.35527136788E-14 -0.21628266017E+02  0.94618319704E+02  0.92113215842E+02 0.  0.
    9000005    2    3    3    0    0  0.39232737685E+02  0.20648139325E+02 -0.10653832855E+01  0.45747208502E+02  0.11230257360E+02 0.  0.
         22    1    3    3    0    0 -0.39232737685E+02 -0.20648139325E+02 -0.20562882731E+02  0.48871111201E+02  0.00000000000E+00 0. -1.
         22    1    4    4    0    0  0.31367901448E+02  0.11384333284E+02 -0.27312084740E+01  0.33481454349E+02  0.00000000000E+00 0. -1.
         22    1    4    4    0    0  0.78648362370E+01  0.92638060411E+01  0.16658251886E+01  0.12265754154E+02  0.00000000000E+00 0. -1.
<mgrwt>
<rscale>  0 0.92113216E+02</rscale>
<asrwt>0</asrwt>
<pdfrwt beam="1">  1        2 0.56146195E-02 0.92113216E+02</pdfrwt>
<pdfrwt beam="2">  1       -2 0.89420450E-02 0.92113216E+02</pdfrwt>
<totfact> 0.90406017E+04</totfact>
</mgrwt>
</event>
<event>
 7    1  0.3480999E-009  0.6911402E+02  0.7818608E-02  0.1363132E+00
         -2   -1    0    0    0  501 -0.00000000000E+00  0.00000000000E+00  0.28124057999E+01  0.28124069559E+01  0.25500000000E-02 0.  1.
          2   -1    0    0  501    0  0.00000000000E+00 -0.00000000000E+00 -0.42461397265E+03  0.42461397265E+03  0.25500000000E-02 0. -1.
         23    2    1    2    0    0  0.00000000000E+00  0.55511151231E-16 -0.42180156685E+03  0.42742637961E+03  0.69114023124E+02 0.  0.
    9000005    2    3    3    0    0 -0.33869407159E+02 -0.30880229069E+00 -0.21952187439E+03  0.22233053353E+03  0.96840437122E+01 0.  0.
         22    1    3    3    0    0  0.33869407159E+02  0.30880229069E+00 -0.20227969246E+03  0.20509584608E+03  0.00000000000E+00 0.  1.
         22    1    4    4    0    0 -0.16130771450E+02 -0.13563755804E+01 -0.13456869809E+03  0.13553883594E+03  0.00000000000E+00 0. -1.
         22    1    4    4    0    0 -0.17738635709E+02  0.10475732897E+01 -0.84953176294E+02  0.86791697581E+02  0.00000000000E+00 0. -1.
<mgrwt>
<rscale>  0 0.69114023E+02</rscale>
<asrwt>0</asrwt>
<pdfrwt beam="2">  1        2 0.65325176E-01 0.69114023E+02</pdfrwt>
<pdfrwt beam="1">  1       -2 0.43267824E-03 0.69114023E+02</pdfrwt>
<totfact> 0.42053621E+05</totfact>
</mgrwt>
</event>
<event>
 7    1  0.3480999E-009  0.9161989E+02  0.7818608E-02  0.1298976E+00
         -2   -1    0    0    0  501 -0.00000000000E+00  0.00000000000E+00  0.12732906665E+02  0.12732906920E+02  0.25500000000E-02 0.  1.
          2   -1    0    0  501    0  0.00000000000E+00 -0.00000000000E+00 -0.16481321066E+03  0.16481321068E+03  0.25500000000E-02 0. -1.
         23    2    1    2    0    0  0.00000000000E+00 -0.35527136788E-14 -0.15208030400E+03  0.17754611760E+03  0.91619894192E+02 0.  0.
    9000005    2    3    3    0    0 -0.27086017206E+02  0.19127689645E+02 -0.13706247728E+03  0.14114479951E+03  0.60175504751E+01 0.  0.
         22    1    3    3    0    0  0.27086017206E+02 -0.19127689645E+02 -0.15017826724E+02  0.36401318091E+02  0.00000000000E+00 0.  1.
         22    1    4    4    0    0 -0.26117694621E+02  0.19547464591E+02 -0.13358549075E+03  0.13751116566E+03  0.00000000000E+00 0. -1.
         22    1    4    4    0    0 -0.96832258489E+00 -0.41977494625E+00 -0.34769865300E+01  0.36336338511E+01  0.00000000000E+00 0. -1.
<mgrwt>
<rscale>  0 0.91619894E+02</rscale>
<asrwt>0</asrwt>
<pdfrwt beam="2">  1        2 0.25355877E-01 0.91619894E+02</pdfrwt>
<pdfrwt beam="1">  1       -2 0.19589089E-02 0.91619894E+02</pdfrwt>
<totfact> 0.14252636E+05</totfact>
</mgrwt>
</event>
<event>
 7    1  0.3480999E-009  0.1024513E+03  0.7818608E-02  0.1275224E+00
         -2   -1    0    0    0  501 -0.00000000000E+00  0.00000000000E+00  0.49440094458E+01  0.49440101034E+01  0.25500000000E-02 0.  1.
          2   -1    0    0  501    0  0.00000000000E+00 -0.00000000000E+00 -0.53075732536E+03  0.53075732537E+03  0.25500000000E-02 0. -1.
         23    2    1    2    0    0  0.44408920985E-15  0.71054273576E-14 -0.52581331592E+03  0.53570133547E+03  0.10245134275E+03 0.  0.
    9000005    2    3    3    0    0 -0.13797299506E+01  0.45796661061E+02 -0.37966209983E+03  0.38253666663E+03  0.95788019593E+01 0.  0.
         22    1    3    3    0    0  0.13797299506E+01 -0.45796661061E+02 -0.14615121609E+03  0.15316466885E+03  0.00000000000E+00 0.  1.
         22    1    4    4    0    0  0.32213689430E+01  0.81910380033E+01 -0.61446500623E+02  0.62073688148E+02  0.00000000000E+00 0.  1.
         22    1    4    4    0    0 -0.46010988936E+01  0.37605623058E+02 -0.31821559921E+03  0.32046297848E+03  0.00000000000E+00 0.  1.
<mgrwt>
<rscale>  0 0.10245134E+03</rscale>
<asrwt>0</asrwt>
<pdfrwt beam="2">  1        2 0.81654928E-01 0.10245134E+03</pdfrwt>
<pdfrwt beam="1">  1       -2 0.76061731E-03 0.10245134E+03</pdfrwt>
<totfact> 0.16105101E+05</totfact>
</mgrwt>
</event>
<event>
 7    1  0.3480999E-009  0.9356588E+02  0.7818608E-02  0.1294439E+00
          2   -1    0    0  501    0  0.00000000000E+00  0.00000000000E+00  0.80502877831E+02  0.80502877871E+02  0.25500000000E-02 0. -1.
         -2   -1    0    0    0  501 -0.00000000000E+00 -0.00000000000E+00 -0.27187148080E+02  0.27187148200E+02  0.25500000000E-02 0.  1.
         23    2    1    2    0    0 -0.35527136788E-14  0.00000000000E+00  0.53315729751E+02  0.10769002607E+03  0.93565884147E+02 0.  0.
    9000005    2    3    3    0    0 -0.31786274857E+02  0.12576741936E+02 -0.97215848980E+01  0.35980579377E+02  0.56170430234E+01 0.  0.
         22    1    3    3    0    0  0.31786274857E+02 -0.12576741936E+02  0.63037314649E+02  0.71709446694E+02  0.00000000000E+00 0. -1.
         22    1    4    4    0    0 -0.23923060257E+02  0.11377472632E+02 -0.90673298964E+01  0.27999574407E+02  0.00000000000E+00 0. -1.
         22    1    4    4    0    0 -0.78632146002E+01  0.11992693046E+01 -0.65425500162E+00  0.79810049693E+01  0.00000000000E+00 0. -1.
<mgrwt>
<rscale>  0 0.93565884E+02</rscale>
<asrwt>0</asrwt>
<pdfrwt beam="1">  1        2 0.12385058E-01 0.93565884E+02</pdfrwt>
<pdfrwt beam="2">  1       -2 0.41826382E-02 0.93565884E+02</pdfrwt>
<totfact> 0.10706038E+05</totfact>
</mgrwt>
</event>
<event>
 7    1  0.3480999E-009  0.9161273E+02  0.7818608E-02  0.1298993E+00
          2   -1    0    0  501    0  0.00000000000E+00  0.00000000000E+00  0.81275107867E+03  0.81275107867E+03  0.25500000000E-02 0. -1.
         -2   -1    0    0    0  501 -0.00000000000E+00 -0.00000000000E+00 -0.25816302217E+01  0.25816314811E+01  0.25500000000E-02 0.  1.
         23    2    1    2    0    0  0.00000000000E+00  0.00000000000E+00  0.81016944844E+03  0.81533271015E+03  0.91612734103E+02 0.  0.
    9000005    2    3    3    0    0  0.27369635742E+02  0.16384082227E+02  0.69526823233E+03  0.69608580421E+03  0.10954306460E+02 0.  0.
         22    1    3    3    0    0 -0.27369635742E+02 -0.16384082227E+02  0.11490121612E+03  0.11924690594E+03  0.00000000000E+00 0.  1.
         22    1    4    4    0    0  0.16829054125E+02  0.13566587586E+02  0.54131758983E+03  0.54174902161E+03  0.00000000000E+00 0.  1.
         22    1    4    4    0    0  0.10540581616E+02  0.28174946414E+01  0.15395064250E+03  0.15433678260E+03  0.00000000000E+00 0.  1.
<mgrwt>
<rscale>  0 0.91612734E+02</rscale>
<asrwt>0</asrwt>
<pdfrwt beam="1">  1        2 0.12503869E+00 0.91612734E+02</pdfrwt>
<pdfrwt beam="2">  1       -2 0.39717377E-03 0.91612734E+02</pdfrwt>
<totfact> 0.24134903E+05</totfact>
</mgrwt>
</event>
<event>
 7    1  0.3480999E-009  0.8595257E+02  0.7818608E-02  0.1312960E+00
          2   -1    0    0  501    0  0.00000000000E+00  0.00000000000E+00  0.11071794839E+03  0.11071794842E+03  0.25500000000E-02 0. -1.
         -2   -1    0    0    0  501 -0.00000000000E+00 -0.00000000000E+00 -0.16681677849E+02  0.16681678044E+02  0.25500000000E-02 0.  1.
         23    2    1    2    0    0 -0.17763568394E-14  0.00000000000E+00  0.94036270541E+02  0.12739962646E+03  0.85952572071E+02 0.  0.
    9000005    2    3    3    0    0 -0.12627532155E+02 -0.40723758877E+02  0.54621128822E+02  0.69335588521E+02  0.24651604970E+01 0.  0.
         22    1    3    3    0    0  0.12627532155E+02  0.40723758877E+02  0.39415141719E+02  0.58064037942E+02  0.00000000000E+00 0.  1.
         22    1    4    4    0    0 -0.81825448089E+01 -0.29862742877E+02  0.38971415763E+02  0.49774578836E+02  0.00000000000E+00 0.  1.
         22    1    4    4    0    0 -0.44449873458E+01 -0.10861016000E+02  0.15649713059E+02  0.19561009685E+02  0.00000000000E+00 0.  1.
<mgrwt>
<rscale>  0 0.85952572E+02</rscale>
<asrwt>0</asrwt>
<pdfrwt beam="1">  1        2 0.17033531E-01 0.85952572E+02</pdfrwt>
<pdfrwt beam="2">  1       -2 0.25664120E-02 0.85952572E+02</pdfrwt>
<totfact> 0.14870908E+05</totfact>
</mgrwt>
</event>
<event>
 7    1  0.3480999E-009  0.9095861E+02  0.7818608E-02  0.1300547E+00
         -2   -1    0    0    0  501 -0.00000000000E+00  0.00000000000E+00  0.70528603455E+01  0.70528608065E+01  0.25500000000E-02 0.  1.
          2   -1    0    0  501    0  0.00000000000E+00 -0.00000000000E+00 -0.29326644291E+03  0.29326644292E+03  0.25500000000E-02 0. -1.
         23    2    1    2    0    0  0.00000000000E+00 -0.71054273576E-14 -0.28621358256E+03  0.30031930372E+03  0.90958613374E+02 0.  0.
    9000005    2    3    3    0    0 -0.30871060781E+01  0.39199455125E+02 -0.70440435572E+02  0.80992655850E+02  0.71991549547E+01 0.  0.
         22    1    3    3    0    0  0.30871060781E+01 -0.39199455125E+02 -0.21577314699E+03  0.21932664787E+03  0.00000000000E+00 0. -1.
         22    1    4    4    0    0 -0.32708831101E+01  0.12814600363E+02 -0.28875715941E+02  0.31760346816E+02  0.00000000000E+00 0.  1.
         22    1    4    4    0    0  0.18377703207E+00  0.26384854762E+02 -0.41564719631E+02  0.49232309034E+02  0.00000000000E+00 0.  1.
<mgrwt>
<rscale>  0 0.90958613E+02</rscale>
<asrwt>0</asrwt>
<pdfrwt beam="2">  1        2 0.45117905E-01 0.90958613E+02</pdfrwt>
<pdfrwt beam="1">  1       -2 0.10850557E-02 0.90958613E+02</pdfrwt>
<totfact> 0.17929027E+05</totfact>
</mgrwt>
</event>
<event>
 7    1  0.3480999E-009  0.9598432E+02  0.7818608E-02  0.1288974E+00
          2   -1    0    0  501    0  0.00000000000E+00  0.00000000000E+00  0.22514666248E+02  0.22514666393E+02  0.25500000000E-02 0. -1.
         -2   -1    0    0    0  501 -0.00000000000E+00 -0.00000000000E+00 -0.10229986866E+03  0.10229986869E+03  0.25500000000E-02 0.  1.
         23    2    1    2    0    0  0.00000000000E+00  0.00000000000E+00 -0.79785202407E+02  0.12481453508E+03  0.95984319782E+02 0.  0.
    9000005    2    3    3    0    0  0.37516098883E+02 -0.93303792356E+01 -0.39586722143E+01  0.39701807870E+02  0.81270419177E+01 0.  0.
         22    1    3    3    0    0 -0.37516098883E+02  0.93303792356E+01 -0.75826530193E+02  0.85112727210E+02  0.00000000000E+00 0.  1.
         22    1    4    4    0    0  0.40014238298E+01 -0.31281719025E+01  0.12287563815E+01  0.52255807680E+01  0.00000000000E+00 0.  1.
         22    1    4    4    0    0  0.33514675053E+02 -0.62022073331E+01 -0.51874285958E+01  0.34476227102E+02  0.00000000000E+00 0.  1.
<mgrwt>
<rscale>  0 0.95984320E+02</rscale>
<asrwt>0</asrwt>
<pdfrwt beam="1">  1        2 0.34637949E-02 0.95984320E+02</pdfrwt>
<pdfrwt beam="2">  1       -2 0.15738441E-01 0.95984320E+02</pdfrwt>
<totfact> 0.69737779E+04</totfact>
</mgrwt>
</event>
<event>
 7    1  0.3480999E-009  0.1153427E+03  0.7818608E-02  0.1250984E+00
          2   -1    0    0  501    0  0.00000000000E+00  0.00000000000E+00  0.14621089431E+03  0.14621089433E+03  0.25500000000E-02 0. -1.
         -2   -1    0    0    0  501 -0.00000000000E+00 -0.00000000000E+00 -0.22747852914E+02  0.22747853057E+02  0.25500000000E-02 0.  1.
         23    2    1    2    0    0  0.00000000000E+00  0.00000000000E+00  0.12346304140E+03  0.16895874739E+03  0.11534268823E+03 0.  0.
    9000005    2    3    3    0    0  0.37952812274E+02 -0.16320039763E+02  0.44136016960E+01  0.42944745191E+02  0.10863314513E+02 0.  0.
         22    1    3    3    0    0 -0.37952812274E+02  0.16320039763E+02  0.11904943970E+03  0.12601400220E+03  0.00000000000E+00 0. -1.
         22    1    4    4    0    0  0.64199392648E+01 -0.68376076368E+01  0.34793425762E+01  0.10003715466E+02  0.00000000000E+00 0.  1.
         22    1    4    4    0    0  0.31532873009E+02 -0.94824321260E+01  0.93425911984E+00  0.32941029725E+02  0.00000000000E+00 0.  1.
<mgrwt>
<rscale>  0 0.11534269E+03</rscale>
<asrwt>0</asrwt>
<pdfrwt beam="1">  1        2 0.22493984E-01 0.11534269E+03</pdfrwt>
<pdfrwt beam="2">  1       -2 0.34996697E-02 0.11534269E+03</pdfrwt>
<totfact> 0.72412455E+04</totfact>
</mgrwt>
</event>
<event>
 7    1  0.3480999E-009  0.9293871E+02  0.7818608E-02  0.1295887E+00
          2   -1    0    0  501    0  0.00000000000E+00  0.00000000000E+00  0.62742475349E+02  0.62742475401E+02  0.25500000000E-02 0. -1.
         -2   -1    0    0    0  501 -0.00000000000E+00 -0.00000000000E+00 -0.34416891686E+02  0.34416891780E+02  0.25500000000E-02 0.  1.
         23    2    1    2    0    0  0.00000000000E+00  0.00000000000E+00  0.28325583663E+02  0.97159367181E+02  0.92938710671E+02 0.  0.
    9000005    2    3    3    0    0 -0.15203535480E+02 -0.12371443398E+02  0.57572967269E+02  0.61951277903E+02  0.11794667047E+02 0.  0.
         22    1    3    3    0    0  0.15203535480E+02  0.12371443398E+02 -0.29247383606E+02  0.35208089278E+02  0.00000000000E+00 0.  1.
         22    1    4    4    0    0 -0.10093229434E+02 -0.79255911768E+01  0.19933776825E+02  0.23707461577E+02  0.00000000000E+00 0. -1.
         22    1    4    4    0    0 -0.51103060456E+01 -0.44458522208E+01  0.37639190444E+02  0.38243816326E+02  0.00000000000E+00 0. -1.
<mgrwt>
<rscale>  0 0.92938711E+02</rscale>
<asrwt>0</asrwt>
<pdfrwt beam="1">  1        2 0.96526886E-02 0.92938711E+02</pdfrwt>
<pdfrwt beam="2">  1       -2 0.52949064E-02 0.92938711E+02</pdfrwt>
<totfact> 0.10171155E+05</totfact>
</mgrwt>
</event>
<event>
 7    1  0.3480999E-009  0.9725366E+02  0.7818608E-02  0.1286179E+00
          2   -1    0    0  501    0  0.00000000000E+00  0.00000000000E+00  0.21720154082E+03  0.21720154083E+03  0.25500000000E-02 0. -1.
         -2   -1    0    0    0  501 -0.00000000000E+00 -0.00000000000E+00 -0.10886519135E+02  0.10886519433E+02  0.25500000000E-02 0.  1.
         23    2    1    2    0    0  0.00000000000E+00 -0.17763568394E-14  0.20631502168E+03  0.22808806027E+03  0.97253663499E+02 0.  0.
    9000005    2    3    3    0    0 -0.43925760984E+02 -0.15143977928E+02  0.12978930911E+03  0.13856154336E+03  0.13972257946E+02 0.  0.
         22    1    3    3    0    0  0.43925760984E+02  0.15143977928E+02  0.76525712573E+02  0.89526516911E+02  0.00000000000E+00 0.  1.
         22    1    4    4    0    0 -0.14471790500E+02 -0.65923522098E+01  0.27433848213E+02  0.31709743861E+02  0.00000000000E+00 0.  1.
         22    1    4    4    0    0 -0.29453970483E+02 -0.85516257185E+01  0.10235546090E+03  0.10685179949E+03  0.00000000000E+00 0.  1.
<mgrwt>
<rscale>  0 0.97253663E+02</rscale>
<asrwt>0</asrwt>
<pdfrwt beam="1">  1        2 0.33415619E-01 0.97253663E+02</pdfrwt>
<pdfrwt beam="2">  1       -2 0.16748493E-02 0.97253663E+02</pdfrwt>
<totfact> 0.13391843E+05</totfact>
</mgrwt>
</event>
<event>
 7    1  0.3480999E-009  0.9388218E+02  0.7818608E-02  0.1293714E+00
         -2   -1    0    0    0  501 -0.00000000000E+00  0.00000000000E+00  0.48054899342E+01  0.48054906107E+01  0.25500000000E-02 0.  1.
          2   -1    0    0  501    0  0.00000000000E+00 -0.00000000000E+00 -0.45853096361E+03  0.45853096362E+03  0.25500000000E-02 0. -1.
         23    2    1    2    0    0  0.00000000000E+00  0.00000000000E+00 -0.45372547368E+03  0.46333645423E+03  0.93882183369E+02 0.  0.
    9000005    2    3    3    0    0 -0.43730583118E+01  0.11210568452E+02 -0.45057788378E+03  0.45089829495E+03  0.12001773065E+02 0.  0.
         22    1    3    3    0    0  0.43730583118E+01 -0.11210568452E+02 -0.31475898976E+01  0.12438159276E+02  0.00000000000E+00 0.  1.
         22    1    4    4    0    0 -0.28142673687E+01  0.78755609038E+01 -0.11637108042E+03  0.11667121719E+03  0.00000000000E+00 0.  1.
         22    1    4    4    0    0 -0.15587909431E+01  0.33350075477E+01 -0.33420680336E+03  0.33422707777E+03  0.00000000000E+00 0.  1.
<mgrwt>
<rscale>  0 0.93882183E+02</rscale>
<asrwt>0</asrwt>
<pdfrwt beam="2">  1        2 0.70543191E-01 0.93882183E+02</pdfrwt>
<pdfrwt beam="1">  1       -2 0.73930656E-03 0.93882183E+02</pdfrwt>
<totfact> 0.19373910E+05</totfact>
</mgrwt>
</event>
<event>
 7    1  0.3480999E-009  0.9120166E+02  0.7818608E-02  0.1299968E+00
         -2   -1    0    0    0  501 -0.00000000000E+00  0.00000000000E+00  0.15137018817E+02  0.15137019032E+02  0.25500000000E-02 0.  1.
          2   -1    0    0  501    0  0.00000000000E+00 -0.00000000000E+00 -0.13737418322E+03  0.13737418325E+03  0.25500000000E-02 0. -1.
         23    2    1    2    0    0  0.00000000000E+00  0.00000000000E+00 -0.12223716440E+03  0.15251120228E+03  0.91201658199E+02 0.  0.
    9000005    2    3    3    0    0  0.25644154293E+02  0.27630689190E+02 -0.18244217199E+02  0.41896507489E+02  0.11782376950E+01 0.  0.
         22    1    3    3    0    0 -0.25644154293E+02 -0.27630689190E+02 -0.10399294721E+03  0.11061469479E+03  0.00000000000E+00 0. -1.
         22    1    4    4    0    0  0.17911957834E+02  0.18663008351E+02 -0.12885140399E+02  0.28899359115E+02  0.00000000000E+00 0. -1.
         22    1    4    4    0    0  0.77321964585E+01  0.89676808389E+01 -0.53590768000E+01  0.12997148374E+02  0.00000000000E+00 0. -1.
<mgrwt>
<rscale>  0 0.91201658E+02</rscale>
<asrwt>0</asrwt>
<pdfrwt beam="2">  1        2 0.21134489E-01 0.91201658E+02</pdfrwt>
<pdfrwt beam="1">  1       -2 0.23287722E-02 0.91201658E+02</pdfrwt>
<totfact> 0.13563261E+05</totfact>
</mgrwt>
</event>
<event>
 7    1  0.3480999E-009  0.8651836E+02  0.7818608E-02  0.1311509E+00
          2   -1    0    0  501    0  0.00000000000E+00  0.00000000000E+00  0.12491285738E+03  0.12491285741E+03  0.25500000000E-02 0. -1.
         -2   -1    0    0    0  501 -0.00000000000E+00 -0.00000000000E+00 -0.14981295968E+02  0.14981296185E+02  0.25500000000E-02 0.  1.
         23    2    1    2    0    0  0.00000000000E+00  0.00000000000E+00  0.10993156141E+03  0.13989415359E+03  0.86518356518E+02 0.  0.
    9000005    2    3    3    0    0  0.42379733089E+01 -0.29000527662E+02  0.10547370304E+03  0.11024852114E+03  0.13078354530E+02 0.  0.
         22    1    3    3    0    0 -0.42379733089E+01  0.29000527662E+02  0.44578583725E+01  0.29645632456E+02  0.00000000000E+00 0.  1.
         22    1    4    4    0    0  0.24211255112E+01 -0.14445293432E+02  0.30266370464E+02  0.33624121284E+02  0.00000000000E+00 0. -1.
         22    1    4    4    0    0  0.18168477977E+01 -0.14555234230E+02  0.75207332577E+02  0.76624399852E+02  0.00000000000E+00 0. -1.
<mgrwt>
<rscale>  0 0.86518357E+02</rscale>
<asrwt>0</asrwt>
<pdfrwt beam="1">  1        2 0.19217363E-01 0.86518357E+02</pdfrwt>
<pdfrwt beam="2">  1       -2 0.23048147E-02 0.86518357E+02</pdfrwt>
<totfact> 0.15171438E+05</totfact>
</mgrwt>
</event>
<event>
 7    1  0.3480999E-009  0.9222521E+02  0.7818608E-02  0.1297551E+00
         -2   -1    0    0    0  501 -0.00000000000E+00  0.00000000000E+00  0.30382470367E+02  0.30382470474E+02  0.25500000000E-02 0.  1.
          2   -1    0    0  501    0  0.00000000000E+00 -0.00000000000E+00 -0.69986819956E+02  0.69986820002E+02  0.25500000000E-02 0. -1.
         23    2    1    2    0    0  0.00000000000E+00  0.00000000000E+00 -0.39604349589E+02  0.10036929048E+03  0.92225213278E+02 0.  0.
    9000005    2    3    3    0    0  0.11892060290E+02 -0.29760603667E+02  0.15293628770E+02  0.36801195833E+02  0.96601400206E+01 0.  0.
         22    1    3    3    0    0 -0.11892060290E+02  0.29760603667E+02 -0.54897978359E+02  0.63568094642E+02  0.00000000000E+00 0. -1.
         22    1    4    4    0    0  0.78312149955E+01 -0.11144061383E+02  0.24939584051E+01  0.13846944101E+02  0.00000000000E+00 0.  1.
         22    1    4    4    0    0  0.40608452944E+01 -0.18616542284E+02  0.12799670365E+02  0.22954251732E+02  0.00000000000E+00 0.  1.
<mgrwt>
<rscale>  0 0.92225213E+02</rscale>
<asrwt>0</asrwt>
<pdfrwt beam="2">  1        2 0.10767203E-01 0.92225213E+02</pdfrwt>
<pdfrwt beam="1">  1       -2 0.46742263E-02 0.92225213E+02</pdfrwt>
<totfact> 0.10712517E+05</totfact>
</mgrwt>
</event>
<event>
 7    1  0.3480999E-009  0.9325757E+02  0.7818608E-02  0.1295149E+00
         -2   -1    0    0    0  501 -0.00000000000E+00  0.00000000000E+00  0.20623594512E+03  0.20623594513E+03  0.25500000000E-02 0. -1.
          2   -1    0    0  501    0  0.00000000000E+00 -0.00000000000E+00 -0.10542504881E+02  0.10542505189E+02  0.25500000000E-02 0.  1.
         23    2    1    2    0    0  0.00000000000E+00  0.71054273576E-14  0.19569344024E+03  0.21677845032E+03  0.93257567910E+02 0.  0.
    9000005    2    3    3    0    0 -0.82767752309E+01 -0.44904764856E+02  0.11845863816E+03  0.12705578002E+03  0.50773384487E+01 0.  0.
         22    1    3    3    0    0  0.82767752309E+01  0.44904764856E+02  0.77234802071E+02  0.89722670301E+02  0.00000000000E+00 0. -1.
         22    1    4    4    0    0 -0.53477446862E+01 -0.20329534078E+02  0.59919672076E+02  0.63500042762E+02  0.00000000000E+00 0.  1.
         22    1    4    4    0    0 -0.29290305447E+01 -0.24575230779E+02  0.58538966088E+02  0.63555737258E+02  0.00000000000E+00 0.  1.
<mgrwt>
<rscale>  0 0.93257568E+02</rscale>
<asrwt>0</asrwt>
<pdfrwt beam="2">  1        2 0.16219239E-02 0.93257568E+02</pdfrwt>
<pdfrwt beam="1">  1       -2 0.31728606E-01 0.93257568E+02</pdfrwt>
<totfact> 0.58039009E+04</totfact>
</mgrwt>
</event>
<event>
 7    1  0.3480999E-009  0.9285407E+02  0.7818608E-02  0.1296084E+00
          2   -1    0    0  501    0  0.00000000000E+00  0.00000000000E+00  0.15768655382E+02  0.15768655588E+02  0.25500000000E-02 0.  1.
         -2   -1    0    0    0  501 -0.00000000000E+00 -0.00000000000E+00 -0.13669330148E+03  0.13669330150E+03  0.25500000000E-02 0. -1.
         23    2    1    2    0    0 -0.35527136788E-14  0.00000000000E+00 -0.12092464609E+03  0.15246195709E+03  0.92854070057E+02 0.  0.
    9000005    2    3    3    0    0 -0.24753484191E+02 -0.20131045901E+02 -0.63672228067E+01  0.33544350238E+02  0.81662670770E+01 0.  0.
         22    1    3    3    0    0  0.24753484191E+02  0.20131045901E+02 -0.11455742329E+03  0.11891760685E+03  0.00000000000E+00 0. -1.
         22    1    4    4    0    0 -0.19264038123E+02 -0.17351107497E+02 -0.20086063119E+01  0.26003818864E+02  0.00000000000E+00 0.  1.
         22    1    4    4    0    0 -0.54894460680E+01 -0.27799384042E+01 -0.43586164948E+01  0.75405313748E+01  0.00000000000E+00 0.  1.
<mgrwt>
<rscale>  0 0.92854070E+02</rscale>
<asrwt>0</asrwt>
<pdfrwt beam="1">  1        2 0.24259471E-02 0.92854070E+02</pdfrwt>
<pdfrwt beam="2">  1       -2 0.21029738E-01 0.92854070E+02</pdfrwt>
<totfact> 0.68950239E+04</totfact>
</mgrwt>
</event>
<event>
 7    1  0.3480999E-009  0.9009958E+02  0.7818608E-02  0.1302611E+00
         -2   -1    0    0    0  501 -0.00000000000E+00  0.00000000000E+00  0.48626173223E+01  0.48626179910E+01  0.25500000000E-02 0. -1.
          2   -1    0    0  501    0  0.00000000000E+00 -0.00000000000E+00 -0.41736438391E+03  0.41736438391E+03  0.25500000000E-02 0.  1.
         23    2    1    2    0    0  0.00000000000E+00  0.00000000000E+00 -0.41250176658E+03  0.42222700191E+03  0.90099576596E+02 0.  0.
    9000005    2    3    3    0    0 -0.54611882151E+01  0.37051963600E+02 -0.32255879246E+03  0.32479799608E+03  0.68477058774E+01 0.  0.
         22    1    3    3    0    0  0.54611882151E+01 -0.37051963600E+02 -0.89942974121E+02  0.97429005830E+02  0.00000000000E+00 0. -1.
         22    1    4    4    0    0 -0.39643333806E+01  0.90005203578E+01 -0.96748662519E+02  0.97247257057E+02  0.00000000000E+00 0.  1.
         22    1    4    4    0    0 -0.14968548345E+01  0.28051443242E+02 -0.22581012994E+03  0.22755073902E+03  0.00000000000E+00 0.  1.
<mgrwt>
<rscale>  0 0.90099577E+02</rscale>
<asrwt>0</asrwt>
<pdfrwt beam="2">  1        2 0.64209877E-01 0.90099577E+02</pdfrwt>
<pdfrwt beam="1">  1       -2 0.74809535E-03 0.90099577E+02</pdfrwt>
<totfact> 0.20914680E+05</totfact>
</mgrwt>
</event>
<event>
 7    1  0.3480999E-009  0.9140076E+02  0.7818608E-02  0.1299495E+00
          2   -1    0    0  501    0  0.00000000000E+00  0.00000000000E+00  0.84220969806E+01  0.84220973667E+01  0.25500000000E-02 0. -1.
         -2   -1    0    0    0  501 -0.00000000000E+00 -0.00000000000E+00 -0.24798152824E+03  0.24798152825E+03  0.25500000000E-02 0.  1.
         23    2    1    2    0    0  0.71054273576E-14  0.00000000000E+00 -0.23955943126E+03  0.25640362562E+03  0.91400755607E+02 0.  0.
    9000005    2    3    3    0    0 -0.42509786190E+02 -0.44651247728E+01 -0.86153813321E+02  0.97154440767E+02  0.13765411360E+02 0.  0.
         22    1    3    3    0    0  0.42509786190E+02  0.44651247728E+01 -0.15340561793E+03  0.15924918485E+03  0.00000000000E+00 0.  1.
         22    1    4    4    0    0 -0.41573365128E+02 -0.69499342084E+01 -0.79338641275E+02  0.89840226363E+02  0.00000000000E+00 0. -1.
         22    1    4    4    0    0 -0.93642106139E+00  0.24848094355E+01 -0.68151720455E+01  0.73142144038E+01  0.00000000000E+00 0. -1.
<mgrwt>
<rscale>  0 0.91400756E+02</rscale>
<asrwt>0</asrwt>
<pdfrwt beam="1">  1        2 0.12957074E-02 0.91400756E+02</pdfrwt>
<pdfrwt beam="2">  1       -2 0.38150999E-01 0.91400756E+02</pdfrwt>
<totfact> 0.56049935E+04</totfact>
</mgrwt>
</event>
<event>
 7    1  0.3480999E-009  0.9425279E+02  0.7818608E-02  0.1292868E+00
          2   -1    0    0  501    0  0.00000000000E+00  0.00000000000E+00  0.55964532855E+01  0.55964538664E+01  0.25500000000E-02 0. -1.
         -2   -1    0    0    0  501 -0.00000000000E+00 -0.00000000000E+00 -0.39684005450E+03  0.39684005451E+03  0.25500000000E-02 0.  1.
         23    2    1    2    0    0 -0.27755575616E-15 -0.35527136788E-14 -0.39124360122E+03  0.40243650838E+03  0.94252786598E+02 0.  0.
    9000005    2    3    3    0    0  0.31301473073E+00  0.16007138687E+02 -0.38444931197E+03  0.38504430226E+03  0.14195589478E+02 0.  0.
         22    1    3    3    0    0 -0.31301473073E+00 -0.16007138687E+02 -0.67942892409E+01  0.17392206112E+02  0.00000000000E+00 0. -1.
         22    1    4    4    0    0 -0.56429106345E+01  0.10055917878E+02 -0.14943958873E+03  0.14988380368E+03  0.00000000000E+00 0. -1.
         22    1    4    4    0    0  0.59559253653E+01  0.59512208090E+01 -0.23500972325E+03  0.23516049859E+03  0.00000000000E+00 0. -1.
<mgrwt>
<rscale>  0 0.94252787E+02</rscale>
<asrwt>0</asrwt>
<pdfrwt beam="1">  1        2 0.86099317E-03 0.94252787E+02</pdfrwt>
<pdfrwt beam="2">  1       -2 0.61052294E-01 0.94252787E+02</pdfrwt>
<totfact> 0.39388908E+04</totfact>
</mgrwt>
</event>
<event>
 7    1  0.3480999E-009  0.9266333E+02  0.7818608E-02  0.1296527E+00
         -2   -1    0    0    0  501 -0.00000000000E+00  0.00000000000E+00  0.30004021113E+02  0.30004021221E+02  0.25500000000E-02 0. -1.
          2   -1    0    0  501    0  0.00000000000E+00 -0.00000000000E+00 -0.71544515410E+02  0.71544515456E+02  0.25500000000E-02 0.  1.
         23    2    1    2    0    0  0.00000000000E+00  0.00000000000E+00 -0.41540494298E+02  0.10154853668E+03  0.92663329504E+02 0.  0.
    9000005    2    3    3    0    0 -0.43558131716E+02  0.33846577084E+00 -0.36176409897E+02  0.57660055282E+02  0.10886870278E+02 0.  0.
         22    1    3    3    0    0  0.43558131716E+02 -0.33846577084E+00 -0.53640844003E+01  0.43888481394E+02  0.00000000000E+00 0.  1.
         22    1    4    4    0    0 -0.11740945554E+02  0.10285428213E+01 -0.16383991694E+02  0.20182737343E+02  0.00000000000E+00 0.  1.
         22    1    4    4    0    0 -0.31817186162E+02 -0.69007705043E+00 -0.19792418204E+02  0.37477317939E+02  0.00000000000E+00 0.  1.
<mgrwt>
<rscale>  0 0.92663330E+02</rscale>
<asrwt>0</asrwt>
<pdfrwt beam="2">  1        2 0.11006848E-01 0.92663330E+02</pdfrwt>
<pdfrwt beam="1">  1       -2 0.46160033E-02 0.92663330E+02</pdfrwt>
<totfact> 0.10636326E+05</totfact>
</mgrwt>
</event>
<event>
 7    1  0.3480999E-009  0.9226465E+02  0.7818608E-02  0.1297458E+00
         -2   -1    0    0    0  501 -0.00000000000E+00  0.00000000000E+00  0.76742226350E+01  0.76742230586E+01  0.25500000000E-02 0.  1.
          2   -1    0    0  501    0  0.00000000000E+00 -0.00000000000E+00 -0.27731688349E+03  0.27731688350E+03  0.25500000000E-02 0. -1.
         23    2    1    2    0    0  0.00000000000E+00  0.71054273576E-14 -0.26964266085E+03  0.28499110656E+03  0.92264653391E+02 0.  0.
    9000005    2    3    3    0    0  0.65008578176E+01  0.44206596057E+02 -0.16561573892E+03  0.17177412562E+03  0.90162611513E+01 0.  0.
         22    1    3    3    0    0 -0.65008578176E+01 -0.44206596057E+02 -0.10402692193E+03  0.11321698094E+03  0.00000000000E+00 0.  1.
         22    1    4    4    0    0  0.21972941771E+01  0.12043689155E+02 -0.61959884261E+02  0.63157785013E+02  0.00000000000E+00 0. -1.
         22    1    4    4    0    0  0.43035636405E+01  0.32162906902E+02 -0.10365585466E+03  0.10861634060E+03  0.00000000000E+00 0. -1.
<mgrwt>
<rscale>  0 0.92264653E+02</rscale>
<asrwt>0</asrwt>
<pdfrwt beam="2">  1        2 0.42664128E-01 0.92264653E+02</pdfrwt>
<pdfrwt beam="1">  1       -2 0.11806499E-02 0.92264653E+02</pdfrwt>
<totfact> 0.16901891E+05</totfact>
</mgrwt>
</event>
<event>
 7    1  0.3480999E-009  0.9198206E+02  0.7818608E-02  0.1298122E+00
         -2   -1    0    0    0  501 -0.00000000000E+00  0.00000000000E+00  0.16579144697E+03  0.16579144699E+03  0.25500000000E-02 0.  1.
          2   -1    0    0  501    0  0.00000000000E+00 -0.00000000000E+00 -0.12758045627E+02  0.12758045882E+02  0.25500000000E-02 0. -1.
         23    2    1    2    0    0  0.00000000000E+00  0.00000000000E+00  0.15303340134E+03  0.17854949287E+03  0.91982060631E+02 0.  0.
    9000005    2    3    3    0    0 -0.14871131721E+02 -0.16054530821E+02  0.15438027256E+03  0.15662433425E+03  0.14799155470E+02 0.  0.
         22    1    3    3    0    0  0.14871131721E+02  0.16054530821E+02 -0.13468712226E+01  0.21925158623E+02  0.00000000000E+00 0. -1.
         22    1    4    4    0    0 -0.49523764966E+01 -0.14809797521E+02  0.74355686214E+02  0.75977787596E+02  0.00000000000E+00 0.  1.
         22    1    4    4    0    0 -0.99187552249E+01 -0.12447332999E+01  0.80024586349E+02  0.80646546650E+02  0.00000000000E+00 0.  1.
<mgrwt>
<rscale>  0 0.91982061E+02</rscale>
<asrwt>0</asrwt>
<pdfrwt beam="2">  1        2 0.19627762E-02 0.91982061E+02</pdfrwt>
<pdfrwt beam="1">  1       -2 0.25506378E-01 0.91982061E+02</pdfrwt>
<totfact> 0.65798224E+04</totfact>
</mgrwt>
</event>
<event>
 7    1  0.3480999E-009  0.8884771E+02  0.7818608E-02  0.1305666E+00
         -2   -1    0    0    0  501 -0.00000000000E+00  0.00000000000E+00  0.23060447663E+02  0.23060447804E+02  0.25500000000E-02 0. -1.
          2   -1    0    0  501    0  0.00000000000E+00 -0.00000000000E+00 -0.85578520005E+02  0.85578520043E+02  0.25500000000E-02 0.  1.
         23    2    1    2    0    0  0.17763568394E-14  0.00000000000E+00 -0.62518072343E+02  0.10863896785E+03  0.88847712213E+02 0.  0.
    9000005    2    3    3    0    0  0.96944795055E+01  0.12144889571E+02  0.19100346584E+02  0.25554386945E+02  0.68353622394E+01 0.  0.
         22    1    3    3    0    0 -0.96944795055E+01 -0.12144889571E+02 -0.81618418926E+02  0.83084580902E+02  0.00000000000E+00 0.  1.
         22    1    4    4    0    0  0.38227314673E+01  0.39911950296E+00  0.44621005104E+01  0.58892200854E+01  0.00000000000E+00 0. -1.
         22    1    4    4    0    0  0.58717480382E+01  0.11745770068E+02  0.14638246073E+02  0.19665166860E+02  0.00000000000E+00 0. -1.
<mgrwt>
<rscale>  0 0.88847712E+02</rscale>
<asrwt>0</asrwt>
<pdfrwt beam="2">  1        2 0.13165926E-01 0.88847712E+02</pdfrwt>
<pdfrwt beam="1">  1       -2 0.35477612E-02 0.88847712E+02</pdfrwt>
<totfact> 0.12579326E+05</totfact>
</mgrwt>
</event>
<event>
 7    1  0.3480999E-009  0.9148902E+02  0.7818608E-02  0.1299285E+00
         -2   -1    0    0    0  501 -0.00000000000E+00  0.00000000000E+00  0.33392794320E+02  0.33392794417E+02  0.25500000000E-02 0. -1.
          2   -1    0    0  501    0  0.00000000000E+00 -0.00000000000E+00 -0.62665016755E+02  0.62665016807E+02  0.25500000000E-02 0.  1.
         23    2    1    2    0    0  0.00000000000E+00  0.17763568394E-14 -0.29272222435E+02  0.96057811224E+02  0.91489016231E+02 0.  0.
    9000005    2    3    3    0    0 -0.42421135160E+01 -0.14858175079E+02  0.29345547464E+02  0.35437650867E+02  0.12486194349E+02 0.  0.
         22    1    3    3    0    0  0.42421135160E+01  0.14858175079E+02 -0.58617769899E+02  0.60620160356E+02  0.00000000000E+00 0.  1.
         22    1    4    4    0    0 -0.71777131336E+01 -0.14599667263E+02  0.27526022664E+02  0.31974236092E+02  0.00000000000E+00 0. -1.
         22    1    4    4    0    0  0.29355996177E+01 -0.25850781598E+00  0.18195247999E+01  0.34634147750E+01  0.00000000000E+00 0. -1.
<mgrwt>
<rscale>  0 0.91489016E+02</rscale>
<asrwt>0</asrwt>
<pdfrwt beam="2">  1        2 0.96407718E-02 0.91489016E+02</pdfrwt>
<pdfrwt beam="1">  1       -2 0.51373530E-02 0.91489016E+02</pdfrwt>
<totfact> 0.10628993E+05</totfact>
</mgrwt>
</event>
<event>
 7    1  0.3480999E-009  0.9338274E+02  0.7818608E-02  0.1294861E+00
          2   -1    0    0  501    0  0.00000000000E+00  0.00000000000E+00  0.27756421746E+03  0.27756421747E+03  0.25500000000E-02 0. -1.
         -2   -1    0    0    0  501 -0.00000000000E+00 -0.00000000000E+00 -0.78543401064E+01  0.78543405203E+01  0.25500000000E-02 0.  1.
         23    2    1    2    0    0  0.00000000000E+00  0.00000000000E+00  0.26970987735E+03  0.28541855799E+03  0.93382735579E+02 0.  0.
    9000005    2    3    3    0    0 -0.10941155960E+02  0.44244434192E+02  0.11398136373E+03  0.12315750658E+03  0.99368656028E+01 0.  0.
         22    1    3    3    0    0  0.10941155960E+02 -0.44244434192E+02  0.15572851362E+03  0.16226105141E+03  0.00000000000E+00 0. -1.
         22    1    4    4    0    0 -0.11008665628E+01  0.24519141061E+02  0.63170276711E+02  0.67770820014E+02  0.00000000000E+00 0.  1.
         22    1    4    4    0    0 -0.98402893971E+01  0.19725293130E+02  0.50811087020E+02  0.55386686565E+02  0.00000000000E+00 0.  1.
<mgrwt>
<rscale>  0 0.93382736E+02</rscale>
<asrwt>0</asrwt>
<pdfrwt beam="1">  1        2 0.42702185E-01 0.93382736E+02</pdfrwt>
<pdfrwt beam="2">  1       -2 0.12083601E-02 0.93382736E+02</pdfrwt>
<totfact> 0.16370592E+05</totfact>
</mgrwt>
</event>
<event>
 6    1  0.3480999E-009  0.1578668E+03  0.7818608E-02  0.1191126E+00
          2   -1    0    0  501    0  0.00000000000E+00  0.00000000000E+00  0.21976146895E+02  0.21976147043E+02  0.25500000000E-02 0. -1.
         -2   -1    0    0    0  501 -0.00000000000E+00 -0.00000000000E+00 -0.28351092917E+03  0.28351092919E+03  0.25500000000E-02 0.  1.
    9000005    2    1    2    0    0 -0.39560919298E+02 -0.32572843485E+02 -0.24691254666E+03  0.25219668082E+03  0.33620902156E+01 0.  0.
         22    1    1    2    0    0  0.39560919298E+02  0.32572843485E+02 -0.14622235621E+02  0.53290395410E+02  0.00000000000E+00 0. -1.
         22    1    3    3    0    0 -0.14587217518E+02 -0.10039533787E+02 -0.82777431893E+02  0.84650353716E+02  0.00000000000E+00 0.  1.
         22    1    3    3    0    0 -0.24973701780E+02 -0.22533309698E+02 -0.16413511477E+03  0.16754632710E+03  0.00000000000E+00 0.  1.
<mgrwt>
<rscale>  0 0.15786675E+03</rscale>
<asrwt>0</asrwt>
<pdfrwt beam="1">  1        2 0.33809459E-02 0.15786675E+03</pdfrwt>
<pdfrwt beam="2">  1       -2 0.43617063E-01 0.15786675E+03</pdfrwt>
<totfact> 0.12696551E+04</totfact>
</mgrwt>
</event>
<event>
 7    1  0.3480999E-009  0.9142207E+02  0.7818608E-02  0.1299444E+00
          2   -1    0    0  501    0  0.00000000000E+00  0.00000000000E+00  0.21603065950E+03  0.21603065951E+03  0.25500000000E-02 0. -1.
         -2   -1    0    0    0  501 -0.00000000000E+00 -0.00000000000E+00 -0.96722326882E+01  0.96722330244E+01  0.25500000000E-02 0.  1.
         23    2    1    2    0    0  0.00000000000E+00  0.00000000000E+00  0.20635842681E+03  0.22570289254E+03  0.91422072742E+02 0.  0.
    9000005    2    3    3    0    0  0.33557689871E+02  0.38049525460E+01  0.17909259391E+03  0.18229757193E+03  0.42013480386E+01 0.  0.
         22    1    3    3    0    0 -0.33557689871E+02 -0.38049525460E+01  0.27265832906E+02  0.43405320612E+02  0.00000000000E+00 0.  1.
         22    1    4    4    0    0  0.28928910398E+02  0.46148892557E+01  0.15721081578E+03  0.15991691486E+03  0.00000000000E+00 0. -1.
         22    1    4    4    0    0  0.46287794735E+01 -0.80993670973E+00  0.21881778121E+02  0.22380657065E+02  0.00000000000E+00 0. -1.
<mgrwt>
<rscale>  0 0.91422073E+02</rscale>
<asrwt>0</asrwt>
<pdfrwt beam="1">  1        2 0.33235484E-01 0.91422073E+02</pdfrwt>
<pdfrwt beam="2">  1       -2 0.14880359E-02 0.91422073E+02</pdfrwt>
<totfact> 0.15793203E+05</totfact>
</mgrwt>
</event>
<event>
 7    1  0.3480999E-009  0.8903761E+02  0.7818608E-02  0.1305199E+00
         -2   -1    0    0    0  501 -0.00000000000E+00  0.00000000000E+00  0.72104613282E+01  0.72104617791E+01  0.25500000000E-02 0.  1.
          2   -1    0    0  501    0  0.00000000000E+00 -0.00000000000E+00 -0.27486782166E+03  0.27486782167E+03  0.25500000000E-02 0. -1.
         23    2    1    2    0    0  0.00000000000E+00 -0.35527136788E-14 -0.26765736033E+03  0.28207828345E+03  0.89037606970E+02 0.  0.
    9000005    2    3    3    0    0  0.25558682142E+02 -0.29055939221E+02 -0.73542909829E+02  0.84144168829E+02  0.13198019738E+02 0.  0.
         22    1    3    3    0    0 -0.25558682142E+02  0.29055939221E+02 -0.19411445051E+03  0.19793411462E+03  0.00000000000E+00 0. -1.
         22    1    4    4    0    0  0.23972888408E+02 -0.29362413503E+02 -0.73286012288E+02  0.82508728644E+02  0.00000000000E+00 0.  1.
         22    1    4    4    0    0  0.15857937340E+01  0.30647428172E+00 -0.25689754017E+00  0.16354401849E+01  0.00000000000E+00 0.  1.
<mgrwt>
<rscale>  0 0.89037607E+02</rscale>
<asrwt>0</asrwt>
<pdfrwt beam="2">  1        2 0.42287349E-01 0.89037607E+02</pdfrwt>
<pdfrwt beam="1">  1       -2 0.11093020E-02 0.89037607E+02</pdfrwt>
<totfact> 0.18526217E+05</totfact>
</mgrwt>
</event>
<event>
 7    1  0.3480999E-009  0.9017765E+02  0.7818608E-02  0.1302422E+00
         -2   -1    0    0    0  501 -0.00000000000E+00  0.00000000000E+00  0.61744333425E+01  0.61744338691E+01  0.25500000000E-02 0.  1.
          2   -1    0    0  501    0  0.00000000000E+00 -0.00000000000E+00 -0.32926134793E+03  0.32926134794E+03  0.25500000000E-02 0. -1.
         23    2    1    2    0    0 -0.71054273576E-14  0.17763568394E-14 -0.32308691458E+03  0.33543578181E+03  0.90177654328E+02 0.  0.
    9000005    2    3    3    0    0 -0.39248778820E+02  0.11290642737E+02 -0.22559796377E+03  0.22973790679E+03  0.14734968823E+02 0.  0.
         22    1    3    3    0    0  0.39248778820E+02 -0.11290642737E+02 -0.97488950816E+02  0.10569787502E+03  0.00000000000E+00 0. -1.
         22    1    4    4    0    0 -0.15127293028E+02 -0.28457143081E+01 -0.86267530222E+02  0.87630016860E+02  0.00000000000E+00 0. -1.
         22    1    4    4    0    0 -0.24121485792E+02  0.14136357045E+02 -0.13933043355E+03  0.14210788993E+03  0.00000000000E+00 0. -1.
<mgrwt>
<rscale>  0 0.90177654E+02</rscale>
<asrwt>0</asrwt>
<pdfrwt beam="2">  1        2 0.50655579E-01 0.90177654E+02</pdfrwt>
<pdfrwt beam="1">  1       -2 0.94991312E-03 0.90177654E+02</pdfrwt>
<totfact> 0.19150588E+05</totfact>
</mgrwt>
</event>
<event>
 7    1  0.3480999E-009  0.8470974E+02  0.7818608E-02  0.1316193E+00
         -2   -1    0    0    0  501 -0.00000000000E+00  0.00000000000E+00  0.35357950661E+02  0.35357950753E+02  0.25500000000E-02 0.  1.
          2   -1    0    0  501    0  0.00000000000E+00 -0.00000000000E+00 -0.50736396469E+02  0.50736396533E+02  0.25500000000E-02 0. -1.
         23    2    1    2    0    0  0.00000000000E+00 -0.88817841970E-15 -0.15378445809E+02  0.86094347286E+02  0.84709739931E+02 0.  0.
    9000005    2    3    3    0    0 -0.14307186178E+02 -0.70195745591E+01  0.31180225605E+02  0.36883780462E+02  0.11586060119E+02 0.  0.
         22    1    3    3    0    0  0.14307186178E+02  0.70195745591E+01 -0.46558671414E+02  0.49210566824E+02  0.00000000000E+00 0. -1.
         22    1    4    4    0    0 -0.93570534922E+01 -0.89854302453E+01  0.27510424012E+02  0.30415716925E+02  0.00000000000E+00 0.  1.
         22    1    4    4    0    0 -0.49501326857E+01  0.19658556862E+01  0.36698015930E+01  0.64680635368E+01  0.00000000000E+00 0.  1.
<mgrwt>
<rscale>  0 0.84709740E+02</rscale>
<asrwt>0</asrwt>
<pdfrwt beam="2">  1        2 0.78055995E-02 0.84709740E+02</pdfrwt>
<pdfrwt beam="1">  1       -2 0.54396847E-02 0.84709740E+02</pdfrwt>
<totfact> 0.12492273E+05</totfact>
</mgrwt>
</event>
<event>
 7    1  0.3480999E-009  0.9180552E+02  0.7818608E-02  0.1298537E+00
          2   -1    0    0  501    0  0.00000000000E+00  0.00000000000E+00  0.14109541861E+03  0.14109541863E+03  0.25500000000E-02 0. -1.
         -2   -1    0    0    0  501 -0.00000000000E+00 -0.00000000000E+00 -0.14933605549E+02  0.14933605767E+02  0.25500000000E-02 0.  1.
         23    2    1    2    0    0  0.00000000000E+00  0.00000000000E+00  0.12616181306E+03  0.15602902440E+03  0.91805519335E+02 0.  0.
    9000005    2    3    3    0    0  0.41289609882E+02  0.11033874729E+02  0.90940111219E+02  0.10064719925E+03  0.57599143644E+01 0.  0.
         22    1    3    3    0    0 -0.41289609882E+02 -0.11033874729E+02  0.35221701839E+02  0.55381825143E+02  0.00000000000E+00 0.  1.
         22    1    4    4    0    0  0.14187584657E+02  0.65556031467E+01  0.34686822355E+02  0.38045224879E+02  0.00000000000E+00 0.  1.
         22    1    4    4    0    0  0.27102025225E+02  0.44782715820E+01  0.56253288864E+02  0.62601974376E+02  0.00000000000E+00 0.  1.
<mgrwt>
<rscale>  0 0.91805519E+02</rscale>
<asrwt>0</asrwt>
<pdfrwt beam="1">  1        2 0.21706988E-01 0.91805519E+02</pdfrwt>
<pdfrwt beam="2">  1       -2 0.22974777E-02 0.91805519E+02</pdfrwt>
<totfact> 0.13441172E+05</totfact>
</mgrwt>
</event>
<event>
 7    1  0.3480999E-009  0.9370596E+02  0.7818608E-02  0.1294117E+00
          2   -1    0    0  501    0  0.00000000000E+00  0.00000000000E+00  0.37752132538E+03  0.37752132539E+03  0.25500000000E-02 0. -1.
         -2   -1    0    0    0  501 -0.00000000000E+00 -0.00000000000E+00 -0.58147757245E+01  0.58147762836E+01  0.25500000000E-02 0.  1.
         23    2    1    2    0    0 -0.35527136788E-14  0.35527136788E-14  0.37170654965E+03  0.38333610167E+03  0.93705964530E+02 0.  0.
    9000005    2    3    3    0    0 -0.19796051298E+02  0.29940748559E+02  0.30869961934E+03  0.31082261783E+03  0.51877453543E+01 0.  0.
         22    1    3    3    0    0  0.19796051298E+02 -0.29940748559E+02  0.63006930311E+02  0.72513483839E+02  0.00000000000E+00 0.  1.
         22    1    4    4    0    0 -0.12920679754E+02  0.17297796162E+02  0.20377882421E+03  0.20491941566E+03  0.00000000000E+00 0.  1.
         22    1    4    4    0    0 -0.68753715439E+01  0.12642952397E+02  0.10492079513E+03  0.10590320217E+03  0.00000000000E+00 0.  1.
<mgrwt>
<rscale>  0 0.93705965E+02</rscale>
<asrwt>0</asrwt>
<pdfrwt beam="1">  1        2 0.58080219E-01 0.93705965E+02</pdfrwt>
<pdfrwt beam="2">  1       -2 0.89458069E-03 0.93705965E+02</pdfrwt>
<totfact> 0.18177226E+05</totfact>
</mgrwt>
</event>
<event>
 7    1  0.3480999E-009  0.9425155E+02  0.7818608E-02  0.1292871E+00
          2   -1    0    0  501    0  0.00000000000E+00  0.00000000000E+00  0.31983005585E+03  0.31983005586E+03  0.25500000000E-02 0. -1.
         -2   -1    0    0    0  501 -0.00000000000E+00 -0.00000000000E+00 -0.69438075857E+01  0.69438080539E+01  0.25500000000E-02 0.  1.
         23    2    1    2    0    0  0.00000000000E+00  0.00000000000E+00  0.31288624826E+03  0.32677386391E+03  0.94251545263E+02 0.  0.
    9000005    2    3    3    0    0  0.42643507540E+02  0.38758130863E+01  0.96229384387E+02  0.10592620754E+03  0.11259500929E+02 0.  0.
         22    1    3    3    0    0 -0.42643507540E+02 -0.38758130863E+01  0.21665686388E+03  0.22084765638E+03  0.00000000000E+00 0. -1.
         22    1    4    4    0    0  0.28278095796E+02 -0.23257590965E+01  0.56434846704E+02  0.63166065096E+02  0.00000000000E+00 0.  1.
         22    1    4    4    0    0  0.14365411744E+02  0.62015721828E+01  0.39794537683E+02  0.42760142440E+02  0.00000000000E+00 0.  1.
<mgrwt>
<rscale>  0 0.94251545E+02</rscale>
<asrwt>0</asrwt>
<pdfrwt beam="1">  1        2 0.49204609E-01 0.94251545E+02</pdfrwt>
<pdfrwt beam="2">  1       -2 0.10682785E-02 0.94251545E+02</pdfrwt>
<totfact> 0.16838418E+05</totfact>
</mgrwt>
</event>
<event>
 7    1  0.3480999E-009  0.9190360E+02  0.7818608E-02  0.1298306E+00
         -2   -1    0    0    0  501 -0.00000000000E+00  0.00000000000E+00  0.88879255281E+01  0.88879258939E+01  0.25500000000E-02 0.  1.
          2   -1    0    0  501    0  0.00000000000E+00 -0.00000000000E+00 -0.23757715790E+03  0.23757715791E+03  0.25500000000E-02 0. -1.
         23    2    1    2    0    0  0.00000000000E+00  0.00000000000E+00 -0.22868923237E+03  0.24646508381E+03  0.91903604572E+02 0.  0.
    9000005    2    3    3    0    0  0.45015112361E+00 -0.35188239885E+02 -0.36104773075E+02  0.50691774020E+02  0.52617917385E+01 0.  0.
         22    1    3    3    0    0 -0.45015112361E+00  0.35188239885E+02 -0.19258445930E+03  0.19577330979E+03  0.00000000000E+00 0. -1.
         22    1    4    4    0    0 -0.23860949609E+01 -0.16351699127E+02 -0.16217352846E+02  0.23153272918E+02  0.00000000000E+00 0. -1.
         22    1    4    4    0    0  0.28362460845E+01 -0.18836540758E+02 -0.19887420229E+02  0.27538501102E+02  0.00000000000E+00 0. -1.
<mgrwt>
<rscale>  0 0.91903605E+02</rscale>
<asrwt>0</asrwt>
<pdfrwt beam="2">  1        2 0.36550327E-01 0.91903605E+02</pdfrwt>
<pdfrwt beam="1">  1       -2 0.13673734E-02 0.91903605E+02</pdfrwt>
<totfact> 0.16125573E+05</totfact>
</mgrwt>
</event>
<event>
 7    1  0.3480999E-009  0.9145428E+02  0.7818608E-02  0.1299368E+00
          2   -1    0    0  501    0  0.00000000000E+00  0.00000000000E+00  0.49865165766E+02  0.49865165831E+02  0.25500000000E-02 0. -1.
         -2   -1    0    0    0  501 -0.00000000000E+00 -0.00000000000E+00 -0.41932503101E+02  0.41932503179E+02  0.25500000000E-02 0.  1.
         23    2    1    2    0    0 -0.35527136788E-14  0.71054273576E-14  0.79326626644E+01  0.91797669010E+02  0.91454277640E+02 0.  0.
    9000005    2    3    3    0    0  0.23912289912E+02 -0.37174162682E+02  0.91357814447E+01  0.47580438491E+02  0.15057212374E+02 0.  0.
         22    1    3    3    0    0 -0.23912289912E+02  0.37174162682E+02 -0.12031187803E+01  0.44217230518E+02  0.00000000000E+00 0.  1.
         22    1    4    4    0    0  0.23725665436E+02 -0.33771568804E+02  0.12157531118E+02  0.43025941277E+02  0.00000000000E+00 0.  1.
         22    1    4    4    0    0  0.18662447630E+00 -0.34025938777E+01 -0.30217496730E+01  0.45544972146E+01  0.00000000000E+00 0.  1.
<mgrwt>
<rscale>  0 0.91454278E+02</rscale>
<asrwt>0</asrwt>
<pdfrwt beam="1">  1        2 0.76715640E-02 0.91454278E+02</pdfrwt>
<pdfrwt beam="2">  1       -2 0.64511543E-02 0.91454278E+02</pdfrwt>
<totfact> 0.10013301E+05</totfact>
</mgrwt>
</event>
<event>
 7    1  0.3480999E-009  0.9197682E+02  0.7818608E-02  0.1298134E+00
         -2   -1    0    0    0  501 -0.00000000000E+00  0.00000000000E+00  0.80576718231E+01  0.80576722266E+01  0.25500000000E-02 0.  1.
          2   -1    0    0  501    0  0.00000000000E+00 -0.00000000000E+00 -0.26247456104E+03  0.26247456105E+03  0.25500000000E-02 0. -1.
         23    2    1    2    0    0  0.00000000000E+00  0.00000000000E+00 -0.25441688921E+03  0.27053223328E+03  0.91976821667E+02 0.  0.
    9000005    2    3    3    0    0  0.34902396886E+02  0.26499231051E+02 -0.10524132810E+03  0.11505318456E+03  0.15527768140E+02 0.  0.
         22    1    3    3    0    0 -0.34902396886E+02 -0.26499231051E+02 -0.14917556111E+03  0.15547904871E+03  0.00000000000E+00 0. -1.
         22    1    4    4    0    0  0.49204287556E+01  0.11550932199E+02 -0.22126796477E+02  0.25440710999E+02  0.00000000000E+00 0.  1.
         22    1    4    4    0    0  0.29981968130E+02  0.14948298852E+02 -0.83114531624E+02  0.89612473566E+02  0.00000000000E+00 0.  1.
<mgrwt>
<rscale>  0 0.91976822E+02</rscale>
<asrwt>0</asrwt>
<pdfrwt beam="2">  1        2 0.40380695E-01 0.91976822E+02</pdfrwt>
<pdfrwt beam="1">  1       -2 0.12396421E-02 0.91976822E+02</pdfrwt>
<totfact> 0.16697160E+05</totfact>
</mgrwt>
</event>
<event>
 7    1  0.3480999E-009  0.9145608E+02  0.7818608E-02  0.1299363E+00
          2   -1    0    0  501    0  0.00000000000E+00  0.00000000000E+00  0.71749356059E+02  0.71749356105E+02  0.25500000000E-02 0. -1.
         -2   -1    0    0    0  501 -0.00000000000E+00 -0.00000000000E+00 -0.29143869027E+02  0.29143869139E+02  0.25500000000E-02 0.  1.
         23    2    1    2    0    0  0.00000000000E+00 -0.44408920985E-15  0.42605487032E+02  0.10089322524E+03  0.91456084405E+02 0.  0.
    9000005    2    3    3    0    0  0.14663382054E+02  0.18659161906E+01  0.68184140723E+02  0.71350646799E+02  0.14944608927E+02 0.  0.
         22    1    3    3    0    0 -0.14663382054E+02 -0.18659161906E+01 -0.25578653691E+02  0.29542578444E+02  0.00000000000E+00 0.  1.
         22    1    4    4    0    0  0.12467750752E+02 -0.49155429191E+01  0.36720156846E+02  0.39089350081E+02  0.00000000000E+00 0. -1.
         22    1    4    4    0    0  0.21956313024E+01  0.67814591098E+01  0.31463983877E+02  0.32261296718E+02  0.00000000000E+00 0. -1.
<mgrwt>
<rscale>  0 0.91456084E+02</rscale>
<asrwt>0</asrwt>
<pdfrwt beam="1">  1        2 0.11038362E-01 0.91456084E+02</pdfrwt>
<pdfrwt beam="2">  1       -2 0.44836722E-02 0.91456084E+02</pdfrwt>
<totfact> 0.11043191E+05</totfact>
</mgrwt>
</event>
<event>
 6    1  0.3480999E-009  0.1315451E+03  0.7818608E-02  0.1225181E+00
          2   -1    0    0  501    0  0.00000000000E+00  0.00000000000E+00  0.53221517705E+03  0.53221517705E+03  0.25500000000E-02 0.  1.
         -2   -1    0    0    0  501 -0.00000000000E+00 -0.00000000000E+00 -0.81283390510E+01  0.81283394510E+01  0.25500000000E-02 0. -1.
    9000005    2    1    2    0    0  0.95121596786E+00 -0.36710015029E+02  0.48593306139E+03  0.48738843474E+03  0.82471905698E+01 0.  0.
         22    1    1    2    0    0 -0.95121596786E+00  0.36710015029E+02  0.38153776605E+02  0.52955081762E+02  0.00000000000E+00 0. -1.
         22    1    3    3    0    0  0.25850900299E+01 -0.33583126178E+02  0.41353072942E+03  0.41490019670E+03  0.00000000000E+00 0. -1.
         22    1    3    3    0    0 -0.16338740620E+01 -0.31268888509E+01  0.72402331975E+02  0.72488238038E+02  0.00000000000E+00 0. -1.
<mgrwt>
<rscale>  0 0.13154506E+03</rscale>
<asrwt>0</asrwt>
<pdfrwt beam="1">  1        2 0.81879270E-01 0.13154506E+03</pdfrwt>
<pdfrwt beam="2">  1       -2 0.12505135E-02 0.13154506E+03</pdfrwt>
<totfact> 0.81836538E+04</totfact>
</mgrwt>
</event>
<event>
 7    1  0.3480999E-009  0.9114706E+02  0.7818608E-02  0.1300097E+00
          2   -1    0    0  501    0  0.00000000000E+00  0.00000000000E+00  0.99636209364E+02  0.99636209397E+02  0.25500000000E-02 0. -1.
         -2   -1    0    0    0  501 -0.00000000000E+00 -0.00000000000E+00 -0.20845299076E+02  0.20845299232E+02  0.25500000000E-02 0.  1.
         23    2    1    2    0    0  0.88817841970E-15 -0.71054273576E-14  0.78790910289E+02  0.12048150863E+03  0.91147059071E+02 0.  0.
    9000005    2    3    3    0    0  0.73638244191E+01 -0.37327256665E+02  0.91147054471E+01  0.41094333837E+02  0.12574435094E+02 0.  0.
         22    1    3    3    0    0 -0.73638244191E+01  0.37327256665E+02  0.69676204842E+02  0.79387174791E+02  0.00000000000E+00 0. -1.
         22    1    4    4    0    0  0.49694594117E+01 -0.33341056103E+01  0.10507369135E+01  0.60758402815E+01  0.00000000000E+00 0.  1.
         22    1    4    4    0    0  0.23943650074E+01 -0.33993151054E+02  0.80639685335E+01  0.35018493556E+02  0.00000000000E+00 0.  1.
<mgrwt>
<rscale>  0 0.91147059E+02</rscale>
<asrwt>0</asrwt>
<pdfrwt beam="1">  1        2 0.15328648E-01 0.91147059E+02</pdfrwt>
<pdfrwt beam="2">  1       -2 0.32069691E-02 0.91147059E+02</pdfrwt>
<totfact> 0.12265056E+05</totfact>
</mgrwt>
</event>
<event>
 7    1  0.3480999E-009  0.9076115E+02  0.7818608E-02  0.1301019E+00
         -2   -1    0    0    0  501 -0.00000000000E+00  0.00000000000E+00  0.48154868649E+02  0.48154868716E+02  0.25500000000E-02 0.  1.
          2   -1    0    0  501    0  0.00000000000E+00 -0.00000000000E+00 -0.42766116638E+02  0.42766116715E+02  0.25500000000E-02 0. -1.
         23    2    1    2    0    0  0.00000000000E+00 -0.71054273576E-14  0.53887520104E+01  0.90920985431E+02  0.90761153273E+02 0.  0.
    9000005    2    3    3    0    0  0.20743457439E+02  0.33991288170E+02 -0.17482694503E+02  0.44999293786E+02  0.11558249702E+02 0.  0.
         22    1    3    3    0    0 -0.20743457439E+02 -0.33991288170E+02  0.22871446514E+02  0.45921691645E+02  0.00000000000E+00 0.  1.
         22    1    4    4    0    0  0.16092069115E+02  0.16494838354E+02 -0.70221772229E+01  0.24090358106E+02  0.00000000000E+00 0.  1.
         22    1    4    4    0    0  0.46513883238E+01  0.17496449815E+02 -0.10460517281E+02  0.20908935680E+02  0.00000000000E+00 0.  1.
<mgrwt>
<rscale>  0 0.90761153E+02</rscale>
<asrwt>0</asrwt>
<pdfrwt beam="2">  1        2 0.65794026E-02 0.90761153E+02</pdfrwt>
<pdfrwt beam="1">  1       -2 0.74084413E-02 0.90761153E+02</pdfrwt>
<totfact> 0.98339445E+04</totfact>
</mgrwt>
</event>
<event>
 7    1  0.3480999E-009  0.9124987E+02  0.7818608E-02  0.1299853E+00
          2   -1    0    0  501    0  0.00000000000E+00  0.00000000000E+00  0.27807031869E+01  0.27807043561E+01  0.25500000000E-02 0. -1.
         -2   -1    0    0    0  501 -0.00000000000E+00 -0.00000000000E+00 -0.74859989965E+03  0.74859989965E+03  0.25500000000E-02 0.  1.
         23    2    1    2    0    0  0.00000000000E+00  0.00000000000E+00 -0.74581919646E+03  0.75138060401E+03  0.91249867234E+02 0.  0.
    9000005    2    3    3    0    0  0.55906574427E+01  0.22051444860E+02 -0.69785854386E+03  0.69829815993E+03  0.98107725293E+01 0.  0.
         22    1    3    3    0    0 -0.55906574427E+01 -0.22051444860E+02 -0.47960652605E+02  0.53082444078E+02  0.00000000000E+00 0. -1.
         22    1    4    4    0    0 -0.14520071545E+01  0.13476758052E+02 -0.41803767151E+03  0.41825736830E+03  0.00000000000E+00 0. -1.
         22    1    4    4    0    0  0.70426645973E+01  0.85746868076E+01 -0.27982087235E+03  0.28004079164E+03  0.00000000000E+00 0. -1.
<mgrwt>
<rscale>  0 0.91249867E+02</rscale>
<asrwt>0</asrwt>
<pdfrwt beam="1">  1        2 0.42780118E-03 0.91249867E+02</pdfrwt>
<pdfrwt beam="2">  1       -2 0.11516905E+00 0.91249867E+02</pdfrwt>
<totfact> 0.25430777E+04</totfact>
</mgrwt>
</event>
<event>
 7    1  0.3480999E-009  0.8813229E+02  0.7818608E-02  0.1307439E+00
         -2   -1    0    0    0  501 -0.00000000000E+00  0.00000000000E+00  0.46667435952E+01  0.46667442919E+01  0.25500000000E-02 0.  1.
          2   -1    0    0  501    0  0.00000000000E+00 -0.00000000000E+00 -0.41609847921E+03  0.41609847922E+03  0.25500000000E-02 0. -1.
         23    2    1    2    0    0  0.00000000000E+00  0.00000000000E+00 -0.41143173561E+03  0.42076522351E+03  0.88132288318E+02 0.  0.
    9000005    2    3    3    0    0 -0.40588373955E+02 -0.74244330459E+01 -0.26768287304E+03  0.27121164182E+03  0.14110132185E+02 0.  0.
         22    1    3    3    0    0  0.40588373955E+02  0.74244330459E+01 -0.14374886257E+03  0.14955358169E+03  0.00000000000E+00 0.  1.
         22    1    4    4    0    0 -0.52438411893E+01  0.35135378858E+01 -0.51532541801E+02  0.51917681799E+02  0.00000000000E+00 0. -1.
         22    1    4    4    0    0 -0.35344532766E+02 -0.10937970932E+02 -0.21615033124E+03  0.21929396002E+03  0.00000000000E+00 0. -1.
<mgrwt>
<rscale>  0 0.88132288E+02</rscale>
<asrwt>0</asrwt>
<pdfrwt beam="2">  1        2 0.64015122E-01 0.88132288E+02</pdfrwt>
<pdfrwt beam="1">  1       -2 0.71796093E-03 0.88132288E+02</pdfrwt>
<totfact> 0.22148894E+05</totfact>
</mgrwt>
</event>
<event>
 7    1  0.3480999E-009  0.8948141E+02  0.7818608E-02  0.1304112E+00
         -2   -1    0    0    0  501 -0.00000000000E+00  0.00000000000E+00  0.23328385340E+03  0.23328385341E+03  0.25500000000E-02 0.  1.
          2   -1    0    0  501    0  0.00000000000E+00 -0.00000000000E+00 -0.85806650478E+01  0.85806654267E+01  0.25500000000E-02 0. -1.
         23    2    1    2    0    0 -0.17763568394E-14  0.71054273576E-14  0.22470318835E+03  0.24186451884E+03  0.89481409345E+02 0.  0.
    9000005    2    3    3    0    0  0.82901984718E+01 -0.42627541169E+02  0.10907704433E+03  0.11835241482E+03  0.14955194362E+02 0.  0.
         22    1    3    3    0    0 -0.82901984718E+01  0.42627541169E+02  0.11562614403E+03  0.12351210402E+03  0.00000000000E+00 0. -1.
         22    1    4    4    0    0  0.24113363223E+01 -0.19291902616E+02  0.30470648568E+02  0.36144881706E+02  0.00000000000E+00 0. -1.
         22    1    4    4    0    0  0.58788621495E+01 -0.23335638553E+02  0.78606395758E+02  0.82207533116E+02  0.00000000000E+00 0. -1.
<mgrwt>
<rscale>  0 0.89481409E+02</rscale>
<asrwt>0</asrwt>
<pdfrwt beam="2">  1        2 0.13201026E-02 0.89481409E+02</pdfrwt>
<pdfrwt beam="1">  1       -2 0.35889817E-01 0.89481409E+02</pdfrwt>
<totfact> 0.60967405E+04</totfact>
</mgrwt>
</event>
<event>
 7    1  0.3480999E-009  0.9487576E+02  0.7818608E-02  0.1291456E+00
         -2   -1    0    0    0  501 -0.00000000000E+00  0.00000000000E+00  0.49465274446E+02  0.49465274511E+02  0.25500000000E-02 0.  1.
          2   -1    0    0  501    0  0.00000000000E+00 -0.00000000000E+00 -0.45493580835E+02  0.45493580906E+02  0.25500000000E-02 0. -1.
         23    2    1    2    0    0  0.35527136788E-14  0.35527136788E-14  0.39716936108E+01  0.94958855417E+02  0.94875760192E+02 0.  0.
    9000005    2    3    3    0    0 -0.17148915949E+02 -0.27402779524E+02  0.35992808837E+02  0.49457762418E+02  0.10275715622E+02 0.  0.
         22    1    3    3    0    0  0.17148915949E+02  0.27402779524E+02 -0.32021115226E+02  0.45501093000E+02  0.00000000000E+00 0. -1.
         22    1    4    4    0    0 -0.30304698577E+01 -0.17962137464E+01  0.64223727960E+00  0.35808658317E+01  0.00000000000E+00 0.  1.
         22    1    4    4    0    0 -0.14118446092E+02 -0.25606565777E+02  0.35350571557E+02  0.45876896586E+02  0.00000000000E+00 0.  1.
<mgrwt>
<rscale>  0 0.94875760E+02</rscale>
<asrwt>0</asrwt>
<pdfrwt beam="2">  1        2 0.69990124E-02 0.94875760E+02</pdfrwt>
<pdfrwt beam="1">  1       -2 0.76100423E-02 0.94875760E+02</pdfrwt>
<totfact> 0.87933514E+04</totfact>
</mgrwt>
</event>
<event>
 7    1  0.3480999E-009  0.9017562E+02  0.7818608E-02  0.1302427E+00
         -2   -1    0    0    0  501 -0.00000000000E+00  0.00000000000E+00  0.42034585638E+01  0.42034593373E+01  0.25500000000E-02 0.  1.
          2   -1    0    0  501    0  0.00000000000E+00 -0.00000000000E+00 -0.48362808686E+03  0.48362808686E+03  0.25500000000E-02 0. -1.
         23    2    1    2    0    0  0.00000000000E+00  0.00000000000E+00 -0.47942462829E+03  0.48783154620E+03  0.90175624504E+02 0.  0.
    9000005    2    3    3    0    0  0.12879170254E+02  0.30334927211E+02 -0.40553167812E+03  0.40692265348E+03  0.66349924427E+01 0.  0.
         22    1    3    3    0    0 -0.12879170254E+02 -0.30334927211E+02 -0.73892950174E+02  0.80908892717E+02  0.00000000000E+00 0.  1.
         22    1    4    4    0    0  0.11357749805E+02  0.18751792534E+02 -0.26950595633E+03  0.27039616991E+03  0.00000000000E+00 0.  1.
         22    1    4    4    0    0  0.15214204497E+01  0.11583134676E+02 -0.13602572179E+03  0.13652648358E+03  0.00000000000E+00 0.  1.
<mgrwt>
<rscale>  0 0.90175625E+02</rscale>
<asrwt>0</asrwt>
<pdfrwt beam="2">  1        2 0.74404277E-01 0.90175625E+02</pdfrwt>
<pdfrwt beam="1">  1       -2 0.64668637E-03 0.90175625E+02</pdfrwt>
<totfact> 0.21947408E+05</totfact>
</mgrwt>
</event>
<event>
 7    1  0.3480999E-009  0.9317792E+02  0.7818608E-02  0.1295333E+00
         -2   -1    0    0    0  501 -0.00000000000E+00  0.00000000000E+00  0.27823827939E+02  0.27823828056E+02  0.25500000000E-02 0. -1.
          2   -1    0    0  501    0  0.00000000000E+00 -0.00000000000E+00 -0.78009801818E+02  0.78009801859E+02  0.25500000000E-02 0.  1.
         23    2    1    2    0    0 -0.71054273576E-14  0.00000000000E+00 -0.50185973879E+02  0.10583362992E+03  0.93177922530E+02 0.  0.
    9000005    2    3    3    0    0  0.44768538254E+02 -0.94582747979E+00 -0.38969160703E+02  0.59671594596E+02  0.60817027765E+01 0.  0.
         22    1    3    3    0    0 -0.44768538254E+02  0.94582747979E+00 -0.11216813175E+02  0.46162035320E+02  0.00000000000E+00 0. -1.
         22    1    4    4    0    0  0.12935572974E+02 -0.94531667084E+00 -0.78820999403E+01  0.15177291302E+02  0.00000000000E+00 0.  1.
         22    1    4    4    0    0  0.31832965280E+02 -0.51080895057E-03 -0.31087060763E+02  0.44494303294E+02  0.00000000000E+00 0.  1.
<mgrwt>
<rscale>  0 0.93177923E+02</rscale>
<asrwt>0</asrwt>
<pdfrwt beam="2">  1        2 0.12001508E-01 0.93177923E+02</pdfrwt>
<pdfrwt beam="1">  1       -2 0.42805889E-02 0.93177923E+02</pdfrwt>
<totfact> 0.10733152E+05</totfact>
</mgrwt>
</event>
<event>
 7    1  0.3480999E-009  0.7419625E+02  0.7818608E-02  0.1346378E+00
          2   -1    0    0  501    0  0.00000000000E+00  0.00000000000E+00  0.25386215432E+02  0.25386215560E+02  0.25500000000E-02 0. -1.
         -2   -1    0    0    0  501 -0.00000000000E+00 -0.00000000000E+00 -0.54213320580E+02  0.54213320640E+02  0.25500000000E-02 0.  1.
         23    2    1    2    0    0 -0.35527136788E-14  0.00000000000E+00 -0.28827105148E+02  0.79599536200E+02  0.74196254434E+02 0.  0.
    9000005    2    3    3    0    0 -0.26928525737E+02 -0.19925174479E+02  0.26572055323E+01  0.33627589369E+02  0.12633088223E+01 0.  0.
         22    1    3    3    0    0  0.26928525737E+02  0.19925174479E+02 -0.31484310680E+02  0.45971946831E+02  0.00000000000E+00 0.  1.
         22    1    4    4    0    0 -0.10195905042E+02 -0.68695172787E+01  0.12521505388E+01  0.12357776023E+02  0.00000000000E+00 0. -1.
         22    1    4    4    0    0 -0.16732620695E+02 -0.13055657200E+02  0.14050549935E+01  0.21269813346E+02  0.00000000000E+00 0. -1.
<mgrwt>
<rscale>  0 0.74196254E+02</rscale>
<asrwt>0</asrwt>
<pdfrwt beam="1">  1        2 0.39055716E-02 0.74196254E+02</pdfrwt>
<pdfrwt beam="2">  1       -2 0.83405108E-02 0.74196254E+02</pdfrwt>
<totfact> 0.15482839E+05</totfact>
</mgrwt>
</event>
<event>
 7    1  0.3480999E-009  0.1098451E+03  0.7818608E-02  0.1260857E+00
          2   -1    0    0  501    0  0.00000000000E+00  0.00000000000E+00  0.63001401629E+01  0.63001406790E+01  0.25500000000E-02 0. -1.
         -2   -1    0    0    0  501 -0.00000000000E+00 -0.00000000000E+00 -0.47879679126E+03  0.47879679127E+03  0.25500000000E-02 0.  1.
         23    2    1    2    0    0  0.00000000000E+00  0.00000000000E+00 -0.47249665110E+03  0.48509693195E+03  0.10984510952E+03 0.  0.
    9000005    2    3    3    0    0  0.21751540359E+02 -0.46273822977E+02 -0.32471791599E+03  0.32872253906E+03  0.15448363957E+01 0.  0.
         22    1    3    3    0    0 -0.21751540359E+02  0.46273822977E+02 -0.14777873511E+03  0.15637439289E+03  0.00000000000E+00 0.  1.
         22    1    4    4    0    0  0.13774155670E+02 -0.29340065845E+02 -0.20102017628E+03  0.20361649761E+03  0.00000000000E+00 0. -1.
         22    1    4    4    0    0  0.79773846893E+01 -0.16933757132E+02 -0.12369773971E+03  0.12510604145E+03  0.00000000000E+00 0. -1.
<mgrwt>
<rscale>  0 0.10984511E+03</rscale>
<asrwt>0</asrwt>
<pdfrwt beam="1">  1        2 0.96925275E-03 0.10984511E+03</pdfrwt>
<pdfrwt beam="2">  1       -2 0.73661016E-01 0.10984511E+03</pdfrwt>
<totfact> 0.23109111E+04</totfact>
</mgrwt>
</event>
<event>
 7    1  0.3480999E-009  0.9583608E+02  0.7818608E-02  0.1289304E+00
          2   -1    0    0  501    0  0.00000000000E+00  0.00000000000E+00  0.82356848812E+01  0.82356852760E+01  0.25500000000E-02 0. -1.
         -2   -1    0    0    0  501 -0.00000000000E+00 -0.00000000000E+00 -0.27880359556E+03  0.27880359557E+03  0.25500000000E-02 0.  1.
         23    2    1    2    0    0  0.00000000000E+00  0.00000000000E+00 -0.27056791068E+03  0.28703928085E+03  0.95836081204E+02 0.  0.
    9000005    2    3    3    0    0  0.10724586626E+02 -0.40915009439E+02 -0.19813186440E+03  0.20315820100E+03  0.15098482969E+02 0.  0.
         22    1    3    3    0    0 -0.10724586626E+02  0.40915009439E+02 -0.72436046281E+02  0.83881079849E+02  0.00000000000E+00 0. -1.
         22    1    4    4    0    0  0.33365944127E+01 -0.35010362856E+02 -0.14606008486E+03  0.15023450589E+03  0.00000000000E+00 0. -1.
         22    1    4    4    0    0  0.73879922128E+01 -0.59046465825E+01 -0.52071779539E+02  0.52923695115E+02  0.00000000000E+00 0. -1.
<mgrwt>
<rscale>  0 0.95836081E+02</rscale>
<asrwt>0</asrwt>
<pdfrwt beam="1">  1        2 0.12670287E-02 0.95836081E+02</pdfrwt>
<pdfrwt beam="2">  1       -2 0.42892854E-01 0.95836081E+02</pdfrwt>
<totfact> 0.46697432E+04</totfact>
</mgrwt>
</event>
<event>
 7    1  0.3480999E-009  0.9326445E+02  0.7818608E-02  0.1295134E+00
          2   -1    0    0  501    0  0.00000000000E+00  0.00000000000E+00  0.51034149843E+03  0.51034149843E+03  0.25500000000E-02 0.  1.
         -2   -1    0    0    0  501 -0.00000000000E+00 -0.00000000000E+00 -0.42609980760E+01  0.42609988391E+01  0.25500000000E-02 0. -1.
         23    2    1    2    0    0  0.00000000000E+00  0.00000000000E+00  0.50608050035E+03  0.51460249727E+03  0.93264448551E+02 0.  0.
    9000005    2    3    3    0    0  0.22001126060E+02 -0.39328927047E+02  0.29026313167E+03  0.29413038866E+03  0.15138886259E+02 0.  0.
         22    1    3    3    0    0 -0.22001126060E+02  0.39328927047E+02  0.21581736868E+03  0.22047210861E+03  0.00000000000E+00 0. -1.
         22    1    4    4    0    0  0.35174010316E+01 -0.12972102480E+02  0.12807267904E+03  0.12877600191E+03  0.00000000000E+00 0.  1.
         22    1    4    4    0    0  0.18483725028E+02 -0.26356824568E+02  0.16219045263E+03  0.16535438675E+03  0.00000000000E+00 0.  1.
<mgrwt>
<rscale>  0 0.93264449E+02</rscale>
<asrwt>0</asrwt>
<pdfrwt beam="1">  1        2 0.78514068E-01 0.93264449E+02</pdfrwt>
<pdfrwt beam="2">  1       -2 0.65553829E-03 0.93264449E+02</pdfrwt>
<totfact> 0.20429513E+05</totfact>
</mgrwt>
</event>
<event>
 7    1  0.3480999E-009  0.9238392E+02  0.7818608E-02  0.1297179E+00
         -2   -1    0    0    0  501 -0.00000000000E+00  0.00000000000E+00  0.40843236838E+01  0.40843244798E+01  0.25500000000E-02 0.  1.
          2   -1    0    0  501    0  0.00000000000E+00 -0.00000000000E+00 -0.52241136485E+03  0.52241136486E+03  0.25500000000E-02 0. -1.
         23    2    1    2    0    0  0.00000000000E+00  0.00000000000E+00 -0.51832704117E+03  0.52649568934E+03  0.92383923306E+02 0.  0.
    9000005    2    3    3    0    0 -0.25785134205E+01  0.17950891531E+02 -0.50093756964E+03  0.50137046380E+03  0.10247441533E+02 0.  0.
         22    1    3    3    0    0  0.25785134205E+01 -0.17950891531E+02 -0.17389471530E+02  0.25125225538E+02  0.00000000000E+00 0.  1.
         22    1    4    4    0    0 -0.33026200023E+01  0.13364432876E+01 -0.50233664218E+02  0.50359849089E+02  0.00000000000E+00 0.  1.
         22    1    4    4    0    0  0.72410658174E+00  0.16614448244E+02 -0.45070390542E+03  0.45101061471E+03  0.00000000000E+00 0.  1.
<mgrwt>
<rscale>  0 0.92383923E+02</rscale>
<asrwt>0</asrwt>
<pdfrwt beam="2">  1        2 0.80370926E-01 0.92383923E+02</pdfrwt>
<pdfrwt beam="1">  1       -2 0.62835797E-03 0.92383923E+02</pdfrwt>
<totfact> 0.21106775E+05</totfact>
</mgrwt>
</event>
<event>
 7    1  0.3480999E-009  0.9180477E+02  0.7818608E-02  0.1298539E+00
         -2   -1    0    0    0  501 -0.00000000000E+00  0.00000000000E+00  0.40943792558E+01  0.40943800498E+01  0.25500000000E-02 0. -1.
          2   -1    0    0  501    0  0.00000000000E+00 -0.00000000000E+00 -0.51461492093E+03  0.51461492094E+03  0.25500000000E-02 0.  1.
         23    2    1    2    0    0  0.35527136788E-14  0.00000000000E+00 -0.51052054167E+03  0.51870930099E+03  0.91804768167E+02 0.  0.
    9000005    2    3    3    0    0  0.21133058897E+02 -0.21138761064E+02 -0.45110732982E+03  0.45220078168E+03  0.97093015186E+01 0.  0.
         22    1    3    3    0    0 -0.21133058897E+02  0.21138761064E+02 -0.59413211856E+02  0.66508519310E+02  0.00000000000E+00 0. -1.
         22    1    4    4    0    0  0.20567073242E+02 -0.19668400891E+02 -0.37541712601E+03  0.37649418189E+03  0.00000000000E+00 0.  1.
         22    1    4    4    0    0  0.56598565473E+00 -0.14703601727E+01 -0.75690203811E+02  0.75706599790E+02  0.00000000000E+00 0.  1.
<mgrwt>
<rscale>  0 0.91804768E+02</rscale>
<asrwt>0</asrwt>
<pdfrwt beam="2">  1        2 0.79171475E-01 0.91804768E+02</pdfrwt>
<pdfrwt beam="1">  1       -2 0.62990497E-03 0.91804768E+02</pdfrwt>
<totfact> 0.21358948E+05</totfact>
</mgrwt>
</event>
<event>
 7    1  0.3480999E-009  0.9553689E+02  0.7818608E-02  0.1289971E+00
          2   -1    0    0  501    0  0.00000000000E+00  0.00000000000E+00  0.43614434291E+02  0.43614434365E+02  0.25500000000E-02 0. -1.
         -2   -1    0    0    0  501 -0.00000000000E+00 -0.00000000000E+00 -0.52318102976E+02  0.52318103038E+02  0.25500000000E-02 0.  1.
         23    2    1    2    0    0  0.35527136788E-14 -0.55511151231E-16 -0.87036686848E+01  0.95932537403E+02  0.95536892790E+02 0.  0.
    9000005    2    3    3    0    0  0.22410435697E+02 -0.32818697960E+00 -0.45459244168E+02  0.52882477427E+02  0.15089009365E+02 0.  0.
         22    1    3    3    0    0 -0.22410435697E+02  0.32818697960E+00  0.36755575483E+02  0.43050059976E+02  0.00000000000E+00 0. -1.
         22    1    4    4    0    0  0.23605126131E+02  0.13788047736E+01 -0.44867051794E+02  0.50716421591E+02  0.00000000000E+00 0. -1.
         22    1    4    4    0    0 -0.11946904337E+01 -0.17069917533E+01 -0.59219237420E+00  0.21660558363E+01  0.00000000000E+00 0. -1.
<mgrwt>
<rscale>  0 0.95536893E+02</rscale>
<asrwt>0</asrwt>
<pdfrwt beam="1">  1        2 0.67099130E-02 0.95536893E+02</pdfrwt>
<pdfrwt beam="2">  1       -2 0.80489389E-02 0.95536893E+02</pdfrwt>
<totfact> 0.85209421E+04</totfact>
</mgrwt>
</event>
<event>
 7    1  0.3480999E-009  0.9381960E+02  0.7818608E-02  0.1293857E+00
         -2   -1    0    0    0  501 -0.00000000000E+00  0.00000000000E+00  0.57108207903E+01  0.57108213596E+01  0.25500000000E-02 0.  1.
          2   -1    0    0  501    0  0.00000000000E+00 -0.00000000000E+00 -0.38532622968E+03  0.38532622969E+03  0.25500000000E-02 0. -1.
         23    2    1    2    0    0  0.00000000000E+00  0.00000000000E+00 -0.37961540889E+03  0.39103705105E+03  0.93819596172E+02 0.  0.
    9000005    2    3    3    0    0  0.10171045172E+02 -0.13872040846E+02 -0.37116386694E+03  0.37187165936E+03  0.15166780707E+02 0.  0.
         22    1    3    3    0    0 -0.10171045172E+02  0.13872040846E+02 -0.84515419471E+01  0.19165391684E+02  0.00000000000E+00 0.  1.
         22    1    4    4    0    0 -0.36112607083E+01 -0.60155591988E+01 -0.10257027811E+03  0.10280997086E+03  0.00000000000E+00 0.  1.
         22    1    4    4    0    0  0.13782305880E+02 -0.78564816474E+01 -0.26859358883E+03  0.26906168851E+03  0.00000000000E+00 0.  1.
<mgrwt>
<rscale>  0 0.93819596E+02</rscale>
<asrwt>0</asrwt>
<pdfrwt beam="2">  1        2 0.59280938E-01 0.93819596E+02</pdfrwt>
<pdfrwt beam="1">  1       -2 0.87858816E-03 0.93819596E+02</pdfrwt>
<totfact> 0.18253748E+05</totfact>
</mgrwt>
</event>
<event>
 7    1  0.3480999E-009  0.9071267E+02  0.7818608E-02  0.1301135E+00
         -2   -1    0    0    0  501 -0.00000000000E+00  0.00000000000E+00  0.60172776130E+01  0.60172781533E+01  0.25500000000E-02 0.  1.
          2   -1    0    0  501    0  0.00000000000E+00 -0.00000000000E+00 -0.34188169737E+03  0.34188169738E+03  0.25500000000E-02 0. -1.
         23    2    1    2    0    0  0.00000000000E+00 -0.88817841970E-15 -0.33586441976E+03  0.34789897553E+03  0.90712671210E+02 0.  0.
    9000005    2    3    3    0    0  0.31759293767E+02 -0.51099577982E+01 -0.28972311919E+03  0.29165145090E+03  0.92907808851E+01 0.  0.
         22    1    3    3    0    0 -0.31759293767E+02  0.51099577982E+01 -0.46141300565E+02  0.56247524631E+02  0.00000000000E+00 0.  1.
         22    1    4    4    0    0  0.22743088191E+02 -0.75881749938E+01 -0.22050526987E+03  0.22180487483E+03  0.00000000000E+00 0. -1.
         22    1    4    4    0    0  0.90162055761E+01  0.24782171956E+01 -0.69217849322E+02  0.69846576067E+02  0.00000000000E+00 0. -1.
<mgrwt>
<rscale>  0 0.90712671E+02</rscale>
<asrwt>0</asrwt>
<pdfrwt beam="2">  1        2 0.52597169E-01 0.90712671E+02</pdfrwt>
<pdfrwt beam="1">  1       -2 0.92573533E-03 0.90712671E+02</pdfrwt>
<totfact> 0.19114487E+05</totfact>
</mgrwt>
</event>
<event>
 7    1  0.3480999E-009  0.9135762E+02  0.7818608E-02  0.1299597E+00
         -2   -1    0    0    0  501 -0.00000000000E+00  0.00000000000E+00  0.47584144418E+02  0.47584144486E+02  0.25500000000E-02 0.  1.
          2   -1    0    0  501    0  0.00000000000E+00 -0.00000000000E+00 -0.43849766263E+02  0.43849766337E+02  0.25500000000E-02 0. -1.
         23    2    1    2    0    0  0.35527136788E-14 -0.71054273576E-14  0.37343781550E+01  0.91433910823E+02  0.91357618556E+02 0.  0.
    9000005    2    3    3    0    0 -0.23668385281E+02  0.37703378164E+02  0.17332457484E+01  0.46872248851E+02  0.14569364595E+02 0.  0.
         22    1    3    3    0    0  0.23668385281E+02 -0.37703378164E+02  0.20011324066E+01  0.44561661972E+02  0.00000000000E+00 0.  1.
         22    1    4    4    0    0 -0.66636420641E+01  0.18803973647E+02  0.65481156987E+01  0.20996937150E+02  0.00000000000E+00 0.  1.
         22    1    4    4    0    0 -0.17004743217E+02  0.18899404517E+02 -0.48148699503E+01  0.25875311701E+02  0.00000000000E+00 0.  1.
<mgrwt>
<rscale>  0 0.91357619E+02</rscale>
<asrwt>0</asrwt>
<pdfrwt beam="2">  1        2 0.67461179E-02 0.91357619E+02</pdfrwt>
<pdfrwt beam="1">  1       -2 0.73206376E-02 0.91357619E+02</pdfrwt>
<totfact> 0.97128805E+04</totfact>
</mgrwt>
</event>
<event>
 7    1  0.3480999E-009  0.8971763E+02  0.7818608E-02  0.1303537E+00
         -2   -1    0    0    0  501 -0.00000000000E+00  0.00000000000E+00  0.16159816212E+01  0.16159836332E+01  0.25500000000E-02 0.  1.
          2   -1    0    0  501    0  0.00000000000E+00 -0.00000000000E+00 -0.12452568783E+04  0.12452568783E+04  0.25500000000E-02 0. -1.
         23    2    1    2    0    0  0.00000000000E+00  0.00000000000E+00 -0.12436408966E+04  0.12468728619E+04  0.89717634497E+02 0.  0.
    9000005    2    3    3    0    0  0.31945893271E+02  0.51897988715E+01 -0.10532842964E+04  0.10537845159E+04  0.25539724263E+01 0.  0.
         22    1    3    3    0    0 -0.31945893271E+02 -0.51897988715E+01 -0.19035660024E+03  0.19308834601E+03  0.00000000000E+00 0.  1.
         22    1    4    4    0    0  0.72139205496E+01  0.18676739432E+01 -0.21640095086E+03  0.21652921371E+03  0.00000000000E+00 0.  1.
         22    1    4    4    0    0  0.24731972721E+02  0.33221249282E+01 -0.83688334554E+03  0.83725530218E+03  0.00000000000E+00 0.  1.
<mgrwt>
<rscale>  0 0.89717634E+02</rscale>
<asrwt>0</asrwt>
<pdfrwt beam="2">  1        2 0.19157721E+00 0.89717634E+02</pdfrwt>
<pdfrwt beam="1">  1       -2 0.24861371E-03 0.89717634E+02</pdfrwt>
<totfact> 0.25823682E+05</totfact>
</mgrwt>
</event>
<event>
 7    1  0.3480999E-009  0.8901944E+02  0.7818608E-02  0.1305244E+00
          2   -1    0    0  501    0  0.00000000000E+00  0.00000000000E+00  0.76928675500E+03  0.76928675501E+03  0.25500000000E-02 0.  1.
         -2   -1    0    0    0  501 -0.00000000000E+00 -0.00000000000E+00 -0.25752615924E+01  0.25752628549E+01  0.25500000000E-02 0. -1.
         23    2    1    2    0    0  0.35527136788E-14  0.00000000000E+00  0.76671149341E+03  0.77186201786E+03  0.89019438834E+02 0.  0.
    9000005    2    3    3    0    0 -0.23888460049E+02 -0.24873407964E+02  0.62330436298E+03  0.62436642469E+03  0.11651541580E+02 0.  0.
         22    1    3    3    0    0  0.23888460049E+02  0.24873407964E+02  0.14340713043E+03  0.14749559317E+03  0.00000000000E+00 0. -1.
         22    1    4    4    0    0 -0.15033759849E+02 -0.13355836272E+02  0.45200441813E+03  0.45245152923E+03  0.00000000000E+00 0.  1.
         22    1    4    4    0    0 -0.88547002006E+01 -0.11517571692E+02  0.17129994486E+03  0.17191489546E+03  0.00000000000E+00 0.  1.
<mgrwt>
<rscale>  0 0.89019439E+02</rscale>
<asrwt>0</asrwt>
<pdfrwt beam="1">  1        2 0.11835188E+00 0.89019439E+02</pdfrwt>
<pdfrwt beam="2">  1       -2 0.39619395E-03 0.89019439E+02</pdfrwt>
<totfact> 0.25772604E+05</totfact>
</mgrwt>
</event>
<event>
 7    1  0.3480999E-009  0.9107397E+02  0.7818608E-02  0.1300272E+00
          2   -1    0    0  501    0  0.00000000000E+00  0.00000000000E+00  0.23220046107E+03  0.23220046108E+03  0.25500000000E-02 0. -1.
         -2   -1    0    0    0  501 -0.00000000000E+00 -0.00000000000E+00 -0.89302882178E+01  0.89302885819E+01  0.25500000000E-02 0.  1.
         23    2    1    2    0    0  0.00000000000E+00  0.00000000000E+00  0.22327017285E+03  0.24113074966E+03  0.91073971852E+02 0.  0.
    9000005    2    3    3    0    0  0.23749531859E+02 -0.29877552297E+02  0.47841209653E+02  0.61597940620E+02  0.69868843382E+01 0.  0.
         22    1    3    3    0    0 -0.23749531859E+02  0.29877552297E+02  0.17542896320E+03  0.17953280904E+03  0.00000000000E+00 0. -1.
         22    1    4    4    0    0  0.12620543272E+02 -0.14130486177E+02  0.28986571621E+02  0.34629035309E+02  0.00000000000E+00 0. -1.
         22    1    4    4    0    0  0.11128988587E+02 -0.15747066120E+02  0.18854638032E+02  0.26968905311E+02  0.00000000000E+00 0. -1.
<mgrwt>
<rscale>  0 0.91073972E+02</rscale>
<asrwt>0</asrwt>
<pdfrwt beam="1">  1        2 0.35723151E-01 0.91073972E+02</pdfrwt>
<pdfrwt beam="2">  1       -2 0.13738904E-02 0.91073972E+02</pdfrwt>
<totfact> 0.16384152E+05</totfact>
</mgrwt>
</event>
<event>
 7    1  0.3480999E-009  0.1002749E+03  0.7818608E-02  0.1279719E+00
         -2   -1    0    0    0  501 -0.00000000000E+00  0.00000000000E+00  0.32482412892E+01  0.32482422901E+01  0.25500000000E-02 0.  1.
          2   -1    0    0  501    0  0.00000000000E+00 -0.00000000000E+00 -0.77388515141E+03  0.77388515141E+03  0.25500000000E-02 0. -1.
         23    2    1    2    0    0 -0.35527136788E-14  0.00000000000E+00 -0.77063691012E+03  0.77713339370E+03  0.10027494388E+03 0.  0.
    9000005    2    3    3    0    0 -0.30347695342E+02 -0.20049752075E+02 -0.65244492339E+03  0.65347126976E+03  0.41649939391E+01 0.  0.
         22    1    3    3    0    0  0.30347695342E+02  0.20049752075E+02 -0.11819198672E+03  0.12366212394E+03  0.00000000000E+00 0.  1.
         22    1    4    4    0    0 -0.20427192269E+02 -0.15574603370E+02 -0.44404107374E+03  0.44478344576E+03  0.00000000000E+00 0. -1.
         22    1    4    4    0    0 -0.99205030728E+01 -0.44751487044E+01 -0.20840384965E+03  0.20868782400E+03  0.00000000000E+00 0. -1.
<mgrwt>
<rscale>  0 0.10027494E+03</rscale>
<asrwt>0</asrwt>
<pdfrwt beam="2">  1        2 0.11905911E+00 0.10027494E+03</pdfrwt>
<pdfrwt beam="1">  1       -2 0.49973012E-03 0.10027494E+03</pdfrwt>
<totfact> 0.18830716E+05</totfact>
</mgrwt>
</event>
<event>
 7    1  0.3480999E-009  0.9183361E+02  0.7818608E-02  0.1298471E+00
         -2   -1    0    0    0  501 -0.00000000000E+00  0.00000000000E+00  0.64509797880E+03  0.64509797880E+03  0.25500000000E-02 0. -1.
          2   -1    0    0  501    0  0.00000000000E+00 -0.00000000000E+00 -0.32682671083E+01  0.32682681031E+01  0.25500000000E-02 0.  1.
         23    2    1    2    0    0  0.00000000000E+00  0.17763568394E-14  0.64182971169E+03  0.64836624691E+03  0.91833606700E+02 0.  0.
    9000005    2    3    3    0    0 -0.82568311680E+01 -0.11969098607E+02  0.62808901328E+03  0.62836021343E+03  0.11371659784E+02 0.  0.
         22    1    3    3    0    0  0.82568311680E+01  0.11969098607E+02  0.13740698414E+02  0.20006033473E+02  0.00000000000E+00 0.  1.
         22    1    4    4    0    0 -0.10894151327E+02 -0.11142424063E+02  0.50590626615E+03  0.50614621038E+03  0.00000000000E+00 0.  1.
         22    1    4    4    0    0  0.26373201587E+01 -0.82667454442E+00  0.12218274713E+03  0.12221400306E+03  0.00000000000E+00 0.  1.
<mgrwt>
<rscale>  0 0.91833607E+02</rscale>
<asrwt>0</asrwt>
<pdfrwt beam="2">  1        2 0.50281069E-03 0.91833607E+02</pdfrwt>
<pdfrwt beam="1">  1       -2 0.99245786E-01 0.91833607E+02</pdfrwt>
<totfact> 0.28783337E+04</totfact>
</mgrwt>
</event>
<event>
 7    1  0.3480999E-009  0.9524400E+02  0.7818608E-02  0.1290627E+00
          2   -1    0    0  501    0  0.00000000000E+00  0.00000000000E+00  0.34572200548E+02  0.34572200642E+02  0.25500000000E-02 0. -1.
         -2   -1    0    0    0  501 -0.00000000000E+00 -0.00000000000E+00 -0.65597646419E+02  0.65597646469E+02  0.25500000000E-02 0.  1.
         23    2    1    2    0    0  0.00000000000E+00  0.17763568394E-14 -0.31025445871E+02  0.10016984711E+03  0.95244002324E+02 0.  0.
    9000005    2    3    3    0    0 -0.37352746153E+02  0.11392616631E+02  0.11822538402E+02  0.42195981316E+02  0.10756814869E+02 0.  0.
         22    1    3    3    0    0  0.37352746153E+02 -0.11392616631E+02 -0.42847984273E+02  0.57973865794E+02  0.00000000000E+00 0.  1.
         22    1    4    4    0    0 -0.31262810854E+02  0.11796391821E+02  0.13220431896E+02  0.35934635409E+02  0.00000000000E+00 0. -1.
         22    1    4    4    0    0 -0.60899352990E+01 -0.40377518996E+00 -0.13978934938E+01  0.62613459072E+01  0.00000000000E+00 0. -1.
<mgrwt>
<rscale>  0 0.95244002E+02</rscale>
<asrwt>0</asrwt>
<pdfrwt beam="1">  1        2 0.53188001E-02 0.95244002E+02</pdfrwt>
<pdfrwt beam="2">  1       -2 0.10091946E-01 0.95244002E+02</pdfrwt>
<totfact> 0.80751925E+04</totfact>
</mgrwt>
</event>
<event>
 7    1  0.3480999E-009  0.8893115E+02  0.7818608E-02  0.1305461E+00
          2   -1    0    0  501    0  0.00000000000E+00  0.00000000000E+00  0.18266725001E+01  0.18266742800E+01  0.25500000000E-02 0. -1.
         -2   -1    0    0    0  501 -0.00000000000E+00 -0.00000000000E+00 -0.10823979647E+04  0.10823979647E+04  0.25500000000E-02 0.  1.
         23    2    1    2    0    0  0.00000000000E+00 -0.35527136788E-14 -0.10805712922E+04  0.10842246390E+04  0.88931154558E+02 0.  0.
    9000005    2    3    3    0    0 -0.75248631597E+01  0.25165956243E+02 -0.97428148203E+03  0.97473732161E+03  0.14088683242E+02 0.  0.
         22    1    3    3    0    0  0.75248631597E+01 -0.25165956243E+02 -0.10628981014E+03  0.10948731734E+03  0.00000000000E+00 0. -1.
         22    1    4    4    0    0 -0.85049007846E+01  0.17565704953E+02 -0.48021893042E+03  0.48061534356E+03  0.00000000000E+00 0. -1.
         22    1    4    4    0    0  0.98003762486E+00  0.76002512902E+01 -0.49406255160E+03  0.49412197805E+03  0.00000000000E+00 0. -1.
<mgrwt>
<rscale>  0 0.88931155E+02</rscale>
<asrwt>0</asrwt>
<pdfrwt beam="1">  1        2 0.28102754E-03 0.88931155E+02</pdfrwt>
<pdfrwt beam="2">  1       -2 0.16652225E+00 0.88931155E+02</pdfrwt>
<totfact> 0.18117878E+04</totfact>
</mgrwt>
</event>
<event>
 7    1  0.3480999E-009  0.9141332E+02  0.7818608E-02  0.1299465E+00
         -2   -1    0    0    0  501 -0.00000000000E+00  0.00000000000E+00  0.12776096007E+03  0.12776096010E+03  0.25500000000E-02 0.  1.
          2   -1    0    0  501    0  0.00000000000E+00 -0.00000000000E+00 -0.16351621891E+02  0.16351622090E+02  0.25500000000E-02 0. -1.
         23    2    1    2    0    0  0.00000000000E+00  0.00000000000E+00  0.11140933818E+03  0.14411258219E+03  0.91413323486E+02 0.  0.
    9000005    2    3    3    0    0 -0.24761891101E+02  0.20448666194E+02  0.10576482785E+03  0.11150645244E+03  0.14703432467E+02 0.  0.
         22    1    3    3    0    0  0.24761891101E+02 -0.20448666194E+02  0.56445103314E+01  0.32606129744E+02  0.00000000000E+00 0. -1.
         22    1    4    4    0    0 -0.24270681972E+02  0.18670096649E+02  0.10521626447E+03  0.10958148028E+03  0.00000000000E+00 0. -1.
         22    1    4    4    0    0 -0.49120912914E+00  0.17785695447E+01  0.54856338125E+00  0.19249721601E+01  0.00000000000E+00 0. -1.
<mgrwt>
<rscale>  0 0.91413323E+02</rscale>
<asrwt>0</asrwt>
<pdfrwt beam="2">  1        2 0.25156341E-02 0.91413323E+02</pdfrwt>
<pdfrwt beam="1">  1       -2 0.19655532E-01 0.91413323E+02</pdfrwt>
<totfact> 0.73397234E+04</totfact>
</mgrwt>
</event>
<event>
 7    1  0.3480999E-009  0.9287246E+02  0.7818608E-02  0.1296041E+00
          2   -1    0    0  501    0  0.00000000000E+00  0.00000000000E+00  0.34694054139E+02  0.34694054232E+02  0.25500000000E-02 0. -1.
         -2   -1    0    0    0  501 -0.00000000000E+00 -0.00000000000E+00 -0.62152536156E+02  0.62152536209E+02  0.25500000000E-02 0.  1.
         23    2    1    2    0    0  0.00000000000E+00  0.00000000000E+00 -0.27458482018E+02  0.96846590441E+02  0.92872460102E+02 0.  0.
    9000005    2    3    3    0    0  0.28016258371E+02  0.34178989329E+02 -0.25139991589E+02  0.52591766494E+02  0.13444726891E+02 0.  0.
         22    1    3    3    0    0 -0.28016258371E+02 -0.34178989329E+02 -0.23184904290E+01  0.44254823947E+02  0.00000000000E+00 0. -1.
         22    1    4    4    0    0  0.29237648918E+02  0.33887562296E+02 -0.25143322063E+02  0.51336085135E+02  0.00000000000E+00 0. -1.
         22    1    4    4    0    0 -0.12213905465E+01  0.29142703327E+00  0.33304746712E-02  0.12556813588E+01  0.00000000000E+00 0. -1.
<mgrwt>
<rscale>  0 0.92872460E+02</rscale>
<asrwt>0</asrwt>
<pdfrwt beam="1">  1        2 0.53375468E-02 0.92872460E+02</pdfrwt>
<pdfrwt beam="2">  1       -2 0.95619287E-02 0.92872460E+02</pdfrwt>
<totfact> 0.87080149E+04</totfact>
</mgrwt>
</event>
<event>
 7    1  0.3480999E-009  0.9099783E+02  0.7818608E-02  0.1300453E+00
         -2   -1    0    0    0  501 -0.00000000000E+00  0.00000000000E+00  0.23408508941E+03  0.23408508943E+03  0.25500000000E-02 0.  1.
          2   -1    0    0  501    0  0.00000000000E+00 -0.00000000000E+00 -0.88435836408E+01  0.88435840084E+01  0.25500000000E-02 0. -1.
         23    2    1    2    0    0  0.17763568394E-14  0.71054273576E-14  0.22524150577E+03  0.24292867344E+03  0.90997826647E+02 0.  0.
    9000005    2    3    3    0    0 -0.10830104545E+02 -0.43658656314E+02  0.11649383988E+03  0.12524509653E+03  0.95994812306E+01 0.  0.
         22    1    3    3    0    0  0.10830104545E+02  0.43658656314E+02  0.10874766590E+03  0.11768357691E+03  0.00000000000E+00 0.  1.
         22    1    4    4    0    0 -0.55903389253E+00 -0.16323656845E+02  0.50601588695E+02  0.53172314885E+02  0.00000000000E+00 0. -1.
         22    1    4    4    0    0 -0.10271070652E+02 -0.27334999469E+02  0.65892251181E+02  0.72072781645E+02  0.00000000000E+00 0. -1.
<mgrwt>
<rscale>  0 0.90997827E+02</rscale>
<asrwt>0</asrwt>
<pdfrwt beam="2">  1        2 0.13605515E-02 0.90997827E+02</pdfrwt>
<pdfrwt beam="1">  1       -2 0.36013086E-01 0.90997827E+02</pdfrwt>
<totfact> 0.58304957E+04</totfact>
</mgrwt>
</event>
<event>
 7    1  0.3480999E-009  0.9137192E+02  0.7818608E-02  0.1299563E+00
          2   -1    0    0  501    0  0.00000000000E+00  0.00000000000E+00  0.34313577423E+02  0.34313577518E+02  0.25500000000E-02 0. -1.
         -2   -1    0    0    0  501 -0.00000000000E+00 -0.00000000000E+00 -0.60827436353E+02  0.60827436406E+02  0.25500000000E-02 0.  1.
         23    2    1    2    0    0  0.00000000000E+00  0.00000000000E+00 -0.26513858930E+02  0.95141013924E+02  0.91371920277E+02 0.  0.
    9000005    2    3    3    0    0 -0.14756042277E+02 -0.16064042565E+02  0.28399499466E+02  0.36054034162E+02  0.41913675860E+01 0.  0.
         22    1    3    3    0    0  0.14756042277E+02  0.16064042565E+02 -0.54913358395E+02  0.59086979763E+02  0.00000000000E+00 0.  1.
         22    1    4    4    0    0 -0.12667642614E+02 -0.15431677384E+02  0.26358389106E+02  0.33066153580E+02  0.00000000000E+00 0. -1.
         22    1    4    4    0    0 -0.20883996628E+01 -0.63236518085E+00  0.20411103594E+01  0.29878805821E+01  0.00000000000E+00 0. -1.
<mgrwt>
<rscale>  0 0.91371920E+02</rscale>
<asrwt>0</asrwt>
<pdfrwt beam="1">  1        2 0.52790119E-02 0.91371920E+02</pdfrwt>
<pdfrwt beam="2">  1       -2 0.93580671E-02 0.91371920E+02</pdfrwt>
<totfact> 0.91088211E+04</totfact>
</mgrwt>
</event>
<event>
 7    1  0.3480999E-009  0.8812150E+02  0.7818608E-02  0.1307466E+00
         -2   -1    0    0    0  501 -0.00000000000E+00  0.00000000000E+00  0.77773026433E+01  0.77773030614E+01  0.25500000000E-02 0.  1.
          2   -1    0    0  501    0  0.00000000000E+00 -0.00000000000E+00 -0.24961733746E+03  0.24961733748E+03  0.25500000000E-02 0. -1.
         23    2    1    2    0    0  0.35527136788E-14  0.00000000000E+00 -0.24184003482E+03  0.25739464054E+03  0.88121498715E+02 0.  0.
    9000005    2    3    3    0    0 -0.18976404497E+02  0.34898798735E+02 -0.17614757183E+03  0.18062531219E+03  0.44165894894E+01 0.  0.
         22    1    3    3    0    0  0.18976404497E+02 -0.34898798735E+02 -0.65692462994E+02  0.76769328348E+02  0.00000000000E+00 0.  1.
         22    1    4    4    0    0 -0.14966856207E+01  0.60966686215E+01 -0.27456485291E+02  0.28165014125E+02  0.00000000000E+00 0.  1.
         22    1    4    4    0    0 -0.17479718876E+02  0.28802130113E+02 -0.14869108654E+03  0.15246029807E+03  0.00000000000E+00 0.  1.
<mgrwt>
<rscale>  0 0.88121499E+02</rscale>
<asrwt>0</asrwt>
<pdfrwt beam="2">  1        2 0.38402661E-01 0.88121499E+02</pdfrwt>
<pdfrwt beam="1">  1       -2 0.11965083E-02 0.88121499E+02</pdfrwt>
<totfact> 0.18375738E+05</totfact>
</mgrwt>
</event>
<event>
 7    1  0.3480999E-009  0.8897407E+02  0.7818608E-02  0.1305355E+00
         -2   -1    0    0    0  501 -0.00000000000E+00  0.00000000000E+00  0.51067014025E+01  0.51067020391E+01  0.25500000000E-02 0.  1.
          2   -1    0    0  501    0  0.00000000000E+00 -0.00000000000E+00 -0.38754883641E+03  0.38754883642E+03  0.25500000000E-02 0. -1.
         23    2    1    2    0    0  0.00000000000E+00  0.00000000000E+00 -0.38244213501E+03  0.39265553846E+03  0.88974070674E+02 0.  0.
    9000005    2    3    3    0    0 -0.31385750724E+02  0.64790009074E+01 -0.32620654167E+03  0.32792930916E+03  0.99940570177E+01 0.  0.
         22    1    3    3    0    0  0.31385750724E+02 -0.64790009074E+01 -0.56235593339E+02  0.64726229301E+02  0.00000000000E+00 0.  1.
         22    1    4    4    0    0 -0.25023931012E+02  0.57209424588E+01 -0.21292511787E+03  0.21446685554E+03  0.00000000000E+00 0. -1.
         22    1    4    4    0    0 -0.63618197122E+01  0.75805844867E+00 -0.11328142380E+03  0.11346245362E+03  0.00000000000E+00 0. -1.
<mgrwt>
<rscale>  0 0.88974071E+02</rscale>
<asrwt>0</asrwt>
<pdfrwt beam="2">  1        2 0.59622875E-01 0.88974071E+02</pdfrwt>
<pdfrwt beam="1">  1       -2 0.78564673E-03 0.88974071E+02</pdfrwt>
<totfact> 0.21059339E+05</totfact>
</mgrwt>
</event>
<event>
 7    1  0.3480999E-009  0.9096049E+02  0.7818608E-02  0.1300542E+00
          2   -1    0    0  501    0  0.00000000000E+00  0.00000000000E+00  0.43526585413E+02  0.43526585488E+02  0.25500000000E-02 0. -1.
         -2   -1    0    0    0  501 -0.00000000000E+00 -0.00000000000E+00 -0.47521594118E+02  0.47521594186E+02  0.25500000000E-02 0.  1.
         23    2    1    2    0    0  0.71054273576E-14  0.00000000000E+00 -0.39950087046E+01  0.91048179674E+02  0.90960491025E+02 0.  0.
    9000005    2    3    3    0    0 -0.34187932890E+02 -0.16676092082E+02  0.20755243325E+02  0.45666666059E+02  0.14413794125E+02 0.  0.
         22    1    3    3    0    0  0.34187932890E+02  0.16676092082E+02 -0.24750252030E+02  0.45381513615E+02  0.00000000000E+00 0. -1.
         22    1    4    4    0    0 -0.30771588223E+02 -0.88074145600E+01  0.15086286561E+02  0.35384420798E+02  0.00000000000E+00 0.  1.
         22    1    4    4    0    0 -0.34163446671E+01 -0.78686775218E+01  0.56689567637E+01  0.10282245261E+02  0.00000000000E+00 0.  1.
<mgrwt>
<rscale>  0 0.90960491E+02</rscale>
<asrwt>0</asrwt>
<pdfrwt beam="1">  1        2 0.66963977E-02 0.90960491E+02</pdfrwt>
<pdfrwt beam="2">  1       -2 0.73110145E-02 0.90960491E+02</pdfrwt>
<totfact> 0.98166805E+04</totfact>
</mgrwt>
</event>
<event>
 7    1  0.3480999E-009  0.9211608E+02  0.7818608E-02  0.1297807E+00
         -2   -1    0    0    0  501 -0.00000000000E+00  0.00000000000E+00  0.10567200490E+03  0.10567200493E+03  0.25500000000E-02 0. -1.
          2   -1    0    0  501    0  0.00000000000E+00 -0.00000000000E+00 -0.20074787197E+02  0.20074787359E+02  0.25500000000E-02 0.  1.
         23    2    1    2    0    0  0.00000000000E+00 -0.88817841970E-15  0.85597217705E+02  0.12574679229E+03  0.92116079447E+02 0.  0.
    9000005    2    3    3    0    0 -0.37051408172E+02 -0.53538904315E+01  0.79164829102E+02  0.87761971462E+02  0.57984892752E+01 0.  0.
         22    1    3    3    0    0  0.37051408172E+02  0.53538904315E+01  0.64323886032E+01  0.37984820829E+02  0.00000000000E+00 0.  1.
         22    1    4    4    0    0 -0.22254285821E+02 -0.99776421274E+00  0.50920856536E+02  0.55580413827E+02  0.00000000000E+00 0. -1.
         22    1    4    4    0    0 -0.14797122351E+02 -0.43561262188E+01  0.28243972566E+02  0.32181557635E+02  0.00000000000E+00 0. -1.
<mgrwt>
<rscale>  0 0.92116079E+02</rscale>
<asrwt>0</asrwt>
<pdfrwt beam="2">  1        2 0.30884289E-02 0.92116079E+02</pdfrwt>
<pdfrwt beam="1">  1       -2 0.16257231E-01 0.92116079E+02</pdfrwt>
<totfact> 0.76505232E+04</totfact>
</mgrwt>
</event>
<event>
 7    1  0.3480999E-009  0.8904584E+02  0.7818608E-02  0.1305179E+00
         -2   -1    0    0    0  501 -0.00000000000E+00  0.00000000000E+00  0.14059724235E+03  0.14059724237E+03  0.25500000000E-02 0.  1.
          2   -1    0    0  501    0  0.00000000000E+00 -0.00000000000E+00 -0.14099071320E+02  0.14099071551E+02  0.25500000000E-02 0. -1.
         23    2    1    2    0    0 -0.71054273576E-14  0.88817841970E-15  0.12649817103E+03  0.15469631392E+03  0.89045843629E+02 0.  0.
    9000005    2    3    3    0    0  0.42298578620E+02 -0.71683423842E+01  0.79233706510E+02  0.90864625146E+02  0.11740739747E+02 0.  0.
         22    1    3    3    0    0 -0.42298578620E+02  0.71683423842E+01  0.47264464521E+02  0.63831688778E+02  0.00000000000E+00 0.  1.
         22    1    4    4    0    0  0.57114736936E+01  0.15230195617E+00  0.42851167232E+01  0.71418732116E+01  0.00000000000E+00 0. -1.
         22    1    4    4    0    0  0.36587104927E+02 -0.73206443403E+01  0.74948589786E+02  0.83722751934E+02  0.00000000000E+00 0. -1.
<mgrwt>
<rscale>  0 0.89045844E+02</rscale>
<asrwt>0</asrwt>
<pdfrwt beam="2">  1        2 0.21690879E-02 0.89045844E+02</pdfrwt>
<pdfrwt beam="1">  1       -2 0.21630345E-01 0.89045844E+02</pdfrwt>
<totfact> 0.75889241E+04</totfact>
</mgrwt>
</event>
<event>
 7    1  0.3480999E-009  0.8913097E+02  0.7818608E-02  0.1304970E+00
         -2   -1    0    0    0  501 -0.00000000000E+00  0.00000000000E+00  0.71196108051E+02  0.71196108097E+02  0.25500000000E-02 0.  1.
          2   -1    0    0  501    0  0.00000000000E+00 -0.00000000000E+00 -0.27895943343E+02  0.27895943460E+02  0.25500000000E-02 0. -1.
         23    2    1    2    0    0  0.00000000000E+00  0.00000000000E+00  0.43300164708E+02  0.99092051557E+02  0.89130973393E+02 0.  0.
    9000005    2    3    3    0    0  0.13321860600E+02  0.34932723645E+02  0.46519284309E+02  0.61566994833E+02  0.15122297745E+02 0.  0.
         22    1    3    3    0    0 -0.13321860600E+02 -0.34932723645E+02 -0.32191196006E+01  0.37525056724E+02  0.00000000000E+00 0.  1.
         22    1    4    4    0    0  0.10793322614E+02  0.84153453385E+01  0.15315762879E+02  0.20539874459E+02  0.00000000000E+00 0. -1.
         22    1    4    4    0    0  0.25285379856E+01  0.26517378306E+02  0.31203521429E+02  0.41027120374E+02  0.00000000000E+00 0. -1.
<mgrwt>
<rscale>  0 0.89130973E+02</rscale>
<asrwt>0</asrwt>
<pdfrwt beam="2">  1        2 0.42916836E-02 0.89130973E+02</pdfrwt>
<pdfrwt beam="1">  1       -2 0.10953247E-01 0.89130973E+02</pdfrwt>
<totfact> 0.92816112E+04</totfact>
</mgrwt>
</event>
<event>
 7    1  0.3480999E-009  0.9103988E+02  0.7818608E-02  0.1300353E+00
         -2   -1    0    0    0  501 -0.00000000000E+00  0.00000000000E+00  0.16128590695E+02  0.16128590896E+02  0.25500000000E-02 0.  1.
          2   -1    0    0  501    0  0.00000000000E+00 -0.00000000000E+00 -0.12847155502E+03  0.12847155504E+03  0.25500000000E-02 0. -1.
         23    2    1    2    0    0  0.17763568394E-14  0.00000000000E+00 -0.11234296432E+03  0.14460014594E+03  0.91039884515E+02 0.  0.
    9000005    2    3    3    0    0  0.10744747123E+02 -0.29677322659E+02 -0.53303864669E+01  0.33030056352E+02  0.81473021188E+01 0.  0.
         22    1    3    3    0    0 -0.10744747123E+02  0.29677322659E+02 -0.10701257785E+03  0.11157008958E+03  0.00000000000E+00 0. -1.
         22    1    4    4    0    0  0.69169946920E+01 -0.18531519909E+02 -0.72949731159E+01  0.21082662983E+02  0.00000000000E+00 0.  1.
         22    1    4    4    0    0  0.38277524310E+01 -0.11145802750E+02  0.19645866490E+01  0.11947393369E+02  0.00000000000E+00 0.  1.
<mgrwt>
<rscale>  0 0.91039885E+02</rscale>
<asrwt>0</asrwt>
<pdfrwt beam="2">  1        2 0.19764854E-01 0.91039885E+02</pdfrwt>
<pdfrwt beam="1">  1       -2 0.24813217E-02 0.91039885E+02</pdfrwt>
<totfact> 0.13331116E+05</totfact>
</mgrwt>
</event>
<event>
 7    1  0.3480999E-009  0.8639031E+02  0.7818608E-02  0.1311836E+00
         -2   -1    0    0    0  501 -0.00000000000E+00  0.00000000000E+00  0.68672293181E+02  0.68672293228E+02  0.25500000000E-02 0.  1.
          2   -1    0    0  501    0  0.00000000000E+00 -0.00000000000E+00 -0.27169931168E+02  0.27169931288E+02  0.25500000000E-02 0. -1.
         23    2    1    2    0    0  0.00000000000E+00  0.71054273576E-14  0.41502362013E+02  0.95842224516E+02  0.86390311653E+02 0.  0.
    9000005    2    3    3    0    0 -0.44836745120E+01 -0.39471893529E+02  0.39319119325E+02  0.56056545377E+02  0.42672496106E+01 0.  0.
         22    1    3    3    0    0  0.44836745120E+01  0.39471893529E+02  0.21832426875E+01  0.39785679139E+02  0.00000000000E+00 0. -1.
         22    1    4    4    0    0 -0.47252042927E+01 -0.36724984597E+02  0.35126898424E+02  0.51038721009E+02  0.00000000000E+00 0.  1.
         22    1    4    4    0    0  0.24152978072E+00 -0.27469089317E+01  0.41922209008E+01  0.50178243686E+01  0.00000000000E+00 0.  1.
<mgrwt>
<rscale>  0 0.86390312E+02</rscale>
<asrwt>0</asrwt>
<pdfrwt beam="2">  1        2 0.41799895E-02 0.86390312E+02</pdfrwt>
<pdfrwt beam="1">  1       -2 0.10564968E-01 0.86390312E+02</pdfrwt>
<totfact> 0.10110801E+05</totfact>
</mgrwt>
</event>
<event>
 7    1  0.3857456E-009  0.9052213E+02  0.7818608E-02  0.1301592E+00
          2   -1    0    0  501    0  0.00000000000E+00  0.00000000000E+00  0.10835994075E+04  0.10835994075E+04  0.25500000000E-02 0. -1.
         -2   -1    0    0    0  501 -0.00000000000E+00 -0.00000000000E+00 -0.18905170495E+01  0.18905187693E+01  0.25500000000E-02 0.  1.
         23    2    1    2    0    0  0.00000000000E+00  0.00000000000E+00  0.10817088904E+04  0.10854899263E+04  0.90522131874E+02 0.  0.
    9000005    2    3    3    0    0  0.27199271236E+02 -0.27565054036E+01  0.96886660783E+03  0.96938316753E+03  0.15931825110E+02 0.  0.
         22    1    3    3    0    0 -0.27199271236E+02  0.27565054036E+01  0.11284228261E+03  0.11610675873E+03  0.00000000000E+00 0.  1.
         22    1    4    4    0    0  0.18462673297E+02 -0.25331438032E+01  0.38462412952E+03  0.38507532786E+03  0.00000000000E+00 0.  1.
         22    1    4    4    0    0  0.87365979394E+01 -0.22336160043E+00  0.58424247831E+03  0.58430783967E+03  0.00000000000E+00 0.  1.
<mgrwt>
<rscale>  0 0.90522132E+02</rscale>
<asrwt>0</asrwt>
<pdfrwt beam="1">  1        2 0.16670737E+00 0.90522132E+02</pdfrwt>
<pdfrwt beam="2">  1       -2 0.29084932E-03 0.90522132E+02</pdfrwt>
<totfact> 0.25507403E+05</totfact>
</mgrwt>
</event>
<event>
 7    1  0.3480999E-009  0.8992229E+02  0.7818608E-02  0.1303040E+00
          2   -1    0    0  501    0  0.00000000000E+00  0.00000000000E+00  0.23261732751E+02  0.23261732890E+02  0.25500000000E-02 0. -1.
         -2   -1    0    0    0  501 -0.00000000000E+00 -0.00000000000E+00 -0.86902583267E+02  0.86902583304E+02  0.25500000000E-02 0.  1.
         23    2    1    2    0    0  0.00000000000E+00  0.00000000000E+00 -0.63640850517E+02  0.11016431619E+03  0.89922292610E+02 0.  0.
    9000005    2    3    3    0    0 -0.14682633094E+02 -0.38459185666E+02 -0.53918755097E+02  0.67865287648E+02  0.19433063610E+01 0.  0.
         22    1    3    3    0    0  0.14682633094E+02  0.38459185666E+02 -0.97220954196E+01  0.42299028547E+02  0.00000000000E+00 0. -1.
         22    1    4    4    0    0 -0.43124646958E+01 -0.10059959079E+02 -0.15565609109E+02  0.19028618324E+02  0.00000000000E+00 0.  1.
         22    1    4    4    0    0 -0.10370168398E+02 -0.28399226588E+02 -0.38353145988E+02  0.48836669323E+02  0.00000000000E+00 0.  1.
<mgrwt>
<rscale>  0 0.89922293E+02</rscale>
<asrwt>0</asrwt>
<pdfrwt beam="1">  1        2 0.35787282E-02 0.89922293E+02</pdfrwt>
<pdfrwt beam="2">  1       -2 0.13369628E-01 0.89922293E+02</pdfrwt>
<totfact> 0.86022540E+04</totfact>
</mgrwt>
</event>
<event>
 7    1  0.3480999E-009  0.9606497E+02  0.7818608E-02  0.1288795E+00
          2   -1    0    0  501    0  0.00000000000E+00  0.00000000000E+00  0.81323723109E+01  0.81323727107E+01  0.25500000000E-02 0. -1.
         -2   -1    0    0    0  501 -0.00000000000E+00 -0.00000000000E+00 -0.28369576193E+03  0.28369576194E+03  0.25500000000E-02 0.  1.
         23    2    1    2    0    0 -0.71054273576E-14 -0.88817841970E-15 -0.27556338962E+03  0.29182813466E+03  0.96064970079E+02 0.  0.
    9000005    2    3    3    0    0 -0.47556144480E+02 -0.45884701888E+01 -0.12961832161E+03  0.13826184990E+03  0.57261596466E+01 0.  0.
         22    1    3    3    0    0  0.47556144480E+02  0.45884701888E+01 -0.14594506801E+03  0.15356628475E+03  0.00000000000E+00 0. -1.
         22    1    4    4    0    0 -0.12710980247E+02 -0.19790031776E+01 -0.42249463678E+02  0.44164495395E+02  0.00000000000E+00 0. -1.
         22    1    4    4    0    0 -0.34845164233E+02 -0.26094670112E+01 -0.87368857936E+02  0.94097354509E+02  0.00000000000E+00 0. -1.
<mgrwt>
<rscale>  0 0.96064970E+02</rscale>
<asrwt>0</asrwt>
<pdfrwt beam="1">  1        2 0.12511345E-02 0.96064970E+02</pdfrwt>
<pdfrwt beam="2">  1       -2 0.43645494E-01 0.96064970E+02</pdfrwt>
<totfact> 0.45975872E+04</totfact>
</mgrwt>
</event>
<event>
 7    1  0.3480999E-009  0.9154948E+02  0.7818608E-02  0.1299142E+00
          2   -1    0    0  501    0  0.00000000000E+00  0.00000000000E+00  0.81539650020E+01  0.81539654008E+01  0.25500000000E-02 0.  1.
         -2   -1    0    0    0  501 -0.00000000000E+00 -0.00000000000E+00 -0.25697027715E+03  0.25697027717E+03  0.25500000000E-02 0. -1.
         23    2    1    2    0    0  0.00000000000E+00  0.35527136788E-14 -0.24881631215E+03  0.26512424257E+03  0.91549477355E+02 0.  0.
    9000005    2    3    3    0    0 -0.16486057027E+02  0.31698926248E+02 -0.50769158174E+02  0.63879895566E+02  0.15050635674E+02 0.  0.
         22    1    3    3    0    0  0.16486057027E+02 -0.31698926248E+02 -0.19804715398E+03  0.20124434700E+03  0.00000000000E+00 0. -1.
         22    1    4    4    0    0  0.24532722476E+01  0.30166010823E+01 -0.88825978577E+01  0.96963380465E+01  0.00000000000E+00 0.  1.
         22    1    4    4    0    0 -0.18939329274E+02  0.28682325166E+02 -0.41886560317E+02  0.54183557519E+02  0.00000000000E+00 0.  1.
<mgrwt>
<rscale>  0 0.91549477E+02</rscale>
<asrwt>0</asrwt>
<pdfrwt beam="1">  1        2 0.12544564E-02 0.91549477E+02</pdfrwt>
<pdfrwt beam="2">  1       -2 0.39533883E-01 0.91549477E+02</pdfrwt>
<totfact> 0.54826707E+04</totfact>
</mgrwt>
</event>
<event>
 6    1  0.3480999E-009  0.3021329E+03  0.7818608E-02  0.1084179E+00
          2   -1    0    0  501    0  0.00000000000E+00  0.00000000000E+00  0.22094715941E+02  0.22094716088E+02  0.25500000000E-02 0. -1.
         -2   -1    0    0    0  501 -0.00000000000E+00 -0.00000000000E+00 -0.10328749116E+04  0.10328749116E+04  0.25500000000E-02 0.  1.
    9000005    2    1    2    0    0  0.69564112366E+02  0.11167655094E+03 -0.76342205647E+03  0.77479670469E+03  0.13633764506E+02 0.  0.
         22    1    1    2    0    0 -0.69564112366E+02 -0.11167655094E+03 -0.24735813920E+03  0.28017292301E+03  0.00000000000E+00 0. -1.
         22    1    3    3    0    0  0.42758285147E+02  0.80563302960E+02 -0.52653898476E+03  0.53438003256E+03  0.00000000000E+00 0.  1.
         22    1    3    3    0    0  0.26805827219E+02  0.31113247983E+02 -0.23688307171E+03  0.24041667212E+03  0.00000000000E+00 0.  1.
<mgrwt>
<rscale>  0 0.30213294E+03</rscale>
<asrwt>0</asrwt>
<pdfrwt beam="1">  1        2 0.33991879E-02 0.30213294E+03</pdfrwt>
<pdfrwt beam="2">  1       -2 0.15890380E+00 0.30213294E+03</pdfrwt>
<totfact> 0.72234219E+02</totfact>
</mgrwt>
</event>
<event>
 7    1  0.3480999E-009  0.8985228E+02  0.7818608E-02  0.1303210E+00
          2   -1    0    0  501    0  0.00000000000E+00  0.00000000000E+00  0.21842679923E+03  0.21842679925E+03  0.25500000000E-02 0. -1.
         -2   -1    0    0    0  501 -0.00000000000E+00 -0.00000000000E+00 -0.92404330005E+01  0.92404333524E+01  0.25500000000E-02 0.  1.
         23    2    1    2    0    0 -0.17763568394E-14  0.00000000000E+00  0.20918636623E+03  0.22766723260E+03  0.89852284235E+02 0.  0.
    9000005    2    3    3    0    0 -0.83414482379E+01  0.38297483665E+02  0.15997166199E+03  0.16475170091E+03  0.39891477812E+01 0.  0.
         22    1    3    3    0    0  0.83414482379E+01 -0.38297483665E+02  0.49214704242E+02  0.62915531687E+02  0.00000000000E+00 0.  1.
         22    1    4    4    0    0 -0.36103531954E+01  0.89094633407E+01  0.41244429496E+02  0.42349925050E+02  0.00000000000E+00 0. -1.
         22    1    4    4    0    0 -0.47310950425E+01  0.29388020325E+02  0.11872723249E+03  0.12240177586E+03  0.00000000000E+00 0. -1.
<mgrwt>
<rscale>  0 0.89852284E+02</rscale>
<asrwt>0</asrwt>
<pdfrwt beam="1">  1        2 0.33604123E-01 0.89852284E+02</pdfrwt>
<pdfrwt beam="2">  1       -2 0.14216051E-02 0.89852284E+02</pdfrwt>
<totfact> 0.16611508E+05</totfact>
</mgrwt>
</event>
<event>
 7    1  0.3480999E-009  0.5619691E+02  0.7818608E-02  0.1414522E+00
         -2   -1    0    0    0  501 -0.00000000000E+00  0.00000000000E+00  0.11788930210E+03  0.11788930213E+03  0.25500000000E-02 0.  1.
          2   -1    0    0  501    0  0.00000000000E+00 -0.00000000000E+00 -0.66971567753E+01  0.66971572608E+01  0.25500000000E-02 0. -1.
         23    2    1    2    0    0  0.17763568394E-14  0.00000000000E+00  0.11119214532E+03  0.12458645939E+03  0.56196909889E+02 0.  0.
    9000005    2    3    3    0    0  0.13275329170E+02  0.19805530410E+02  0.86412201506E+02  0.90198394379E+02  0.10009414576E+02 0.  0.
         22    1    3    3    0    0 -0.13275329170E+02 -0.19805530410E+02  0.24779943819E+02  0.34388065009E+02  0.00000000000E+00 0. -1.
         22    1    4    4    0    0  0.26917123772E+01  0.30174391688E+01  0.32479546664E+02  0.32730279652E+02  0.00000000000E+00 0. -1.
         22    1    4    4    0    0  0.10583616793E+02  0.16788091241E+02  0.53932654842E+02  0.57468114727E+02  0.00000000000E+00 0. -1.
<mgrwt>
<rscale>  0 0.56196910E+02</rscale>
<asrwt>0</asrwt>
<pdfrwt beam="2">  1        2 0.10303319E-02 0.56196910E+02</pdfrwt>
<pdfrwt beam="1">  1       -2 0.18136815E-01 0.56196910E+02</pdfrwt>
<totfact> 0.25353378E+05</totfact>
</mgrwt>
</event>
<event>
 7    1  0.3480999E-009  0.8531623E+02  0.7818608E-02  0.1314608E+00
         -2   -1    0    0    0  501 -0.00000000000E+00  0.00000000000E+00  0.25370892149E+02  0.25370892277E+02  0.25500000000E-02 0.  1.
          2   -1    0    0  501    0  0.00000000000E+00 -0.00000000000E+00 -0.71724510873E+02  0.71724510919E+02  0.25500000000E-02 0. -1.
         23    2    1    2    0    0 -0.17763568394E-14  0.00000000000E+00 -0.46353618724E+02  0.97095403196E+02  0.85316231474E+02 0.  0.
    9000005    2    3    3    0    0  0.13838877397E+02 -0.88485621281E+01  0.19965862695E+02  0.28772016314E+02  0.12624645352E+02 0.  0.
         22    1    3    3    0    0 -0.13838877397E+02  0.88485621281E+01 -0.66319481419E+02  0.68323386882E+02  0.00000000000E+00 0. -1.
         22    1    4    4    0    0 -0.14212969573E+00 -0.55370168241E+01  0.94990308152E+01  0.10995923908E+02  0.00000000000E+00 0. -1.
         22    1    4    4    0    0  0.13981007092E+02 -0.33115453040E+01  0.10466831880E+02  0.17776092406E+02  0.00000000000E+00 0. -1.
<mgrwt>
<rscale>  0 0.85316231E+02</rscale>
<asrwt>0</asrwt>
<pdfrwt beam="2">  1        2 0.11034540E-01 0.85316231E+02</pdfrwt>
<pdfrwt beam="1">  1       -2 0.39032142E-02 0.85316231E+02</pdfrwt>
<totfact> 0.13393073E+05</totfact>
</mgrwt>
</event>
<event>
 7    1  0.3480999E-009  0.1009006E+03  0.7818608E-02  0.1278413E+00
         -2   -1    0    0    0  501 -0.00000000000E+00  0.00000000000E+00  0.36083717096E+01  0.36083726107E+01  0.25500000000E-02 0.  1.
          2   -1    0    0  501    0  0.00000000000E+00 -0.00000000000E+00 -0.70536923677E+03  0.70536923677E+03  0.25500000000E-02 0. -1.
         23    2    1    2    0    0 -0.35527136788E-14  0.00000000000E+00 -0.70176086506E+03  0.70897760938E+03  0.10090063865E+03 0.  0.
    9000005    2    3    3    0    0  0.27334076633E+02 -0.40546579304E+02 -0.41550973170E+03  0.41857979915E+03  0.13020533064E+02 0.  0.
         22    1    3    3    0    0 -0.27334076633E+02  0.40546579304E+02 -0.28625113336E+03  0.29039781023E+03  0.00000000000E+00 0. -1.
         22    1    4    4    0    0  0.39481407738E+01 -0.16736810774E+02 -0.14860004321E+03  0.14959171599E+03  0.00000000000E+00 0.  1.
         22    1    4    4    0    0  0.23385935860E+02 -0.23809768531E+02 -0.26690968849E+03  0.26898808316E+03  0.00000000000E+00 0.  1.
<mgrwt>
<rscale>  0 0.10090064E+03</rscale>
<asrwt>0</asrwt>
<pdfrwt beam="2">  1        2 0.10851823E+00 0.10090064E+03</pdfrwt>
<pdfrwt beam="1">  1       -2 0.55513474E-03 0.10090064E+03</pdfrwt>
<totfact> 0.18158893E+05</totfact>
</mgrwt>
</event>
<event>
 7    1  0.3480999E-009  0.8840675E+02  0.7818608E-02  0.1306756E+00
         -2   -1    0    0    0  501 -0.00000000000E+00  0.00000000000E+00  0.39946688080E+01  0.39946696219E+01  0.25500000000E-02 0.  1.
          2   -1    0    0  501    0  0.00000000000E+00 -0.00000000000E+00 -0.48913650644E+03  0.48913650645E+03  0.25500000000E-02 0. -1.
         23    2    1    2    0    0  0.00000000000E+00  0.00000000000E+00 -0.48514183763E+03  0.49313117607E+03  0.88406754209E+02 0.  0.
    9000005    2    3    3    0    0  0.23967722547E+02 -0.22498839441E+02 -0.40386720033E+03  0.40546010804E+03  0.14440713667E+02 0.  0.
         22    1    3    3    0    0 -0.23967722547E+02  0.22498839441E+02 -0.81274637303E+02  0.87671068027E+02  0.00000000000E+00 0.  1.
         22    1    4    4    0    0  0.83893808370E+01 -0.15720535104E+02 -0.25617646095E+03  0.25679543625E+03  0.00000000000E+00 0.  1.
         22    1    4    4    0    0  0.15578341710E+02 -0.67783043374E+01 -0.14769073938E+03  0.14866467179E+03  0.00000000000E+00 0.  1.
<mgrwt>
<rscale>  0 0.88406754E+02</rscale>
<asrwt>0</asrwt>
<pdfrwt beam="2">  1        2 0.75251723E-01 0.88406754E+02</pdfrwt>
<pdfrwt beam="1">  1       -2 0.61456488E-03 0.88406754E+02</pdfrwt>
<totfact> 0.23212539E+05</totfact>
</mgrwt>
</event>
<event>
 7    1  0.3480999E-009  0.9144720E+02  0.7818608E-02  0.1299384E+00
          2   -1    0    0  501    0  0.00000000000E+00  0.00000000000E+00  0.14716186515E+03  0.14716186517E+03  0.25500000000E-02 0. -1.
         -2   -1    0    0    0  501 -0.00000000000E+00 -0.00000000000E+00 -0.14206449790E+02  0.14206450019E+02  0.25500000000E-02 0.  1.
         23    2    1    2    0    0  0.44408920985E-15  0.00000000000E+00  0.13295541536E+03  0.16136831519E+03  0.91447201564E+02 0.  0.
    9000005    2    3    3    0    0  0.39097042624E+01 -0.44062802345E+02  0.85874376044E+02  0.96766143392E+02  0.56975177245E+01 0.  0.
         22    1    3    3    0    0 -0.39097042624E+01  0.44062802345E+02  0.47081039314E+02  0.64602171796E+02  0.00000000000E+00 0.  1.
         22    1    4    4    0    0 -0.10639746840E+01 -0.15745930533E+02  0.27895373653E+02  0.32050245580E+02  0.00000000000E+00 0. -1.
         22    1    4    4    0    0  0.49736789464E+01 -0.28316871812E+02  0.57979002390E+02  0.64715897812E+02  0.00000000000E+00 0. -1.
<mgrwt>
<rscale>  0 0.91447202E+02</rscale>
<asrwt>0</asrwt>
<pdfrwt beam="1">  1        2 0.22640288E-01 0.91447202E+02</pdfrwt>
<pdfrwt beam="2">  1       -2 0.21856075E-02 0.91447202E+02</pdfrwt>
<totfact> 0.13779258E+05</totfact>
</mgrwt>
</event>
<event>
 7    1  0.3480999E-009  0.9211930E+02  0.7818608E-02  0.1297799E+00
         -2   -1    0    0    0  501 -0.00000000000E+00  0.00000000000E+00  0.51844823014E+01  0.51844829285E+01  0.25500000000E-02 0. -1.
          2   -1    0    0  501    0  0.00000000000E+00 -0.00000000000E+00 -0.40920024621E+03  0.40920024622E+03  0.25500000000E-02 0.  1.
         23    2    1    2    0    0 -0.88817841970E-15  0.00000000000E+00 -0.40401576391E+03  0.41438472914E+03  0.92119304508E+02 0.  0.
    9000005    2    3    3    0    0 -0.47070115632E+01 -0.22003262149E+02 -0.38233884585E+03  0.38314071725E+03  0.10369024154E+02 0.  0.
         22    1    3    3    0    0  0.47070115632E+01  0.22003262149E+02 -0.21676918053E+02  0.31244011896E+02  0.00000000000E+00 0. -1.
         22    1    4    4    0    0 -0.73767431647E+01 -0.20302547200E+02 -0.33677060589E+03  0.33746266572E+03  0.00000000000E+00 0. -1.
         22    1    4    4    0    0  0.26697316015E+01 -0.17007149497E+01 -0.45568239965E+02  0.45678051531E+02  0.00000000000E+00 0. -1.
<mgrwt>
<rscale>  0 0.92119305E+02</rscale>
<asrwt>0</asrwt>
<pdfrwt beam="2">  1        2 0.62953859E-01 0.92119305E+02</pdfrwt>
<pdfrwt beam="1">  1       -2 0.79761303E-03 0.92119305E+02</pdfrwt>
<totfact> 0.19582489E+05</totfact>
</mgrwt>
</event>
<event>
 7    1  0.3480999E-009  0.9257285E+02  0.7818608E-02  0.1296738E+00
         -2   -1    0    0    0  501 -0.00000000000E+00  0.00000000000E+00  0.12875608731E+02  0.12875608984E+02  0.25500000000E-02 0.  1.
          2   -1    0    0  501    0  0.00000000000E+00 -0.00000000000E+00 -0.16639469671E+03  0.16639469673E+03  0.25500000000E-02 0. -1.
         23    2    1    2    0    0  0.00000000000E+00  0.17763568394E-14 -0.15351908798E+03  0.17927030571E+03  0.92572847729E+02 0.  0.
    9000005    2    3    3    0    0 -0.32373116298E+02  0.88886252527E+01 -0.20189414773E+02  0.41779112996E+02  0.14520864164E+02 0.  0.
         22    1    3    3    0    0  0.32373116298E+02 -0.88886252527E+01 -0.13332967321E+03  0.13749119272E+03  0.00000000000E+00 0. -1.
         22    1    4    4    0    0 -0.28231411987E+02  0.87954635402E+01 -0.10737138014E+02  0.31458845090E+02  0.00000000000E+00 0.  1.
         22    1    4    4    0    0 -0.41417043109E+01  0.93161712472E-01 -0.94522767592E+01  0.10320267905E+02  0.00000000000E+00 0.  1.
<mgrwt>
<rscale>  0 0.92572848E+02</rscale>
<asrwt>0</asrwt>
<pdfrwt beam="2">  1        2 0.25599182E-01 0.92572848E+02</pdfrwt>
<pdfrwt beam="1">  1       -2 0.19808630E-02 0.92572848E+02</pdfrwt>
<totfact> 0.13904500E+05</totfact>
</mgrwt>
</event>
<event>
 7    1  0.3480999E-009  0.9263819E+02  0.7818608E-02  0.1296586E+00
          2   -1    0    0  501    0  0.00000000000E+00  0.00000000000E+00  0.77669957745E+01  0.77669961931E+01  0.25500000000E-02 0. -1.
         -2   -1    0    0    0  501 -0.00000000000E+00 -0.00000000000E+00 -0.27622756446E+03  0.27622756447E+03  0.25500000000E-02 0.  1.
         23    2    1    2    0    0 -0.17763568394E-14  0.11102230246E-15 -0.26846056869E+03  0.28399456067E+03  0.92638186232E+02 0.  0.
    9000005    2    3    3    0    0  0.10389439599E+02 -0.80965336403E+00 -0.27239744096E+03  0.27285476906E+03  0.11864365250E+02 0.  0.
         22    1    3    3    0    0 -0.10389439599E+02  0.80965336403E+00  0.39368722739E+01  0.11139791607E+02  0.00000000000E+00 0. -1.
         22    1    4    4    0    0 -0.17142385277E+01  0.14951746034E+01 -0.15935717763E+02  0.16097243909E+02  0.00000000000E+00 0.  1.
         22    1    4    4    0    0  0.12103678126E+02 -0.23048279675E+01 -0.25646172320E+03  0.25675752515E+03  0.00000000000E+00 0.  1.
<mgrwt>
<rscale>  0 0.92638186E+02</rscale>
<asrwt>0</asrwt>
<pdfrwt beam="1">  1        2 0.11949227E-02 0.92638186E+02</pdfrwt>
<pdfrwt beam="2">  1       -2 0.42496541E-01 0.92638186E+02</pdfrwt>
<totfact> 0.51219172E+04</totfact>
</mgrwt>
</event>
<event>
 7    1  0.3480999E-009  0.8918384E+02  0.7818608E-02  0.1304840E+00
          2   -1    0    0  501    0  0.00000000000E+00  0.00000000000E+00  0.48470067414E+02  0.48470067481E+02  0.25500000000E-02 0. -1.
         -2   -1    0    0    0  501 -0.00000000000E+00 -0.00000000000E+00 -0.41024069468E+02  0.41024069547E+02  0.25500000000E-02 0.  1.
         23    2    1    2    0    0  0.00000000000E+00  0.00000000000E+00  0.74459979461E+01  0.89494137029E+02  0.89183842018E+02 0.  0.
    9000005    2    3    3    0    0 -0.14653310609E+02  0.10005352796E+02  0.43800280445E+02  0.49040948620E+02  0.13104330510E+02 0.  0.
         22    1    3    3    0    0  0.14653310609E+02 -0.10005352796E+02 -0.36354282499E+02  0.40453188408E+02  0.00000000000E+00 0.  1.
         22    1    4    4    0    0 -0.14856692601E+02  0.50862776896E+01  0.24327707553E+02  0.28955636594E+02  0.00000000000E+00 0. -1.
         22    1    4    4    0    0  0.20338199229E+00  0.49190751060E+01  0.19472572893E+02  0.20085312026E+02  0.00000000000E+00 0. -1.
<mgrwt>
<rscale>  0 0.89183842E+02</rscale>
<asrwt>0</asrwt>
<pdfrwt beam="1">  1        2 0.74569334E-02 0.89183842E+02</pdfrwt>
<pdfrwt beam="2">  1       -2 0.63113953E-02 0.89183842E+02</pdfrwt>
<totfact> 0.10677739E+05</totfact>
</mgrwt>
</event>
<event>
 7    1  0.3480999E-009  0.9263844E+02  0.7818608E-02  0.1296585E+00
          2   -1    0    0  501    0  0.00000000000E+00  0.00000000000E+00  0.60423624052E+02  0.60423624105E+02  0.25500000000E-02 0. -1.
         -2   -1    0    0    0  501 -0.00000000000E+00 -0.00000000000E+00 -0.35507141086E+02  0.35507141178E+02  0.25500000000E-02 0.  1.
         23    2    1    2    0    0  0.00000000000E+00  0.00000000000E+00  0.24916482965E+02  0.95930765283E+02  0.92638440210E+02 0.  0.
    9000005    2    3    3    0    0 -0.30032118766E+02 -0.60192197051E+01  0.47736700414E+02  0.57734934519E+02  0.10787536053E+02 0.  0.
         22    1    3    3    0    0  0.30032118766E+02  0.60192197051E+01 -0.22820217448E+02  0.38195830765E+02  0.00000000000E+00 0.  1.
         22    1    4    4    0    0 -0.36504744785E+00 -0.22783305180E+01  0.18139508593E+01  0.29350412789E+01  0.00000000000E+00 0. -1.
         22    1    4    4    0    0 -0.29667071318E+02 -0.37408891870E+01  0.45922749554E+02  0.54799893240E+02  0.00000000000E+00 0. -1.
<mgrwt>
<rscale>  0 0.92638440E+02</rscale>
<asrwt>0</asrwt>
<pdfrwt beam="1">  1        2 0.92959422E-02 0.92638440E+02</pdfrwt>
<pdfrwt beam="2">  1       -2 0.54626371E-02 0.92638440E+02</pdfrwt>
<totfact> 0.10159916E+05</totfact>
</mgrwt>
</event>
<event>
 7    1  0.3480999E-009  0.9101359E+02  0.7818608E-02  0.1300416E+00
         -2   -1    0    0    0  501 -0.00000000000E+00  0.00000000000E+00  0.94932048681E+01  0.94932052105E+01  0.25500000000E-02 0.  1.
          2   -1    0    0  501    0  0.00000000000E+00 -0.00000000000E+00 -0.21814215708E+03  0.21814215709E+03  0.25500000000E-02 0. -1.
         23    2    1    2    0    0  0.00000000000E+00  0.35527136788E-14 -0.20864895221E+03  0.22763536230E+03  0.91013586418E+02 0.  0.
    9000005    2    3    3    0    0 -0.82281115291E+01  0.20191941917E+02 -0.20379508350E+03  0.20529758311E+03  0.11800221795E+02 0.  0.
         22    1    3    3    0    0  0.82281115291E+01 -0.20191941917E+02 -0.48538687067E+01  0.22337779190E+02  0.00000000000E+00 0.  1.
         22    1    4    4    0    0 -0.92053413223E+01  0.18035312268E+02 -0.13980972129E+03  0.14126842876E+03  0.00000000000E+00 0.  1.
         22    1    4    4    0    0  0.97722979320E+00  0.21566296494E+01 -0.63985362210E+02  0.64029154350E+02  0.00000000000E+00 0.  1.
<mgrwt>
<rscale>  0 0.91013586E+02</rscale>
<asrwt>0</asrwt>
<pdfrwt beam="2">  1        2 0.33560328E-01 0.91013586E+02</pdfrwt>
<pdfrwt beam="1">  1       -2 0.14604933E-02 0.91013586E+02</pdfrwt>
<totfact> 0.16041484E+05</totfact>
</mgrwt>
</event>
<event>
 7    1  0.3480999E-009  0.9370031E+02  0.7818608E-02  0.1294130E+00
          2   -1    0    0  501    0  0.00000000000E+00  0.00000000000E+00  0.13651820113E+02  0.13651820352E+02  0.25500000000E-02 0. -1.
         -2   -1    0    0    0  501 -0.00000000000E+00 -0.00000000000E+00 -0.16077980127E+03  0.16077980129E+03  0.25500000000E-02 0.  1.
         23    2    1    2    0    0  0.71054273576E-14  0.00000000000E+00 -0.14712798116E+03  0.17443162165E+03  0.93700308375E+02 0.  0.
    9000005    2    3    3    0    0  0.37937361458E+02 -0.15754854788E+02 -0.11250940188E+03  0.12071100293E+03  0.15010725266E+02 0.  0.
         22    1    3    3    0    0 -0.37937361458E+02  0.15754854788E+02 -0.34618579278E+02  0.53720618714E+02  0.00000000000E+00 0. -1.
         22    1    4    4    0    0  0.35323400322E+02 -0.16292890695E+02 -0.11105689314E+03  0.11767257289E+03  0.00000000000E+00 0.  1.
         22    1    4    4    0    0  0.26139611357E+01  0.53803590639E+00 -0.14525087450E+01  0.30384300403E+01  0.00000000000E+00 0.  1.
<mgrwt>
<rscale>  0 0.93700308E+02</rscale>
<asrwt>0</asrwt>
<pdfrwt beam="1">  1        2 0.21002802E-02 0.93700308E+02</pdfrwt>
<pdfrwt beam="2">  1       -2 0.24735353E-01 0.93700308E+02</pdfrwt>
<totfact> 0.63518264E+04</totfact>
</mgrwt>
</event>
<event>
 7    1  0.3480999E-009  0.9199588E+02  0.7818608E-02  0.1298089E+00
          2   -1    0    0  501    0  0.00000000000E+00  0.00000000000E+00  0.35151652766E+03  0.35151652766E+03  0.25500000000E-02 0. -1.
         -2   -1    0    0    0  501 -0.00000000000E+00 -0.00000000000E+00 -0.60190920807E+01  0.60190926209E+01  0.25500000000E-02 0.  1.
         23    2    1    2    0    0  0.44408920985E-15 -0.71054273576E-14  0.34549743557E+03  0.35753562029E+03  0.91995879170E+02 0.  0.
    9000005    2    3    3    0    0 -0.33832669223E+01  0.44787411364E+02  0.20551814507E+03  0.21052691142E+03  0.81555973269E+01 0.  0.
         22    1    3    3    0    0  0.33832669223E+01 -0.44787411364E+02  0.13997929051E+03  0.14700870887E+03  0.00000000000E+00 0. -1.
         22    1    4    4    0    0 -0.40786635992E+01  0.30873504529E+02  0.12556677487E+03  0.12937087666E+03  0.00000000000E+00 0. -1.
         22    1    4    4    0    0  0.69539667696E+00  0.13913906835E+02  0.79951370202E+02  0.81156034755E+02  0.00000000000E+00 0. -1.
<mgrwt>
<rscale>  0 0.91995879E+02</rscale>
<asrwt>0</asrwt>
<pdfrwt beam="1">  1        2 0.54079452E-01 0.91995879E+02</pdfrwt>
<pdfrwt beam="2">  1       -2 0.92601444E-03 0.91995879E+02</pdfrwt>
<totfact> 0.18601452E+05</totfact>
</mgrwt>
</event>
<event>
 7    1  0.3480999E-009  0.9017264E+02  0.7818608E-02  0.1302434E+00
          2   -1    0    0  501    0  0.00000000000E+00  0.00000000000E+00  0.89236694970E+02  0.89236695007E+02  0.25500000000E-02 0. -1.
         -2   -1    0    0    0  501 -0.00000000000E+00 -0.00000000000E+00 -0.22779602655E+02  0.22779602798E+02  0.25500000000E-02 0.  1.
         23    2    1    2    0    0  0.00000000000E+00  0.00000000000E+00  0.66457092315E+02  0.11201629780E+03  0.90172644715E+02 0.  0.
    9000005    2    3    3    0    0 -0.35164217376E+02  0.84039033651E+01  0.65503501917E+02  0.75849225624E+02  0.12459875158E+02 0.  0.
         22    1    3    3    0    0  0.35164217376E+02 -0.84039033651E+01  0.95359039819E+00  0.36167072180E+02  0.00000000000E+00 0.  1.
         22    1    4    4    0    0 -0.11780968081E+02 -0.23352051530E+01  0.26857791552E+02  0.29420832060E+02  0.00000000000E+00 0. -1.
         22    1    4    4    0    0 -0.23383249295E+02  0.10739108518E+02  0.38645710365E+02  0.46428393564E+02  0.00000000000E+00 0. -1.
<mgrwt>
<rscale>  0 0.90172645E+02</rscale>
<asrwt>0</asrwt>
<pdfrwt beam="1">  1        2 0.13728722E-01 0.90172645E+02</pdfrwt>
<pdfrwt beam="2">  1       -2 0.35045543E-02 0.90172645E+02</pdfrwt>
<totfact> 0.12224185E+05</totfact>
</mgrwt>
</event>
<event>
 7    1  0.3480999E-009  0.1096330E+03  0.7818608E-02  0.1261251E+00
         -2   -1    0    0    0  501 -0.00000000000E+00  0.00000000000E+00  0.25411199660E+03  0.25411199661E+03  0.25500000000E-02 0.  1.
          2   -1    0    0  501    0  0.00000000000E+00 -0.00000000000E+00 -0.11824888180E+02  0.11824888455E+02  0.25500000000E-02 0. -1.
         23    2    1    2    0    0  0.00000000000E+00  0.00000000000E+00  0.24228710842E+03  0.26593688507E+03  0.10963295094E+03 0.  0.
    9000005    2    3    3    0    0  0.36018800182E+02  0.10824411575E+02  0.21753931983E+03  0.22091494717E+03  0.80954527510E+01 0.  0.
         22    1    3    3    0    0 -0.36018800182E+02 -0.10824411575E+02  0.24747788588E+02  0.45021937902E+02  0.00000000000E+00 0. -1.
         22    1    4    4    0    0  0.92551453586E+01  0.68224026162E+00  0.38518180702E+02  0.39620366126E+02  0.00000000000E+00 0. -1.
         22    1    4    4    0    0  0.26763654823E+02  0.10142171313E+02  0.17902113913E+03  0.18129458104E+03  0.00000000000E+00 0. -1.
<mgrwt>
<rscale>  0 0.10963295E+03</rscale>
<asrwt>0</asrwt>
<pdfrwt beam="2">  1        2 0.18192139E-02 0.10963295E+03</pdfrwt>
<pdfrwt beam="1">  1       -2 0.39094148E-01 0.10963295E+03</pdfrwt>
<totfact> 0.34656931E+04</totfact>
</mgrwt>
</event>
<event>
 7    1  0.3480999E-009  0.9189501E+02  0.7818608E-02  0.1298326E+00
          2   -1    0    0  501    0  0.00000000000E+00  0.00000000000E+00  0.16833851400E+02  0.16833851593E+02  0.25500000000E-02 0. -1.
         -2   -1    0    0    0  501 -0.00000000000E+00 -0.00000000000E+00 -0.12541236390E+03  0.12541236393E+03  0.25500000000E-02 0.  1.
         23    2    1    2    0    0  0.00000000000E+00  0.00000000000E+00 -0.10857851250E+03  0.14224621552E+03  0.91895007770E+02 0.  0.
    9000005    2    3    3    0    0  0.41376233923E+02  0.96273369842E+01 -0.34478609132E+02  0.56832668408E+02  0.15378535680E+02 0.  0.
         22    1    3    3    0    0 -0.41376233923E+02 -0.96273369842E+01 -0.74099903370E+02  0.85413547113E+02  0.00000000000E+00 0.  1.
         22    1    4    4    0    0  0.43351589950E+01  0.46988077024E+01 -0.64800543679E+00  0.64259091483E+01  0.00000000000E+00 0. -1.
         22    1    4    4    0    0  0.37041074928E+02  0.49285292818E+01 -0.33830603695E+02  0.50406759260E+02  0.00000000000E+00 0. -1.
<mgrwt>
<rscale>  0 0.91895008E+02</rscale>
<asrwt>0</asrwt>
<pdfrwt beam="1">  1        2 0.25898234E-02 0.91895008E+02</pdfrwt>
<pdfrwt beam="2">  1       -2 0.19294209E-01 0.91895008E+02</pdfrwt>
<totfact> 0.72881830E+04</totfact>
</mgrwt>
</event>
<event>
 7    1  0.3480999E-009  0.9285539E+02  0.7818608E-02  0.1296081E+00
          2   -1    0    0  501    0  0.00000000000E+00  0.00000000000E+00  0.17401000045E+03  0.17401000047E+03  0.25500000000E-02 0.  1.
         -2   -1    0    0    0  501 -0.00000000000E+00 -0.00000000000E+00 -0.12387397409E+02  0.12387397671E+02  0.25500000000E-02 0. -1.
         23    2    1    2    0    0  0.00000000000E+00  0.00000000000E+00  0.16162260304E+03  0.18639739814E+03  0.92855394131E+02 0.  0.
    9000005    2    3    3    0    0  0.28687937550E+02 -0.16720739380E+02  0.18152612707E+02  0.39134982660E+02  0.99723935658E+01 0.  0.
         22    1    3    3    0    0 -0.28687937550E+02  0.16720739380E+02  0.14346999033E+03  0.14726241548E+03  0.00000000000E+00 0.  1.
         22    1    4    4    0    0  0.87233853552E+01 -0.21673308062E+00  0.54134768595E+01  0.10268892686E+02  0.00000000000E+00 0. -1.
         22    1    4    4    0    0  0.19964552195E+02 -0.16504006299E+02  0.12739135847E+02  0.28866089974E+02  0.00000000000E+00 0. -1.
<mgrwt>
<rscale>  0 0.92855394E+02</rscale>
<asrwt>0</asrwt>
<pdfrwt beam="1">  1        2 0.26770767E-01 0.92855394E+02</pdfrwt>
<pdfrwt beam="2">  1       -2 0.19057536E-02 0.92855394E+02</pdfrwt>
<totfact> 0.14008384E+05</totfact>
</mgrwt>
</event>
<event>
 7    1  0.3480999E-009  0.9117946E+02  0.7818608E-02  0.1300020E+00
         -2   -1    0    0    0  501 -0.00000000000E+00  0.00000000000E+00  0.25550702568E+02  0.25550702696E+02  0.25500000000E-02 0. -1.
          2   -1    0    0  501    0  0.00000000000E+00 -0.00000000000E+00 -0.81345070217E+02  0.81345070257E+02  0.25500000000E-02 0.  1.
         23    2    1    2    0    0  0.17763568394E-14  0.17763568394E-14 -0.55794367649E+02  0.10689577295E+03  0.91179464869E+02 0.  0.
    9000005    2    3    3    0    0 -0.10967343000E+02 -0.13733283386E+02  0.18777782655E+02  0.30280557192E+02  0.15981906563E+02 0.  0.
         22    1    3    3    0    0  0.10967343000E+02  0.13733283386E+02 -0.74572150304E+02  0.76615215761E+02  0.00000000000E+00 0.  1.
         22    1    4    4    0    0  0.28734553138E+01 -0.38202428910E+01  0.10095104441E+02  0.11169697170E+02  0.00000000000E+00 0. -1.
         22    1    4    4    0    0 -0.13840798314E+02 -0.99130404953E+01  0.86826782141E+01  0.19110860023E+02  0.00000000000E+00 0. -1.
<mgrwt>
<rscale>  0 0.91179465E+02</rscale>
<asrwt>0</asrwt>
<pdfrwt beam="2">  1        2 0.12514626E-01 0.91179465E+02</pdfrwt>
<pdfrwt beam="1">  1       -2 0.39308774E-02 0.91179465E+02</pdfrwt>
<totfact> 0.11539676E+05</totfact>
</mgrwt>
</event>
<event>
 7    1  0.3480999E-009  0.8891435E+02  0.7818608E-02  0.1305502E+00
          2   -1    0    0  501    0  0.00000000000E+00  0.00000000000E+00  0.12305391413E+02  0.12305391677E+02  0.25500000000E-02 0. -1.
         -2   -1    0    0    0  501 -0.00000000000E+00 -0.00000000000E+00 -0.16061580970E+03  0.16061580972E+03  0.25500000000E-02 0.  1.
         23    2    1    2    0    0  0.00000000000E+00  0.00000000000E+00 -0.14831041829E+03  0.17292120140E+03  0.88914350476E+02 0.  0.
    9000005    2    3    3    0    0 -0.40164195763E+02 -0.12719772031E+02 -0.55398491362E+02  0.70903647091E+02  0.13541754093E+02 0.  0.
         22    1    3    3    0    0  0.40164195763E+02  0.12719772031E+02 -0.92911926926E+02  0.10201755431E+03  0.00000000000E+00 0.  1.
         22    1    4    4    0    0 -0.40238894939E+02 -0.14091577709E+02 -0.52038718240E+02  0.67273839078E+02  0.00000000000E+00 0.  1.
         22    1    4    4    0    0  0.74699175997E-01  0.13718056783E+01 -0.33597731213E+01  0.36298080132E+01  0.00000000000E+00 0.  1.
<mgrwt>
<rscale>  0 0.88914350E+02</rscale>
<asrwt>0</asrwt>
<pdfrwt beam="1">  1        2 0.18931373E-02 0.88914350E+02</pdfrwt>
<pdfrwt beam="2">  1       -2 0.24710123E-01 0.88914350E+02</pdfrwt>
<totfact> 0.72584555E+04</totfact>
</mgrwt>
</event>
<event>
 7    1  0.3480999E-009  0.9804604E+02  0.7818608E-02  0.1284459E+00
         -2   -1    0    0    0  501 -0.00000000000E+00  0.00000000000E+00  0.84295431332E+01  0.84295435189E+01  0.25500000000E-02 0.  1.
          2   -1    0    0  501    0  0.00000000000E+00 -0.00000000000E+00 -0.28509924858E+03  0.28509924859E+03  0.25500000000E-02 0. -1.
         23    2    1    2    0    0  0.00000000000E+00 -0.17763568394E-14 -0.27666970544E+03  0.29352879211E+03  0.98046039622E+02 0.  0.
    9000005    2    3    3    0    0  0.39708154744E+02  0.89910196042E+01 -0.22000339558E+03  0.22375310394E+03  0.25261563222E+01 0.  0.
         22    1    3    3    0    0 -0.39708154744E+02 -0.89910196042E+01 -0.56666309860E+02  0.69775688171E+02  0.00000000000E+00 0.  1.
         22    1    4    4    0    0  0.75670453149E+01  0.27279291053E+01 -0.42457494846E+02  0.43212737018E+02  0.00000000000E+00 0.  1.
         22    1    4    4    0    0  0.32141109429E+02  0.62630904989E+01 -0.17754590074E+03  0.18054036692E+03  0.00000000000E+00 0.  1.
<mgrwt>
<rscale>  0 0.98046040E+02</rscale>
<asrwt>0</asrwt>
<pdfrwt beam="2">  1        2 0.43861416E-01 0.98046040E+02</pdfrwt>
<pdfrwt beam="1">  1       -2 0.12968530E-02 0.98046040E+02</pdfrwt>
<totfact> 0.14506594E+05</totfact>
</mgrwt>
</event>
<event>
 7    1  0.3480999E-009  0.8911515E+02  0.7818608E-02  0.1305009E+00
         -2   -1    0    0    0  501 -0.00000000000E+00  0.00000000000E+00  0.75467247985E+01  0.75467252294E+01  0.25500000000E-02 0.  1.
          2   -1    0    0  501    0  0.00000000000E+00 -0.00000000000E+00 -0.26307803003E+03  0.26307803004E+03  0.25500000000E-02 0. -1.
         23    2    1    2    0    0  0.00000000000E+00  0.00000000000E+00 -0.25553130523E+03  0.27062475527E+03  0.89115151420E+02 0.  0.
    9000005    2    3    3    0    0 -0.17320842564E+02  0.34977930431E+02 -0.63395680421E+02  0.74564648351E+02  0.41722036564E+01 0.  0.
         22    1    3    3    0    0  0.17320842564E+02 -0.34977930431E+02 -0.19213562481E+03  0.19606010692E+03  0.00000000000E+00 0. -1.
         22    1    4    4    0    0 -0.34606362924E+01  0.97128440230E+01 -0.19432640513E+02  0.21998701323E+02  0.00000000000E+00 0. -1.
         22    1    4    4    0    0 -0.13860206272E+02  0.25265086408E+02 -0.43963039908E+02  0.52565947029E+02  0.00000000000E+00 0. -1.
<mgrwt>
<rscale>  0 0.89115151E+02</rscale>
<asrwt>0</asrwt>
<pdfrwt beam="2">  1        2 0.40473536E-01 0.89115151E+02</pdfrwt>
<pdfrwt beam="1">  1       -2 0.11610348E-02 0.89115151E+02</pdfrwt>
<totfact> 0.18184389E+05</totfact>
</mgrwt>
</event>
<event>
 7    1  0.3480999E-009  0.9530078E+02  0.7818608E-02  0.1290500E+00
          2   -1    0    0  501    0  0.00000000000E+00  0.00000000000E+00  0.60437973636E+03  0.60437973636E+03  0.25500000000E-02 0. -1.
         -2   -1    0    0    0  501 -0.00000000000E+00 -0.00000000000E+00 -0.37568424483E+01  0.37568433138E+01  0.25500000000E-02 0.  1.
         23    2    1    2    0    0 -0.71054273576E-14  0.00000000000E+00  0.60062289391E+03  0.60813657968E+03  0.95300780967E+02 0.  0.
    9000005    2    3    3    0    0  0.32845597770E+02 -0.32005527967E+02  0.36275690883E+03  0.36588998224E+03  0.13405860074E+02 0.  0.
         22    1    3    3    0    0 -0.32845597770E+02  0.32005527967E+02  0.23786598508E+03  0.24224659744E+03  0.00000000000E+00 0.  1.
         22    1    4    4    0    0  0.14527465788E+02 -0.11383482813E+02  0.99966095204E+02  0.10165555142E+03  0.00000000000E+00 0.  1.
         22    1    4    4    0    0  0.18318131981E+02 -0.20622045154E+02  0.26279081363E+03  0.26423443082E+03  0.00000000000E+00 0.  1.
<mgrwt>
<rscale>  0 0.95300781E+02</rscale>
<asrwt>0</asrwt>
<pdfrwt beam="1">  1        2 0.92981485E-01 0.95300781E+02</pdfrwt>
<pdfrwt beam="2">  1       -2 0.57797591E-03 0.95300781E+02</pdfrwt>
<totfact> 0.20308160E+05</totfact>
</mgrwt>
</event>
<event>
 7    1  0.3480999E-009  0.9173472E+02  0.7818608E-02  0.1298704E+00
         -2   -1    0    0    0  501 -0.00000000000E+00  0.00000000000E+00  0.26506462981E+01  0.26506475247E+01  0.25500000000E-02 0.  1.
          2   -1    0    0  501    0  0.00000000000E+00 -0.00000000000E+00 -0.79369863597E+03  0.79369863597E+03  0.25500000000E-02 0. -1.
         23    2    1    2    0    0  0.88817841970E-15  0.00000000000E+00 -0.79104798967E+03  0.79634928349E+03  0.91734722788E+02 0.  0.
    9000005    2    3    3    0    0  0.46947210569E+01  0.18828694641E+02 -0.75526693170E+03  0.75564493167E+03  0.13948637971E+02 0.  0.
         22    1    3    3    0    0 -0.46947210569E+01 -0.18828694641E+02 -0.35781057971E+02  0.40704351822E+02  0.00000000000E+00 0.  1.
         22    1    4    4    0    0  0.84219022345E+01  0.17470613158E+02 -0.67675211044E+03  0.67702996222E+03  0.00000000000E+00 0.  1.
         22    1    4    4    0    0 -0.37271811776E+01  0.13580814824E+01 -0.78514821259E+02  0.78614969453E+02  0.00000000000E+00 0.  1.
<mgrwt>
<rscale>  0 0.91734723E+02</rscale>
<asrwt>0</asrwt>
<pdfrwt beam="2">  1        2 0.12210729E+00 0.91734723E+02</pdfrwt>
<pdfrwt beam="1">  1       -2 0.40779247E-03 0.91734723E+02</pdfrwt>
<totfact> 0.23951406E+05</totfact>
</mgrwt>
</event>
<event>
 7    1  0.3480999E-009  0.9035086E+02  0.7818608E-02  0.1302004E+00
          2   -1    0    0  501    0  0.00000000000E+00  0.00000000000E+00  0.52788239796E+02  0.52788239857E+02  0.25500000000E-02 0. -1.
         -2   -1    0    0    0  501 -0.00000000000E+00 -0.00000000000E+00 -0.38660494966E+02  0.38660495050E+02  0.25500000000E-02 0.  1.
         23    2    1    2    0    0  0.00000000000E+00  0.00000000000E+00  0.14127744830E+02  0.91448734907E+02  0.90350860218E+02 0.  0.
    9000005    2    3    3    0    0 -0.16762272856E+02  0.92844897336E+01  0.47887953577E+02  0.52629574232E+02  0.10461378737E+02 0.  0.
         22    1    3    3    0    0  0.16762272856E+02 -0.92844897336E+01 -0.33760208747E+02  0.38819160676E+02  0.00000000000E+00 0.  1.
         22    1    4    4    0    0 -0.95145871942E+01  0.16265624525E+01  0.33023388716E+02  0.34405192590E+02  0.00000000000E+00 0.  1.
         22    1    4    4    0    0 -0.72476856620E+01  0.76579272811E+01  0.14864564862E+02  0.18224381642E+02  0.00000000000E+00 0.  1.
<mgrwt>
<rscale>  0 0.90350860E+02</rscale>
<asrwt>0</asrwt>
<pdfrwt beam="1">  1        2 0.81212676E-02 0.90350860E+02</pdfrwt>
<pdfrwt beam="2">  1       -2 0.59477685E-02 0.90350860E+02</pdfrwt>
<totfact> 0.10520763E+05</totfact>
</mgrwt>
</event>
<event>
 7    1  0.3480999E-009  0.9082361E+02  0.7818608E-02  0.1300869E+00
          2   -1    0    0  501    0  0.00000000000E+00  0.00000000000E+00  0.20809877673E+02  0.20809877829E+02  0.25500000000E-02 0. -1.
         -2   -1    0    0    0  501 -0.00000000000E+00 -0.00000000000E+00 -0.99098699395E+02  0.99098699428E+02  0.25500000000E-02 0.  1.
         23    2    1    2    0    0  0.00000000000E+00  0.00000000000E+00 -0.78288821722E+02  0.11990857726E+03  0.90823605374E+02 0.  0.
    9000005    2    3    3    0    0  0.17789886581E+02  0.23137246189E+01  0.13798456704E+02  0.26090134325E+02  0.12979380397E+02 0.  0.
         22    1    3    3    0    0 -0.17789886581E+02 -0.23137246189E+01 -0.92087278426E+02  0.93818442932E+02  0.00000000000E+00 0.  1.
         22    1    4    4    0    0  0.58979059957E+01 -0.47836585396E+01  0.81330219991E+01  0.11127206792E+02  0.00000000000E+00 0.  1.
         22    1    4    4    0    0  0.11891980586E+02  0.70973831585E+01  0.56654347050E+01  0.14962927533E+02  0.00000000000E+00 0.  1.
<mgrwt>
<rscale>  0 0.90823605E+02</rscale>
<asrwt>0</asrwt>
<pdfrwt beam="1">  1        2 0.32015197E-02 0.90823605E+02</pdfrwt>
<pdfrwt beam="2">  1       -2 0.15245953E-01 0.90823605E+02</pdfrwt>
<totfact> 0.80797945E+04</totfact>
</mgrwt>
</event>
<event>
 7    1  0.3480999E-009  0.9095271E+02  0.7818608E-02  0.1300561E+00
         -2   -1    0    0    0  501 -0.00000000000E+00  0.00000000000E+00  0.55042747867E+02  0.55042747926E+02  0.25500000000E-02 0.  1.
          2   -1    0    0  501    0  0.00000000000E+00 -0.00000000000E+00 -0.37572597371E+02  0.37572597458E+02  0.25500000000E-02 0. -1.
         23    2    1    2    0    0  0.17763568394E-14  0.88817841970E-15  0.17470150496E+02  0.92615345384E+02  0.90952713221E+02 0.  0.
    9000005    2    3    3    0    0 -0.15926879465E+02  0.59464844366E+01 -0.32891994526E+02  0.39461118667E+02  0.13648092024E+02 0.  0.
         22    1    3    3    0    0  0.15926879465E+02 -0.59464844366E+01  0.50362145022E+02  0.53154226717E+02  0.00000000000E+00 0.  1.
         22    1    4    4    0    0 -0.69351963713E+01 -0.42973803121E+01 -0.11681326539E+02  0.14248432053E+02  0.00000000000E+00 0.  1.
         22    1    4    4    0    0 -0.89916830936E+01  0.10243864749E+02 -0.21210667987E+02  0.25212686614E+02  0.00000000000E+00 0.  1.
<mgrwt>
<rscale>  0 0.90952713E+02</rscale>
<asrwt>0</asrwt>
<pdfrwt beam="2">  1        2 0.57803996E-02 0.90952713E+02</pdfrwt>
<pdfrwt beam="1">  1       -2 0.84681150E-02 0.90952713E+02</pdfrwt>
<totfact> 0.94528536E+04</totfact>
</mgrwt>
</event>
<event>
 7    1  0.3480999E-009  0.9181412E+02  0.7818608E-02  0.1298517E+00
          2   -1    0    0  501    0  0.00000000000E+00  0.00000000000E+00  0.54818172805E+01  0.54818178736E+01  0.25500000000E-02 0. -1.
         -2   -1    0    0    0  501 -0.00000000000E+00 -0.00000000000E+00 -0.38444517928E+03  0.38444517929E+03  0.25500000000E-02 0.  1.
         23    2    1    2    0    0  0.00000000000E+00  0.00000000000E+00 -0.37896336200E+03  0.38992699717E+03  0.91814124065E+02 0.  0.
    9000005    2    3    3    0    0 -0.32292245787E+02 -0.21032571596E+02 -0.28998200878E+03  0.29295875789E+03  0.15814872916E+02 0.  0.
         22    1    3    3    0    0  0.32292245787E+02  0.21032571596E+02 -0.88981353227E+02  0.96968239275E+02  0.00000000000E+00 0. -1.
         22    1    4    4    0    0 -0.20663523743E+02 -0.85588414977E+01 -0.11551815179E+03  0.11766341137E+03  0.00000000000E+00 0.  1.
         22    1    4    4    0    0 -0.11628722043E+02 -0.12473730098E+02 -0.17446385698E+03  0.17529534652E+03  0.00000000000E+00 0.  1.
<mgrwt>
<rscale>  0 0.91814124E+02</rscale>
<asrwt>0</asrwt>
<pdfrwt beam="1">  1        2 0.84335685E-03 0.91814124E+02</pdfrwt>
<pdfrwt beam="2">  1       -2 0.59145391E-01 0.91814124E+02</pdfrwt>
<totfact> 0.43056050E+04</totfact>
</mgrwt>
</event>
<event>
 7    1  0.3480999E-009  0.9079905E+02  0.7818608E-02  0.1300928E+00
         -2   -1    0    0    0  501 -0.00000000000E+00  0.00000000000E+00  0.28473156512E+02  0.28473156626E+02  0.25500000000E-02 0.  1.
          2   -1    0    0  501    0  0.00000000000E+00 -0.00000000000E+00 -0.72388063676E+02  0.72388063721E+02  0.25500000000E-02 0. -1.
         23    2    1    2    0    0  0.00000000000E+00 -0.88817841970E-15 -0.43914907164E+02  0.10086122035E+03  0.90799045693E+02 0.  0.
    9000005    2    3    3    0    0  0.44309029194E+02 -0.79851046087E+01 -0.18282447124E+02  0.49053161404E+02  0.67017018119E+01 0.  0.
         22    1    3    3    0    0 -0.44309029194E+02  0.79851046087E+01 -0.25632460040E+02  0.51808058943E+02  0.00000000000E+00 0.  1.
         22    1    4    4    0    0  0.20506163329E+02 -0.93596336320E+00 -0.10368581998E+02  0.22997527140E+02  0.00000000000E+00 0.  1.
         22    1    4    4    0    0  0.23802865866E+02 -0.70491412455E+01 -0.79138651254E+01  0.26055634265E+02  0.00000000000E+00 0.  1.
<mgrwt>
<rscale>  0 0.90799046E+02</rscale>
<asrwt>0</asrwt>
<pdfrwt beam="2">  1        2 0.11136625E-01 0.90799046E+02</pdfrwt>
<pdfrwt beam="1">  1       -2 0.43804857E-02 0.90799046E+02</pdfrwt>
<totfact> 0.11295805E+05</totfact>
</mgrwt>
</event>
<event>
 7    1  0.3480999E-009  0.9210764E+02  0.7818608E-02  0.1297827E+00
         -2   -1    0    0    0  501 -0.00000000000E+00  0.00000000000E+00  0.87245317736E+01  0.87245321463E+01  0.25500000000E-02 0.  1.
          2   -1    0    0  501    0  0.00000000000E+00 -0.00000000000E+00 -0.24310233749E+03  0.24310233750E+03  0.25500000000E-02 0. -1.
         23    2    1    2    0    0 -0.17763568394E-14  0.00000000000E+00 -0.23437780571E+03  0.25182686965E+03  0.92107635216E+02 0.  0.
    9000005    2    3    3    0    0 -0.14785917625E+02  0.42685317505E+02 -0.10036267564E+03  0.11040298630E+03  0.86886726942E+01 0.  0.
         22    1    3    3    0    0  0.14785917625E+02 -0.42685317505E+02 -0.13401513008E+03  0.14142388334E+03  0.00000000000E+00 0. -1.
         22    1    4    4    0    0 -0.36304306092E+01  0.34881537730E+01 -0.14744074783E+02  0.15579954569E+02  0.00000000000E+00 0.  1.
         22    1    4    4    0    0 -0.11155487016E+02  0.39197163732E+02 -0.85618600854E+02  0.94823031735E+02  0.00000000000E+00 0.  1.
<mgrwt>
<rscale>  0 0.92107635E+02</rscale>
<asrwt>0</asrwt>
<pdfrwt beam="2">  1        2 0.37400354E-01 0.92107635E+02</pdfrwt>
<pdfrwt beam="1">  1       -2 0.13422359E-02 0.92107635E+02</pdfrwt>
<totfact> 0.16166642E+05</totfact>
</mgrwt>
</event>
<event>
 7    1  0.3480999E-009  0.9832764E+02  0.7818608E-02  0.1283852E+00
          2   -1    0    0  501    0  0.00000000000E+00  0.00000000000E+00  0.14548552045E+03  0.14548552047E+03  0.25500000000E-02 0. -1.
         -2   -1    0    0    0  501 -0.00000000000E+00 -0.00000000000E+00 -0.16613896308E+02  0.16613896504E+02  0.25500000000E-02 0.  1.
         23    2    1    2    0    0  0.35527136788E-14  0.00000000000E+00  0.12887162414E+03  0.16209941697E+03  0.98327643493E+02 0.  0.
    9000005    2    3    3    0    0  0.25754621359E+02 -0.15607679358E+02  0.12780034269E+03  0.13196558515E+03  0.13232078279E+02 0.  0.
         22    1    3    3    0    0 -0.25754621359E+02  0.15607679358E+02  0.10712814452E+01  0.30133831821E+02  0.00000000000E+00 0.  1.
         22    1    4    4    0    0  0.22966877279E+02 -0.11810137978E+02  0.12078632173E+03  0.12351636461E+03  0.00000000000E+00 0.  1.
         22    1    4    4    0    0  0.27877440806E+01 -0.37975413800E+01  0.70140209683E+01  0.84492205401E+01  0.00000000000E+00 0.  1.
<mgrwt>
<rscale>  0 0.98327643E+02</rscale>
<asrwt>0</asrwt>
<pdfrwt beam="1">  1        2 0.22382388E-01 0.98327643E+02</pdfrwt>
<pdfrwt beam="2">  1       -2 0.25559840E-02 0.98327643E+02</pdfrwt>
<totfact> 0.11257758E+05</totfact>
</mgrwt>
</event>
<event>
 7    1  0.3480999E-009  0.9109937E+02  0.7818608E-02  0.1300211E+00
         -2   -1    0    0    0  501 -0.00000000000E+00  0.00000000000E+00  0.47297405444E+02  0.47297405513E+02  0.25500000000E-02 0.  1.
          2   -1    0    0  501    0  0.00000000000E+00 -0.00000000000E+00 -0.43866550069E+02  0.43866550144E+02  0.25500000000E-02 0. -1.
         23    2    1    2    0    0  0.00000000000E+00 -0.17763568394E-14  0.34308553745E+01  0.91163955656E+02  0.91099374544E+02 0.  0.
    9000005    2    3    3    0    0 -0.26392284176E+02  0.14333312153E+02  0.35807328212E+02  0.47002518919E+02  0.50075472864E+01 0.  0.
         22    1    3    3    0    0  0.26392284176E+02 -0.14333312153E+02 -0.32376472837E+02  0.44161436737E+02  0.00000000000E+00 0. -1.
         22    1    4    4    0    0 -0.33588181561E+01  0.37904841985E+01  0.49850496666E+01  0.71063457588E+01  0.00000000000E+00 0.  1.
         22    1    4    4    0    0 -0.23033466020E+02  0.10542827955E+02  0.30822278545E+02  0.39896173161E+02  0.00000000000E+00 0.  1.
<mgrwt>
<rscale>  0 0.91099375E+02</rscale>
<asrwt>0</asrwt>
<pdfrwt beam="2">  1        2 0.67487000E-02 0.91099375E+02</pdfrwt>
<pdfrwt beam="1">  1       -2 0.72765239E-02 0.91099375E+02</pdfrwt>
<totfact> 0.97933771E+04</totfact>
</mgrwt>
</event>
<event>
 7    1  0.3480999E-009  0.8997035E+02  0.7818608E-02  0.1302924E+00
          2   -1    0    0  501    0  0.00000000000E+00  0.00000000000E+00  0.47793496661E+03  0.47793496662E+03  0.25500000000E-02 0. -1.
         -2   -1    0    0    0  501 -0.00000000000E+00 -0.00000000000E+00 -0.42341864346E+01  0.42341872024E+01  0.25500000000E-02 0.  1.
         23    2    1    2    0    0  0.71054273576E-14  0.00000000000E+00  0.47370078018E+03  0.48216915382E+03  0.89970349315E+02 0.  0.
    9000005    2    3    3    0    0  0.40733490748E+02  0.68098429758E+01  0.32830040885E+03  0.33101737840E+03  0.92604062554E+01 0.  0.
         22    1    3    3    0    0 -0.40733490748E+02 -0.68098429758E+01  0.14540037133E+03  0.15115177542E+03  0.00000000000E+00 0.  1.
         22    1    4    4    0    0  0.39030535974E+02  0.46541222316E+01  0.31444361409E+03  0.31689088033E+03  0.00000000000E+00 0.  1.
         22    1    4    4    0    0  0.17029547738E+01  0.21557207442E+01  0.13856794758E+02  0.14126498074E+02  0.00000000000E+00 0.  1.
<mgrwt>
<rscale>  0 0.89970349E+02</rscale>
<asrwt>0</asrwt>
<pdfrwt beam="1">  1        2 0.73528486E-01 0.89970349E+02</pdfrwt>
<pdfrwt beam="2">  1       -2 0.65141310E-03 0.89970349E+02</pdfrwt>
<totfact> 0.21993483E+05</totfact>
</mgrwt>
</event>
<event>
 7    1  0.3480999E-009  0.7842027E+02  0.7818608E-02  0.1333595E+00
         -2   -1    0    0    0  501 -0.00000000000E+00  0.00000000000E+00  0.45084890203E+01  0.45084897414E+01  0.25500000000E-02 0.  1.
          2   -1    0    0  501    0  0.00000000000E+00 -0.00000000000E+00 -0.34100883773E+03  0.34100883774E+03  0.25500000000E-02 0. -1.
         23    2    1    2    0    0  0.35527136788E-14 -0.17763568394E-14 -0.33650034871E+03  0.34551732749E+03  0.78420271027E+02 0.  0.
    9000005    2    3    3    0    0  0.23373964625E+02 -0.98830698615E+01 -0.29952021285E+03  0.30066704610E+03  0.66556299459E+01 0.  0.
         22    1    3    3    0    0 -0.23373964625E+02  0.98830698615E+01 -0.36980135863E+02  0.44850281388E+02  0.00000000000E+00 0.  1.
         22    1    4    4    0    0  0.12412098949E+02 -0.56684941984E+01 -0.12248437357E+03  0.12324209425E+03  0.00000000000E+00 0. -1.
         22    1    4    4    0    0  0.10961865676E+02 -0.42145756631E+01 -0.17703583928E+03  0.17742495184E+03  0.00000000000E+00 0. -1.
<mgrwt>
<rscale>  0 0.78420271E+02</rscale>
<asrwt>0</asrwt>
<pdfrwt beam="2">  1        2 0.52462878E-01 0.78420271E+02</pdfrwt>
<pdfrwt beam="1">  1       -2 0.69361402E-03 0.78420271E+02</pdfrwt>
<totfact> 0.28043074E+05</totfact>
</mgrwt>
</event>
<event>
 7    1  0.3480999E-009  0.8874742E+02  0.7818608E-02  0.1305914E+00
         -2   -1    0    0    0  501 -0.00000000000E+00  0.00000000000E+00  0.43806540929E+01  0.43806548351E+01  0.25500000000E-02 0.  1.
          2   -1    0    0  501    0  0.00000000000E+00 -0.00000000000E+00 -0.44948222416E+03  0.44948222417E+03  0.25500000000E-02 0. -1.
         23    2    1    2    0    0  0.00000000000E+00  0.00000000000E+00 -0.44510157007E+03  0.45386287900E+03  0.88747423963E+02 0.  0.
    9000005    2    3    3    0    0  0.27876391891E+02  0.28354558759E+02 -0.31852905274E+03  0.32119156948E+03  0.11054077966E+02 0.  0.
         22    1    3    3    0    0 -0.27876391891E+02 -0.28354558759E+02 -0.12657251733E+03  0.13267130952E+03  0.00000000000E+00 0.  1.
         22    1    4    4    0    0  0.15567082189E+02  0.20139354854E+02 -0.16513515507E+03  0.16708544851E+03  0.00000000000E+00 0.  1.
         22    1    4    4    0    0  0.12309309703E+02  0.82152039056E+01 -0.15339389766E+03  0.15410612097E+03  0.00000000000E+00 0.  1.
<mgrwt>
<rscale>  0 0.88747424E+02</rscale>
<asrwt>0</asrwt>
<pdfrwt beam="2">  1        2 0.69151075E-01 0.88747424E+02</pdfrwt>
<pdfrwt beam="1">  1       -2 0.67394720E-03 0.88747424E+02</pdfrwt>
<totfact> 0.22335976E+05</totfact>
</mgrwt>
</event>
<event>
 7    1  0.3480999E-009  0.8855260E+02  0.7818608E-02  0.1306395E+00
          2   -1    0    0  501    0  0.00000000000E+00  0.00000000000E+00  0.38428851234E+02  0.38428851319E+02  0.25500000000E-02 0. -1.
         -2   -1    0    0    0  501 -0.00000000000E+00 -0.00000000000E+00 -0.51013511581E+02  0.51013511645E+02  0.25500000000E-02 0.  1.
         23    2    1    2    0    0  0.00000000000E+00  0.00000000000E+00 -0.12584660347E+02  0.89442362964E+02  0.88552598022E+02 0.  0.
    9000005    2    3    3    0    0 -0.40563328794E+02  0.16175819588E+02 -0.54950253349E+01  0.45200937729E+02  0.10290222836E+02 0.  0.
         22    1    3    3    0    0  0.40563328794E+02 -0.16175819588E+02 -0.70896350117E+01  0.44241425234E+02  0.00000000000E+00 0.  1.
         22    1    4    4    0    0 -0.20070489773E+02  0.11235203495E+02 -0.70671612283E+01  0.24062400652E+02  0.00000000000E+00 0.  1.
         22    1    4    4    0    0 -0.20492839021E+02  0.49406160930E+01  0.15721358934E+01  0.21138537078E+02  0.00000000000E+00 0.  1.
<mgrwt>
<rscale>  0 0.88552598E+02</rscale>
<asrwt>0</asrwt>
<pdfrwt beam="1">  1        2 0.59121310E-02 0.88552598E+02</pdfrwt>
<pdfrwt beam="2">  1       -2 0.78482326E-02 0.88552598E+02</pdfrwt>
<totfact> 0.10272870E+05</totfact>
</mgrwt>
</event>
<event>
 7    1  0.3480999E-009  0.9118894E+02  0.7818608E-02  0.1299998E+00
          2   -1    0    0  501    0  0.00000000000E+00  0.00000000000E+00  0.34116598804E+03  0.34116598805E+03  0.25500000000E-02 0. -1.
         -2   -1    0    0    0  501 -0.00000000000E+00 -0.00000000000E+00 -0.60933843142E+01  0.60933848478E+01  0.25500000000E-02 0.  1.
         23    2    1    2    0    0  0.00000000000E+00  0.00000000000E+00  0.33507260372E+03  0.34725937289E+03  0.91188937363E+02 0.  0.
    9000005    2    3    3    0    0  0.29457778324E+02  0.28223995322E+02  0.97944951143E+02  0.10664790552E+03  0.10779966648E+02 0.  0.
         22    1    3    3    0    0 -0.29457778324E+02 -0.28223995322E+02  0.23712765258E+03  0.24061146738E+03  0.00000000000E+00 0. -1.
         22    1    4    4    0    0  0.21354565254E+02  0.19018575661E+02  0.79605244806E+02  0.84585570153E+02  0.00000000000E+00 0. -1.
         22    1    4    4    0    0  0.81032130703E+01  0.92054196609E+01  0.18339706337E+02  0.22062335364E+02  0.00000000000E+00 0. -1.
<mgrwt>
<rscale>  0 0.91188937E+02</rscale>
<asrwt>0</asrwt>
<pdfrwt beam="1">  1        2 0.52487081E-01 0.91188937E+02</pdfrwt>
<pdfrwt beam="2">  1       -2 0.93744369E-03 0.91188937E+02</pdfrwt>
<totfact> 0.18835547E+05</totfact>
</mgrwt>
</event>
<event>
 7    1  0.3480999E-009  0.9123789E+02  0.7818608E-02  0.1299881E+00
          2   -1    0    0  501    0  0.00000000000E+00  0.00000000000E+00  0.45490763765E+03  0.45490763765E+03  0.25500000000E-02 0. -1.
         -2   -1    0    0    0  501 -0.00000000000E+00 -0.00000000000E+00 -0.45747486649E+01  0.45747493756E+01  0.25500000000E-02 0.  1.
         23    2    1    2    0    0 -0.35527136788E-14  0.35527136788E-14  0.45033288898E+03  0.45948238703E+03  0.91237892849E+02 0.  0.
    9000005    2    3    3    0    0  0.28209748325E+02 -0.17362137028E+02  0.38281150409E+03  0.38427353702E+03  0.49264473739E+01 0.  0.
         22    1    3    3    0    0 -0.28209748325E+02  0.17362137028E+02  0.67521384889E+02  0.75208850012E+02  0.00000000000E+00 0.  1.
         22    1    4    4    0    0  0.10503715733E+02 -0.39469223003E+01  0.13896114748E+03  0.13941343819E+03  0.00000000000E+00 0. -1.
         22    1    4    4    0    0  0.17706032591E+02 -0.13415214728E+02  0.24385035661E+03  0.24486009883E+03  0.00000000000E+00 0. -1.
<mgrwt>
<rscale>  0 0.91237893E+02</rscale>
<asrwt>0</asrwt>
<pdfrwt beam="1">  1        2 0.69985804E-01 0.91237893E+02</pdfrwt>
<pdfrwt beam="2">  1       -2 0.70380740E-03 0.91237893E+02</pdfrwt>
<totfact> 0.20844292E+05</totfact>
</mgrwt>
</event>
<event>
 7    1  0.3480999E-009  0.9092574E+02  0.7818608E-02  0.1300625E+00
         -2   -1    0    0    0  501 -0.00000000000E+00  0.00000000000E+00  0.14837397227E+03  0.14837397230E+03  0.25500000000E-02 0.  1.
          2   -1    0    0  501    0  0.00000000000E+00 -0.00000000000E+00 -0.13930156993E+02  0.13930157227E+02  0.25500000000E-02 0. -1.
         23    2    1    2    0    0 -0.35527136788E-14  0.00000000000E+00  0.13444381528E+03  0.16230412952E+03  0.90925744390E+02 0.  0.
    9000005    2    3    3    0    0 -0.21768347951E+02  0.35833472517E+02  0.98137513571E+02  0.10684201390E+03  0.51328003966E+01 0.  0.
         22    1    3    3    0    0  0.21768347951E+02 -0.35833472517E+02  0.36306301710E+02  0.55462115620E+02  0.00000000000E+00 0. -1.
         22    1    4    4    0    0 -0.16795932729E+02  0.25747960574E+02  0.76768957846E+02  0.82695427435E+02  0.00000000000E+00 0.  1.
         22    1    4    4    0    0 -0.49724152225E+01  0.10085511943E+02  0.21368555725E+02  0.24146586468E+02  0.00000000000E+00 0.  1.
<mgrwt>
<rscale>  0 0.90925744E+02</rscale>
<asrwt>0</asrwt>
<pdfrwt beam="2">  1        2 0.21431011E-02 0.90925744E+02</pdfrwt>
<pdfrwt beam="1">  1       -2 0.22826765E-01 0.90925744E+02</pdfrwt>
<totfact> 0.70624717E+04</totfact>
</mgrwt>
</event>
<event>
 7    1  0.3480999E-009  0.9068159E+02  0.7818608E-02  0.1301209E+00
          2   -1    0    0  501    0  0.00000000000E+00  0.00000000000E+00  0.20433136367E+02  0.20433136527E+02  0.25500000000E-02 0. -1.
         -2   -1    0    0    0  501 -0.00000000000E+00 -0.00000000000E+00 -0.10061047522E+03  0.10061047526E+03  0.25500000000E-02 0.  1.
         23    2    1    2    0    0 -0.17763568394E-14  0.00000000000E+00 -0.80177338856E+02  0.12104361178E+03  0.90681587366E+02 0.  0.
    9000005    2    3    3    0    0 -0.15770633317E+02  0.18142077983E+02 -0.90484049843E+02  0.94888762133E+02  0.15448819838E+02 0.  0.
         22    1    3    3    0    0  0.15770633317E+02 -0.18142077983E+02  0.10306710988E+02  0.26154849649E+02  0.00000000000E+00 0. -1.
         22    1    4    4    0    0 -0.16170754717E+02  0.11639753299E+02 -0.48993613161E+02  0.52889992395E+02  0.00000000000E+00 0. -1.
         22    1    4    4    0    0  0.40012140037E+00  0.65023246835E+01 -0.41490436682E+02  0.41998769738E+02  0.00000000000E+00 0. -1.
<mgrwt>
<rscale>  0 0.90681587E+02</rscale>
<asrwt>0</asrwt>
<pdfrwt beam="1">  1        2 0.31435595E-02 0.90681587E+02</pdfrwt>
<pdfrwt beam="2">  1       -2 0.15478534E-01 0.90681587E+02</pdfrwt>
<totfact> 0.80748175E+04</totfact>
</mgrwt>
</event>
<event>
 7    1  0.3480999E-009  0.9208372E+02  0.7818608E-02  0.1297883E+00
         -2   -1    0    0    0  501 -0.00000000000E+00  0.00000000000E+00  0.11965176980E+02  0.11965177252E+02  0.25500000000E-02 0.  1.
          2   -1    0    0  501    0  0.00000000000E+00 -0.00000000000E+00 -0.17716852116E+03  0.17716852118E+03  0.25500000000E-02 0. -1.
         23    2    1    2    0    0  0.00000000000E+00  0.35527136788E-14 -0.16520334418E+03  0.18913369843E+03  0.92083717095E+02 0.  0.
    9000005    2    3    3    0    0  0.11273397788E+02  0.25071249806E+02 -0.15775759167E+03  0.16065394606E+03  0.12906416718E+02 0.  0.
         22    1    3    3    0    0 -0.11273397788E+02 -0.25071249806E+02 -0.74457525149E+01  0.28479752370E+02  0.00000000000E+00 0.  1.
         22    1    4    4    0    0  0.12319157261E+02  0.25943373044E+02 -0.15404894891E+03  0.15670321918E+03  0.00000000000E+00 0.  1.
         22    1    4    4    0    0 -0.10457594738E+01 -0.87212323802E+00 -0.37086427602E+01  0.39507268879E+01  0.00000000000E+00 0.  1.
<mgrwt>
<rscale>  0 0.92083717E+02</rscale>
<asrwt>0</asrwt>
<pdfrwt beam="2">  1        2 0.27256694E-01 0.92083717E+02</pdfrwt>
<pdfrwt beam="1">  1       -2 0.18407966E-02 0.92083717E+02</pdfrwt>
<totfact> 0.14419938E+05</totfact>
</mgrwt>
</event>
<event>
 7    1  0.3480999E-009  0.9252056E+02  0.7818608E-02  0.1296860E+00
         -2   -1    0    0    0  501 -0.00000000000E+00  0.00000000000E+00  0.24442385199E+01  0.24442398501E+01  0.25500000000E-02 0.  1.
          2   -1    0    0  501    0  0.00000000000E+00 -0.00000000000E+00 -0.87553361564E+03  0.87553361565E+03  0.25500000000E-02 0. -1.
         23    2    1    2    0    0  0.00000000000E+00  0.00000000000E+00 -0.87308937712E+03  0.87797785550E+03  0.92520561485E+02 0.  0.
    9000005    2    3    3    0    0 -0.30097031259E+02 -0.10617538385E+02 -0.75242065212E+03  0.75315996974E+03  0.97231097803E+01 0.  0.
         22    1    3    3    0    0  0.30097031259E+02  0.10617538385E+02 -0.12066872500E+03  0.12481788576E+03  0.00000000000E+00 0.  1.
         22    1    4    4    0    0 -0.43547040294E+01 -0.91807924540E+00 -0.20525135786E+03  0.20529960112E+03  0.00000000000E+00 0. -1.
         22    1    4    4    0    0 -0.25742327230E+02 -0.96994591393E+01 -0.54716929426E+03  0.54786036862E+03  0.00000000000E+00 0. -1.
<mgrwt>
<rscale>  0 0.92520561E+02</rscale>
<asrwt>0</asrwt>
<pdfrwt beam="2">  1        2 0.13469723E+00 0.92520561E+02</pdfrwt>
<pdfrwt beam="1">  1       -2 0.37603750E-03 0.92520561E+02</pdfrwt>
<totfact> 0.23776984E+05</totfact>
</mgrwt>
</event>
<event>
 7    1  0.3480999E-009  0.9216127E+02  0.7818608E-02  0.1297701E+00
          2   -1    0    0  501    0  0.00000000000E+00  0.00000000000E+00  0.23521929044E+03  0.23521929045E+03  0.25500000000E-02 0. -1.
         -2   -1    0    0    0  501 -0.00000000000E+00 -0.00000000000E+00 -0.90274264478E+01  0.90274268080E+01  0.25500000000E-02 0.  1.
         23    2    1    2    0    0  0.00000000000E+00  0.00000000000E+00  0.22619186399E+03  0.24424671726E+03  0.92161269288E+02 0.  0.
    9000005    2    3    3    0    0 -0.42781831252E+02 -0.15234575680E+02  0.12801050923E+03  0.13607113866E+03  0.81416781666E+01 0.  0.
         22    1    3    3    0    0  0.42781831252E+02  0.15234575680E+02  0.98181354762E+02  0.10817557859E+03  0.00000000000E+00 0.  1.
         22    1    4    4    0    0 -0.22338478674E+02 -0.40606854844E+01  0.57982044074E+02  0.62268886541E+02  0.00000000000E+00 0. -1.
         22    1    4    4    0    0 -0.20443352577E+02 -0.11173890196E+02  0.70028465154E+02  0.73802252123E+02  0.00000000000E+00 0. -1.
<mgrwt>
<rscale>  0 0.92161269E+02</rscale>
<asrwt>0</asrwt>
<pdfrwt beam="1">  1        2 0.36187584E-01 0.92161269E+02</pdfrwt>
<pdfrwt beam="2">  1       -2 0.13888348E-02 0.92161269E+02</pdfrwt>
<totfact> 0.15945924E+05</totfact>
</mgrwt>
</event>
<event>
 7    1  0.3480999E-009  0.9294577E+02  0.7818608E-02  0.1295871E+00
          2   -1    0    0  501    0  0.00000000000E+00  0.00000000000E+00  0.36661924542E+02  0.36661924630E+02  0.25500000000E-02 0. -1.
         -2   -1    0    0    0  501 -0.00000000000E+00 -0.00000000000E+00 -0.58909317406E+02  0.58909317461E+02  0.25500000000E-02 0.  1.
         23    2    1    2    0    0  0.00000000000E+00  0.71054273576E-14 -0.22247392864E+02  0.95571242092E+02  0.92945768197E+02 0.  0.
    9000005    2    3    3    0    0  0.71890818998E+00 -0.39892754274E+02  0.12865331960E+02  0.42421904211E+02  0.64924970508E+01 0.  0.
         22    1    3    3    0    0 -0.71890818998E+00  0.39892754274E+02 -0.35112724824E+02  0.53149337880E+02  0.00000000000E+00 0.  1.
         22    1    4    4    0    0  0.83773949942E+00 -0.36278349390E+02  0.95685529469E+01  0.37528357910E+02  0.00000000000E+00 0. -1.
         22    1    4    4    0    0 -0.11883130944E+00 -0.36144048839E+01  0.32967790128E+01  0.48935463014E+01  0.00000000000E+00 0. -1.
<mgrwt>
<rscale>  0 0.92945768E+02</rscale>
<asrwt>0</asrwt>
<pdfrwt beam="1">  1        2 0.56402961E-02 0.92945768E+02</pdfrwt>
<pdfrwt beam="2">  1       -2 0.90629720E-02 0.92945768E+02</pdfrwt>
<totfact> 0.88159719E+04</totfact>
</mgrwt>
</event>
<event>
 7    1  0.3480999E-009  0.8827028E+02  0.7818608E-02  0.1307095E+00
          2   -1    0    0  501    0  0.00000000000E+00  0.00000000000E+00  0.81682448605E+02  0.81682448645E+02  0.25500000000E-02 0. -1.
         -2   -1    0    0    0  501 -0.00000000000E+00 -0.00000000000E+00 -0.23847356455E+02  0.23847356591E+02  0.25500000000E-02 0.  1.
         23    2    1    2    0    0  0.00000000000E+00  0.00000000000E+00  0.57835092150E+02  0.10552980524E+03  0.88270277609E+02 0.  0.
    9000005    2    3    3    0    0 -0.35921118748E+01  0.27876153134E+02 -0.99996913914E+01  0.32102691447E+02  0.11857731189E+02 0.  0.
         22    1    3    3    0    0  0.35921118748E+01 -0.27876153134E+02  0.67834783542E+02  0.73427113789E+02  0.00000000000E+00 0. -1.
         22    1    4    4    0    0 -0.26049124577E+01  0.35174016103E+01  0.21360582294E+01  0.48703621796E+01  0.00000000000E+00 0. -1.
         22    1    4    4    0    0 -0.98719941708E+00  0.24358751523E+02 -0.12135749621E+02  0.27232329267E+02  0.00000000000E+00 0. -1.
<mgrwt>
<rscale>  0 0.88270278E+02</rscale>
<asrwt>0</asrwt>
<pdfrwt beam="1">  1        2 0.12566531E-01 0.88270278E+02</pdfrwt>
<pdfrwt beam="2">  1       -2 0.36688240E-02 0.88270278E+02</pdfrwt>
<totfact> 0.12638072E+05</totfact>
</mgrwt>
</event>
<event>
 7    1  0.3480999E-009  0.9885632E+02  0.7818608E-02  0.1282719E+00
          2   -1    0    0  501    0  0.00000000000E+00  0.00000000000E+00  0.88889417750E+03  0.88889417750E+03  0.25500000000E-02 0. -1.
         -2   -1    0    0    0  501 -0.00000000000E+00 -0.00000000000E+00 -0.27485186784E+01  0.27485198613E+01  0.25500000000E-02 0.  1.
         23    2    1    2    0    0  0.00000000000E+00  0.88817841970E-15  0.88614565882E+03  0.89164269737E+03  0.98856315508E+02 0.  0.
    9000005    2    3    3    0    0 -0.27987962972E+02 -0.48342379823E+01  0.80613494443E+03  0.80674033965E+03  0.13028087288E+02 0.  0.
         22    1    3    3    0    0  0.27987962972E+02  0.48342379823E+01  0.80010714389E+02  0.84902357713E+02  0.00000000000E+00 0.  1.
         22    1    4    4    0    0 -0.16378466470E+02 -0.76987556455E+01  0.37102525527E+03  0.37146637136E+03  0.00000000000E+00 0.  1.
         22    1    4    4    0    0 -0.11609496502E+02  0.28645176632E+01  0.43510968917E+03  0.43527396830E+03  0.00000000000E+00 0.  1.
<mgrwt>
<rscale>  0 0.98856316E+02</rscale>
<asrwt>0</asrwt>
<pdfrwt beam="1">  1        2 0.13675298E+00 0.98856316E+02</pdfrwt>
<pdfrwt beam="2">  1       -2 0.42284902E-03 0.98856316E+02</pdfrwt>
<totfact> 0.19991248E+05</totfact>
</mgrwt>
</event>
<event>
 7    1  0.3480999E-009  0.9616768E+02  0.7818608E-02  0.1288568E+00
         -2   -1    0    0    0  501 -0.00000000000E+00  0.00000000000E+00  0.12325390834E+03  0.12325390837E+03  0.25500000000E-02 0.  1.
          2   -1    0    0  501    0  0.00000000000E+00 -0.00000000000E+00 -0.18758478706E+02  0.18758478879E+02  0.25500000000E-02 0. -1.
         23    2    1    2    0    0  0.00000000000E+00  0.00000000000E+00  0.10449542964E+03  0.14201238725E+03  0.96167683330E+02 0.  0.
    9000005    2    3    3    0    0 -0.41396614199E+02  0.20940728135E+02  0.35984891335E+02  0.59272507986E+02  0.81316687442E+01 0.  0.
         22    1    3    3    0    0  0.41396614199E+02 -0.20940728135E+02  0.68510538302E+02  0.82739879263E+02  0.00000000000E+00 0. -1.
         22    1    4    4    0    0 -0.15997012506E+02  0.85940179550E+01  0.92318422601E+01  0.20371265676E+02  0.00000000000E+00 0. -1.
         22    1    4    4    0    0 -0.25399601693E+02  0.12346710180E+02  0.26753049075E+02  0.38901242310E+02  0.00000000000E+00 0. -1.
<mgrwt>
<rscale>  0 0.96167683E+02</rscale>
<asrwt>0</asrwt>
<pdfrwt beam="2">  1        2 0.28859198E-02 0.96167683E+02</pdfrwt>
<pdfrwt beam="1">  1       -2 0.18962140E-01 0.96167683E+02</pdfrwt>
<totfact> 0.65387597E+04</totfact>
</mgrwt>
</event>
<event>
 7    1  0.3480999E-009  0.9256726E+02  0.7818608E-02  0.1296751E+00
          2   -1    0    0  501    0  0.00000000000E+00  0.00000000000E+00  0.57704713380E+02  0.57704713436E+02  0.25500000000E-02 0. -1.
         -2   -1    0    0    0  501 -0.00000000000E+00 -0.00000000000E+00 -0.37123041975E+02  0.37123042062E+02  0.25500000000E-02 0.  1.
         23    2    1    2    0    0  0.00000000000E+00  0.71054273576E-14  0.20581671405E+02  0.94827755498E+02  0.92567262112E+02 0.  0.
    9000005    2    3    3    0    0 -0.10292012076E+02  0.36719063165E+02 -0.15581870798E+02  0.42272861369E+02  0.94860422990E+01 0.  0.
         22    1    3    3    0    0  0.10292012076E+02 -0.36719063165E+02  0.36163542203E+02  0.52554894129E+02  0.00000000000E+00 0. -1.
         22    1    4    4    0    0 -0.10919977140E+02  0.30556097648E+02 -0.15764095712E+02  0.36075306205E+02  0.00000000000E+00 0. -1.
         22    1    4    4    0    0  0.62796506399E+00  0.61629655171E+01  0.18222491444E+00  0.61975551636E+01  0.00000000000E+00 0. -1.
<mgrwt>
<rscale>  0 0.92567262E+02</rscale>
<asrwt>0</asrwt>
<pdfrwt beam="1">  1        2 0.88776483E-02 0.92567262E+02</pdfrwt>
<pdfrwt beam="2">  1       -2 0.57112372E-02 0.92567262E+02</pdfrwt>
<totfact> 0.10056254E+05</totfact>
</mgrwt>
</event>
<event>
 7    1  0.3480999E-009  0.8929447E+02  0.7818608E-02  0.1304569E+00
         -2   -1    0    0    0  501 -0.00000000000E+00  0.00000000000E+00  0.34412125463E+02  0.34412125558E+02  0.25500000000E-02 0. -1.
          2   -1    0    0  501    0  0.00000000000E+00 -0.00000000000E+00 -0.57926544755E+02  0.57926544811E+02  0.25500000000E-02 0.  1.
         23    2    1    2    0    0 -0.71054273576E-14  0.00000000000E+00 -0.23514419292E+02  0.92338670369E+02  0.89294468647E+02 0.  0.
    9000005    2    3    3    0    0  0.33951374712E+02  0.18884155962E+01 -0.41666981129E+02  0.53792886428E+02  0.11293164167E+01 0.  0.
         22    1    3    3    0    0 -0.33951374712E+02 -0.18884155962E+01  0.18152561837E+02  0.38545783940E+02  0.00000000000E+00 0. -1.
         22    1    4    4    0    0  0.20583140387E+01  0.14170905348E+00 -0.21232161233E+01  0.29605379315E+01  0.00000000000E+00 0.  1.
         22    1    4    4    0    0  0.31893060674E+02  0.17467065427E+01 -0.39543765006E+02  0.50832348497E+02  0.00000000000E+00 0.  1.
<mgrwt>
<rscale>  0 0.89294469E+02</rscale>
<asrwt>0</asrwt>
<pdfrwt beam="2">  1        2 0.89117761E-02 0.89294469E+02</pdfrwt>
<pdfrwt beam="1">  1       -2 0.52941732E-02 0.89294469E+02</pdfrwt>
<totfact> 0.11144007E+05</totfact>
</mgrwt>
</event>
<event>
 7    1  0.3480999E-009  0.9167431E+02  0.7818608E-02  0.1298847E+00
         -2   -1    0    0    0  501 -0.00000000000E+00  0.00000000000E+00  0.80584953306E+01  0.80584957341E+01  0.25500000000E-02 0.  1.
          2   -1    0    0  501    0  0.00000000000E+00 -0.00000000000E+00 -0.26072419626E+03  0.26072419627E+03  0.25500000000E-02 0. -1.
         23    2    1    2    0    0  0.00000000000E+00  0.00000000000E+00 -0.25266570093E+03  0.26878269201E+03  0.91674309903E+02 0.  0.
    9000005    2    3    3    0    0 -0.39096639525E+01  0.30364421396E+02 -0.22585926512E+03  0.22809032713E+03  0.86894261931E+01 0.  0.
         22    1    3    3    0    0  0.39096639525E+01 -0.30364421396E+02 -0.26806435807E+02  0.40692364882E+02  0.00000000000E+00 0.  1.
         22    1    4    4    0    0  0.15791727168E+01  0.13643894955E+01 -0.94536375152E+01  0.96812503033E+01  0.00000000000E+00 0.  1.
         22    1    4    4    0    0 -0.54888366693E+01  0.29000031901E+02 -0.21640562761E+03  0.21840907682E+03  0.00000000000E+00 0.  1.
<mgrwt>
<rscale>  0 0.91674310E+02</rscale>
<asrwt>0</asrwt>
<pdfrwt beam="2">  1        2 0.40111408E-01 0.91674310E+02</pdfrwt>
<pdfrwt beam="1">  1       -2 0.12397687E-02 0.91674310E+02</pdfrwt>
<totfact> 0.16803182E+05</totfact>
</mgrwt>
</event>
<event>
 7    1  0.3480999E-009  0.9118149E+02  0.7818608E-02  0.1300016E+00
          2   -1    0    0  501    0  0.00000000000E+00  0.00000000000E+00  0.50023592843E+03  0.50023592844E+03  0.25500000000E-02 0. -1.
         -2   -1    0    0    0  501 -0.00000000000E+00 -0.00000000000E+00 -0.41550709110E+01  0.41550716935E+01  0.25500000000E-02 0.  1.
         23    2    1    2    0    0 -0.17763568394E-14  0.00000000000E+00  0.49608085752E+03  0.50439100013E+03  0.91181488337E+02 0.  0.
    9000005    2    3    3    0    0  0.13779965321E+02  0.52852504879E+01  0.48622272211E+03  0.48664264385E+03  0.13809634329E+02 0.  0.
         22    1    3    3    0    0 -0.13779965321E+02 -0.52852504879E+01  0.98581354130E+01  0.17748356284E+02  0.00000000000E+00 0.  1.
         22    1    4    4    0    0  0.13640170590E+02  0.89427380932E+01  0.42270211488E+03  0.42301667195E+03  0.00000000000E+00 0. -1.
         22    1    4    4    0    0  0.13979473071E+00 -0.36574876053E+01  0.63520607228E+02  0.63625971904E+02  0.00000000000E+00 0. -1.
<mgrwt>
<rscale>  0 0.91181488E+02</rscale>
<asrwt>0</asrwt>
<pdfrwt beam="1">  1        2 0.76959344E-01 0.91181488E+02</pdfrwt>
<pdfrwt beam="2">  1       -2 0.63924198E-03 0.91181488E+02</pdfrwt>
<totfact> 0.21550079E+05</totfact>
</mgrwt>
</event>
<event>
 7    1  0.3480999E-009  0.8838412E+02  0.7818608E-02  0.1306813E+00
          2   -1    0    0  501    0  0.00000000000E+00  0.00000000000E+00  0.49362153193E+02  0.49362153259E+02  0.25500000000E-02 0. -1.
         -2   -1    0    0    0  501 -0.00000000000E+00 -0.00000000000E+00 -0.39563475979E+02  0.39563476061E+02  0.25500000000E-02 0.  1.
         23    2    1    2    0    0  0.00000000000E+00  0.35527136788E-14  0.97986772140E+01  0.88925629320E+02  0.88384124563E+02 0.  0.
    9000005    2    3    3    0    0 -0.37593734389E+02  0.16699328337E+02 -0.92881757192E+01  0.43577372604E+02  0.10980016514E+02 0.  0.
         22    1    3    3    0    0  0.37593734389E+02 -0.16699328337E+02  0.19086852933E+02  0.45348256716E+02  0.00000000000E+00 0. -1.
         22    1    4    4    0    0 -0.15053002304E+02  0.79725069884E+01  0.15165323097E+01  0.17101275283E+02  0.00000000000E+00 0.  1.
         22    1    4    4    0    0 -0.22540732085E+02  0.87268213486E+01 -0.10804708029E+02  0.26476097322E+02  0.00000000000E+00 0.  1.
<mgrwt>
<rscale>  0 0.88384125E+02</rscale>
<asrwt>0</asrwt>
<pdfrwt beam="1">  1        2 0.75941774E-02 0.88384125E+02</pdfrwt>
<pdfrwt beam="2">  1       -2 0.60866886E-02 0.88384125E+02</pdfrwt>
<totfact> 0.11005570E+05</totfact>
</mgrwt>
</event>
<event>
 7    1  0.3480999E-009  0.9304818E+02  0.7818608E-02  0.1295634E+00
          2   -1    0    0  501    0  0.00000000000E+00  0.00000000000E+00  0.71196201786E+02  0.71196201832E+02  0.25500000000E-02 0. -1.
         -2   -1    0    0    0  501 -0.00000000000E+00 -0.00000000000E+00 -0.30401776905E+02  0.30401777012E+02  0.25500000000E-02 0.  1.
         23    2    1    2    0    0  0.00000000000E+00  0.00000000000E+00  0.40794424881E+02  0.10159797884E+03  0.93048182162E+02 0.  0.
    9000005    2    3    3    0    0 -0.16065016210E+02 -0.39728457499E+02  0.39025798368E+02  0.58707850366E+02  0.93361488458E+01 0.  0.
         22    1    3    3    0    0  0.16065016210E+02  0.39728457499E+02  0.17686265134E+01  0.42890128477E+02  0.00000000000E+00 0. -1.
         22    1    4    4    0    0 -0.14759144378E+02 -0.25957396267E+02  0.28991640899E+02  0.41618914039E+02  0.00000000000E+00 0.  1.
         22    1    4    4    0    0 -0.13058718323E+01 -0.13771061232E+02  0.10034157469E+02  0.17088936327E+02  0.00000000000E+00 0.  1.
<mgrwt>
<rscale>  0 0.93048182E+02</rscale>
<asrwt>0</asrwt>
<pdfrwt beam="1">  1        2 0.10953262E-01 0.93048182E+02</pdfrwt>
<pdfrwt beam="2">  1       -2 0.46771965E-02 0.93048182E+02</pdfrwt>
<totfact> 0.10498944E+05</totfact>
</mgrwt>
</event>
<event>
 7    1  0.3480999E-009  0.9203963E+02  0.7818608E-02  0.1297986E+00
          2   -1    0    0  501    0  0.00000000000E+00  0.00000000000E+00  0.68795967360E+02  0.68795967407E+02  0.25500000000E-02 0. -1.
         -2   -1    0    0    0  501 -0.00000000000E+00 -0.00000000000E+00 -0.30784118145E+02  0.30784118250E+02  0.25500000000E-02 0.  1.
         23    2    1    2    0    0  0.00000000000E+00  0.00000000000E+00  0.38011849215E+02  0.99580085658E+02  0.92039626134E+02 0.  0.
    9000005    2    3    3    0    0  0.39785480116E+02 -0.16468071322E+02  0.36383835019E+02  0.56490269792E+02  0.36449045711E+01 0.  0.
         22    1    3    3    0    0 -0.39785480116E+02  0.16468071322E+02  0.16280141962E+01  0.43089815866E+02  0.00000000000E+00 0.  1.
         22    1    4    4    0    0  0.35023667848E+02 -0.15300826857E+02  0.33350220138E+02  0.50724843965E+02  0.00000000000E+00 0.  1.
         22    1    4    4    0    0  0.47618122680E+01 -0.11672444653E+01  0.30336148811E+01  0.57654258268E+01  0.00000000000E+00 0.  1.
<mgrwt>
<rscale>  0 0.92039626E+02</rscale>
<asrwt>0</asrwt>
<pdfrwt beam="1">  1        2 0.10583995E-01 0.92039626E+02</pdfrwt>
<pdfrwt beam="2">  1       -2 0.47360183E-02 0.92039626E+02</pdfrwt>
<totfact> 0.10721975E+05</totfact>
</mgrwt>
</event>
<event>
 7    1  0.3480999E-009  0.8976884E+02  0.7818608E-02  0.1303412E+00
          2   -1    0    0  501    0  0.00000000000E+00  0.00000000000E+00  0.39727477394E+02  0.39727477476E+02  0.25500000000E-02 0. -1.
         -2   -1    0    0    0  501 -0.00000000000E+00 -0.00000000000E+00 -0.50710770904E+02  0.50710770968E+02  0.25500000000E-02 0.  1.
         23    2    1    2    0    0 -0.17763568394E-14  0.00000000000E+00 -0.10983293510E+02  0.90438248444E+02  0.89768836716E+02 0.  0.
    9000005    2    3    3    0    0  0.15634164224E+02  0.10500024930E+01  0.36782126843E+02  0.40168327241E+02  0.38781518841E+01 0.  0.
         22    1    3    3    0    0 -0.15634164224E+02 -0.10500024930E+01 -0.47765420353E+02  0.50269921203E+02  0.00000000000E+00 0.  1.
         22    1    4    4    0    0  0.13251198408E+02 -0.39544483006E+00  0.28565560619E+02  0.31491933719E+02  0.00000000000E+00 0.  1.
         22    1    4    4    0    0  0.23829658164E+01  0.14454473231E+01  0.82165662244E+01  0.86763935230E+01  0.00000000000E+00 0.  1.
<mgrwt>
<rscale>  0 0.89768837E+02</rscale>
<asrwt>0</asrwt>
<pdfrwt beam="1">  1        2 0.61119196E-02 0.89768837E+02</pdfrwt>
<pdfrwt beam="2">  1       -2 0.78016571E-02 0.89768837E+02</pdfrwt>
<totfact> 0.99601876E+04</totfact>
</mgrwt>
</event>
<event>
 7    1  0.3480999E-009  0.9220696E+02  0.7818608E-02  0.1297594E+00
          2   -1    0    0  501    0  0.00000000000E+00  0.00000000000E+00  0.46400350340E+03  0.46400350341E+03  0.25500000000E-02 0. -1.
         -2   -1    0    0    0  501 -0.00000000000E+00 -0.00000000000E+00 -0.45808501897E+01  0.45808508995E+01  0.25500000000E-02 0.  1.
         23    2    1    2    0    0  0.00000000000E+00  0.35527136788E-14  0.45942265321E+03  0.46858435431E+03  0.92206956451E+02 0.  0.
    9000005    2    3    3    0    0  0.33326475381E+02  0.31802537660E+02  0.23148971118E+03  0.23604300008E+03  0.25992578904E+01 0.  0.
         22    1    3    3    0    0 -0.33326475381E+02 -0.31802537660E+02  0.22793294203E+03  0.23254135422E+03  0.00000000000E+00 0. -1.
         22    1    4    4    0    0  0.27768453799E+02  0.25138371120E+02  0.18920206613E+03  0.19287417286E+03  0.00000000000E+00 0.  1.
         22    1    4    4    0    0  0.55580215818E+01  0.66641665409E+01  0.42287645058E+02  0.43168827226E+02  0.00000000000E+00 0.  1.
<mgrwt>
<rscale>  0 0.92206956E+02</rscale>
<asrwt>0</asrwt>
<pdfrwt beam="1">  1        2 0.71385159E-01 0.92206956E+02</pdfrwt>
<pdfrwt beam="2">  1       -2 0.70474620E-03 0.92206956E+02</pdfrwt>
<totfact> 0.20405066E+05</totfact>
</mgrwt>
</event>
<event>
 7    1  0.3480999E-009  0.9354443E+02  0.7818608E-02  0.1294488E+00
         -2   -1    0    0    0  501 -0.00000000000E+00  0.00000000000E+00  0.18067270405E+02  0.18067270584E+02  0.25500000000E-02 0.  1.
          2   -1    0    0  501    0  0.00000000000E+00 -0.00000000000E+00 -0.12108305363E+03  0.12108305365E+03  0.25500000000E-02 0. -1.
         23    2    1    2    0    0  0.00000000000E+00  0.17763568394E-14 -0.10301578322E+03  0.13915032424E+03  0.93544434055E+02 0.  0.
    9000005    2    3    3    0    0 -0.42875360379E+02 -0.82695826073E+01 -0.31295355065E+02  0.55183054787E+02  0.12612999754E+02 0.  0.
         22    1    3    3    0    0  0.42875360379E+02  0.82695826073E+01 -0.71720428157E+02  0.83967269452E+02  0.00000000000E+00 0. -1.
         22    1    4    4    0    0 -0.24186886779E+02 -0.26504646742E+01 -0.24472126032E+02  0.34509642241E+02  0.00000000000E+00 0.  1.
         22    1    4    4    0    0 -0.18688473600E+02 -0.56191179331E+01 -0.68232290327E+01  0.20673412546E+02  0.00000000000E+00 0.  1.
<mgrwt>
<rscale>  0 0.93544434E+02</rscale>
<asrwt>0</asrwt>
<pdfrwt beam="2">  1        2 0.18628162E-01 0.93544434E+02</pdfrwt>
<pdfrwt beam="1">  1       -2 0.27795802E-02 0.93544434E+02</pdfrwt>
<totfact> 0.12140372E+05</totfact>
</mgrwt>
</event>
<event>
 7    1  0.3480999E-009  0.9210751E+02  0.7818608E-02  0.1297827E+00
          2   -1    0    0  501    0  0.00000000000E+00  0.00000000000E+00  0.25031820003E+02  0.25031820133E+02  0.25500000000E-02 0.  1.
         -2   -1    0    0    0  501 -0.00000000000E+00 -0.00000000000E+00 -0.84730089123E+02  0.84730089161E+02  0.25500000000E-02 0. -1.
         23    2    1    2    0    0  0.00000000000E+00  0.00000000000E+00 -0.59698269120E+02  0.10976190929E+03  0.92107509986E+02 0.  0.
    9000005    2    3    3    0    0  0.10645460813E+02 -0.27573788311E+02  0.10293252996E+02  0.33785249681E+02  0.12722122506E+02 0.  0.
         22    1    3    3    0    0 -0.10645460813E+02  0.27573788311E+02 -0.69991522116E+02  0.75976659612E+02  0.00000000000E+00 0. -1.
         22    1    4    4    0    0  0.13232613734E+02 -0.19021312469E+02  0.84345452751E+01  0.24658749933E+02  0.00000000000E+00 0. -1.
         22    1    4    4    0    0 -0.25871529207E+01 -0.85524758417E+01  0.18587077208E+01  0.91264997480E+01  0.00000000000E+00 0. -1.
<mgrwt>
<rscale>  0 0.92107510E+02</rscale>
<asrwt>0</asrwt>
<pdfrwt beam="1">  1        2 0.38510493E-02 0.92107510E+02</pdfrwt>
<pdfrwt beam="2">  1       -2 0.13035398E-01 0.92107510E+02</pdfrwt>
<totfact> 0.81655857E+04</totfact>
</mgrwt>
</event>
<event>
 7    1  0.3480999E-009  0.9281947E+02  0.7818608E-02  0.1296164E+00
          2   -1    0    0  501    0  0.00000000000E+00  0.00000000000E+00  0.90381699663E+01  0.90381703260E+01  0.25500000000E-02 0. -1.
         -2   -1    0    0    0  501 -0.00000000000E+00 -0.00000000000E+00 -0.23830745746E+03  0.23830745747E+03  0.25500000000E-02 0.  1.
         23    2    1    2    0    0 -0.17763568394E-14  0.00000000000E+00 -0.22926928749E+03  0.24734562780E+03  0.92819466728E+02 0.  0.
    9000005    2    3    3    0    0 -0.13482901282E+02  0.93669035882E+01 -0.23020057913E+03  0.23090194166E+03  0.73397901318E+01 0.  0.
         22    1    3    3    0    0  0.13482901282E+02 -0.93669035882E+01  0.93129163792E+00  0.16443686141E+02  0.00000000000E+00 0. -1.
         22    1    4    4    0    0 -0.13857930527E+02  0.93521012163E+01 -0.22949149902E+03  0.23009965701E+03  0.00000000000E+00 0.  1.
         22    1    4    4    0    0  0.37502924546E+00  0.14802371902E-01 -0.70908011205E+00  0.80228464429E+00  0.00000000000E+00 0.  1.
<mgrwt>
<rscale>  0 0.92819467E+02</rscale>
<asrwt>0</asrwt>
<pdfrwt beam="1">  1        2 0.13904879E-02 0.92819467E+02</pdfrwt>
<pdfrwt beam="2">  1       -2 0.36662681E-01 0.92819467E+02</pdfrwt>
<totfact> 0.54938459E+04</totfact>
</mgrwt>
</event>
<event>
 7    1  0.3480999E-009  0.8403843E+02  0.7818608E-02  0.1317966E+00
          2   -1    0    0  501    0  0.00000000000E+00  0.00000000000E+00  0.44261973608E+03  0.44261973609E+03  0.25500000000E-02 0. -1.
         -2   -1    0    0    0  501 -0.00000000000E+00 -0.00000000000E+00 -0.39890096626E+01  0.39890104777E+01  0.25500000000E-02 0.  1.
         23    2    1    2    0    0  0.00000000000E+00  0.00000000000E+00  0.43863072642E+03  0.44660874657E+03  0.84038433773E+02 0.  0.
    9000005    2    3    3    0    0  0.30487142065E+01  0.34247667996E+02  0.34367794932E+03  0.34562247374E+03  0.12576330190E+02 0.  0.
         22    1    3    3    0    0 -0.30487142065E+01 -0.34247667996E+02  0.94952777100E+02  0.10098627283E+03  0.00000000000E+00 0.  1.
         22    1    4    4    0    0 -0.30760506732E+01  0.57059360485E+01  0.98451842726E+02  0.98665014722E+02  0.00000000000E+00 0. -1.
         22    1    4    4    0    0  0.61247648798E+01  0.28541731947E+02  0.24522610660E+03  0.24695745902E+03  0.00000000000E+00 0. -1.
<mgrwt>
<rscale>  0 0.84038434E+02</rscale>
<asrwt>0</asrwt>
<pdfrwt beam="1">  1        2 0.68095318E-01 0.84038434E+02</pdfrwt>
<pdfrwt beam="2">  1       -2 0.61369409E-03 0.84038434E+02</pdfrwt>
<totfact> 0.25650988E+05</totfact>
</mgrwt>
</event>
<event>
 7    1  0.3765183E-009  0.9164703E+02  0.7818608E-02  0.1298911E+00
         -2   -1    0    0    0  501 -0.00000000000E+00  0.00000000000E+00  0.14171251785E+02  0.14171252015E+02  0.25500000000E-02 0. -1.
          2   -1    0    0  501    0  0.00000000000E+00 -0.00000000000E+00 -0.14817282502E+03  0.14817282504E+03  0.25500000000E-02 0.  1.
         23    2    1    2    0    0  0.00000000000E+00  0.00000000000E+00 -0.13400157324E+03  0.16234407706E+03  0.91647027917E+02 0.  0.
    9000005    2    3    3    0    0  0.26758388906E+01 -0.26941385568E+02 -0.54268395639E+01  0.30949783008E+02  0.13979989646E+02 0.  0.
         22    1    3    3    0    0 -0.26758388906E+01  0.26941385568E+02 -0.12857473367E+03  0.13139429405E+03  0.00000000000E+00 0.  1.
         22    1    4    4    0    0 -0.13042032110E+01 -0.21437470155E+02 -0.89864389972E+01  0.23281369343E+02  0.00000000000E+00 0.  1.
         22    1    4    4    0    0  0.39800421016E+01 -0.55039154134E+01  0.35595994333E+01  0.76684136648E+01  0.00000000000E+00 0.  1.
<mgrwt>
<rscale>  0 0.91647028E+02</rscale>
<asrwt>0</asrwt>
<pdfrwt beam="2">  1        2 0.22795818E-01 0.91647028E+02</pdfrwt>
<pdfrwt beam="1">  1       -2 0.21801927E-02 0.91647028E+02</pdfrwt>
<totfact> 0.13729562E+05</totfact>
</mgrwt>
</event>
<event>
 7    1  0.3480999E-009  0.9024215E+02  0.7818608E-02  0.1302266E+00
         -2   -1    0    0    0  501 -0.00000000000E+00  0.00000000000E+00  0.35864061192E+02  0.35864061282E+02  0.25500000000E-02 0.  1.
          2   -1    0    0  501    0  0.00000000000E+00 -0.00000000000E+00 -0.56767456774E+02  0.56767456831E+02  0.25500000000E-02 0. -1.
         23    2    1    2    0    0 -0.17763568394E-14 -0.71054273576E-14 -0.20903395582E+02  0.92631518113E+02  0.90242153128E+02 0.  0.
    9000005    2    3    3    0    0  0.87873370662E+01  0.38166933316E+02 -0.33420394347E+02  0.51514522241E+02  0.17003387566E+01 0.  0.
         22    1    3    3    0    0 -0.87873370662E+01 -0.38166933316E+02  0.12516998765E+02  0.41116995872E+02  0.00000000000E+00 0.  1.
         22    1    4    4    0    0  0.37891670885E+01  0.13290765997E+02 -0.11269441250E+02  0.17832626113E+02  0.00000000000E+00 0. -1.
         22    1    4    4    0    0  0.49981699777E+01  0.24876167320E+02 -0.22150953097E+02  0.33681896128E+02  0.00000000000E+00 0. -1.
<mgrwt>
<rscale>  0 0.90242153E+02</rscale>
<asrwt>0</asrwt>
<pdfrwt beam="2">  1        2 0.87334549E-02 0.90242153E+02</pdfrwt>
<pdfrwt beam="1">  1       -2 0.55175479E-02 0.90242153E+02</pdfrwt>
<totfact> 0.10759974E+05</totfact>
</mgrwt>
</event>
<event>
 7    1  0.3480999E-009  0.8820577E+02  0.7818608E-02  0.1307256E+00
          2   -1    0    0  501    0  0.00000000000E+00  0.00000000000E+00  0.12199832026E+03  0.12199832028E+03  0.25500000000E-02 0.  1.
         -2   -1    0    0    0  501 -0.00000000000E+00 -0.00000000000E+00 -0.15943371814E+02  0.15943372018E+02  0.25500000000E-02 0. -1.
         23    2    1    2    0    0 -0.71054273576E-14  0.17763568394E-14  0.10605494844E+03  0.13794169230E+03  0.88205772973E+02 0.  0.
    9000005    2    3    3    0    0  0.36446028779E+02 -0.11160394689E+02  0.20009465943E+02  0.43831690272E+02  0.82444479144E+01 0.  0.
         22    1    3    3    0    0 -0.36446028779E+02  0.11160394689E+02  0.86045482500E+02  0.94110002030E+02  0.00000000000E+00 0.  1.
         22    1    4    4    0    0  0.15168305737E+02 -0.62697567486E+01  0.43986578802E+01  0.16992219978E+02  0.00000000000E+00 0.  1.
         22    1    4    4    0    0  0.21277723042E+02 -0.48906379403E+01  0.15610808063E+02  0.26839470294E+02  0.00000000000E+00 0.  1.
<mgrwt>
<rscale>  0 0.88205773E+02</rscale>
<asrwt>0</asrwt>
<pdfrwt beam="1">  1        2 0.18768972E-01 0.88205773E+02</pdfrwt>
<pdfrwt beam="2">  1       -2 0.24528265E-02 0.88205773E+02</pdfrwt>
<totfact> 0.14288454E+05</totfact>
</mgrwt>
</event>
<event>
 7    1  0.3480999E-009  0.9280816E+02  0.7818608E-02  0.1296190E+00
          2   -1    0    0  501    0  0.00000000000E+00  0.00000000000E+00  0.12727655386E+03  0.12727655389E+03  0.25500000000E-02 0.  1.
         -2   -1    0    0    0  501 -0.00000000000E+00 -0.00000000000E+00 -0.16918578831E+02  0.16918579023E+02  0.25500000000E-02 0. -1.
         23    2    1    2    0    0 -0.88817841970E-15  0.00000000000E+00  0.11035797503E+03  0.14419513291E+03  0.92808155363E+02 0.  0.
    9000005    2    3    3    0    0  0.53471966884E+01 -0.39421730001E+02  0.18741023077E+02  0.44313547050E+02  0.54588641185E+01 0.  0.
         22    1    3    3    0    0 -0.53471966884E+01  0.39421730001E+02  0.91616951953E+02  0.99881585859E+02  0.00000000000E+00 0.  1.
         22    1    4    4    0    0  0.33721752093E+01 -0.95654390178E+01  0.60665478748E+01  0.11818299047E+02  0.00000000000E+00 0.  1.
         22    1    4    4    0    0  0.19750214791E+01 -0.29856290983E+02  0.12674475202E+02  0.32495248003E+02  0.00000000000E+00 0.  1.
<mgrwt>
<rscale>  0 0.92808155E+02</rscale>
<asrwt>0</asrwt>
<pdfrwt beam="1">  1        2 0.19581009E-01 0.92808155E+02</pdfrwt>
<pdfrwt beam="2">  1       -2 0.26028582E-02 0.92808155E+02</pdfrwt>
<totfact> 0.12609616E+05</totfact>
</mgrwt>
</event>
<event>
 7    1  0.3480999E-009  0.9135741E+02  0.7818608E-02  0.1299597E+00
         -2   -1    0    0    0  501 -0.00000000000E+00  0.00000000000E+00  0.87341196753E+02  0.87341196790E+02  0.25500000000E-02 0.  1.
          2   -1    0    0  501    0  0.00000000000E+00 -0.00000000000E+00 -0.23889576090E+02  0.23889576226E+02  0.25500000000E-02 0. -1.
         23    2    1    2    0    0  0.00000000000E+00 -0.88817841970E-15  0.63451620663E+02  0.11123077302E+03  0.91357411857E+02 0.  0.
    9000005    2    3    3    0    0 -0.37555670645E+02  0.37692490049E+01  0.61899926545E+02  0.73454545171E+02  0.11803968160E+02 0.  0.
         22    1    3    3    0    0  0.37555670645E+02 -0.37692490049E+01  0.15516941175E+01  0.37776227846E+02  0.00000000000E+00 0. -1.
         22    1    4    4    0    0 -0.36791057719E+02  0.21345871710E+01  0.61350163347E+02  0.71568016133E+02  0.00000000000E+00 0.  1.
         22    1    4    4    0    0 -0.76461292536E+00  0.16346618340E+01  0.54976319842E+00  0.18865290380E+01  0.00000000000E+00 0.  1.
<mgrwt>
<rscale>  0 0.91357412E+02</rscale>
<asrwt>0</asrwt>
<pdfrwt beam="2">  1        2 0.36753194E-02 0.91357412E+02</pdfrwt>
<pdfrwt beam="1">  1       -2 0.13437107E-01 0.91357412E+02</pdfrwt>
<totfact> 0.82607298E+04</totfact>
</mgrwt>
</event>
<event>
 7    1  0.3480999E-009  0.8333186E+02  0.7818608E-02  0.1319853E+00
         -2   -1    0    0    0  501 -0.00000000000E+00  0.00000000000E+00  0.49542846297E+02  0.49542846362E+02  0.25500000000E-02 0. -1.
          2   -1    0    0  501    0  0.00000000000E+00 -0.00000000000E+00 -0.35041379860E+02  0.35041379953E+02  0.25500000000E-02 0.  1.
         23    2    1    2    0    0  0.00000000000E+00  0.00000000000E+00  0.14501466437E+02  0.84584226315E+02  0.83331859529E+02 0.  0.
    9000005    2    3    3    0    0  0.18207069035E+02 -0.33316780611E+02  0.21466578011E+02  0.45983474866E+02  0.14565739121E+02 0.  0.
         22    1    3    3    0    0 -0.18207069035E+02  0.33316780611E+02 -0.69651115740E+01  0.38600751448E+02  0.00000000000E+00 0.  1.
         22    1    4    4    0    0  0.18440878319E+02 -0.19488171683E+02  0.14491562569E+02  0.30493609402E+02  0.00000000000E+00 0. -1.
         22    1    4    4    0    0 -0.23380928348E+00 -0.13828608928E+02  0.69750154421E+01  0.15489865464E+02  0.00000000000E+00 0. -1.
<mgrwt>
<rscale>  0 0.83331860E+02</rscale>
<asrwt>0</asrwt>
<pdfrwt beam="2">  1        2 0.53909815E-02 0.83331860E+02</pdfrwt>
<pdfrwt beam="1">  1       -2 0.76219764E-02 0.83331860E+02</pdfrwt>
<totfact> 0.11959323E+05</totfact>
</mgrwt>
</event>
<event>
 7    1  0.3480999E-009  0.9137995E+02  0.7818608E-02  0.1299544E+00
         -2   -1    0    0    0  501 -0.00000000000E+00  0.00000000000E+00  0.17069387784E+01  0.17069406831E+01  0.25500000000E-02 0.  1.
          2   -1    0    0  501    0  0.00000000000E+00 -0.00000000000E+00 -0.12229921985E+04  0.12229921985E+04  0.25500000000E-02 0. -1.
         23    2    1    2    0    0  0.00000000000E+00  0.35527136788E-14 -0.12212852597E+04  0.12246991392E+04  0.91379953541E+02 0.  0.
    9000005    2    3    3    0    0  0.94028299156E+01 -0.29513064935E+02 -0.10592867945E+04  0.10597660104E+04  0.74866376968E+01 0.  0.
         22    1    3    3    0    0 -0.94028299156E+01  0.29513064935E+02 -0.16199846524E+03  0.16493312873E+03  0.00000000000E+00 0.  1.
         22    1    4    4    0    0  0.46492604845E+01 -0.59691363687E+01 -0.19841523293E+03  0.19855943913E+03  0.00000000000E+00 0.  1.
         22    1    4    4    0    0  0.47535694311E+01 -0.23543928566E+02 -0.86087156155E+03  0.86120657131E+03  0.00000000000E+00 0.  1.
<mgrwt>
<rscale>  0 0.91379954E+02</rscale>
<asrwt>0</asrwt>
<pdfrwt beam="2">  1        2 0.18815195E+00 0.91379954E+02</pdfrwt>
<pdfrwt beam="1">  1       -2 0.26260709E-03 0.91379954E+02</pdfrwt>
<totfact> 0.24667210E+05</totfact>
</mgrwt>
</event>
<event>
 7    1  0.3480999E-009  0.9137296E+02  0.7818608E-02  0.1299561E+00
          2   -1    0    0  501    0  0.00000000000E+00  0.00000000000E+00  0.11804291185E+03  0.11804291188E+03  0.25500000000E-02 0. -1.
         -2   -1    0    0    0  501 -0.00000000000E+00 -0.00000000000E+00 -0.17682164999E+02  0.17682165183E+02  0.25500000000E-02 0.  1.
         23    2    1    2    0    0  0.00000000000E+00  0.00000000000E+00  0.10036074686E+03  0.13572507706E+03  0.91372955708E+02 0.  0.
    9000005    2    3    3    0    0 -0.40198724535E+02  0.28111221745E+01  0.81130344138E+02  0.91074788702E+02  0.94151226805E+01 0.  0.
         22    1    3    3    0    0  0.40198724535E+02 -0.28111221745E+01  0.19230402718E+02  0.44650288362E+02  0.00000000000E+00 0.  1.
         22    1    4    4    0    0 -0.44435213097E+01 -0.21470426120E+01  0.63888009150E+01  0.80728836694E+01  0.00000000000E+00 0.  1.
         22    1    4    4    0    0 -0.35755203226E+02  0.49581647866E+01  0.74741543223E+02  0.83001905033E+02  0.00000000000E+00 0.  1.
<mgrwt>
<rscale>  0 0.91372956E+02</rscale>
<asrwt>0</asrwt>
<pdfrwt beam="1">  1        2 0.18160448E-01 0.91372956E+02</pdfrwt>
<pdfrwt beam="2">  1       -2 0.27203331E-02 0.91372956E+02</pdfrwt>
<totfact> 0.12842580E+05</totfact>
</mgrwt>
</event>
<event>
 7    1  0.3480999E-009  0.9884085E+02  0.7818608E-02  0.1282753E+00
         -2   -1    0    0    0  501 -0.00000000000E+00  0.00000000000E+00  0.16922048082E+03  0.16922048084E+03  0.25500000000E-02 0.  1.
          2   -1    0    0  501    0  0.00000000000E+00 -0.00000000000E+00 -0.14433112440E+02  0.14433112665E+02  0.25500000000E-02 0. -1.
         23    2    1    2    0    0  0.71054273576E-14  0.00000000000E+00  0.15478736838E+03  0.18365359350E+03  0.98840846804E+02 0.  0.
    9000005    2    3    3    0    0  0.35229051412E+02 -0.33468628120E+02  0.79123394836E+02  0.93729892378E+02  0.12788509815E+02 0.  0.
         22    1    3    3    0    0 -0.35229051412E+02  0.33468628120E+02  0.75663973544E+02  0.89923701125E+02  0.00000000000E+00 0. -1.
         22    1    4    4    0    0  0.28140190174E+02 -0.20311054365E+02  0.61555908950E+02  0.70664978307E+02  0.00000000000E+00 0. -1.
         22    1    4    4    0    0  0.70888612378E+01 -0.13157573755E+02  0.17567485886E+02  0.23064914072E+02  0.00000000000E+00 0. -1.
<mgrwt>
<rscale>  0 0.98840847E+02</rscale>
<asrwt>0</asrwt>
<pdfrwt beam="2">  1        2 0.22204787E-02 0.98840847E+02</pdfrwt>
<pdfrwt beam="1">  1       -2 0.26033921E-01 0.98840847E+02</pdfrwt>
<totfact> 0.54359333E+04</totfact>
</mgrwt>
</event>
<event>
 7    1  0.3480999E-009  0.9057158E+02  0.7818608E-02  0.1301473E+00
         -2   -1    0    0    0  501 -0.00000000000E+00  0.00000000000E+00  0.43144525888E+01  0.43144533424E+01  0.25500000000E-02 0. -1.
          2   -1    0    0  501    0  0.00000000000E+00 -0.00000000000E+00 -0.47533322845E+03  0.47533322846E+03  0.25500000000E-02 0.  1.
         23    2    1    2    0    0  0.00000000000E+00  0.00000000000E+00 -0.47101877586E+03  0.47964768180E+03  0.90571581865E+02 0.  0.
    9000005    2    3    3    0    0 -0.40365696306E+02 -0.18728433174E+02 -0.22518973223E+03  0.22982361903E+03  0.11328579495E+02 0.  0.
         22    1    3    3    0    0  0.40365696306E+02  0.18728433174E+02 -0.24582904363E+03  0.24982406277E+03  0.00000000000E+00 0.  1.
         22    1    4    4    0    0  0.34508299988E+00  0.62304224041E+00 -0.18905863086E+01  0.20202921819E+01  0.00000000000E+00 0.  1.
         22    1    4    4    0    0 -0.40710779306E+02 -0.19351475415E+02 -0.22329914592E+03  0.22780332684E+03  0.00000000000E+00 0.  1.
<mgrwt>
<rscale>  0 0.90571582E+02</rscale>
<asrwt>0</asrwt>
<pdfrwt beam="2">  1        2 0.73128148E-01 0.90571582E+02</pdfrwt>
<pdfrwt beam="1">  1       -2 0.66376237E-03 0.90571582E+02</pdfrwt>
<totfact> 0.21570250E+05</totfact>
</mgrwt>
</event>
<event>
 7    1  0.3480999E-009  0.8109146E+02  0.7818608E-02  0.1325982E+00
         -2   -1    0    0    0  501 -0.00000000000E+00  0.00000000000E+00  0.19526617589E+02  0.19526617755E+02  0.25500000000E-02 0.  1.
          2   -1    0    0  501    0  0.00000000000E+00 -0.00000000000E+00 -0.84190531934E+02  0.84190531973E+02  0.25500000000E-02 0. -1.
         23    2    1    2    0    0  0.00000000000E+00  0.00000000000E+00 -0.64663914346E+02  0.10371714973E+03  0.81091462739E+02 0.  0.
    9000005    2    3    3    0    0  0.33515234973E+02  0.20736720879E+02 -0.35461544570E+02  0.54665534376E+02  0.13323548223E+02 0.  0.
         22    1    3    3    0    0 -0.33515234973E+02 -0.20736720879E+02 -0.29202369776E+02  0.49051615352E+02  0.00000000000E+00 0. -1.
         22    1    4    4    0    0  0.60269407571E+01 -0.15383015623E+01 -0.51042257717E+01  0.80463350238E+01  0.00000000000E+00 0.  1.
         22    1    4    4    0    0  0.27488294216E+02  0.22275022441E+02 -0.30357318798E+02  0.46619199352E+02  0.00000000000E+00 0.  1.
<mgrwt>
<rscale>  0 0.81091463E+02</rscale>
<asrwt>0</asrwt>
<pdfrwt beam="2">  1        2 0.12952389E-01 0.81091463E+02</pdfrwt>
<pdfrwt beam="1">  1       -2 0.30040951E-02 0.81091463E+02</pdfrwt>
<totfact> 0.16082572E+05</totfact>
</mgrwt>
</event>
<event>
 7    1  0.3480999E-009  0.9139488E+02  0.7818608E-02  0.1299509E+00
         -2   -1    0    0    0  501 -0.00000000000E+00  0.00000000000E+00  0.17353678391E+03  0.17353678393E+03  0.25500000000E-02 0. -1.
          2   -1    0    0  501    0  0.00000000000E+00 -0.00000000000E+00 -0.12033506744E+02  0.12033507015E+02  0.25500000000E-02 0.  1.
         23    2    1    2    0    0  0.00000000000E+00  0.00000000000E+00  0.16150327717E+03  0.18557029095E+03  0.91394881398E+02 0.  0.
    9000005    2    3    3    0    0  0.42167421294E+02 -0.16932265592E+02  0.74429956228E+02  0.87353407183E+02  0.50996397587E+01 0.  0.
         22    1    3    3    0    0 -0.42167421294E+02  0.16932265592E+02  0.87073320941E+02  0.98216883765E+02  0.00000000000E+00 0. -1.
         22    1    4    4    0    0  0.24991479550E+02 -0.79980680751E+01  0.45983738261E+02  0.52943812930E+02  0.00000000000E+00 0. -1.
         22    1    4    4    0    0  0.17175941744E+02 -0.89341975169E+01  0.28446217967E+02  0.34409594253E+02  0.00000000000E+00 0. -1.
<mgrwt>
<rscale>  0 0.91394881E+02</rscale>
<asrwt>0</asrwt>
<pdfrwt beam="2">  1        2 0.18513089E-02 0.91394881E+02</pdfrwt>
<pdfrwt beam="1">  1       -2 0.26697965E-01 0.91394881E+02</pdfrwt>
<totfact> 0.65694924E+04</totfact>
</mgrwt>
</event>
<event>
 7    1  0.3480999E-009  0.9150920E+02  0.7818608E-02  0.1299238E+00
          2   -1    0    0  501    0  0.00000000000E+00  0.00000000000E+00  0.73277861513E+02  0.73277861557E+02  0.25500000000E-02 0. -1.
         -2   -1    0    0    0  501 -0.00000000000E+00 -0.00000000000E+00 -0.28569109028E+02  0.28569109141E+02  0.25500000000E-02 0.  1.
         23    2    1    2    0    0  0.00000000000E+00  0.71054273576E-14  0.44708752485E+02  0.10184697070E+03  0.91509195667E+02 0.  0.
    9000005    2    3    3    0    0  0.18663496053E+02 -0.39788128535E+02  0.92698153500E+01  0.45390442976E+02  0.65529824990E+01 0.  0.
         22    1    3    3    0    0 -0.18663496053E+02  0.39788128535E+02  0.35438937135E+02  0.56456527723E+02  0.00000000000E+00 0. -1.
         22    1    4    4    0    0  0.17527132083E+02 -0.35712417033E+02  0.10177833905E+02  0.41062944273E+02  0.00000000000E+00 0.  1.
         22    1    4    4    0    0  0.11363639696E+01 -0.40757115024E+01 -0.90801855476E+00  0.43274987023E+01  0.00000000000E+00 0.  1.
<mgrwt>
<rscale>  0 0.91509196E+02</rscale>
<asrwt>0</asrwt>
<pdfrwt beam="1">  1        2 0.11273517E-01 0.91509196E+02</pdfrwt>
<pdfrwt beam="2">  1       -2 0.43952476E-02 0.91509196E+02</pdfrwt>
<totfact> 0.11090492E+05</totfact>
</mgrwt>
</event>
<event>
 7    1  0.3480999E-009  0.9015562E+02  0.7818608E-02  0.1302475E+00
         -2   -1    0    0    0  501 -0.00000000000E+00  0.00000000000E+00  0.79300283581E+01  0.79300287681E+01  0.25500000000E-02 0. -1.
          2   -1    0    0  501    0  0.00000000000E+00 -0.00000000000E+00 -0.25624232655E+03  0.25624232657E+03  0.25500000000E-02 0.  1.
         23    2    1    2    0    0  0.00000000000E+00  0.00000000000E+00 -0.24831229820E+03  0.26417235534E+03  0.90155620389E+02 0.  0.
    9000005    2    3    3    0    0 -0.72999175504E+01  0.36431254281E+02 -0.19647736612E+03  0.20039629973E+03  0.13221061410E+02 0.  0.
         22    1    3    3    0    0  0.72999175504E+01 -0.36431254281E+02 -0.51834932078E+02  0.63776055603E+02  0.00000000000E+00 0. -1.
         22    1    4    4    0    0 -0.29984809770E+01  0.10989236582E+02 -0.95389780585E+02  0.96067499441E+02  0.00000000000E+00 0.  1.
         22    1    4    4    0    0 -0.43014365733E+01  0.25442017699E+02 -0.10108758553E+03  0.10432880029E+03  0.00000000000E+00 0.  1.
<mgrwt>
<rscale>  0 0.90155620E+02</rscale>
<asrwt>0</asrwt>
<pdfrwt beam="2">  1        2 0.39421890E-01 0.90155620E+02</pdfrwt>
<pdfrwt beam="1">  1       -2 0.12200046E-02 0.90155620E+02</pdfrwt>
<totfact> 0.17457940E+05</totfact>
</mgrwt>
</event>
<event>
 7    1  0.3480999E-009  0.8997520E+02  0.7818608E-02  0.1302912E+00
          2   -1    0    0  501    0  0.00000000000E+00  0.00000000000E+00  0.11214779419E+03  0.11214779422E+03  0.25500000000E-02 0. -1.
         -2   -1    0    0    0  501 -0.00000000000E+00 -0.00000000000E+00 -0.18046580990E+02  0.18046581170E+02  0.25500000000E-02 0.  1.
         23    2    1    2    0    0  0.00000000000E+00  0.00000000000E+00  0.94101213196E+02  0.13019437539E+03  0.89975202456E+02 0.  0.
    9000005    2    3    3    0    0  0.21319878351E+02 -0.10446232978E+02 -0.81686778957E+01  0.25204892006E+02  0.22132072135E+01 0.  0.
         22    1    3    3    0    0 -0.21319878351E+02  0.10446232978E+02  0.10226989109E+03  0.10498948338E+03  0.00000000000E+00 0. -1.
         22    1    4    4    0    0  0.97905095332E+01 -0.59486832822E+01 -0.43408790596E+01  0.12250883263E+02  0.00000000000E+00 0.  1.
         22    1    4    4    0    0  0.11529368818E+02 -0.44975496959E+01 -0.38277988361E+01  0.12954008744E+02  0.00000000000E+00 0.  1.
<mgrwt>
<rscale>  0 0.89975202E+02</rscale>
<asrwt>0</asrwt>
<pdfrwt beam="1">  1        2 0.17253507E-01 0.89975202E+02</pdfrwt>
<pdfrwt beam="2">  1       -2 0.27763971E-02 0.89975202E+02</pdfrwt>
<totfact> 0.13180458E+05</totfact>
</mgrwt>
</event>
<event>
 7    1  0.3480999E-009  0.8961527E+02  0.7818608E-02  0.1303786E+00
         -2   -1    0    0    0  501 -0.00000000000E+00  0.00000000000E+00  0.11249833599E+02  0.11249833888E+02  0.25500000000E-02 0.  1.
          2   -1    0    0  501    0  0.00000000000E+00 -0.00000000000E+00 -0.17846702178E+03  0.17846702180E+03  0.25500000000E-02 0. -1.
         23    2    1    2    0    0  0.00000000000E+00  0.71054273576E-14 -0.16721718818E+03  0.18971685569E+03  0.89615273856E+02 0.  0.
    9000005    2    3    3    0    0 -0.49736469742E+01 -0.33256359278E+02 -0.21909173481E+02  0.40568802622E+02  0.59239570328E+01 0.  0.
         22    1    3    3    0    0  0.49736469742E+01  0.33256359278E+02 -0.14530801470E+03  0.14914805307E+03  0.00000000000E+00 0. -1.
         22    1    4    4    0    0 -0.40065402094E+01 -0.13517378438E+02 -0.65834931587E+01  0.15560021415E+02  0.00000000000E+00 0. -1.
         22    1    4    4    0    0 -0.96710676482E+00 -0.19738980840E+02 -0.15325680322E+02  0.25008781207E+02  0.00000000000E+00 0. -1.
<mgrwt>
<rscale>  0 0.89615274E+02</rscale>
<asrwt>0</asrwt>
<pdfrwt beam="2">  1        2 0.27456463E-01 0.89615274E+02</pdfrwt>
<pdfrwt beam="1">  1       -2 0.17307438E-02 0.89615274E+02</pdfrwt>
<totfact> 0.15557398E+05</totfact>
</mgrwt>
</event>
<event>
 7    1  0.3480999E-009  0.9081082E+02  0.7818608E-02  0.1300900E+00
         -2   -1    0    0    0  501 -0.00000000000E+00  0.00000000000E+00  0.12443884881E+02  0.12443885142E+02  0.25500000000E-02 0. -1.
          2   -1    0    0  501    0  0.00000000000E+00 -0.00000000000E+00 -0.16567586540E+03  0.16567586542E+03  0.25500000000E-02 0.  1.
         23    2    1    2    0    0  0.00000000000E+00  0.00000000000E+00 -0.15323198052E+03  0.17811975056E+03  0.90810823618E+02 0.  0.
    9000005    2    3    3    0    0  0.26604581552E+02 -0.29292563389E+01 -0.90795452974E+01  0.31503554721E+02  0.13915872773E+02 0.  0.
         22    1    3    3    0    0 -0.26604581552E+02  0.29292563389E+01 -0.14415243522E+03  0.14661619584E+03  0.00000000000E+00 0.  1.
         22    1    4    4    0    0  0.10311074536E+02 -0.70811727235E+01 -0.24754278183E+00  0.12510896957E+02  0.00000000000E+00 0. -1.
         22    1    4    4    0    0  0.16293507015E+02  0.41519163845E+01 -0.88320025156E+01  0.18992657765E+02  0.00000000000E+00 0. -1.
<mgrwt>
<rscale>  0 0.90810824E+02</rscale>
<asrwt>0</asrwt>
<pdfrwt beam="2">  1        2 0.25488593E-01 0.90810824E+02</pdfrwt>
<pdfrwt beam="1">  1       -2 0.19144440E-02 0.90810824E+02</pdfrwt>
<totfact> 0.14625546E+05</totfact>
</mgrwt>
</event>
<event>
 7    1  0.3480999E-009  0.9151204E+02  0.7818608E-02  0.1299231E+00
         -2   -1    0    0    0  501 -0.00000000000E+00  0.00000000000E+00  0.29174986246E+02  0.29174986358E+02  0.25500000000E-02 0.  1.
          2   -1    0    0  501    0  0.00000000000E+00 -0.00000000000E+00 -0.71760566545E+02  0.71760566590E+02  0.25500000000E-02 0. -1.
         23    2    1    2    0    0  0.00000000000E+00  0.00000000000E+00 -0.42585580298E+02  0.10093555295E+03  0.91512044014E+02 0.  0.
    9000005    2    3    3    0    0  0.43533870103E+02 -0.12555453851E+02 -0.20226495898E+02  0.50410648962E+02  0.89042195032E+01 0.  0.
         22    1    3    3    0    0 -0.43533870103E+02  0.12555453851E+02 -0.22359084400E+02  0.50524903986E+02  0.00000000000E+00 0. -1.
         22    1    4    4    0    0  0.17683728387E+02 -0.77669237900E+01 -0.46988431375E+01  0.19877587420E+02  0.00000000000E+00 0.  1.
         22    1    4    4    0    0  0.25850141716E+02 -0.47885300606E+01 -0.15527652761E+02  0.30533061542E+02  0.00000000000E+00 0.  1.
<mgrwt>
<rscale>  0 0.91512044E+02</rscale>
<asrwt>0</asrwt>
<pdfrwt beam="2">  1        2 0.11040087E-01 0.91512044E+02</pdfrwt>
<pdfrwt beam="1">  1       -2 0.44884595E-02 0.91512044E+02</pdfrwt>
<totfact> 0.11024784E+05</totfact>
</mgrwt>
</event>
<event>
 7    1  0.3480999E-009  0.9134543E+02  0.7818608E-02  0.1299626E+00
          2   -1    0    0  501    0  0.00000000000E+00  0.00000000000E+00  0.20523676171E+03  0.20523676173E+03  0.25500000000E-02 0. -1.
         -2   -1    0    0    0  501 -0.00000000000E+00 -0.00000000000E+00 -0.10163854905E+02  0.10163855224E+02  0.25500000000E-02 0.  1.
         23    2    1    2    0    0  0.00000000000E+00  0.00000000000E+00  0.19507290681E+03  0.21540061695E+03  0.91345425792E+02 0.  0.
    9000005    2    3    3    0    0  0.23314757875E+02  0.28569622264E+02  0.35293354812E+02  0.51421025275E+02  0.62209079139E+01 0.  0.
         22    1    3    3    0    0 -0.23314757875E+02 -0.28569622264E+02  0.15977955200E+03  0.16397959168E+03  0.00000000000E+00 0. -1.
         22    1    4    4    0    0  0.16262773646E+02  0.15125333589E+02  0.20522419498E+02  0.30239431623E+02  0.00000000000E+00 0. -1.
         22    1    4    4    0    0  0.70519842294E+01  0.13444288676E+02  0.14770935314E+02  0.21181593652E+02  0.00000000000E+00 0. -1.
<mgrwt>
<rscale>  0 0.91345426E+02</rscale>
<asrwt>0</asrwt>
<pdfrwt beam="1">  1        2 0.31574887E-01 0.91345426E+02</pdfrwt>
<pdfrwt beam="2">  1       -2 0.15636700E-02 0.91345426E+02</pdfrwt>
<totfact> 0.15536011E+05</totfact>
</mgrwt>
</event>
<event>
 7    1  0.3480999E-009  0.9403777E+02  0.7818608E-02  0.1293358E+00
         -2   -1    0    0    0  501 -0.00000000000E+00  0.00000000000E+00  0.14309436242E+02  0.14309436469E+02  0.25500000000E-02 0.  1.
          2   -1    0    0  501    0  0.00000000000E+00 -0.00000000000E+00 -0.15449772257E+03  0.15449772259E+03  0.25500000000E-02 0. -1.
         23    2    1    2    0    0  0.00000000000E+00  0.00000000000E+00 -0.14018828633E+03  0.16880715906E+03  0.94037765425E+02 0.  0.
    9000005    2    3    3    0    0 -0.33115536640E+02 -0.32043038066E+02 -0.56790372889E+02  0.73525434571E+02  0.75794472447E+01 0.  0.
         22    1    3    3    0    0  0.33115536640E+02  0.32043038066E+02 -0.83397913438E+02  0.95281724487E+02  0.00000000000E+00 0.  1.
         22    1    4    4    0    0 -0.41884223721E+01 -0.56026713435E+01 -0.50942730408E+01  0.86535787952E+01  0.00000000000E+00 0. -1.
         22    1    4    4    0    0 -0.28927114268E+02 -0.26440366723E+02 -0.51696099848E+02  0.64871855776E+02  0.00000000000E+00 0. -1.
<mgrwt>
<rscale>  0 0.94037765E+02</rscale>
<asrwt>0</asrwt>
<pdfrwt beam="2">  1        2 0.23768879E-01 0.94037765E+02</pdfrwt>
<pdfrwt beam="1">  1       -2 0.22014519E-02 0.94037765E+02</pdfrwt>
<totfact> 0.12984643E+05</totfact>
</mgrwt>
</event>
<event>
 7    1  0.3480999E-009  0.9277501E+02  0.7818608E-02  0.1296267E+00
         -2   -1    0    0    0  501 -0.00000000000E+00  0.00000000000E+00  0.12325421057E+02  0.12325421321E+02  0.25500000000E-02 0.  1.
          2   -1    0    0  501    0  0.00000000000E+00 -0.00000000000E+00 -0.17458230075E+03  0.17458230077E+03  0.25500000000E-02 0. -1.
         23    2    1    2    0    0  0.00000000000E+00  0.88817841970E-15 -0.16225687969E+03  0.18690772209E+03  0.92775005088E+02 0.  0.
    9000005    2    3    3    0    0 -0.42239026110E+02 -0.79863799500E+01 -0.53031776215E+02  0.69527822527E+02  0.13184507025E+02 0.  0.
         22    1    3    3    0    0  0.42239026110E+02  0.79863799500E+01 -0.10922510348E+03  0.11737989956E+03  0.00000000000E+00 0. -1.
         22    1    4    4    0    0  0.53093725533E+00  0.10678176093E+01 -0.20186618087E+01  0.23445947014E+01  0.00000000000E+00 0. -1.
         22    1    4    4    0    0 -0.42769963366E+02 -0.90541975593E+01 -0.51013114406E+02  0.67183227826E+02  0.00000000000E+00 0. -1.
<mgrwt>
<rscale>  0 0.92775005E+02</rscale>
<asrwt>0</asrwt>
<pdfrwt beam="2">  1        2 0.26858814E-01 0.92775005E+02</pdfrwt>
<pdfrwt beam="1">  1       -2 0.18962188E-02 0.92775005E+02</pdfrwt>
<totfact> 0.14057580E+05</totfact>
</mgrwt>
</event>
<event>
 7    1  0.3480999E-009  0.1057306E+03  0.7818608E-02  0.1268687E+00
         -2   -1    0    0    0  501 -0.00000000000E+00  0.00000000000E+00  0.70093765116E+02  0.70093765163E+02  0.25500000000E-02 0. -1.
          2   -1    0    0  501    0  0.00000000000E+00 -0.00000000000E+00 -0.39871447913E+02  0.39871447994E+02  0.25500000000E-02 0.  1.
         23    2    1    2    0    0  0.00000000000E+00  0.00000000000E+00  0.30222317204E+02  0.10996521316E+03  0.10573059939E+03 0.  0.
    9000005    2    3    3    0    0 -0.18669015442E+02 -0.16144305906E+02 -0.32830027656E+02  0.42254291268E+02  0.99218780421E+01 0.  0.
         22    1    3    3    0    0  0.18669015442E+02  0.16144305906E+02  0.63052344860E+02  0.67710921889E+02  0.00000000000E+00 0. -1.
         22    1    4    4    0    0 -0.68520156887E+01 -0.18179096654E+01 -0.14603810254E+02  0.16233489720E+02  0.00000000000E+00 0.  1.
         22    1    4    4    0    0 -0.11816999753E+02 -0.14326396240E+02 -0.18226217402E+02  0.26020801548E+02  0.00000000000E+00 0.  1.
<mgrwt>
<rscale>  0 0.10573060E+03</rscale>
<asrwt>0</asrwt>
<pdfrwt beam="2">  1        2 0.61340689E-02 0.10573060E+03</pdfrwt>
<pdfrwt beam="1">  1       -2 0.10783656E-01 0.10573060E+03</pdfrwt>
<totfact> 0.61586716E+04</totfact>
</mgrwt>
</event>
<event>
 7    1  0.3480999E-009  0.8849323E+02  0.7818608E-02  0.1306542E+00
         -2   -1    0    0    0  501 -0.00000000000E+00  0.00000000000E+00  0.38009918545E+03  0.38009918546E+03  0.25500000000E-02 0. -1.
          2   -1    0    0  501    0  0.00000000000E+00 -0.00000000000E+00 -0.51506633474E+01  0.51506639786E+01  0.25500000000E-02 0.  1.
         23    2    1    2    0    0  0.00000000000E+00  0.00000000000E+00  0.37494852211E+03  0.38524984944E+03  0.88493232874E+02 0.  0.
    9000005    2    3    3    0    0 -0.27066225671E+02  0.33155407684E+02  0.19295008314E+03  0.19828650165E+03  0.15998141215E+02 0.  0.
         22    1    3    3    0    0  0.27066225671E+02 -0.33155407684E+02  0.18199843897E+03  0.18696334779E+03  0.00000000000E+00 0.  1.
         22    1    4    4    0    0 -0.12993886252E+02  0.99278488417E+01  0.10416389453E+03  0.10543965187E+03  0.00000000000E+00 0.  1.
         22    1    4    4    0    0 -0.14072339419E+02  0.23227558842E+02  0.88786188606E+02  0.92846849778E+02  0.00000000000E+00 0.  1.
<mgrwt>
<rscale>  0 0.88493233E+02</rscale>
<asrwt>0</asrwt>
<pdfrwt beam="2">  1        2 0.79240953E-03 0.88493233E+02</pdfrwt>
<pdfrwt beam="1">  1       -2 0.58476817E-01 0.88493233E+02</pdfrwt>
<totfact> 0.47705984E+04</totfact>
</mgrwt>
</event>
<event>
 7    1  0.3480999E-009  0.9342898E+02  0.7818608E-02  0.1294754E+00
          2   -1    0    0  501    0  0.00000000000E+00  0.00000000000E+00  0.44740278417E+03  0.44740278417E+03  0.25500000000E-02 0. -1.
         -2   -1    0    0    0  501 -0.00000000000E+00 -0.00000000000E+00 -0.48775816135E+01  0.48775822801E+01  0.25500000000E-02 0.  1.
         23    2    1    2    0    0  0.00000000000E+00  0.00000000000E+00  0.44252520255E+03  0.45228036645E+03  0.93428983646E+02 0.  0.
    9000005    2    3    3    0    0 -0.39922514020E+02 -0.17251617838E+02  0.30050093935E+03  0.30374647543E+03  0.83475351813E+01 0.  0.
         22    1    3    3    0    0  0.39922514020E+02  0.17251617838E+02  0.14202426321E+03  0.14853389103E+03  0.00000000000E+00 0.  1.
         22    1    4    4    0    0 -0.16912867008E+02 -0.11540410881E+02  0.12905622135E+03  0.13067032725E+03  0.00000000000E+00 0.  1.
         22    1    4    4    0    0 -0.23009647012E+02 -0.57112069574E+01  0.17144471799E+03  0.17307614818E+03  0.00000000000E+00 0.  1.
<mgrwt>
<rscale>  0 0.93428984E+02</rscale>
<asrwt>0</asrwt>
<pdfrwt beam="1">  1        2 0.68831229E-01 0.93428984E+02</pdfrwt>
<pdfrwt beam="2">  1       -2 0.75039688E-03 0.93428984E+02</pdfrwt>
<totfact> 0.19460193E+05</totfact>
</mgrwt>
</event>
<event>
 7    1  0.3480999E-009  0.9218404E+02  0.7818608E-02  0.1297647E+00
          2   -1    0    0  501    0  0.00000000000E+00  0.00000000000E+00  0.43610275062E+03  0.43610275063E+03  0.25500000000E-02 0. -1.
         -2   -1    0    0    0  501 -0.00000000000E+00 -0.00000000000E+00 -0.48714996274E+01  0.48715002949E+01  0.25500000000E-02 0.  1.
         23    2    1    2    0    0  0.00000000000E+00  0.00000000000E+00  0.43123125100E+03  0.44097425093E+03  0.92184044953E+02 0.  0.
    9000005    2    3    3    0    0  0.18892968147E+02  0.41025538152E+02  0.24014554031E+03  0.24462306592E+03  0.11424746026E+02 0.  0.
         22    1    3    3    0    0 -0.18892968147E+02 -0.41025538152E+02  0.19108571068E+03  0.19635118501E+03  0.00000000000E+00 0.  1.
         22    1    4    4    0    0  0.96186134836E+01  0.11506936029E+02  0.98692988466E+02  0.99826015018E+02  0.00000000000E+00 0. -1.
         22    1    4    4    0    0  0.92743546631E+01  0.29518602122E+02  0.14145255185E+03  0.14479705090E+03  0.00000000000E+00 0. -1.
<mgrwt>
<rscale>  0 0.92184045E+02</rscale>
<asrwt>0</asrwt>
<pdfrwt beam="1">  1        2 0.67092722E-01 0.92184045E+02</pdfrwt>
<pdfrwt beam="2">  1       -2 0.74946163E-03 0.92184045E+02</pdfrwt>
<totfact> 0.19988589E+05</totfact>
</mgrwt>
</event>
<event>
 7    1  0.3480999E-009  0.9075213E+02  0.7818608E-02  0.1301040E+00
          2   -1    0    0  501    0  0.00000000000E+00  0.00000000000E+00  0.60132605070E+03  0.60132605071E+03  0.25500000000E-02 0.  1.
         -2   -1    0    0    0  501 -0.00000000000E+00 -0.00000000000E+00 -0.34240776484E+01  0.34240785980E+01  0.25500000000E-02 0. -1.
         23    2    1    2    0    0  0.71054273576E-14  0.00000000000E+00  0.59790197305E+03  0.60475012931E+03  0.90752132281E+02 0.  0.
    9000005    2    3    3    0    0  0.37989920607E+02 -0.18130490946E+02  0.39890817695E+03  0.40135278504E+03  0.13578499400E+02 0.  0.
         22    1    3    3    0    0 -0.37989920607E+02  0.18130490946E+02  0.19899379610E+03  0.20339734427E+03  0.00000000000E+00 0. -1.
         22    1    4    4    0    0  0.28997090561E+02 -0.68458270533E+01  0.27194926604E+03  0.27357649736E+03  0.00000000000E+00 0.  1.
         22    1    4    4    0    0  0.89928300451E+01 -0.11284663893E+02  0.12695891092E+03  0.12777628768E+03  0.00000000000E+00 0.  1.
<mgrwt>
<rscale>  0 0.90752132E+02</rscale>
<asrwt>0</asrwt>
<pdfrwt beam="1">  1        2 0.92511680E-01 0.90752132E+02</pdfrwt>
<pdfrwt beam="2">  1       -2 0.52678137E-03 0.90752132E+02</pdfrwt>
<totfact> 0.23082016E+05</totfact>
</mgrwt>
</event>
<event>
 7    1  0.3480999E-009  0.9107803E+02  0.7818608E-02  0.1300262E+00
         -2   -1    0    0    0  501 -0.00000000000E+00  0.00000000000E+00  0.88215474909E+02  0.88215474946E+02  0.25500000000E-02 0.  1.
          2   -1    0    0  501    0  0.00000000000E+00 -0.00000000000E+00 -0.23508366494E+02  0.23508366633E+02  0.25500000000E-02 0. -1.
         23    2    1    2    0    0  0.00000000000E+00  0.00000000000E+00  0.64707108414E+02  0.11172384158E+03  0.91078026426E+02 0.  0.
    9000005    2    3    3    0    0  0.37993520229E+02  0.17720127546E+02  0.11081885421E+02  0.43656411477E+02  0.50560437993E+01 0.  0.
         22    1    3    3    0    0 -0.37993520229E+02 -0.17720127546E+02  0.53625222993E+02  0.68067430102E+02  0.00000000000E+00 0. -1.
         22    1    4    4    0    0  0.76850761294E+01  0.53526930570E+01  0.38892370414E+01  0.10140901481E+02  0.00000000000E+00 0.  1.
         22    1    4    4    0    0  0.30308444100E+02  0.12367434489E+02  0.71926483799E+01  0.33515509996E+02  0.00000000000E+00 0.  1.
<mgrwt>
<rscale>  0 0.91078026E+02</rscale>
<asrwt>0</asrwt>
<pdfrwt beam="2">  1        2 0.36166717E-02 0.91078026E+02</pdfrwt>
<pdfrwt beam="1">  1       -2 0.13571612E-01 0.91078026E+02</pdfrwt>
<totfact> 0.82999744E+04</totfact>
</mgrwt>
</event>
<event>
 7    1  0.3480999E-009  0.9312643E+02  0.7818608E-02  0.1295452E+00
          2   -1    0    0  501    0  0.00000000000E+00  0.00000000000E+00  0.97729188072E+02  0.97729188105E+02  0.25500000000E-02 0. -1.
         -2   -1    0    0    0  501 -0.00000000000E+00 -0.00000000000E+00 -0.22185113691E+02  0.22185113837E+02  0.25500000000E-02 0.  1.
         23    2    1    2    0    0  0.71054273576E-14  0.00000000000E+00  0.75544074381E+02  0.11991430194E+03  0.93126433606E+02 0.  0.
    9000005    2    3    3    0    0  0.44616614843E+02  0.85428238131E+01  0.39088547412E+02  0.61668035063E+02  0.14539939856E+02 0.  0.
         22    1    3    3    0    0 -0.44616614843E+02 -0.85428238131E+01  0.36455526969E+02  0.58246266879E+02  0.00000000000E+00 0.  1.
         22    1    4    4    0    0  0.10763262840E+02 -0.85570079847E+00  0.17091240611E+02  0.20216096469E+02  0.00000000000E+00 0.  1.
         22    1    4    4    0    0  0.33853352003E+02  0.93985246116E+01  0.21997306801E+02  0.41451938594E+02  0.00000000000E+00 0.  1.
<mgrwt>
<rscale>  0 0.93126434E+02</rscale>
<asrwt>0</asrwt>
<pdfrwt beam="1">  1        2 0.15035260E-01 0.93126434E+02</pdfrwt>
<pdfrwt beam="2">  1       -2 0.34130944E-02 0.93126434E+02</pdfrwt>
<totfact> 0.11490825E+05</totfact>
</mgrwt>
</event>
<event>
 7    1  0.3480999E-009  0.9264055E+02  0.7818608E-02  0.1296580E+00
         -2   -1    0    0    0  501 -0.00000000000E+00  0.00000000000E+00  0.78048878028E+01  0.78048882194E+01  0.25500000000E-02 0.  1.
          2   -1    0    0  501    0  0.00000000000E+00 -0.00000000000E+00 -0.27490052651E+03  0.27490052652E+03  0.25500000000E-02 0. -1.
         23    2    1    2    0    0  0.00000000000E+00  0.00000000000E+00 -0.26709563871E+03  0.28270541474E+03  0.92640548939E+02 0.  0.
    9000005    2    3    3    0    0 -0.14413239403E+01  0.13920768431E+02 -0.26824561351E+03  0.26866306272E+03  0.53166618579E+01 0.  0.
         22    1    3    3    0    0  0.14413239403E+01 -0.13920768431E+02  0.11499747990E+01  0.14042352027E+02  0.00000000000E+00 0.  1.
         22    1    4    4    0    0 -0.31470446216E+00  0.10425051545E+02 -0.15091265799E+03  0.15127263824E+03  0.00000000000E+00 0.  1.
         22    1    4    4    0    0 -0.11266194782E+01  0.34957168863E+01 -0.11733295552E+03  0.11739042448E+03  0.00000000000E+00 0.  1.
<mgrwt>
<rscale>  0 0.92640549E+02</rscale>
<asrwt>0</asrwt>
<pdfrwt beam="2">  1        2 0.42292381E-01 0.92640549E+02</pdfrwt>
<pdfrwt beam="1">  1       -2 0.12007522E-02 0.92640549E+02</pdfrwt>
<totfact> 0.16664200E+05</totfact>
</mgrwt>
</event>
<event>
 7    1  0.3480999E-009  0.9405708E+02  0.7818608E-02  0.1293314E+00
         -2   -1    0    0    0  501 -0.00000000000E+00  0.00000000000E+00  0.81822915595E+01  0.81822919568E+01  0.25500000000E-02 0.  1.
          2   -1    0    0  501    0  0.00000000000E+00 -0.00000000000E+00 -0.27030120729E+03  0.27030120731E+03  0.25500000000E-02 0. -1.
         23    2    1    2    0    0  0.00000000000E+00  0.00000000000E+00 -0.26211891573E+03  0.27848349926E+03  0.94057075097E+02 0.  0.
    9000005    2    3    3    0    0 -0.43914637729E+02  0.39499017489E+01 -0.17268153411E+03  0.17876819270E+03  0.13966294023E+02 0.  0.
         22    1    3    3    0    0  0.43914637729E+02 -0.39499017489E+01 -0.89437381629E+02  0.99715306565E+02  0.00000000000E+00 0.  1.
         22    1    4    4    0    0 -0.91535663774E+01 -0.27028332478E+01 -0.57008076768E+02  0.57801504321E+02  0.00000000000E+00 0. -1.
         22    1    4    4    0    0 -0.34761071351E+02  0.66527349966E+01 -0.11567345734E+03  0.12096668838E+03  0.00000000000E+00 0. -1.
<mgrwt>
<rscale>  0 0.94057075E+02</rscale>
<asrwt>0</asrwt>
<pdfrwt beam="2">  1        2 0.41584794E-01 0.94057075E+02</pdfrwt>
<pdfrwt beam="1">  1       -2 0.12588143E-02 0.94057075E+02</pdfrwt>
<totfact> 0.15898850E+05</totfact>
</mgrwt>
</event>
<event>
 7    1  0.3480999E-009  0.9267140E+02  0.7818608E-02  0.1296508E+00
          2   -1    0    0  501    0  0.00000000000E+00  0.00000000000E+00  0.10798673569E+03  0.10798673572E+03  0.25500000000E-02 0. -1.
         -2   -1    0    0    0  501 -0.00000000000E+00 -0.00000000000E+00 -0.19882045996E+02  0.19882046159E+02  0.25500000000E-02 0.  1.
         23    2    1    2    0    0  0.00000000000E+00  0.00000000000E+00  0.88104689693E+02  0.12786878188E+03  0.92671403535E+02 0.  0.
    9000005    2    3    3    0    0 -0.10414975660E+02  0.42917323784E+02  0.63013381389E+02  0.77075650933E+02  0.44273393796E+01 0.  0.
         22    1    3    3    0    0  0.10414975660E+02 -0.42917323784E+02  0.25091308304E+02  0.50793130944E+02  0.00000000000E+00 0.  1.
         22    1    4    4    0    0 -0.71925040702E+01  0.36134018185E+02  0.53405581107E+02  0.64881087217E+02  0.00000000000E+00 0.  1.
         22    1    4    4    0    0 -0.32224715896E+01  0.67833055984E+01  0.96078002817E+01  0.12194563717E+02  0.00000000000E+00 0.  1.
<mgrwt>
<rscale>  0 0.92671404E+02</rscale>
<asrwt>0</asrwt>
<pdfrwt beam="1">  1        2 0.16613344E-01 0.92671404E+02</pdfrwt>
<pdfrwt beam="2">  1       -2 0.30587763E-02 0.92671404E+02</pdfrwt>
<totfact> 0.12011856E+05</totfact>
</mgrwt>
</event>
<event>
 7    1  0.3480999E-009  0.9162831E+02  0.7818608E-02  0.1298956E+00
          2   -1    0    0  501    0  0.00000000000E+00  0.00000000000E+00  0.21402815093E+03  0.21402815094E+03  0.25500000000E-02 0. -1.
         -2   -1    0    0    0  501 -0.00000000000E+00 -0.00000000000E+00 -0.98068260256E+01  0.98068263571E+01  0.25500000000E-02 0.  1.
         23    2    1    2    0    0  0.88817841970E-15  0.71054273576E-14  0.20422132490E+03  0.22383497730E+03  0.91628311771E+02 0.  0.
    9000005    2    3    3    0    0 -0.48409893149E+01 -0.43915935013E+02  0.74188464395E+02  0.86501116445E+02  0.51449364799E+01 0.  0.
         22    1    3    3    0    0  0.48409893149E+01  0.43915935013E+02  0.13003286051E+03  0.13733386085E+03  0.00000000000E+00 0. -1.
         22    1    4    4    0    0 -0.52209160314E+01 -0.25700378826E+02  0.42061989601E+02  0.49567917096E+02  0.00000000000E+00 0.  1.
         22    1    4    4    0    0  0.37992671651E+00 -0.18215556187E+02  0.32126474794E+02  0.36933199350E+02  0.00000000000E+00 0.  1.
<mgrwt>
<rscale>  0 0.91628312E+02</rscale>
<asrwt>0</asrwt>
<pdfrwt beam="1">  1        2 0.32927408E-01 0.91628312E+02</pdfrwt>
<pdfrwt beam="2">  1       -2 0.15087425E-02 0.91628312E+02</pdfrwt>
<totfact> 0.15644397E+05</totfact>
</mgrwt>
</event>
<event>
 7    1  0.3480999E-009  0.9181635E+02  0.7818608E-02  0.1298512E+00
         -2   -1    0    0    0  501 -0.00000000000E+00  0.00000000000E+00  0.38816195960E+02  0.38816196044E+02  0.25500000000E-02 0. -1.
          2   -1    0    0  501    0  0.00000000000E+00 -0.00000000000E+00 -0.54295910884E+02  0.54295910944E+02  0.25500000000E-02 0.  1.
         23    2    1    2    0    0  0.00000000000E+00  0.00000000000E+00 -0.15479714924E+02  0.93112106988E+02  0.91816354173E+02 0.  0.
    9000005    2    3    3    0    0 -0.20886173950E+02 -0.22081287171E+02 -0.42370592141E+02  0.52529662718E+02  0.63468796697E+01 0.  0.
         22    1    3    3    0    0  0.20886173950E+02  0.22081287171E+02  0.26890877217E+02  0.40582444269E+02  0.00000000000E+00 0. -1.
         22    1    4    4    0    0 -0.11651090123E+02 -0.77371411340E+01 -0.19502093581E+02  0.23998810554E+02  0.00000000000E+00 0.  1.
         22    1    4    4    0    0 -0.92350838268E+01 -0.14344146037E+02 -0.22868498560E+02  0.28530852164E+02  0.00000000000E+00 0.  1.
<mgrwt>
<rscale>  0 0.91816354E+02</rscale>
<asrwt>0</asrwt>
<pdfrwt beam="2">  1        2 0.83532171E-02 0.91816354E+02</pdfrwt>
<pdfrwt beam="1">  1       -2 0.59717225E-02 0.91816354E+02</pdfrwt>
<totfact> 0.10125730E+05</totfact>
</mgrwt>
</event>
<event>
 7    1  0.3480999E-009  0.8977453E+02  0.7818608E-02  0.1303399E+00
          2   -1    0    0  501    0  0.00000000000E+00  0.00000000000E+00  0.13679541311E+03  0.13679541314E+03  0.25500000000E-02 0. -1.
         -2   -1    0    0    0  501 -0.00000000000E+00 -0.00000000000E+00 -0.14729051239E+02  0.14729051460E+02  0.25500000000E-02 0.  1.
         23    2    1    2    0    0  0.17763568394E-14 -0.44408920985E-15  0.12206636187E+03  0.15152446460E+03  0.89774532414E+02 0.  0.
    9000005    2    3    3    0    0 -0.14228558413E+02  0.37813453913E+01  0.13240980577E+03  0.13353176388E+03  0.90346472859E+01 0.  0.
         22    1    3    3    0    0  0.14228558413E+02 -0.37813453913E+01 -0.10343443900E+02  0.17992700720E+02  0.00000000000E+00 0.  1.
         22    1    4    4    0    0 -0.91078092960E+01  0.67346641173E+01  0.82894086453E+02  0.83664433661E+02  0.00000000000E+00 0.  1.
         22    1    4    4    0    0 -0.51207491167E+01 -0.29533187260E+01  0.49515719319E+02  0.49867330214E+02  0.00000000000E+00 0.  1.
<mgrwt>
<rscale>  0 0.89774532E+02</rscale>
<asrwt>0</asrwt>
<pdfrwt beam="1">  1        2 0.21045449E-01 0.89774532E+02</pdfrwt>
<pdfrwt beam="2">  1       -2 0.22660078E-02 0.89774532E+02</pdfrwt>
<totfact> 0.14137331E+05</totfact>
</mgrwt>
</event>
<event>
 7    1  0.5175944E-009  0.1070825E+03  0.7818608E-02  0.1266070E+00
          2   -1    0    0  501    0  0.00000000000E+00  0.00000000000E+00  0.10001246226E+04  0.10001246226E+04  0.25500000000E-02 0. -1.
         -2   -1    0    0    0  501 -0.00000000000E+00 -0.00000000000E+00 -0.28663089407E+01  0.28663100750E+01  0.25500000000E-02 0.  1.
         23    2    1    2    0    0  0.00000000000E+00  0.00000000000E+00  0.99725831370E+03  0.10029909327E+04  0.10708252366E+03 0.  0.
    9000005    2    3    3    0    0 -0.42260648374E+02 -0.62754164398E+01  0.79313644118E+03  0.79444577672E+03  0.15916486942E+02 0.  0.
         22    1    3    3    0    0  0.42260648374E+02  0.62754164398E+01  0.20412187252E+03  0.20854515600E+03  0.00000000000E+00 0.  1.
         22    1    4    4    0    0 -0.16286747004E+02  0.38764971421E+00  0.18413735811E+03  0.18485663378E+03  0.00000000000E+00 0.  1.
         22    1    4    4    0    0 -0.25973901370E+02 -0.66630661540E+01  0.60899908307E+03  0.60958914294E+03  0.00000000000E+00 0.  1.
<mgrwt>
<rscale>  0 0.10708252E+03</rscale>
<asrwt>0</asrwt>
<pdfrwt beam="1">  1        2 0.15386534E+00 0.10708252E+03</pdfrwt>
<pdfrwt beam="2">  1       -2 0.44097064E-03 0.10708252E+03</pdfrwt>
<totfact> 0.16316712E+05</totfact>
</mgrwt>
</event>
<event>
 7    1  0.3480999E-009  0.8962508E+02  0.7818608E-02  0.1303762E+00
         -2   -1    0    0    0  501 -0.00000000000E+00  0.00000000000E+00  0.19185079178E+02  0.19185079347E+02  0.25500000000E-02 0.  1.
          2   -1    0    0  501    0  0.00000000000E+00 -0.00000000000E+00 -0.10467321297E+03  0.10467321300E+03  0.25500000000E-02 0. -1.
         23    2    1    2    0    0  0.00000000000E+00  0.00000000000E+00 -0.85488133792E+02  0.12385829235E+03  0.89625083342E+02 0.  0.
    9000005    2    3    3    0    0 -0.15965294999E+02  0.38274265304E+02 -0.65860732970E+02  0.77977524133E+02  0.48008430096E+01 0.  0.
         22    1    3    3    0    0  0.15965294999E+02 -0.38274265304E+02 -0.19627400822E+02  0.45880768215E+02  0.00000000000E+00 0. -1.
         22    1    4    4    0    0 -0.12987913671E+02  0.30632886819E+02 -0.49010366180E+02  0.59237451410E+02  0.00000000000E+00 0. -1.
         22    1    4    4    0    0 -0.29773813279E+01  0.76413784846E+01 -0.16850366791E+02  0.18740072724E+02  0.00000000000E+00 0. -1.
<mgrwt>
<rscale>  0 0.89625083E+02</rscale>
<asrwt>0</asrwt>
<pdfrwt beam="2">  1        2 0.16103571E-01 0.89625083E+02</pdfrwt>
<pdfrwt beam="1">  1       -2 0.29515507E-02 0.89625083E+02</pdfrwt>
<totfact> 0.13040232E+05</totfact>
</mgrwt>
</event>
<event>
 7    1  0.3691114E-009  0.9008681E+02  0.7818608E-02  0.1302642E+00
         -2   -1    0    0    0  501 -0.00000000000E+00  0.00000000000E+00  0.56242863526E+02  0.56242863584E+02  0.25500000000E-02 0. -1.
          2   -1    0    0  501    0  0.00000000000E+00 -0.00000000000E+00 -0.36074055719E+02  0.36074055809E+02  0.25500000000E-02 0.  1.
         23    2    1    2    0    0  0.00000000000E+00  0.00000000000E+00  0.20168807808E+02  0.92316919393E+02  0.90086807013E+02 0.  0.
    9000005    2    3    3    0    0 -0.42209349455E+01  0.15906652555E+02  0.51881520392E+02  0.56588303036E+02  0.15482441506E+02 0.  0.
         22    1    3    3    0    0  0.42209349455E+01 -0.15906652555E+02 -0.31712712584E+02  0.35728616357E+02  0.00000000000E+00 0.  1.
         22    1    4    4    0    0 -0.95988117605E+01  0.73240442291E+01  0.33370300045E+02  0.35487402500E+02  0.00000000000E+00 0. -1.
         22    1    4    4    0    0  0.53778768149E+01  0.85826083257E+01  0.18511220347E+02  0.21100900537E+02  0.00000000000E+00 0. -1.
<mgrwt>
<rscale>  0 0.90086807E+02</rscale>
<asrwt>0</asrwt>
<pdfrwt beam="2">  1        2 0.55498548E-02 0.90086807E+02</pdfrwt>
<pdfrwt beam="1">  1       -2 0.86527482E-02 0.90086807E+02</pdfrwt>
<totfact> 0.96179263E+04</totfact>
</mgrwt>
</event>
<event>
 7    1  0.3480999E-009  0.9304616E+02  0.7818608E-02  0.1295638E+00
         -2   -1    0    0    0  501 -0.00000000000E+00  0.00000000000E+00  0.11738159716E+02  0.11738159993E+02  0.25500000000E-02 0.  1.
          2   -1    0    0  501    0  0.00000000000E+00 -0.00000000000E+00 -0.18438981493E+03  0.18438981494E+03  0.25500000000E-02 0. -1.
         23    2    1    2    0    0  0.00000000000E+00  0.35527136788E-14 -0.17265165521E+03  0.19612797494E+03  0.93046163305E+02 0.  0.
    9000005    2    3    3    0    0 -0.88714666843E+01 -0.30001574378E+02 -0.18701084970E+02  0.39030631026E+02  0.13959304888E+02 0.  0.
         22    1    3    3    0    0  0.88714666843E+01  0.30001574378E+02 -0.15395057024E+03  0.15709734391E+03  0.00000000000E+00 0. -1.
         22    1    4    4    0    0  0.23919821350E+01 -0.10924266289E+02 -0.21777038829E+01  0.11393136824E+02  0.00000000000E+00 0. -1.
         22    1    4    4    0    0 -0.11263448819E+02 -0.19077308089E+02 -0.16523381087E+02  0.27637494202E+02  0.00000000000E+00 0. -1.
<mgrwt>
<rscale>  0 0.93046163E+02</rscale>
<asrwt>0</asrwt>
<pdfrwt beam="2">  1        2 0.28367662E-01 0.93046163E+02</pdfrwt>
<pdfrwt beam="1">  1       -2 0.18058709E-02 0.93046163E+02</pdfrwt>
<totfact> 0.14220893E+05</totfact>
</mgrwt>
</event>
<event>
 7    1  0.3480999E-009  0.9120512E+02  0.7818608E-02  0.1299959E+00
          2   -1    0    0  501    0  0.00000000000E+00  0.00000000000E+00  0.51953591429E+02  0.51953591491E+02  0.25500000000E-02 0. -1.
         -2   -1    0    0    0  501 -0.00000000000E+00 -0.00000000000E+00 -0.40027903785E+02  0.40027903866E+02  0.25500000000E-02 0.  1.
         23    2    1    2    0    0  0.00000000000E+00  0.00000000000E+00  0.11925687644E+02  0.91981495357E+02  0.91205117523E+02 0.  0.
    9000005    2    3    3    0    0 -0.34423411718E+02  0.89224442058E+00  0.34816719796E+02  0.50632169759E+02  0.12870324890E+02 0.  0.
         22    1    3    3    0    0  0.34423411718E+02 -0.89224442058E+00 -0.22891032152E+02  0.41349325598E+02  0.00000000000E+00 0.  1.
         22    1    4    4    0    0 -0.18102366751E+02  0.17060389335E+01  0.95405086275E+01  0.20533571430E+02  0.00000000000E+00 0.  1.
         22    1    4    4    0    0 -0.16321044968E+02 -0.81379451292E+00  0.25276211168E+02  0.30098598329E+02  0.00000000000E+00 0.  1.
<mgrwt>
<rscale>  0 0.91205118E+02</rscale>
<asrwt>0</asrwt>
<pdfrwt beam="1">  1        2 0.79928602E-02 0.91205118E+02</pdfrwt>
<pdfrwt beam="2">  1       -2 0.61581391E-02 0.91205118E+02</pdfrwt>
<totfact> 0.10200723E+05</totfact>
</mgrwt>
</event>
<event>
 6    1  0.4978708E-009  0.2787061E+03  0.7818608E-02  0.1096398E+00
          2   -1    0    0  501    0  0.00000000000E+00  0.00000000000E+00  0.65016210901E+03  0.65016210902E+03  0.25500000000E-02 0. -1.
         -2   -1    0    0    0  501 -0.00000000000E+00 -0.00000000000E+00 -0.29868357683E+02  0.29868357792E+02  0.25500000000E-02 0.  1.
    9000005    2    1    2    0    0 -0.12805790620E+03  0.38189482507E+02  0.40415243428E+03  0.42591566431E+03  0.14411767932E+02 0.  0.
         22    1    1    2    0    0  0.12805790620E+03 -0.38189482507E+02  0.21614131705E+03  0.25411480250E+03  0.00000000000E+00 0.  1.
         22    1    3    3    0    0 -0.11968330755E+03  0.32083997861E+02  0.37768612998E+03  0.39749250283E+03  0.00000000000E+00 0. -1.
         22    1    3    3    0    0 -0.83745986531E+01  0.61054846458E+01  0.26466304303E+02  0.28423161486E+02  0.00000000000E+00 0. -1.
<mgrwt>
<rscale>  0 0.27870611E+03</rscale>
<asrwt>0</asrwt>
<pdfrwt beam="1">  1        2 0.10002494E+00 0.27870611E+03</pdfrwt>
<pdfrwt beam="2">  1       -2 0.45951321E-02 0.27870611E+03</pdfrwt>
<totfact> 0.10178075E+04</totfact>
</mgrwt>
</event>
<event>
 7    1  0.3480999E-009  0.8924481E+02  0.7818608E-02  0.1304691E+00
         -2   -1    0    0    0  501 -0.00000000000E+00  0.00000000000E+00  0.12730529217E+02  0.12730529472E+02  0.25500000000E-02 0.  1.
          2   -1    0    0  501    0  0.00000000000E+00 -0.00000000000E+00 -0.15640819209E+03  0.15640819211E+03  0.25500000000E-02 0. -1.
         23    2    1    2    0    0  0.00000000000E+00  0.00000000000E+00 -0.14367766287E+03  0.16913872158E+03  0.89244811221E+02 0.  0.
    9000005    2    3    3    0    0 -0.30447630951E+02  0.24663544529E+02 -0.11017716135E+03  0.11758649310E+03  0.12338063745E+02 0.  0.
         22    1    3    3    0    0  0.30447630951E+02 -0.24663544529E+02 -0.33500501520E+02  0.51552228481E+02  0.00000000000E+00 0.  1.
         22    1    4    4    0    0 -0.31563548783E+02  0.22918017326E+02 -0.10487283302E+03  0.11189193105E+03  0.00000000000E+00 0.  1.
         22    1    4    4    0    0  0.11159178324E+01  0.17455272023E+01 -0.53043283383E+01  0.56945620501E+01  0.00000000000E+00 0.  1.
<mgrwt>
<rscale>  0 0.89244811E+02</rscale>
<asrwt>0</asrwt>
<pdfrwt beam="2">  1        2 0.24062798E-01 0.89244811E+02</pdfrwt>
<pdfrwt beam="1">  1       -2 0.19585431E-02 0.89244811E+02</pdfrwt>
<totfact> 0.15028232E+05</totfact>
</mgrwt>
</event>
<event>
 7    1  0.3480999E-009  0.9183872E+02  0.7818608E-02  0.1298459E+00
         -2   -1    0    0    0  501 -0.00000000000E+00  0.00000000000E+00  0.33304714186E+01  0.33304723948E+01  0.25500000000E-02 0.  1.
          2   -1    0    0  501    0  0.00000000000E+00 -0.00000000000E+00 -0.63311982778E+03  0.63311982778E+03  0.25500000000E-02 0. -1.
         23    2    1    2    0    0 -0.44408920985E-15  0.00000000000E+00 -0.62978935636E+03  0.63645030018E+03  0.91838723929E+02 0.  0.
    9000005    2    3    3    0    0  0.36615263094E+01 -0.38821552391E+02 -0.47924278223E+03  0.48093570058E+03  0.10246173490E+02 0.  0.
         22    1    3    3    0    0 -0.36615263094E+01  0.38821552391E+02 -0.15054657413E+03  0.15551459960E+03  0.00000000000E+00 0.  1.
         22    1    4    4    0    0  0.68639506090E+01 -0.23234194405E+02 -0.26674680766E+03  0.26784473302E+03  0.00000000000E+00 0. -1.
         22    1    4    4    0    0 -0.32024242996E+01 -0.15587357986E+02 -0.21249597457E+03  0.21309096756E+03  0.00000000000E+00 0. -1.
<mgrwt>
<rscale>  0 0.91838724E+02</rscale>
<asrwt>0</asrwt>
<pdfrwt beam="2">  1        2 0.97402955E-01 0.91838724E+02</pdfrwt>
<pdfrwt beam="1">  1       -2 0.51238080E-03 0.91838724E+02</pdfrwt>
<totfact> 0.22687112E+05</totfact>
</mgrwt>
</event>
<event>
 7    1  0.3792431E-009  0.9061135E+02  0.7818608E-02  0.1301378E+00
          2   -1    0    0  501    0  0.00000000000E+00  0.00000000000E+00  0.42630074244E+03  0.42630074244E+03  0.25500000000E-02 0. -1.
         -2   -1    0    0    0  501 -0.00000000000E+00 -0.00000000000E+00 -0.48149206334E+01  0.48149213087E+01  0.25500000000E-02 0.  1.
         23    2    1    2    0    0  0.00000000000E+00  0.00000000000E+00  0.42148582180E+03  0.43111566375E+03  0.90611354432E+02 0.  0.
    9000005    2    3    3    0    0  0.33660807060E+02  0.20268918090E+02  0.31042027902E+03  0.31330465508E+03  0.15974300957E+02 0.  0.
         22    1    3    3    0    0 -0.33660807060E+02 -0.20268918090E+02  0.11106554278E+03  0.11781100868E+03  0.00000000000E+00 0.  1.
         22    1    4    4    0    0  0.33175014927E+02  0.13949012247E+02  0.27071210746E+03  0.27309375987E+03  0.00000000000E+00 0.  1.
         22    1    4    4    0    0  0.48579213303E+00  0.63199058430E+01  0.39708171566E+02  0.40210895203E+02  0.00000000000E+00 0.  1.
<mgrwt>
<rscale>  0 0.90611354E+02</rscale>
<asrwt>0</asrwt>
<pdfrwt beam="1">  1        2 0.65584719E-01 0.90611354E+02</pdfrwt>
<pdfrwt beam="2">  1       -2 0.74075720E-03 0.90611354E+02</pdfrwt>
<totfact> 0.20757082E+05</totfact>
</mgrwt>
</event>
<event>
 7    1  0.3480999E-009  0.8793757E+02  0.7818608E-02  0.1307924E+00
          2   -1    0    0  501    0  0.00000000000E+00  0.00000000000E+00  0.13523533857E+02  0.13523534097E+02  0.25500000000E-02 0. -1.
         -2   -1    0    0    0  501 -0.00000000000E+00 -0.00000000000E+00 -0.14295478145E+03  0.14295478148E+03  0.25500000000E-02 0.  1.
         23    2    1    2    0    0  0.00000000000E+00 -0.88817841970E-15 -0.12943124760E+03  0.15647831557E+03  0.87937565295E+02 0.  0.
    9000005    2    3    3    0    0 -0.18315151536E+02 -0.76924780417E+01 -0.13422729462E+03  0.13604253662E+03  0.97972525205E+01 0.  0.
         22    1    3    3    0    0  0.18315151536E+02  0.76924780417E+01  0.47960470195E+01  0.20435778949E+02  0.00000000000E+00 0. -1.
         22    1    4    4    0    0 -0.16914023375E+02 -0.95362187405E+01 -0.10960933763E+03  0.11131590430E+03  0.00000000000E+00 0. -1.
         22    1    4    4    0    0 -0.14011281616E+01  0.18437406988E+01 -0.24617956987E+02  0.24726632325E+02  0.00000000000E+00 0. -1.
<mgrwt>
<rscale>  0 0.87937565E+02</rscale>
<asrwt>0</asrwt>
<pdfrwt beam="1">  1        2 0.20805438E-02 0.87937565E+02</pdfrwt>
<pdfrwt beam="2">  1       -2 0.21993042E-01 0.87937565E+02</pdfrwt>
<totfact> 0.77871357E+04</totfact>
</mgrwt>
</event>
<event>
 7    1  0.3480999E-009  0.9111331E+02  0.7818608E-02  0.1300178E+00
         -2   -1    0    0    0  501 -0.00000000000E+00  0.00000000000E+00  0.20446549974E+01  0.20446565875E+01  0.25500000000E-02 0.  1.
          2   -1    0    0  501    0  0.00000000000E+00 -0.00000000000E+00 -0.10150407656E+04  0.10150407656E+04  0.25500000000E-02 0. -1.
         23    2    1    2    0    0  0.00000000000E+00  0.17763568394E-14 -0.10129961106E+04  0.10170854222E+04  0.91113313720E+02 0.  0.
    9000005    2    3    3    0    0  0.33637787094E+02  0.14775005481E+02 -0.79688791644E+03  0.79787649652E+03  0.15058247941E+02 0.  0.
         22    1    3    3    0    0 -0.33637787094E+02 -0.14775005481E+02 -0.21610819419E+03  0.21920892569E+03  0.00000000000E+00 0.  1.
         22    1    4    4    0    0  0.18271083342E+02  0.26414667239E+01 -0.50196758379E+03  0.50230694302E+03  0.00000000000E+00 0. -1.
         22    1    4    4    0    0  0.15366703752E+02  0.12133538757E+02 -0.29492033264E+03  0.29556955350E+03  0.00000000000E+00 0. -1.
<mgrwt>
<rscale>  0 0.91113314E+02</rscale>
<asrwt>0</asrwt>
<pdfrwt beam="2">  1        2 0.15615972E+00 0.91113314E+02</pdfrwt>
<pdfrwt beam="1">  1       -2 0.31456324E-03 0.91113314E+02</pdfrwt>
<totfact> 0.25061563E+05</totfact>
</mgrwt>
</event>
<event>
 7    1  0.3480999E-009  0.9080504E+02  0.7818608E-02  0.1300914E+00
          2   -1    0    0  501    0  0.00000000000E+00  0.00000000000E+00  0.26632467340E+03  0.26632467341E+03  0.25500000000E-02 0. -1.
         -2   -1    0    0    0  501 -0.00000000000E+00 -0.00000000000E+00 -0.77401352310E+01  0.77401356511E+01  0.25500000000E-02 0.  1.
         23    2    1    2    0    0  0.00000000000E+00  0.00000000000E+00  0.25858453817E+03  0.27406480906E+03  0.90805044941E+02 0.  0.
    9000005    2    3    3    0    0 -0.30034851135E+02 -0.20385525286E+02  0.50855834829E+02  0.63188361551E+02  0.94229069564E+01 0.  0.
         22    1    3    3    0    0  0.30034851135E+02  0.20385525286E+02  0.20772870334E+03  0.21087644751E+03  0.00000000000E+00 0. -1.
         22    1    4    4    0    0 -0.91033010251E+01 -0.21330250166E+01  0.91520104626E+01  0.13083546185E+02  0.00000000000E+00 0. -1.
         22    1    4    4    0    0 -0.20931550110E+02 -0.18252500270E+02  0.41703824366E+02  0.50104815366E+02  0.00000000000E+00 0. -1.
<mgrwt>
<rscale>  0 0.90805045E+02</rscale>
<asrwt>0</asrwt>
<pdfrwt beam="1">  1        2 0.40973028E-01 0.90805045E+02</pdfrwt>
<pdfrwt beam="2">  1       -2 0.11907900E-02 0.90805045E+02</pdfrwt>
<totfact> 0.17374304E+05</totfact>
</mgrwt>
</event>
<event>
 7    1  0.3480999E-009  0.8670539E+02  0.7818608E-02  0.1311032E+00
          2   -1    0    0  501    0  0.00000000000E+00  0.00000000000E+00  0.18344772052E+03  0.18344772054E+03  0.25500000000E-02 0. -1.
         -2   -1    0    0    0  501 -0.00000000000E+00 -0.00000000000E+00 -0.10245187413E+02  0.10245187730E+02  0.25500000000E-02 0.  1.
         23    2    1    2    0    0  0.00000000000E+00  0.00000000000E+00  0.17320253311E+03  0.19369290827E+03  0.86705393365E+02 0.  0.
    9000005    2    3    3    0    0  0.14125168622E+02 -0.14437438637E+02  0.17158027161E+03  0.17342984445E+03  0.15171068453E+02 0.  0.
         22    1    3    3    0    0 -0.14125168622E+02  0.14437438637E+02  0.16222615011E+01  0.20263063820E+02  0.00000000000E+00 0.  1.
         22    1    4    4    0    0  0.10275362568E+02 -0.15396586654E+02  0.97385835972E+02  0.99129405347E+02  0.00000000000E+00 0.  1.
         22    1    4    4    0    0  0.38498060535E+01  0.95914801781E+00  0.74194435638E+02  0.74300439105E+02  0.00000000000E+00 0.  1.
<mgrwt>
<rscale>  0 0.86705393E+02</rscale>
<asrwt>0</asrwt>
<pdfrwt beam="1">  1        2 0.28222727E-01 0.86705393E+02</pdfrwt>
<pdfrwt beam="2">  1       -2 0.15761826E-02 0.86705393E+02</pdfrwt>
<totfact> 0.17166057E+05</totfact>
</mgrwt>
</event>
<event>
 7    1  0.3480999E-009  0.9103520E+02  0.7818608E-02  0.1300364E+00
          2   -1    0    0  501    0  0.00000000000E+00  0.00000000000E+00  0.30651048012E+01  0.30651058620E+01  0.25500000000E-02 0.  1.
         -2   -1    0    0    0  501 -0.00000000000E+00 -0.00000000000E+00 -0.67594796872E+03  0.67594796872E+03  0.25500000000E-02 0. -1.
         23    2    1    2    0    0  0.35527136788E-14  0.00000000000E+00 -0.67288286392E+03  0.67901307459E+03  0.91035195964E+02 0.  0.
    9000005    2    3    3    0    0  0.26274197831E+02 -0.15547773934E+02 -0.58474337013E+03  0.58573586885E+03  0.15153626372E+02 0.  0.
         22    1    3    3    0    0 -0.26274197831E+02  0.15547773934E+02 -0.88139493783E+02  0.93277205738E+02  0.00000000000E+00 0.  1.
         22    1    4    4    0    0  0.37135524409E+01 -0.29039990155E+01 -0.28151993962E+02  0.28543973901E+02  0.00000000000E+00 0. -1.
         22    1    4    4    0    0  0.22560645390E+02 -0.12643774918E+02 -0.55659137617E+03  0.55719189495E+03  0.00000000000E+00 0. -1.
<mgrwt>
<rscale>  0 0.91035196E+02</rscale>
<asrwt>0</asrwt>
<pdfrwt beam="1">  1        2 0.47155521E-03 0.91035196E+02</pdfrwt>
<pdfrwt beam="2">  1       -2 0.10399188E+00 0.91035196E+02</pdfrwt>
<totfact> 0.28204903E+04</totfact>
</mgrwt>
</event>
<event>
 7    1  0.3480999E-009  0.9085410E+02  0.7818608E-02  0.1300796E+00
         -2   -1    0    0    0  501 -0.00000000000E+00  0.00000000000E+00  0.53316525777E+01  0.53316531875E+01  0.25500000000E-02 0.  1.
          2   -1    0    0  501    0  0.00000000000E+00 -0.00000000000E+00 -0.38705012717E+03  0.38705012718E+03  0.25500000000E-02 0. -1.
         23    2    1    2    0    0 -0.17763568394E-14 -0.71054273576E-14 -0.38171847459E+03  0.39238178037E+03  0.90854101272E+02 0.  0.
    9000005    2    3    3    0    0 -0.12474362696E+02 -0.37171206171E+02 -0.28387051499E+03  0.28697053101E+03  0.15241656517E+02 0.  0.
         22    1    3    3    0    0  0.12474362696E+02  0.37171206171E+02 -0.97847959598E+02  0.10541124935E+03  0.00000000000E+00 0.  1.
         22    1    4    4    0    0 -0.16284184795E+01 -0.26681880888E+02 -0.19590445328E+03  0.19771982533E+03  0.00000000000E+00 0.  1.
         22    1    4    4    0    0 -0.10845944217E+02 -0.10489325283E+02 -0.87966061717E+02  0.89250705682E+02  0.00000000000E+00 0.  1.
<mgrwt>
<rscale>  0 0.90854101E+02</rscale>
<asrwt>0</asrwt>
<pdfrwt beam="2">  1        2 0.59546151E-01 0.90854101E+02</pdfrwt>
<pdfrwt beam="1">  1       -2 0.82025460E-03 0.90854101E+02</pdfrwt>
<totfact> 0.19914588E+05</totfact>
</mgrwt>
</event>
<event>
 7    1  0.3480999E-009  0.9096564E+02  0.7818608E-02  0.1300530E+00
          2   -1    0    0  501    0  0.00000000000E+00  0.00000000000E+00  0.21184146164E+03  0.21184146166E+03  0.25500000000E-02 0. -1.
         -2   -1    0    0    0  501 -0.00000000000E+00 -0.00000000000E+00 -0.97652598560E+01  0.97652601889E+01  0.25500000000E-02 0.  1.
         23    2    1    2    0    0  0.00000000000E+00  0.00000000000E+00  0.20207620178E+03  0.22160672184E+03  0.90965640981E+02 0.  0.
    9000005    2    3    3    0    0 -0.20528155052E+02 -0.12353261742E+02  0.19460110623E+03  0.19650920645E+03  0.13125145623E+02 0.  0.
         22    1    3    3    0    0  0.20528155052E+02  0.12353261742E+02  0.74750955549E+01  0.25097515396E+02  0.00000000000E+00 0.  1.
         22    1    4    4    0    0 -0.15595476705E+02 -0.49512218205E+01  0.15790145284E+03  0.15874697572E+03  0.00000000000E+00 0.  1.
         22    1    4    4    0    0 -0.49326783471E+01 -0.74020399214E+01  0.36699653389E+02  0.37762230728E+02  0.00000000000E+00 0.  1.
<mgrwt>
<rscale>  0 0.90965641E+02</rscale>
<asrwt>0</asrwt>
<pdfrwt beam="1">  1        2 0.32590993E-01 0.90965641E+02</pdfrwt>
<pdfrwt beam="2">  1       -2 0.15023478E-02 0.90965641E+02</pdfrwt>
<totfact> 0.15893232E+05</totfact>
</mgrwt>
</event>
<event>
 7    1  0.3480999E-009  0.9085732E+02  0.7818608E-02  0.1300789E+00
          2   -1    0    0  501    0  0.00000000000E+00  0.00000000000E+00  0.16309633781E+03  0.16309633783E+03  0.25500000000E-02 0. -1.
         -2   -1    0    0    0  501 -0.00000000000E+00 -0.00000000000E+00 -0.12653645023E+02  0.12653645280E+02  0.25500000000E-02 0.  1.
         23    2    1    2    0    0 -0.44408920985E-15 -0.71054273576E-14  0.15044269278E+03  0.17574998310E+03  0.90857320838E+02 0.  0.
    9000005    2    3    3    0    0  0.28512746278E+01 -0.37143878184E+02  0.25560828336E+02  0.45430078558E+02  0.47685048995E+01 0.  0.
         22    1    3    3    0    0 -0.28512746278E+01  0.37143878184E+02  0.12488186445E+03  0.13031990455E+03  0.00000000000E+00 0. -1.
         22    1    4    4    0    0  0.15362423471E+01 -0.28875191660E+01  0.24330678426E+01  0.40764723241E+01  0.00000000000E+00 0. -1.
         22    1    4    4    0    0  0.13150322808E+01 -0.34256359018E+02  0.23127760493E+02  0.41353606234E+02  0.00000000000E+00 0. -1.
<mgrwt>
<rscale>  0 0.90857321E+02</rscale>
<asrwt>0</asrwt>
<pdfrwt beam="1">  1        2 0.25091743E-01 0.90857321E+02</pdfrwt>
<pdfrwt beam="2">  1       -2 0.19467147E-02 0.90857321E+02</pdfrwt>
<totfact> 0.14526046E+05</totfact>
</mgrwt>
</event>
<event>
 7    1  0.3480999E-009  0.9181413E+02  0.7818608E-02  0.1298517E+00
         -2   -1    0    0    0  501 -0.00000000000E+00  0.00000000000E+00  0.17042856672E+01  0.17042875749E+01  0.25500000000E-02 0.  1.
          2   -1    0    0  501    0  0.00000000000E+00 -0.00000000000E+00 -0.12365635045E+04  0.12365635045E+04  0.25500000000E-02 0. -1.
         23    2    1    2    0    0 -0.35527136788E-14  0.11102230246E-15 -0.12348592188E+04  0.12382677920E+04  0.91814130502E+02 0.  0.
    9000005    2    3    3    0    0 -0.24222006668E+02 -0.94966655870E+00 -0.11425065301E+04  0.11427867647E+04  0.72671017602E+01 0.  0.
         22    1    3    3    0    0  0.24222006668E+02  0.94966655870E+00 -0.92352688704E+02  0.95481027354E+02  0.00000000000E+00 0.  1.
         22    1    4    4    0    0 -0.15595583164E+02 -0.31291214290E+01 -0.61744597219E+03  0.61765082546E+03  0.00000000000E+00 0.  1.
         22    1    4    4    0    0 -0.86264235040E+01  0.21794548703E+01 -0.52506055789E+03  0.52513593922E+03  0.00000000000E+00 0.  1.
<mgrwt>
<rscale>  0 0.91814131E+02</rscale>
<asrwt>0</asrwt>
<pdfrwt beam="2">  1        2 0.19023982E+00 0.91814131E+02</pdfrwt>
<pdfrwt beam="1">  1       -2 0.26219893E-03 0.91814131E+02</pdfrwt>
<totfact> 0.24325022E+05</totfact>
</mgrwt>
</event>
<event>
 7    1  0.3480999E-009  0.9984714E+02  0.7818608E-02  0.1280618E+00
         -2   -1    0    0    0  501 -0.00000000000E+00  0.00000000000E+00  0.42966953649E+01  0.42966961216E+01  0.25500000000E-02 0.  1.
          2   -1    0    0  501    0  0.00000000000E+00 -0.00000000000E+00 -0.58006495637E+03  0.58006495637E+03  0.25500000000E-02 0. -1.
         23    2    1    2    0    0  0.71054273576E-14  0.00000000000E+00 -0.57576826100E+03  0.58436165249E+03  0.99847135804E+02 0.  0.
    9000005    2    3    3    0    0 -0.41579116026E+02  0.24248419966E+02 -0.34911387003E+03  0.35265273659E+03  0.12909284261E+02 0.  0.
         22    1    3    3    0    0  0.41579116026E+02 -0.24248419966E+02 -0.22665439098E+03  0.23170891590E+03  0.00000000000E+00 0.  1.
         22    1    4    4    0    0 -0.40545596059E+02  0.19640009496E+02 -0.31059004480E+03  0.31384048697E+03  0.00000000000E+00 0. -1.
         22    1    4    4    0    0 -0.10335199675E+01  0.46084104698E+01 -0.38523825222E+02  0.38812249617E+02  0.00000000000E+00 0. -1.
<mgrwt>
<rscale>  0 0.99847136E+02</rscale>
<asrwt>0</asrwt>
<pdfrwt beam="2">  1        2 0.89240700E-01 0.99847136E+02</pdfrwt>
<pdfrwt beam="1">  1       -2 0.66103057E-03 0.99847136E+02</pdfrwt>
<totfact> 0.17728660E+05</totfact>
</mgrwt>
</event>
<event>
 7    1  0.3480999E-009  0.8642582E+02  0.7818608E-02  0.1311745E+00
         -2   -1    0    0    0  501 -0.00000000000E+00  0.00000000000E+00  0.22984410595E+03  0.22984410596E+03  0.25500000000E-02 0.  1.
          2   -1    0    0  501    0  0.00000000000E+00 -0.00000000000E+00 -0.81244445762E+01  0.81244449764E+01  0.25500000000E-02 0. -1.
         23    2    1    2    0    0 -0.38857805862E-15  0.00000000000E+00  0.22171966137E+03  0.23796855094E+03  0.86425823670E+02 0.  0.
    9000005    2    3    3    0    0 -0.26845342619E+00  0.36017875510E+02  0.17585993731E+03  0.17965497006E+03  0.71993954252E+01 0.  0.
         22    1    3    3    0    0  0.26845342619E+00 -0.36017875510E+02  0.45859724066E+02  0.58313580878E+02  0.00000000000E+00 0. -1.
         22    1    4    4    0    0 -0.34548435340E+01  0.19153445709E+02  0.86613909871E+02  0.88773643664E+02  0.00000000000E+00 0. -1.
         22    1    4    4    0    0  0.31863901078E+01  0.16864429801E+02  0.89246027438E+02  0.90881326398E+02  0.00000000000E+00 0. -1.
<mgrwt>
<rscale>  0 0.86425824E+02</rscale>
<asrwt>0</asrwt>
<pdfrwt beam="2">  1        2 0.12499144E-02 0.86425824E+02</pdfrwt>
<pdfrwt beam="1">  1       -2 0.35360636E-01 0.86425824E+02</pdfrwt>
<totfact> 0.67102040E+04</totfact>
</mgrwt>
</event>
<event>
 7    1  0.3480999E-009  0.9191002E+02  0.7818608E-02  0.1298291E+00
          2   -1    0    0  501    0  0.00000000000E+00  0.00000000000E+00  0.14397615058E+04  0.14397615058E+04  0.25500000000E-02 0. -1.
         -2   -1    0    0    0  501 -0.00000000000E+00 -0.00000000000E+00 -0.14668131902E+01  0.14668154068E+01  0.25500000000E-02 0.  1.
         23    2    1    2    0    0  0.00000000000E+00  0.00000000000E+00  0.14382946926E+04  0.14412283212E+04  0.91910016133E+02 0.  0.
    9000005    2    3    3    0    0 -0.12635797035E+02 -0.13437978396E+02  0.13778064484E+04  0.13779901183E+04  0.12880761455E+02 0.  0.
         22    1    3    3    0    0  0.12635797035E+02  0.13437978396E+02  0.60488244166E+02  0.63238202950E+02  0.00000000000E+00 0.  1.
         22    1    4    4    0    0 -0.12493191215E+02 -0.11155213095E+02  0.13448963895E+04  0.13450006755E+04  0.00000000000E+00 0.  1.
         22    1    4    4    0    0 -0.14260582035E+00 -0.22827653017E+01  0.32910058951E+02  0.32989442766E+02  0.00000000000E+00 0.  1.
<mgrwt>
<rscale>  0 0.91910016E+02</rscale>
<asrwt>0</asrwt>
<pdfrwt beam="1">  1        2 0.22150205E+00 0.91910016E+02</pdfrwt>
<pdfrwt beam="2">  1       -2 0.22566345E-03 0.91910016E+02</pdfrwt>
<totfact> 0.23436790E+05</totfact>
</mgrwt>
</event>
<event>
 7    1  0.3480999E-009  0.9127540E+02  0.7818608E-02  0.1299792E+00
         -2   -1    0    0    0  501 -0.00000000000E+00  0.00000000000E+00  0.32754398509E+01  0.32754408435E+01  0.25500000000E-02 0.  1.
          2   -1    0    0  501    0  0.00000000000E+00 -0.00000000000E+00 -0.63588390880E+03  0.63588390881E+03  0.25500000000E-02 0. -1.
         23    2    1    2    0    0  0.00000000000E+00  0.00000000000E+00 -0.63260846895E+03  0.63915934965E+03  0.91275403352E+02 0.  0.
    9000005    2    3    3    0    0 -0.35700347404E+02  0.48878511746E+01 -0.50909389573E+03  0.51049600719E+03  0.11453069388E+02 0.  0.
         22    1    3    3    0    0  0.35700347404E+02 -0.48878511746E+01 -0.12351457322E+03  0.12866334246E+03  0.00000000000E+00 0.  1.
         22    1    4    4    0    0 -0.23022472756E+02 -0.68757635965E+00 -0.36935587341E+03  0.37007332818E+03  0.00000000000E+00 0. -1.
         22    1    4    4    0    0 -0.12677874648E+02  0.55754275342E+01 -0.13973802232E+03  0.14042267901E+03  0.00000000000E+00 0. -1.
<mgrwt>
<rscale>  0 0.91275403E+02</rscale>
<asrwt>0</asrwt>
<pdfrwt beam="2">  1        2 0.97828195E-01 0.91275403E+02</pdfrwt>
<pdfrwt beam="1">  1       -2 0.50391441E-03 0.91275403E+02</pdfrwt>
<totfact> 0.23085710E+05</totfact>
</mgrwt>
</event>
<event>
 7    1  0.3480999E-009  0.9003685E+02  0.7818608E-02  0.1302762E+00
         -2   -1    0    0    0  501 -0.00000000000E+00  0.00000000000E+00  0.18737165484E+02  0.18737165657E+02  0.25500000000E-02 0. -1.
          2   -1    0    0  501    0  0.00000000000E+00 -0.00000000000E+00 -0.10816249890E+03  0.10816249893E+03  0.25500000000E-02 0.  1.
         23    2    1    2    0    0  0.00000000000E+00  0.88817841970E-15 -0.89425333416E+02  0.12689966459E+03  0.90036851432E+02 0.  0.
    9000005    2    3    3    0    0 -0.43717414201E+02  0.79372320025E+01 -0.43203141545E+02  0.62784900472E+02  0.10060831553E+02 0.  0.
         22    1    3    3    0    0  0.43717414201E+02 -0.79372320025E+01 -0.46222191871E+02  0.64114764116E+02  0.00000000000E+00 0. -1.
         22    1    4    4    0    0 -0.24335779112E+02  0.70498374301E+01 -0.30238857189E+02  0.39450207057E+02  0.00000000000E+00 0.  1.
         22    1    4    4    0    0 -0.19381635089E+02  0.88739457240E+00 -0.12964284357E+02  0.23334693415E+02  0.00000000000E+00 0.  1.
<mgrwt>
<rscale>  0 0.90036851E+02</rscale>
<asrwt>0</asrwt>
<pdfrwt beam="2">  1        2 0.16640384E-01 0.90036851E+02</pdfrwt>
<pdfrwt beam="1">  1       -2 0.28826409E-02 0.90036851E+02</pdfrwt>
<totfact> 0.13008414E+05</totfact>
</mgrwt>
</event>
<event>
 7    1  0.3480999E-009  0.9019190E+02  0.7818608E-02  0.1302388E+00
          2   -1    0    0  501    0  0.00000000000E+00  0.00000000000E+00  0.39938150653E+02  0.39938150734E+02  0.25500000000E-02 0. -1.
         -2   -1    0    0    0  501 -0.00000000000E+00 -0.00000000000E+00 -0.50919848813E+02  0.50919848877E+02  0.25500000000E-02 0.  1.
         23    2    1    2    0    0 -0.35527136788E-14  0.35527136788E-14 -0.10981698161E+02  0.90857999611E+02  0.90191897634E+02 0.  0.
    9000005    2    3    3    0    0  0.29085342096E+02 -0.31525608862E+02  0.83563001364E+01  0.43807183284E+02  0.30692696694E+01 0.  0.
         22    1    3    3    0    0 -0.29085342096E+02  0.31525608862E+02 -0.19337998297E+02  0.47050816328E+02  0.00000000000E+00 0. -1.
         22    1    4    4    0    0  0.11075824403E+02 -0.10787135518E+02  0.17705479065E+01  0.15561844967E+02  0.00000000000E+00 0.  1.
         22    1    4    4    0    0  0.18009517693E+02 -0.20738473345E+02  0.65857522300E+01  0.28245338317E+02  0.00000000000E+00 0.  1.
<mgrwt>
<rscale>  0 0.90191898E+02</rscale>
<asrwt>0</asrwt>
<pdfrwt beam="1">  1        2 0.61443309E-02 0.90191898E+02</pdfrwt>
<pdfrwt beam="2">  1       -2 0.78338229E-02 0.90191898E+02</pdfrwt>
<totfact> 0.98392369E+04</totfact>
</mgrwt>
</event>
<event>
 7    1  0.3480999E-009  0.9003589E+02  0.7818608E-02  0.1302765E+00
          2   -1    0    0  501    0  0.00000000000E+00  0.00000000000E+00  0.48200191235E+02  0.48200191303E+02  0.25500000000E-02 0. -1.
         -2   -1    0    0    0  501 -0.00000000000E+00 -0.00000000000E+00 -0.42045795779E+02  0.42045795856E+02  0.25500000000E-02 0.  1.
         23    2    1    2    0    0  0.00000000000E+00  0.00000000000E+00  0.61543954560E+01  0.90245987159E+02  0.90035890704E+02 0.  0.
    9000005    2    3    3    0    0 -0.26494795918E+02  0.21517188540E+00  0.38351716600E+02  0.48548409310E+02  0.13567364178E+02 0.  0.
         22    1    3    3    0    0  0.26494795918E+02 -0.21517188540E+00 -0.32197321143E+02  0.41697577849E+02  0.00000000000E+00 0.  1.
         22    1    4    4    0    0 -0.19597656791E+02  0.11521275988E+01  0.16596397699E+02  0.25706729980E+02  0.00000000000E+00 0. -1.
         22    1    4    4    0    0 -0.68971391273E+01 -0.93695571339E+00  0.21755318901E+02  0.22841679330E+02  0.00000000000E+00 0. -1.
<mgrwt>
<rscale>  0 0.90035891E+02</rscale>
<asrwt>0</asrwt>
<pdfrwt beam="1">  1        2 0.74154140E-02 0.90035891E+02</pdfrwt>
<pdfrwt beam="2">  1       -2 0.64685840E-02 0.90035891E+02</pdfrwt>
<totfact> 0.10377720E+05</totfact>
</mgrwt>
</event>
<event>
 7    1  0.3480999E-009  0.8282035E+02  0.7818608E-02  0.1321233E+00
         -2   -1    0    0    0  501 -0.00000000000E+00  0.00000000000E+00  0.79129107904E+02  0.79129107946E+02  0.25500000000E-02 0.  1.
          2   -1    0    0  501    0  0.00000000000E+00 -0.00000000000E+00 -0.21670947491E+02  0.21670947641E+02  0.25500000000E-02 0. -1.
         23    2    1    2    0    0  0.00000000000E+00  0.00000000000E+00  0.57458160413E+02  0.10080005559E+03  0.82820353829E+02 0.  0.
    9000005    2    3    3    0    0 -0.14606456753E+02 -0.18635473435E+02 -0.11532734992E+02  0.27859167891E+02  0.90829406109E+01 0.  0.
         22    1    3    3    0    0  0.14606456753E+02  0.18635473435E+02  0.68990895406E+02  0.72940887696E+02  0.00000000000E+00 0.  1.
         22    1    4    4    0    0 -0.10949919023E+02 -0.15617521853E+02 -0.48768871675E+01  0.19687349844E+02  0.00000000000E+00 0.  1.
         22    1    4    4    0    0 -0.36565377300E+01 -0.30179515822E+01 -0.66558478250E+01  0.81718180469E+01  0.00000000000E+00 0.  1.
<mgrwt>
<rscale>  0 0.82820354E+02</rscale>
<asrwt>0</asrwt>
<pdfrwt beam="2">  1        2 0.33339919E-02 0.82820354E+02</pdfrwt>
<pdfrwt beam="1">  1       -2 0.12173709E-01 0.82820354E+02</pdfrwt>
<totfact> 0.10807773E+05</totfact>
</mgrwt>
</event>
<event>
 7    1  0.3480999E-009  0.9044531E+02  0.7818608E-02  0.1301777E+00
          2   -1    0    0  501    0  0.00000000000E+00  0.00000000000E+00  0.15656641145E+02  0.15656641353E+02  0.25500000000E-02 0. -1.
         -2   -1    0    0    0  501 -0.00000000000E+00 -0.00000000000E+00 -0.13062114488E+03  0.13062114490E+03  0.25500000000E-02 0.  1.
         23    2    1    2    0    0  0.00000000000E+00  0.35527136788E-14 -0.11496450373E+03  0.14627778625E+03  0.90445307413E+02 0.  0.
    9000005    2    3    3    0    0  0.30523054156E+02  0.29496431954E+02 -0.77153182484E+02  0.89432449176E+02  0.15615795373E+02 0.  0.
         22    1    3    3    0    0 -0.30523054156E+02 -0.29496431954E+02 -0.37811321246E+02  0.56845337077E+02  0.00000000000E+00 0. -1.
         22    1    4    4    0    0  0.12649041135E+02  0.14273728044E+02 -0.19954745680E+02  0.27603069196E+02  0.00000000000E+00 0. -1.
         22    1    4    4    0    0  0.17874013021E+02  0.15222703910E+02 -0.57198436804E+02  0.61829379980E+02  0.00000000000E+00 0. -1.
<mgrwt>
<rscale>  0 0.90445307E+02</rscale>
<asrwt>0</asrwt>
<pdfrwt beam="1">  1        2 0.24087141E-02 0.90445307E+02</pdfrwt>
<pdfrwt beam="2">  1       -2 0.20095560E-01 0.90445307E+02</pdfrwt>
<totfact> 0.74831682E+04</totfact>
</mgrwt>
</event>
<event>
 7    1  0.3480999E-009  0.8903905E+02  0.7818608E-02  0.1305196E+00
         -2   -1    0    0    0  501 -0.00000000000E+00  0.00000000000E+00  0.17603414057E+01  0.17603432527E+01  0.25500000000E-02 0.  1.
          2   -1    0    0  501    0  0.00000000000E+00 -0.00000000000E+00 -0.11259106294E+04  0.11259106294E+04  0.25500000000E-02 0. -1.
         23    2    1    2    0    0  0.00000000000E+00 -0.88817841970E-15 -0.11241502880E+04  0.11276709726E+04  0.89039050827E+02 0.  0.
    9000005    2    3    3    0    0 -0.14348980364E+02 -0.63727844724E+01 -0.10895982875E+04  0.10897190774E+04  0.40906946363E+01 0.  0.
         22    1    3    3    0    0  0.14348980364E+02  0.63727844724E+01 -0.34552000459E+02  0.37951895277E+02  0.00000000000E+00 0.  1.
         22    1    4    4    0    0 -0.42227698299E+01 -0.17791747738E+01 -0.20677772388E+03  0.20682849016E+03  0.00000000000E+00 0. -1.
         22    1    4    4    0    0 -0.10126210534E+02 -0.45936096987E+01 -0.88282056363E+03  0.88289058720E+03  0.00000000000E+00 0. -1.
<mgrwt>
<rscale>  0 0.89039051E+02</rscale>
<asrwt>0</asrwt>
<pdfrwt beam="2">  1        2 0.17321644E+00 0.89039051E+02</pdfrwt>
<pdfrwt beam="1">  1       -2 0.27082280E-03 0.89039051E+02</pdfrwt>
<totfact> 0.26604479E+05</totfact>
</mgrwt>
</event>
<event>
 7    1  0.3480999E-009  0.9101740E+02  0.7818608E-02  0.1300406E+00
          2   -1    0    0  501    0  0.00000000000E+00  0.00000000000E+00  0.23081700437E+02  0.23081700577E+02  0.25500000000E-02 0. -1.
         -2   -1    0    0    0  501 -0.00000000000E+00 -0.00000000000E+00 -0.89726566691E+02  0.89726566727E+02  0.25500000000E-02 0.  1.
         23    2    1    2    0    0  0.17763568394E-14  0.35527136788E-14 -0.66644866254E+02  0.11280826730E+03  0.91017399294E+02 0.  0.
    9000005    2    3    3    0    0  0.91769994145E+01  0.15549592540E+02  0.15666625769E+02  0.28539715249E+02  0.15590543195E+02 0.  0.
         22    1    3    3    0    0 -0.91769994145E+01 -0.15549592540E+02 -0.82311492023E+02  0.84268552055E+02  0.00000000000E+00 0.  1.
         22    1    4    4    0    0  0.98832185721E+01  0.23773652918E+01  0.97402949986E+01  0.14078466597E+02  0.00000000000E+00 0. -1.
         22    1    4    4    0    0 -0.70621915760E+00  0.13172227248E+02  0.59263307702E+01  0.14461248652E+02  0.00000000000E+00 0. -1.
<mgrwt>
<rscale>  0 0.91017399E+02</rscale>
<asrwt>0</asrwt>
<pdfrwt beam="1">  1        2 0.35510309E-02 0.91017399E+02</pdfrwt>
<pdfrwt beam="2">  1       -2 0.13804087E-01 0.91017399E+02</pdfrwt>
<totfact> 0.82734102E+04</totfact>
</mgrwt>
</event>
<event>
 7    1  0.3480999E-009  0.9190317E+02  0.7818608E-02  0.1298307E+00
          2   -1    0    0  501    0  0.00000000000E+00  0.00000000000E+00  0.11974741894E+03  0.11974741897E+03  0.25500000000E-02 0. -1.
         -2   -1    0    0    0  501 -0.00000000000E+00 -0.00000000000E+00 -0.17633351141E+02  0.17633351325E+02  0.25500000000E-02 0.  1.
         23    2    1    2    0    0 -0.71054273576E-14  0.69388939039E-16  0.10211406780E+03  0.13738077029E+03  0.91903172979E+02 0.  0.
    9000005    2    3    3    0    0  0.44618623750E+02 -0.83327931703E-01  0.63546642095E+02  0.78403869269E+02  0.10870256024E+02 0.  0.
         22    1    3    3    0    0 -0.44618623750E+02  0.83327931703E-01  0.38567425705E+02  0.58976901024E+02  0.00000000000E+00 0.  1.
         22    1    4    4    0    0  0.26126164507E+02  0.50063022269E+01  0.33850229080E+02  0.43052032967E+02  0.00000000000E+00 0. -1.
         22    1    4    4    0    0  0.18492459242E+02 -0.50896301586E+01  0.29696413015E+02  0.35351836302E+02  0.00000000000E+00 0. -1.
<mgrwt>
<rscale>  0 0.91903173E+02</rscale>
<asrwt>0</asrwt>
<pdfrwt beam="1">  1        2 0.18422680E-01 0.91903173E+02</pdfrwt>
<pdfrwt beam="2">  1       -2 0.27128232E-02 0.91903173E+02</pdfrwt>
<totfact> 0.12698746E+05</totfact>
</mgrwt>
</event>
<event>
 7    1  0.3480999E-009  0.8601739E+02  0.7818608E-02  0.1312793E+00
         -2   -1    0    0    0  501 -0.00000000000E+00  0.00000000000E+00  0.27731971874E+01  0.27731983598E+01  0.25500000000E-02 0.  1.
          2   -1    0    0  501    0  0.00000000000E+00 -0.00000000000E+00 -0.66700903945E+03  0.66700903945E+03  0.25500000000E-02 0. -1.
         23    2    1    2    0    0  0.00000000000E+00  0.00000000000E+00 -0.66423584226E+03  0.66978223781E+03  0.86017393274E+02 0.  0.
    9000005    2    3    3    0    0  0.23037902538E+02 -0.26458782862E+02 -0.51666142299E+03  0.51809498928E+03  0.15892758371E+02 0.  0.
         22    1    3    3    0    0 -0.23037902538E+02  0.26458782862E+02 -0.14757441927E+03  0.15168724853E+03  0.00000000000E+00 0.  1.
         22    1    4    4    0    0  0.21504865533E+01  0.14977589038E+01 -0.15498075352E+02  0.15718085563E+02  0.00000000000E+00 0.  1.
         22    1    4    4    0    0  0.20887415985E+02 -0.27956541766E+02 -0.50116334764E+03  0.50237690372E+03  0.00000000000E+00 0.  1.
<mgrwt>
<rscale>  0 0.86017393E+02</rscale>
<asrwt>0</asrwt>
<pdfrwt beam="2">  1        2 0.10261665E+00 0.86017393E+02</pdfrwt>
<pdfrwt beam="1">  1       -2 0.42664634E-03 0.86017393E+02</pdfrwt>
<totfact> 0.27320334E+05</totfact>
</mgrwt>
</event>
<event>
 7    1  0.3480999E-009  0.9092449E+02  0.7818608E-02  0.1300628E+00
          2   -1    0    0  501    0  0.00000000000E+00  0.00000000000E+00  0.12129686985E+02  0.12129687253E+02  0.25500000000E-02 0. -1.
         -2   -1    0    0    0  501 -0.00000000000E+00 -0.00000000000E+00 -0.17039316364E+03  0.17039316366E+03  0.25500000000E-02 0.  1.
         23    2    1    2    0    0 -0.88817841970E-15  0.00000000000E+00 -0.15826347666E+03  0.18252285092E+03  0.90924490994E+02 0.  0.
    9000005    2    3    3    0    0  0.75818629555E+01 -0.43163516036E+02 -0.10300199226E+03  0.11199338600E+03  0.35403866296E+01 0.  0.
         22    1    3    3    0    0 -0.75818629555E+01  0.43163516036E+02 -0.55261484403E+02  0.70529464912E+02  0.00000000000E+00 0. -1.
         22    1    4    4    0    0  0.35392574290E+01 -0.29052341296E+02 -0.66941744873E+02  0.73059989629E+02  0.00000000000E+00 0.  1.
         22    1    4    4    0    0  0.40426055266E+01 -0.14111174740E+02 -0.36060247382E+02  0.38933396374E+02  0.00000000000E+00 0.  1.
<mgrwt>
<rscale>  0 0.90924491E+02</rscale>
<asrwt>0</asrwt>
<pdfrwt beam="1">  1        2 0.18661058E-02 0.90924491E+02</pdfrwt>
<pdfrwt beam="2">  1       -2 0.26214331E-01 0.90924491E+02</pdfrwt>
<totfact> 0.67044114E+04</totfact>
</mgrwt>
</event>
<event>
 7    1  0.3480999E-009  0.9201108E+02  0.7818608E-02  0.1298053E+00
         -2   -1    0    0    0  501 -0.00000000000E+00  0.00000000000E+00  0.31250610931E+02  0.31250611035E+02  0.25500000000E-02 0.  1.
          2   -1    0    0  501    0  0.00000000000E+00 -0.00000000000E+00 -0.67726979112E+02  0.67726979160E+02  0.25500000000E-02 0. -1.
         23    2    1    2    0    0  0.00000000000E+00  0.00000000000E+00 -0.36476368181E+02  0.98977590196E+02  0.92011075014E+02 0.  0.
    9000005    2    3    3    0    0  0.35451058465E+02 -0.10167367914E+02  0.97706195740E+01  0.39825778786E+02  0.11422553674E+02 0.  0.
         22    1    3    3    0    0 -0.35451058465E+02  0.10167367914E+02 -0.46246987755E+02  0.59151811410E+02  0.00000000000E+00 0. -1.
         22    1    4    4    0    0  0.32873536768E+02 -0.94768111328E+01  0.53014358841E+01  0.34620580459E+02  0.00000000000E+00 0. -1.
         22    1    4    4    0    0  0.25775216969E+01 -0.69055678102E+00  0.44691836898E+01  0.52051983266E+01  0.00000000000E+00 0. -1.
<mgrwt>
<rscale>  0 0.92011075E+02</rscale>
<asrwt>0</asrwt>
<pdfrwt beam="2">  1        2 0.10419535E-01 0.92011075E+02</pdfrwt>
<pdfrwt beam="1">  1       -2 0.48077863E-02 0.92011075E+02</pdfrwt>
<totfact> 0.10684903E+05</totfact>
</mgrwt>
</event>
<event>
 7    1  0.3480999E-009  0.9153909E+02  0.7818608E-02  0.1299167E+00
         -2   -1    0    0    0  501 -0.00000000000E+00  0.00000000000E+00  0.24548398230E+01  0.24548411474E+01  0.25500000000E-02 0.  1.
          2   -1    0    0  501    0  0.00000000000E+00 -0.00000000000E+00 -0.85335526745E+03  0.85335526746E+03  0.25500000000E-02 0. -1.
         23    2    1    2    0    0  0.35527136788E-14 -0.88817841970E-15 -0.85090042763E+03  0.85581010860E+03  0.91539085904E+02 0.  0.
    9000005    2    3    3    0    0  0.25709852233E+02 -0.53417570813E+01 -0.77496921508E+03  0.77546659667E+03  0.90347860450E+01 0.  0.
         22    1    3    3    0    0 -0.25709852233E+02  0.53417570813E+01 -0.75931212550E+02  0.80343511934E+02  0.00000000000E+00 0.  1.
         22    1    4    4    0    0  0.55693579134E+01 -0.52042748569E+01 -0.22021420624E+03  0.22034608881E+03  0.00000000000E+00 0.  1.
         22    1    4    4    0    0  0.20140494320E+02 -0.13748222440E+00 -0.55475500884E+03  0.55512050786E+03  0.00000000000E+00 0.  1.
<mgrwt>
<rscale>  0 0.91539086E+02</rscale>
<asrwt>0</asrwt>
<pdfrwt beam="2">  1        2 0.13128519E+00 0.91539086E+02</pdfrwt>
<pdfrwt beam="1">  1       -2 0.37766845E-03 0.91539086E+02</pdfrwt>
<totfact> 0.24370177E+05</totfact>
</mgrwt>
</event>
<event>
 7    1  0.3480999E-009  0.9186484E+02  0.7818608E-02  0.1298398E+00
         -2   -1    0    0    0  501 -0.00000000000E+00  0.00000000000E+00  0.18611588722E+02  0.18611588897E+02  0.25500000000E-02 0. -1.
          2   -1    0    0  501    0  0.00000000000E+00 -0.00000000000E+00 -0.11335880245E+03  0.11335880248E+03  0.25500000000E-02 0.  1.
         23    2    1    2    0    0 -0.17763568394E-14  0.00000000000E+00 -0.94747213727E+02  0.13197039137E+03  0.91864844693E+02 0.  0.
    9000005    2    3    3    0    0  0.14133207323E+02  0.41850759177E+02 -0.29372635177E+02  0.53071284196E+02  0.16049660672E+01 0.  0.
         22    1    3    3    0    0 -0.14133207323E+02 -0.41850759177E+02 -0.65374578551E+02  0.78899107179E+02  0.00000000000E+00 0. -1.
         22    1    4    4    0    0  0.73932535313E+01  0.23110690557E+02 -0.15293737849E+02  0.28682096039E+02  0.00000000000E+00 0.  1.
         22    1    4    4    0    0  0.67399537915E+01  0.18740068620E+02 -0.14078897328E+02  0.24389188157E+02  0.00000000000E+00 0.  1.
<mgrwt>
<rscale>  0 0.91864845E+02</rscale>
<asrwt>0</asrwt>
<pdfrwt beam="2">  1        2 0.17439815E-01 0.91864845E+02</pdfrwt>
<pdfrwt beam="1">  1       -2 0.28633214E-02 0.91864845E+02</pdfrwt>
<totfact> 0.12493296E+05</totfact>
</mgrwt>
</event>
<event>
 7    1  0.3480999E-009  0.9168597E+02  0.7818608E-02  0.1298819E+00
          2   -1    0    0  501    0  0.00000000000E+00  0.00000000000E+00  0.32777175497E+02  0.32777175596E+02  0.25500000000E-02 0. -1.
         -2   -1    0    0    0  501 -0.00000000000E+00 -0.00000000000E+00 -0.64117162074E+02  0.64117162124E+02  0.25500000000E-02 0.  1.
         23    2    1    2    0    0  0.00000000000E+00  0.00000000000E+00 -0.31339986577E+02  0.96894337720E+02  0.91685974520E+02 0.  0.
    9000005    2    3    3    0    0  0.30617488716E+02 -0.29444576569E+02 -0.32352282160E+02  0.54403886475E+02  0.10425881161E+02 0.  0.
         22    1    3    3    0    0 -0.30617488716E+02  0.29444576569E+02  0.10122955835E+01  0.42490451245E+02  0.00000000000E+00 0. -1.
         22    1    4    4    0    0  0.29822111906E+02 -0.28873807350E+02 -0.33164897665E+02  0.53131587089E+02  0.00000000000E+00 0.  1.
         22    1    4    4    0    0  0.79537681008E+00 -0.57076921903E+00  0.81261550424E+00  0.12722993866E+01  0.00000000000E+00 0.  1.
<mgrwt>
<rscale>  0 0.91685975E+02</rscale>
<asrwt>0</asrwt>
<pdfrwt beam="1">  1        2 0.50426424E-02 0.91685975E+02</pdfrwt>
<pdfrwt beam="2">  1       -2 0.98641788E-02 0.91685975E+02</pdfrwt>
<totfact> 0.89091033E+04</totfact>
</mgrwt>
</event>
<event>
 7    1  0.3480999E-009  0.8888175E+02  0.7818608E-02  0.1305583E+00
         -2   -1    0    0    0  501 -0.00000000000E+00  0.00000000000E+00  0.19947735238E+01  0.19947751537E+01  0.25500000000E-02 0.  1.
          2   -1    0    0  501    0  0.00000000000E+00 -0.00000000000E+00 -0.99008269491E+03  0.99008269492E+03  0.25500000000E-02 0. -1.
         23    2    1    2    0    0  0.00000000000E+00  0.00000000000E+00 -0.98808792139E+03  0.99207747007E+03  0.88881754174E+02 0.  0.
    9000005    2    3    3    0    0  0.10891611797E+02  0.17414407769E+02 -0.93366898413E+03  0.93391124673E+03  0.55277511034E+01 0.  0.
         22    1    3    3    0    0 -0.10891611797E+02 -0.17414407769E+02 -0.54418937257E+02  0.58166223340E+02  0.00000000000E+00 0.  1.
         22    1    4    4    0    0  0.62326275941E+01  0.67019217579E+01 -0.50594061144E+03  0.50602338257E+03  0.00000000000E+00 0.  1.
         22    1    4    4    0    0  0.46589842026E+01  0.10712486011E+02 -0.42772837269E+03  0.42788786416E+03  0.00000000000E+00 0.  1.
<mgrwt>
<rscale>  0 0.88881754E+02</rscale>
<asrwt>0</asrwt>
<pdfrwt beam="2">  1        2 0.15232002E+00 0.88881754E+02</pdfrwt>
<pdfrwt beam="1">  1       -2 0.30688915E-03 0.88881754E+02</pdfrwt>
<totfact> 0.26722443E+05</totfact>
</mgrwt>
</event>
<event>
 7    1  0.3480999E-009  0.8946123E+02  0.7818608E-02  0.1304162E+00
          2   -1    0    0  501    0  0.00000000000E+00  0.00000000000E+00  0.19610256008E+02  0.19610256174E+02  0.25500000000E-02 0. -1.
         -2   -1    0    0    0  501 -0.00000000000E+00 -0.00000000000E+00 -0.10202965767E+03  0.10202965770E+03  0.25500000000E-02 0.  1.
         23    2    1    2    0    0  0.71054273576E-14 -0.17763568394E-14 -0.82419401663E+02  0.12163991388E+03  0.89461225553E+02 0.  0.
    9000005    2    3    3    0    0  0.34892360359E+02 -0.11223604706E+02 -0.90160426518E+01  0.39594199619E+02  0.11956818321E+02 0.  0.
         22    1    3    3    0    0 -0.34892360359E+02  0.11223604706E+02 -0.73403359011E+02  0.82045714258E+02  0.00000000000E+00 0.  1.
         22    1    4    4    0    0  0.32367224346E+02 -0.12700435844E+02 -0.58060342511E+01  0.35251217231E+02  0.00000000000E+00 0. -1.
         22    1    4    4    0    0  0.25251360122E+01  0.14768311383E+01 -0.32100084007E+01  0.43429823882E+01  0.00000000000E+00 0. -1.
<mgrwt>
<rscale>  0 0.89461226E+02</rscale>
<asrwt>0</asrwt>
<pdfrwt beam="1">  1        2 0.30169625E-02 0.89461226E+02</pdfrwt>
<pdfrwt beam="2">  1       -2 0.15696870E-01 0.89461226E+02</pdfrwt>
<totfact> 0.83168186E+04</totfact>
</mgrwt>
</event>
<event>
 7    1  0.3480999E-009  0.9226891E+02  0.7818608E-02  0.1297448E+00
          2   -1    0    0  501    0  0.00000000000E+00  0.00000000000E+00  0.38790895216E+03  0.38790895217E+03  0.25500000000E-02 0. -1.
         -2   -1    0    0    0  501 -0.00000000000E+00 -0.00000000000E+00 -0.54868229197E+01  0.54868235123E+01  0.25500000000E-02 0.  1.
         23    2    1    2    0    0  0.00000000000E+00  0.00000000000E+00  0.38242212924E+03  0.39339577568E+03  0.92268908039E+02 0.  0.
    9000005    2    3    3    0    0  0.25599136246E+02 -0.27802619546E+02  0.30263462378E+03  0.30511017404E+03  0.87293389966E+01 0.  0.
         22    1    3    3    0    0 -0.25599136246E+02  0.27802619546E+02  0.79787505453E+02  0.88285601638E+02  0.00000000000E+00 0.  1.
         22    1    4    4    0    0  0.38593574648E+01 -0.59419138985E+01  0.35328507953E+02  0.36031992105E+02  0.00000000000E+00 0. -1.
         22    1    4    4    0    0  0.21739778781E+02 -0.21860705648E+02  0.26730611583E+03  0.26907818194E+03  0.00000000000E+00 0. -1.
<mgrwt>
<rscale>  0 0.92268908E+02</rscale>
<asrwt>0</asrwt>
<pdfrwt beam="1">  1        2 0.59678295E-01 0.92268908E+02</pdfrwt>
<pdfrwt beam="2">  1       -2 0.84412673E-03 0.92268908E+02</pdfrwt>
<totfact> 0.19128393E+05</totfact>
</mgrwt>
</event>
<event>
 7    1  0.3480999E-009  0.9066077E+02  0.7818608E-02  0.1301259E+00
         -2   -1    0    0    0  501 -0.00000000000E+00  0.00000000000E+00  0.16332185528E+03  0.16332185530E+03  0.25500000000E-02 0.  1.
          2   -1    0    0  501    0  0.00000000000E+00 -0.00000000000E+00 -0.12581559319E+02  0.12581559577E+02  0.25500000000E-02 0. -1.
         23    2    1    2    0    0  0.00000000000E+00  0.00000000000E+00  0.15074029596E+03  0.17590341488E+03  0.90660766261E+02 0.  0.
    9000005    2    3    3    0    0  0.81415890554E+01  0.28403814132E+02  0.92949712219E+01  0.31404826579E+02  0.51773074891E+01 0.  0.
         22    1    3    3    0    0 -0.81415890554E+01 -0.28403814132E+02  0.14144532474E+03  0.14449858830E+03  0.00000000000E+00 0.  1.
         22    1    4    4    0    0  0.86594511623E+00  0.32347204379E+01  0.29149285405E+01  0.44396042225E+01  0.00000000000E+00 0. -1.
         22    1    4    4    0    0  0.72756439392E+01  0.25169093694E+02  0.63800426814E+01  0.26965222356E+02  0.00000000000E+00 0. -1.
<mgrwt>
<rscale>  0 0.90660766E+02</rscale>
<asrwt>0</asrwt>
<pdfrwt beam="2">  1        2 0.19356247E-02 0.90660766E+02</pdfrwt>
<pdfrwt beam="1">  1       -2 0.25126437E-01 0.90660766E+02</pdfrwt>
<totfact> 0.68656166E+04</totfact>
</mgrwt>
</event>
<event>
 7    1  0.3480999E-009  0.8851224E+02  0.7818608E-02  0.1306495E+00
         -2   -1    0    0    0  501 -0.00000000000E+00  0.00000000000E+00  0.47701262383E+02  0.47701262451E+02  0.25500000000E-02 0.  1.
          2   -1    0    0  501    0  0.00000000000E+00 -0.00000000000E+00 -0.41059793171E+02  0.41059793250E+02  0.25500000000E-02 0. -1.
         23    2    1    2    0    0  0.00000000000E+00  0.35527136788E-14  0.66414692117E+01  0.88761055701E+02  0.88512235854E+02 0.  0.
    9000005    2    3    3    0    0  0.25900977746E+02  0.18121726876E+02 -0.27082817791E+02  0.42537845439E+02  0.87596599210E+01 0.  0.
         22    1    3    3    0    0 -0.25900977746E+02 -0.18121726876E+02  0.33724287003E+02  0.46223210263E+02  0.00000000000E+00 0.  1.
         22    1    4    4    0    0  0.21793276804E+02  0.10655101640E+02 -0.20713004025E+02  0.31898379905E+02  0.00000000000E+00 0.  1.
         22    1    4    4    0    0  0.41077009413E+01  0.74666252350E+01 -0.63698137665E+01  0.10639465534E+02  0.00000000000E+00 0.  1.
<mgrwt>
<rscale>  0 0.88512236E+02</rscale>
<asrwt>0</asrwt>
<pdfrwt beam="2">  1        2 0.63168912E-02 0.88512236E+02</pdfrwt>
<pdfrwt beam="1">  1       -2 0.73386558E-02 0.88512236E+02</pdfrwt>
<totfact> 0.10459897E+05</totfact>
</mgrwt>
</event>
<event>
 7    1  0.3480999E-009  0.8944939E+02  0.7818608E-02  0.1304191E+00
          2   -1    0    0  501    0  0.00000000000E+00  0.00000000000E+00  0.15403512277E+03  0.15403512279E+03  0.25500000000E-02 0. -1.
         -2   -1    0    0    0  501 -0.00000000000E+00 -0.00000000000E+00 -0.12985989490E+02  0.12985989740E+02  0.25500000000E-02 0.  1.
         23    2    1    2    0    0 -0.88817841970E-15  0.00000000000E+00  0.14104913328E+03  0.16702111253E+03  0.89449393692E+02 0.  0.
    9000005    2    3    3    0    0 -0.58269215501E+01 -0.39661785658E+02  0.10599090459E+03  0.11376616294E+03  0.10082545285E+02 0.  0.
         22    1    3    3    0    0  0.58269215501E+01  0.39661785658E+02  0.35058228689E+02  0.53254949584E+02  0.00000000000E+00 0.  1.
         22    1    4    4    0    0  0.15426623093E+01 -0.97247939416E+00  0.31241583839E+01  0.36174422981E+01  0.00000000000E+00 0. -1.
         22    1    4    4    0    0 -0.73695838594E+01 -0.38689306264E+02  0.10286674620E+03  0.11014872065E+03  0.00000000000E+00 0. -1.
<mgrwt>
<rscale>  0 0.89449394E+02</rscale>
<asrwt>0</asrwt>
<pdfrwt beam="1">  1        2 0.23697709E-01 0.89449394E+02</pdfrwt>
<pdfrwt beam="2">  1       -2 0.19978447E-02 0.89449394E+02</pdfrwt>
<totfact> 0.14857857E+05</totfact>
</mgrwt>
</event>
<event>
 7    1  0.3480999E-009  0.8948280E+02  0.7818608E-02  0.1304109E+00
         -2   -1    0    0    0  501 -0.00000000000E+00  0.00000000000E+00  0.57012674412E+01  0.57012680115E+01  0.25500000000E-02 0.  1.
          2   -1    0    0  501    0  0.00000000000E+00 -0.00000000000E+00 -0.35111363648E+03  0.35111363649E+03  0.25500000000E-02 0. -1.
         23    2    1    2    0    0  0.00000000000E+00 -0.88817841970E-15 -0.34541236904E+03  0.35681490451E+03  0.89482799403E+02 0.  0.
    9000005    2    3    3    0    0  0.42841427596E+02  0.51895154108E+01 -0.15438424952E+03  0.16097297478E+03  0.14679343380E+02 0.  0.
         22    1    3    3    0    0 -0.42841427596E+02 -0.51895154108E+01 -0.19102811953E+03  0.19584192973E+03  0.00000000000E+00 0.  1.
         22    1    4    4    0    0  0.38992136978E+02  0.31601030442E+00 -0.12504859677E+03  0.13098716794E+03  0.00000000000E+00 0.  1.
         22    1    4    4    0    0  0.38492906177E+01  0.48735051064E+01 -0.29335652742E+02  0.29985806844E+02  0.00000000000E+00 0.  1.
<mgrwt>
<rscale>  0 0.89482799E+02</rscale>
<asrwt>0</asrwt>
<pdfrwt beam="2">  1        2 0.54017466E-01 0.89482799E+02</pdfrwt>
<pdfrwt beam="1">  1       -2 0.87711839E-03 0.89482799E+02</pdfrwt>
<totfact> 0.20014485E+05</totfact>
</mgrwt>
</event>
<event>
 7    1  0.3480999E-009  0.9594539E+02  0.7818608E-02  0.1289061E+00
          2   -1    0    0  501    0  0.00000000000E+00  0.00000000000E+00  0.77711834616E+02  0.77711834658E+02  0.25500000000E-02 0. -1.
         -2   -1    0    0    0  501 -0.00000000000E+00 -0.00000000000E+00 -0.29614271122E+02  0.29614271232E+02  0.25500000000E-02 0.  1.
         23    2    1    2    0    0 -0.71054273576E-14  0.35527136788E-14  0.48097563494E+02  0.10732610589E+03  0.95945387547E+02 0.  0.
    9000005    2    3    3    0    0 -0.40589778445E+02  0.23207285162E+02  0.31957145755E+02  0.57862773173E+02  0.11863100590E+02 0.  0.
         22    1    3    3    0    0  0.40589778445E+02 -0.23207285162E+02  0.16140417738E+02  0.49463332718E+02  0.00000000000E+00 0.  1.
         22    1    4    4    0    0 -0.39763757871E+02  0.23496363082E+02  0.28445512821E+02  0.54243734364E+02  0.00000000000E+00 0. -1.
         22    1    4    4    0    0 -0.82602057345E+00 -0.28907791962E+00  0.35116329343E+01  0.36190388084E+01  0.00000000000E+00 0. -1.
<mgrwt>
<rscale>  0 0.95945388E+02</rscale>
<asrwt>0</asrwt>
<pdfrwt beam="1">  1        2 0.11955667E-01 0.95945388E+02</pdfrwt>
<pdfrwt beam="2">  1       -2 0.45560418E-02 0.95945388E+02</pdfrwt>
<totfact> 0.98771436E+04</totfact>
</mgrwt>
</event>
<event>
 6    1  0.4572230E-009  0.2476636E+03  0.7818608E-02  0.1114790E+00
          2   -1    0    0  501    0  0.00000000000E+00  0.00000000000E+00  0.12940754337E+03  0.12940754340E+03  0.25500000000E-02 0. -1.
         -2   -1    0    0    0  501 -0.00000000000E+00 -0.00000000000E+00 -0.11849629399E+03  0.11849629402E+03  0.25500000000E-02 0.  1.
    9000005    2    1    2    0    0 -0.86983995573E+02  0.87438503187E+02  0.44533559404E+01  0.12439913421E+03  0.15607846999E+02 0.  0.
         22    1    1    2    0    0  0.86983995573E+02 -0.87438503187E+02  0.64578934396E+01  0.12350470320E+03  0.00000000000E+00 0. -1.
         22    1    3    3    0    0 -0.70257429198E+02  0.78458033605E+02  0.30323137390E+01  0.10536111389E+03  0.00000000000E+00 0. -1.
         22    1    3    3    0    0 -0.16726566376E+02  0.89804695827E+01  0.14210422015E+01  0.19038020317E+02  0.00000000000E+00 0. -1.
<mgrwt>
<rscale>  0 0.24766360E+03</rscale>
<asrwt>0</asrwt>
<pdfrwt beam="1">  1        2 0.19908853E-01 0.24766360E+03</pdfrwt>
<pdfrwt beam="2">  1       -2 0.18230199E-01 0.24766360E+03</pdfrwt>
<totfact> 0.67812845E+03</totfact>
</mgrwt>
</event>
<event>
 7    1  0.3480999E-009  0.8894624E+02  0.7818608E-02  0.1305424E+00
          2   -1    0    0  501    0  0.00000000000E+00  0.00000000000E+00  0.54518890561E+02  0.54518890621E+02  0.25500000000E-02 0. -1.
         -2   -1    0    0    0  501 -0.00000000000E+00 -0.00000000000E+00 -0.36278405757E+02  0.36278405847E+02  0.25500000000E-02 0.  1.
         23    2    1    2    0    0  0.17763568394E-14  0.00000000000E+00  0.18240484804E+02  0.90797296468E+02  0.88946240842E+02 0.  0.
    9000005    2    3    3    0    0  0.14585551648E+02 -0.20805139407E+02 -0.27866847757E+02  0.38152465207E+02  0.57842246529E+01 0.  0.
         22    1    3    3    0    0 -0.14585551648E+02  0.20805139407E+02  0.46107332561E+02  0.52644831261E+02  0.00000000000E+00 0. -1.
         22    1    4    4    0    0  0.35293612207E+00 -0.33786739148E+00 -0.26442825643E+01  0.26890423128E+01  0.00000000000E+00 0.  1.
         22    1    4    4    0    0  0.14232615526E+02 -0.20467272015E+02 -0.25222565193E+02  0.35463422894E+02  0.00000000000E+00 0.  1.
<mgrwt>
<rscale>  0 0.88946241E+02</rscale>
<asrwt>0</asrwt>
<pdfrwt beam="1">  1        2 0.83875217E-02 0.88946241E+02</pdfrwt>
<pdfrwt beam="2">  1       -2 0.55812932E-02 0.88946241E+02</pdfrwt>
<totfact> 0.11090140E+05</totfact>
</mgrwt>
</event>
<event>
 7    1  0.3480999E-009  0.9197943E+02  0.7818608E-02  0.1298128E+00
          2   -1    0    0  501    0  0.00000000000E+00  0.00000000000E+00  0.17872881485E+02  0.17872881667E+02  0.25500000000E-02 0. -1.
         -2   -1    0    0    0  501 -0.00000000000E+00 -0.00000000000E+00 -0.11833872015E+03  0.11833872018E+03  0.25500000000E-02 0.  1.
         23    2    1    2    0    0 -0.35527136788E-14  0.00000000000E+00 -0.10046583867E+03  0.13621160185E+03  0.91979431062E+02 0.  0.
    9000005    2    3    3    0    0 -0.20758447573E+02  0.30359893878E+02 -0.90619565136E+02  0.98138180614E+02  0.81584684110E+01 0.  0.
         22    1    3    3    0    0  0.20758447573E+02 -0.30359893878E+02 -0.98462735322E+01  0.38073421233E+02  0.00000000000E+00 0. -1.
         22    1    4    4    0    0 -0.11147895438E+01  0.57405715857E+01 -0.19468068836E+02  0.20327386012E+02  0.00000000000E+00 0. -1.
         22    1    4    4    0    0 -0.19643658030E+02  0.24619322292E+02 -0.71151496300E+02  0.77810794603E+02  0.00000000000E+00 0. -1.
<mgrwt>
<rscale>  0 0.91979431E+02</rscale>
<asrwt>0</asrwt>
<pdfrwt beam="1">  1        2 0.27496742E-02 0.91979431E+02</pdfrwt>
<pdfrwt beam="2">  1       -2 0.18205956E-01 0.91979431E+02</pdfrwt>
<totfact> 0.74107729E+04</totfact>
</mgrwt>
</event>
<event>
 7    1  0.3480999E-009  0.9090633E+02  0.7818608E-02  0.1300672E+00
         -2   -1    0    0    0  501 -0.00000000000E+00  0.00000000000E+00  0.13114489056E+02  0.13114489304E+02  0.25500000000E-02 0.  1.
          2   -1    0    0  501    0  0.00000000000E+00 -0.00000000000E+00 -0.15753491909E+03  0.15753491911E+03  0.25500000000E-02 0. -1.
         23    2    1    2    0    0  0.00000000000E+00  0.00000000000E+00 -0.14442043003E+03  0.17064940841E+03  0.90906325308E+02 0.  0.
    9000005    2    3    3    0    0 -0.26634849219E+02  0.28629453754E+02 -0.11407077004E+03  0.12115029047E+03  0.11670110939E+02 0.  0.
         22    1    3    3    0    0  0.26634849219E+02 -0.28629453754E+02 -0.30349659996E+02  0.49499117942E+02  0.00000000000E+00 0.  1.
         22    1    4    4    0    0 -0.27851895922E+02  0.27495621504E+02 -0.10896780196E+03  0.11578306946E+03  0.00000000000E+00 0.  1.
         22    1    4    4    0    0  0.12170467033E+01  0.11338322501E+01 -0.51029680752E+01  0.53672210152E+01  0.00000000000E+00 0.  1.
<mgrwt>
<rscale>  0 0.90906325E+02</rscale>
<asrwt>0</asrwt>
<pdfrwt beam="2">  1        2 0.24236140E-01 0.90906325E+02</pdfrwt>
<pdfrwt beam="1">  1       -2 0.20176138E-02 0.90906325E+02</pdfrwt>
<totfact> 0.14332306E+05</totfact>
</mgrwt>
</event>
<event>
 7    1  0.3480999E-009  0.9799168E+02  0.7818608E-02  0.1284577E+00
          2   -1    0    0  501    0  0.00000000000E+00  0.00000000000E+00  0.58344800942E+02  0.58344800998E+02  0.25500000000E-02 0. -1.
         -2   -1    0    0    0  501 -0.00000000000E+00 -0.00000000000E+00 -0.41144922369E+02  0.41144922448E+02  0.25500000000E-02 0.  1.
         23    2    1    2    0    0  0.00000000000E+00 -0.22204460493E-15  0.17199878573E+02  0.99489723446E+02  0.97991679486E+02 0.  0.
    9000005    2    3    3    0    0 -0.44404174353E+02 -0.19044326297E+01 -0.11592885998E+02  0.46533318212E+02  0.74563486009E+01 0.  0.
         22    1    3    3    0    0  0.44404174353E+02  0.19044326297E+01  0.28792764571E+02  0.52956405234E+02  0.00000000000E+00 0. -1.
         22    1    4    4    0    0 -0.12296729038E+02  0.10716573017E+01 -0.23242983204E+00  0.12345526235E+02  0.00000000000E+00 0.  1.
         22    1    4    4    0    0 -0.32107445315E+02 -0.29760899314E+01 -0.11360456166E+02  0.34187791977E+02  0.00000000000E+00 0.  1.
<mgrwt>
<rscale>  0 0.97991679E+02</rscale>
<asrwt>0</asrwt>
<pdfrwt beam="1">  1        2 0.89761232E-02 0.97991679E+02</pdfrwt>
<pdfrwt beam="2">  1       -2 0.63299881E-02 0.97991679E+02</pdfrwt>
<totfact> 0.85749839E+04</totfact>
</mgrwt>
</event>
<event>
 7    1  0.3480999E-009  0.9290541E+02  0.7818608E-02  0.1295965E+00
         -2   -1    0    0    0  501 -0.00000000000E+00  0.00000000000E+00  0.52746272698E+02  0.52746272760E+02  0.25500000000E-02 0.  1.
          2   -1    0    0  501    0  0.00000000000E+00 -0.00000000000E+00 -0.40910074629E+02  0.40910074708E+02  0.25500000000E-02 0. -1.
         23    2    1    2    0    0  0.00000000000E+00  0.00000000000E+00  0.11836198069E+02  0.93656347468E+02  0.92905413385E+02 0.  0.
    9000005    2    3    3    0    0  0.26960816560E+02 -0.36249760436E+02  0.12697209162E+02  0.48471481624E+02  0.12138148501E+02 0.  0.
         22    1    3    3    0    0 -0.26960816560E+02  0.36249760436E+02 -0.86101109335E+00  0.45184865844E+02  0.00000000000E+00 0.  1.
         22    1    4    4    0    0  0.85753971122E+01 -0.17653694389E+02  0.54075205091E+00  0.19633715237E+02  0.00000000000E+00 0.  1.
         22    1    4    4    0    0  0.18385419448E+02 -0.18596066047E+02  0.12156457111E+02  0.28837766387E+02  0.00000000000E+00 0.  1.
<mgrwt>
<rscale>  0 0.92905413E+02</rscale>
<asrwt>0</asrwt>
<pdfrwt beam="2">  1        2 0.62938576E-02 0.92905413E+02</pdfrwt>
<pdfrwt beam="1">  1       -2 0.81148112E-02 0.92905413E+02</pdfrwt>
<totfact> 0.90858889E+04</totfact>
</mgrwt>
</event>
<event>
 7    1  0.3480999E-009  0.9083380E+02  0.7818608E-02  0.1300845E+00
         -2   -1    0    0    0  501 -0.00000000000E+00  0.00000000000E+00  0.40825698641E+02  0.40825698721E+02  0.25500000000E-02 0.  1.
          2   -1    0    0  501    0  0.00000000000E+00 -0.00000000000E+00 -0.50524418489E+02  0.50524418554E+02  0.25500000000E-02 0. -1.
         23    2    1    2    0    0  0.00000000000E+00  0.00000000000E+00 -0.96987198482E+01  0.91350117274E+02  0.90833797451E+02 0.  0.
    9000005    2    3    3    0    0 -0.43909460602E+02 -0.86230675997E+01  0.26674721022E+01  0.44924685359E+02  0.29519352902E+01 0.  0.
         22    1    3    3    0    0  0.43909460602E+02  0.86230675997E+01 -0.12366191950E+02  0.46425431916E+02  0.00000000000E+00 0. -1.
         22    1    4    4    0    0 -0.41861936816E+02 -0.77112520990E+01  0.21285499471E+01  0.42619430871E+02  0.00000000000E+00 0. -1.
         22    1    4    4    0    0 -0.20475237866E+01 -0.91181550069E+00  0.53892215507E+00  0.23052544877E+01  0.00000000000E+00 0. -1.
<mgrwt>
<rscale>  0 0.90833797E+02</rscale>
<asrwt>0</asrwt>
<pdfrwt beam="2">  1        2 0.77729875E-02 0.90833797E+02</pdfrwt>
<pdfrwt beam="1">  1       -2 0.62808767E-02 0.90833797E+02</pdfrwt>
<totfact> 0.10244772E+05</totfact>
</mgrwt>
</event>
<event>
 7    1  0.3480999E-009  0.9129991E+02  0.7818608E-02  0.1299734E+00
         -2   -1    0    0    0  501 -0.00000000000E+00  0.00000000000E+00  0.45824269777E+01  0.45824276872E+01  0.25500000000E-02 0.  1.
          2   -1    0    0  501    0  0.00000000000E+00 -0.00000000000E+00 -0.45476301502E+03  0.45476301502E+03  0.25500000000E-02 0. -1.
         23    2    1    2    0    0  0.00000000000E+00  0.17763568394E-14 -0.45018058804E+03  0.45934544271E+03  0.91299911787E+02 0.  0.
    9000005    2    3    3    0    0 -0.12498847376E+02  0.13553296278E+02 -0.43463825670E+03  0.43523160666E+03  0.13274947174E+02 0.  0.
         22    1    3    3    0    0  0.12498847376E+02 -0.13553296278E+02 -0.15542331343E+02  0.24113836056E+02  0.00000000000E+00 0.  1.
         22    1    4    4    0    0 -0.57490863946E+01  0.10806808041E+02 -0.36658374782E+03  0.36678806314E+03  0.00000000000E+00 0.  1.
         22    1    4    4    0    0 -0.67497609816E+01  0.27464882378E+01 -0.68054508873E+02  0.68443543515E+02  0.00000000000E+00 0.  1.
<mgrwt>
<rscale>  0 0.91299912E+02</rscale>
<asrwt>0</asrwt>
<pdfrwt beam="2">  1        2 0.69963505E-01 0.91299912E+02</pdfrwt>
<pdfrwt beam="1">  1       -2 0.70498918E-03 0.91299912E+02</pdfrwt>
<totfact> 0.20804506E+05</totfact>
</mgrwt>
</event>
<event>
 7    1  0.3480999E-009  0.8796299E+02  0.7818608E-02  0.1307861E+00
          2   -1    0    0  501    0  0.00000000000E+00  0.00000000000E+00  0.16063291283E+02  0.16063291486E+02  0.25500000000E-02 0. -1.
         -2   -1    0    0    0  501 -0.00000000000E+00 -0.00000000000E+00 -0.12042189293E+03  0.12042189295E+03  0.25500000000E-02 0.  1.
         23    2    1    2    0    0  0.00000000000E+00  0.00000000000E+00 -0.10435860164E+03  0.13648518444E+03  0.87962991277E+02 0.  0.
    9000005    2    3    3    0    0 -0.17063817902E+02 -0.14800493452E+02 -0.11004733892E+03  0.11319161838E+03  0.13845475084E+02 0.  0.
         22    1    3    3    0    0  0.17063817902E+02  0.14800493452E+02  0.56887372789E+01  0.23293566057E+02  0.00000000000E+00 0. -1.
         22    1    4    4    0    0 -0.17870387479E+02 -0.96068841017E+01 -0.72765348447E+02  0.75540975010E+02  0.00000000000E+00 0. -1.
         22    1    4    4    0    0  0.80656957716E+00 -0.51936093501E+01 -0.37281990475E+02  0.37650643373E+02  0.00000000000E+00 0. -1.
<mgrwt>
<rscale>  0 0.87962991E+02</rscale>
<asrwt>0</asrwt>
<pdfrwt beam="1">  1        2 0.24712757E-02 0.87962991E+02</pdfrwt>
<pdfrwt beam="2">  1       -2 0.18526445E-01 0.87962991E+02</pdfrwt>
<totfact> 0.82425042E+04</totfact>
</mgrwt>
</event>
<event>
 7    1  0.4782343E-009  0.9341208E+02  0.7818608E-02  0.1294793E+00
          2   -1    0    0  501    0  0.00000000000E+00  0.00000000000E+00  0.70957542520E+02  0.70957542566E+02  0.25500000000E-02 0.  1.
         -2   -1    0    0    0  501 -0.00000000000E+00 -0.00000000000E+00 -0.30743088507E+02  0.30743088612E+02  0.25500000000E-02 0. -1.
         23    2    1    2    0    0 -0.35527136788E-14  0.00000000000E+00  0.40214454013E+02  0.10170063118E+03  0.93412076684E+02 0.  0.
    9000005    2    3    3    0    0  0.16519735770E+02 -0.21294148875E+02 -0.19011647872E+02  0.36630871760E+02  0.15938493180E+02 0.  0.
         22    1    3    3    0    0 -0.16519735770E+02  0.21294148875E+02  0.59226101885E+02  0.65069759418E+02  0.00000000000E+00 0.  1.
         22    1    4    4    0    0 -0.31297572576E+01 -0.17245968809E+01 -0.19559235442E+01  0.40737270164E+01  0.00000000000E+00 0. -1.
         22    1    4    4    0    0  0.19649493028E+02 -0.19569551994E+02 -0.17055724327E+02  0.32557144744E+02  0.00000000000E+00 0. -1.
<mgrwt>
<rscale>  0 0.93412077E+02</rscale>
<asrwt>0</asrwt>
<pdfrwt beam="1">  1        2 0.10916545E-01 0.93412077E+02</pdfrwt>
<pdfrwt beam="2">  1       -2 0.47297060E-02 0.93412077E+02</pdfrwt>
<totfact> 0.10374685E+05</totfact>
</mgrwt>
</event>
<event>
 7    1  0.3480999E-009  0.9137321E+02  0.7818608E-02  0.1299560E+00
         -2   -1    0    0    0  501 -0.00000000000E+00  0.00000000000E+00  0.36920829645E+02  0.36920829733E+02  0.25500000000E-02 0.  1.
          2   -1    0    0  501    0  0.00000000000E+00 -0.00000000000E+00 -0.56533564226E+02  0.56533564283E+02  0.25500000000E-02 0. -1.
         23    2    1    2    0    0  0.00000000000E+00  0.00000000000E+00 -0.19612734581E+02  0.93454394016E+02  0.91373214911E+02 0.  0.
    9000005    2    3    3    0    0  0.31834298545E+02  0.96989892443E+01  0.21200986340E+02  0.40792711821E+02  0.10347490501E+02 0.  0.
         22    1    3    3    0    0 -0.31834298545E+02 -0.96989892443E+01 -0.40813720921E+02  0.52661682195E+02  0.00000000000E+00 0. -1.
         22    1    4    4    0    0  0.27519484588E+02  0.86638663546E+01  0.22002668139E+02  0.36283632914E+02  0.00000000000E+00 0. -1.
         22    1    4    4    0    0  0.43148139569E+01  0.10351228897E+01 -0.80168179887E+00  0.45090789066E+01  0.00000000000E+00 0. -1.
<mgrwt>
<rscale>  0 0.91373215E+02</rscale>
<asrwt>0</asrwt>
<pdfrwt beam="2">  1        2 0.86974715E-02 0.91373215E+02</pdfrwt>
<pdfrwt beam="1">  1       -2 0.56801276E-02 0.91373215E+02</pdfrwt>
<totfact> 0.10376371E+05</totfact>
</mgrwt>
</event>
<event>
 7    1  0.3480999E-009  0.9148819E+02  0.7818608E-02  0.1299287E+00
         -2   -1    0    0    0  501 -0.00000000000E+00  0.00000000000E+00  0.72161534861E+02  0.72161534906E+02  0.25500000000E-02 0.  1.
          2   -1    0    0  501    0  0.00000000000E+00 -0.00000000000E+00 -0.28997753768E+02  0.28997753881E+02  0.25500000000E-02 0. -1.
         23    2    1    2    0    0  0.00000000000E+00  0.00000000000E+00  0.43163781093E+02  0.10115928879E+03  0.91488194373E+02 0.  0.
    9000005    2    3    3    0    0 -0.10030445645E+02 -0.39910666121E+02  0.43119522167E+02  0.60007459315E+02  0.69376416354E+01 0.  0.
         22    1    3    3    0    0  0.10030445645E+02  0.39910666121E+02  0.44258925532E-01  0.41151829472E+02  0.00000000000E+00 0. -1.
         22    1    4    4    0    0  0.10066562094E+01 -0.55922460051E+01  0.59996507012E+01  0.82633153541E+01  0.00000000000E+00 0.  1.
         22    1    4    4    0    0 -0.11037101855E+02 -0.34318420116E+02  0.37119871466E+02  0.51744143961E+02  0.00000000000E+00 0.  1.
<mgrwt>
<rscale>  0 0.91488194E+02</rscale>
<asrwt>0</asrwt>
<pdfrwt beam="2">  1        2 0.44611929E-02 0.91488194E+02</pdfrwt>
<pdfrwt beam="1">  1       -2 0.11101775E-01 0.91488194E+02</pdfrwt>
<totfact> 0.86777963E+04</totfact>
</mgrwt>
</event>
<event>
 7    1  0.3480999E-009  0.9094342E+02  0.7818608E-02  0.1300583E+00
         -2   -1    0    0    0  501 -0.00000000000E+00  0.00000000000E+00  0.22605263283E+01  0.22605277666E+01  0.25500000000E-02 0.  1.
          2   -1    0    0  501    0  0.00000000000E+00 -0.00000000000E+00 -0.91468769374E+03  0.91468769375E+03  0.25500000000E-02 0. -1.
         23    2    1    2    0    0  0.00000000000E+00 -0.35527136788E-14 -0.91242716742E+03  0.91694822151E+03  0.90943417023E+02 0.  0.
    9000005    2    3    3    0    0  0.25146222330E+02  0.26433351760E+02 -0.72768329874E+03  0.72863637484E+03  0.75451241918E+01 0.  0.
         22    1    3    3    0    0 -0.25146222330E+02 -0.26433351760E+02 -0.18474386868E+03  0.18831184667E+03  0.00000000000E+00 0.  1.
         22    1    4    4    0    0  0.19545677160E+02  0.20770789470E+02 -0.62190994714E+03  0.62256360442E+03  0.00000000000E+00 0.  1.
         22    1    4    4    0    0  0.56005451702E+01  0.56625622906E+01 -0.10577335159E+03  0.10607277042E+03  0.00000000000E+00 0.  1.
<mgrwt>
<rscale>  0 0.90943417E+02</rscale>
<asrwt>0</asrwt>
<pdfrwt beam="2">  1        2 0.14072089E+00 0.90943417E+02</pdfrwt>
<pdfrwt beam="1">  1       -2 0.34777412E-03 0.90943417E+02</pdfrwt>
<totfact> 0.25005583E+05</totfact>
</mgrwt>
</event>
<event>
 7    1  0.3480999E-009  0.8868428E+02  0.7818608E-02  0.1306070E+00
         -2   -1    0    0    0  501 -0.00000000000E+00  0.00000000000E+00  0.32387453683E+02  0.32387453783E+02  0.25500000000E-02 0.  1.
          2   -1    0    0  501    0  0.00000000000E+00 -0.00000000000E+00 -0.60709472256E+02  0.60709472310E+02  0.25500000000E-02 0. -1.
         23    2    1    2    0    0 -0.71054273576E-14  0.00000000000E+00 -0.28322018574E+02  0.93096926093E+02  0.88684276576E+02 0.  0.
    9000005    2    3    3    0    0  0.39922145311E+02 -0.37289244470E+00  0.48440444783E+01  0.41194089240E+02  0.89202851055E+01 0.  0.
         22    1    3    3    0    0 -0.39922145311E+02  0.37289244470E+00 -0.33166063052E+02  0.51902836853E+02  0.00000000000E+00 0. -1.
         22    1    4    4    0    0  0.25286847022E+02 -0.17552872193E+01 -0.10175742416E+01  0.25368112324E+02  0.00000000000E+00 0.  1.
         22    1    4    4    0    0  0.14635298289E+02  0.13823947745E+01  0.58616187200E+01  0.15825976916E+02  0.00000000000E+00 0.  1.
<mgrwt>
<rscale>  0 0.88684277E+02</rscale>
<asrwt>0</asrwt>
<pdfrwt beam="2">  1        2 0.93399188E-02 0.88684277E+02</pdfrwt>
<pdfrwt beam="1">  1       -2 0.49826852E-02 0.88684277E+02</pdfrwt>
<totfact> 0.11502229E+05</totfact>
</mgrwt>
</event>
<event>
 7    1  0.3480999E-009  0.9015968E+02  0.7818608E-02  0.1302465E+00
          2   -1    0    0  501    0  0.00000000000E+00  0.00000000000E+00  0.46343872564E+02  0.46343872634E+02  0.25500000000E-02 0.  1.
         -2   -1    0    0    0  501 -0.00000000000E+00 -0.00000000000E+00 -0.43850286862E+02  0.43850286936E+02  0.25500000000E-02 0. -1.
         23    2    1    2    0    0 -0.88817841970E-15  0.17763568394E-14  0.24935857021E+01  0.90194159570E+02  0.90159683068E+02 0.  0.
    9000005    2    3    3    0    0  0.67756114958E+01  0.81174541784E+01 -0.42045692579E+02  0.44416989679E+02  0.96553992243E+01 0.  0.
         22    1    3    3    0    0 -0.67756114958E+01 -0.81174541784E+01  0.44539278281E+02  0.45777169891E+02  0.00000000000E+00 0.  1.
         22    1    4    4    0    0  0.59712346046E+01  0.97834139353E+01 -0.40206662856E+02  0.41808450927E+02  0.00000000000E+00 0.  1.
         22    1    4    4    0    0  0.80437689118E+00 -0.16659597568E+01 -0.18390297229E+01  0.26085387512E+01  0.00000000000E+00 0.  1.
<mgrwt>
<rscale>  0 0.90159683E+02</rscale>
<asrwt>0</asrwt>
<pdfrwt beam="1">  1        2 0.71298265E-02 0.90159683E+02</pdfrwt>
<pdfrwt beam="2">  1       -2 0.67461980E-02 0.90159683E+02</pdfrwt>
<totfact> 0.10232923E+05</totfact>
</mgrwt>
</event>
<event>
 7    1  0.3480999E-009  0.9276626E+02  0.7818608E-02  0.1296288E+00
         -2   -1    0    0    0  501 -0.00000000000E+00  0.00000000000E+00  0.69530237371E+01  0.69530242047E+01  0.25500000000E-02 0.  1.
          2   -1    0    0  501    0  0.00000000000E+00 -0.00000000000E+00 -0.30941858880E+03  0.30941858881E+03  0.25500000000E-02 0. -1.
         23    2    1    2    0    0  0.00000000000E+00  0.00000000000E+00 -0.30246556507E+03  0.31637161302E+03  0.92766262580E+02 0.  0.
    9000005    2    3    3    0    0  0.35619451815E+02 -0.29517784226E+02 -0.14539910109E+03  0.15263426530E+03  0.40342795441E+01 0.  0.
         22    1    3    3    0    0 -0.35619451815E+02  0.29517784226E+02 -0.15706646398E+03  0.16373734772E+03  0.00000000000E+00 0.  1.
         22    1    4    4    0    0  0.15218914695E+02 -0.15113623524E+02 -0.69084727940E+02  0.72337656965E+02  0.00000000000E+00 0.  1.
         22    1    4    4    0    0  0.20400537120E+02 -0.14404160702E+02 -0.76314373150E+02  0.80296608332E+02  0.00000000000E+00 0.  1.
<mgrwt>
<rscale>  0 0.92766263E+02</rscale>
<asrwt>0</asrwt>
<pdfrwt beam="2">  1        2 0.47602849E-01 0.92766263E+02</pdfrwt>
<pdfrwt beam="1">  1       -2 0.10696962E-02 0.92766263E+02</pdfrwt>
<totfact> 0.17354022E+05</totfact>
</mgrwt>
</event>
<event>
 7    1  0.3480999E-009  0.9508764E+02  0.7818608E-02  0.1290979E+00
          2   -1    0    0  501    0  0.00000000000E+00  0.00000000000E+00  0.40377460461E+03  0.40377460462E+03  0.25500000000E-02 0.  1.
         -2   -1    0    0    0  501 -0.00000000000E+00 -0.00000000000E+00 -0.55982093018E+01  0.55982098825E+01  0.25500000000E-02 0. -1.
         23    2    1    2    0    0  0.00000000000E+00  0.00000000000E+00  0.39817639531E+03  0.40937281450E+03  0.95087641003E+02 0.  0.
    9000005    2    3    3    0    0 -0.10784126958E+02 -0.23757920916E+02  0.36907106538E+03  0.37028501038E+03  0.14724177852E+02 0.  0.
         22    1    3    3    0    0  0.10784126958E+02  0.23757920916E+02  0.29105329929E+02  0.39087804118E+02  0.00000000000E+00 0. -1.
         22    1    4    4    0    0 -0.12073273214E+02 -0.25078017756E+02  0.35569338246E+03  0.35678067945E+03  0.00000000000E+00 0. -1.
         22    1    4    4    0    0  0.12891462566E+01  0.13200968397E+01  0.13377682915E+02  0.13504330931E+02  0.00000000000E+00 0. -1.
<mgrwt>
<rscale>  0 0.95087641E+02</rscale>
<asrwt>0</asrwt>
<pdfrwt beam="1">  1        2 0.62119185E-01 0.95087641E+02</pdfrwt>
<pdfrwt beam="2">  1       -2 0.86126281E-03 0.95087641E+02</pdfrwt>
<totfact> 0.17911180E+05</totfact>
</mgrwt>
</event>
<event>
 7    1  0.3480999E-009  0.9814611E+02  0.7818608E-02  0.1284243E+00
         -2   -1    0    0    0  501 -0.00000000000E+00  0.00000000000E+00  0.24091712261E+01  0.24091725756E+01  0.25500000000E-02 0.  1.
          2   -1    0    0  501    0  0.00000000000E+00 -0.00000000000E+00 -0.99958203788E+03  0.99958203788E+03  0.25500000000E-02 0. -1.
         23    2    1    2    0    0  0.00000000000E+00  0.00000000000E+00 -0.99717286665E+03  0.10019912105E+04  0.98146114778E+02 0.  0.
    9000005    2    3    3    0    0 -0.28935940785E+02  0.24644263765E+02 -0.80941931434E+03  0.81042914528E+03  0.13825509090E+02 0.  0.
         22    1    3    3    0    0  0.28935940785E+02 -0.24644263765E+02 -0.18775355231E+03  0.19156206517E+03  0.00000000000E+00 0. -1.
         22    1    4    4    0    0 -0.18140547010E+01 -0.14017135719E+00 -0.98807288385E+01  0.10046852485E+02  0.00000000000E+00 0. -1.
         22    1    4    4    0    0 -0.27121886084E+02  0.24784435122E+02 -0.79953858550E+03  0.80038229280E+03  0.00000000000E+00 0. -1.
<mgrwt>
<rscale>  0 0.98146115E+02</rscale>
<asrwt>0</asrwt>
<pdfrwt beam="2">  1        2 0.15378152E+00 0.98146115E+02</pdfrwt>
<pdfrwt beam="1">  1       -2 0.37064263E-03 0.98146115E+02</pdfrwt>
<totfact> 0.20578792E+05</totfact>
</mgrwt>
</event>
<event>
 7    1  0.3480999E-009  0.1011197E+03  0.7818608E-02  0.1277959E+00
         -2   -1    0    0    0  501 -0.00000000000E+00  0.00000000000E+00  0.17406070737E+02  0.17406070923E+02  0.25500000000E-02 0.  1.
          2   -1    0    0  501    0  0.00000000000E+00 -0.00000000000E+00 -0.14686251219E+03  0.14686251222E+03  0.25500000000E-02 0. -1.
         23    2    1    2    0    0  0.00000000000E+00 -0.88817841970E-15 -0.12945644146E+03  0.16426858314E+03  0.10111971703E+03 0.  0.
    9000005    2    3    3    0    0  0.14787277671E+02  0.64841639096E+01 -0.14246687062E+03  0.14353264261E+03  0.66409569573E+01 0.  0.
         22    1    3    3    0    0 -0.14787277671E+02 -0.64841639096E+01  0.13010429161E+02  0.20735940526E+02  0.00000000000E+00 0.  1.
         22    1    4    4    0    0  0.29627104166E+01  0.45794678870E+01 -0.48400312998E+02  0.48706667690E+02  0.00000000000E+00 0.  1.
         22    1    4    4    0    0  0.11824567254E+02  0.19046960226E+01 -0.94066557620E+02  0.94825974924E+02  0.00000000000E+00 0.  1.
<mgrwt>
<rscale>  0 0.10111972E+03</rscale>
<asrwt>0</asrwt>
<pdfrwt beam="2">  1        2 0.22594232E-01 0.10111972E+03</pdfrwt>
<pdfrwt beam="1">  1       -2 0.26778571E-02 0.10111972E+03</pdfrwt>
<totfact> 0.10457570E+05</totfact>
</mgrwt>
</event>
<event>
 7    1  0.3480999E-009  0.9135185E+02  0.7818608E-02  0.1299611E+00
          2   -1    0    0  501    0  0.00000000000E+00  0.00000000000E+00  0.40931128989E+02  0.40931129069E+02  0.25500000000E-02 0.  1.
         -2   -1    0    0    0  501 -0.00000000000E+00 -0.00000000000E+00 -0.50970742903E+02  0.50970742966E+02  0.25500000000E-02 0. -1.
         23    2    1    2    0    0  0.00000000000E+00  0.00000000000E+00 -0.10039613913E+02  0.91901872035E+02  0.91351848564E+02 0.  0.
    9000005    2    3    3    0    0  0.23172185412E+02  0.38467196589E+02 -0.82384946645E+00  0.46058598761E+02  0.10200019691E+02 0.  0.
         22    1    3    3    0    0 -0.23172185412E+02 -0.38467196589E+02 -0.92157644467E+01  0.45843273274E+02  0.00000000000E+00 0.  1.
         22    1    4    4    0    0  0.82178213993E+01  0.23476851156E+02 -0.72901737336E+00  0.24884264006E+02  0.00000000000E+00 0.  1.
         22    1    4    4    0    0  0.14954364012E+02  0.14990345433E+02 -0.94832093089E-01  0.21174334755E+02  0.00000000000E+00 0.  1.
<mgrwt>
<rscale>  0 0.91351849E+02</rscale>
<asrwt>0</asrwt>
<pdfrwt beam="1">  1        2 0.62970967E-02 0.91351849E+02</pdfrwt>
<pdfrwt beam="2">  1       -2 0.78416528E-02 0.91351849E+02</pdfrwt>
<totfact> 0.95426946E+04</totfact>
</mgrwt>
</event>
<event>
 7    1  0.3480999E-009  0.9627855E+02  0.7818608E-02  0.1288322E+00
         -2   -1    0    0    0  501 -0.00000000000E+00  0.00000000000E+00  0.11628472076E+03  0.11628472078E+03  0.25500000000E-02 0.  1.
          2   -1    0    0  501    0  0.00000000000E+00 -0.00000000000E+00 -0.19928582132E+02  0.19928582296E+02  0.25500000000E-02 0. -1.
         23    2    1    2    0    0  0.71054273576E-14  0.00000000000E+00  0.96356138623E+02  0.13621330308E+03  0.96278546340E+02 0.  0.
    9000005    2    3    3    0    0  0.43759052285E+02  0.80988963004E+01  0.23593806957E+02  0.50920843343E+02  0.74711298952E+01 0.  0.
         22    1    3    3    0    0 -0.43759052285E+02 -0.80988963004E+01  0.72762331666E+02  0.85292459735E+02  0.00000000000E+00 0.  1.
         22    1    4    4    0    0  0.10390938924E+02  0.19657021596E+01  0.21696113854E+01  0.10795499538E+02  0.00000000000E+00 0.  1.
         22    1    4    4    0    0  0.33368113361E+02  0.61331941408E+01  0.21424195571E+02  0.40125343805E+02  0.00000000000E+00 0.  1.
<mgrwt>
<rscale>  0 0.96278546E+02</rscale>
<asrwt>0</asrwt>
<pdfrwt beam="2">  1        2 0.30659358E-02 0.96278546E+02</pdfrwt>
<pdfrwt beam="1">  1       -2 0.17889957E-01 0.96278546E+02</pdfrwt>
<totfact> 0.66460116E+04</totfact>
</mgrwt>
</event>
<event>
 7    1  0.3480999E-009  0.9230451E+02  0.7818608E-02  0.1297365E+00
          2   -1    0    0  501    0  0.00000000000E+00  0.00000000000E+00  0.45665907035E+03  0.45665907036E+03  0.25500000000E-02 0.  1.
         -2   -1    0    0    0  501 -0.00000000000E+00 -0.00000000000E+00 -0.46643783986E+01  0.46643790957E+01  0.25500000000E-02 0. -1.
         23    2    1    2    0    0  0.00000000000E+00  0.00000000000E+00  0.45199469195E+03  0.46132344945E+03  0.92304514856E+02 0.  0.
    9000005    2    3    3    0    0 -0.38360005786E+02 -0.24198915088E+02  0.20035144157E+03  0.20562557500E+03  0.91705736442E+01 0.  0.
         22    1    3    3    0    0  0.38360005786E+02  0.24198915088E+02  0.25164325038E+03  0.25569787445E+03  0.00000000000E+00 0. -1.
         22    1    4    4    0    0 -0.17376020081E+01 -0.61874683695E+00  0.20168271295E+02  0.20252438752E+02  0.00000000000E+00 0. -1.
         22    1    4    4    0    0 -0.36622403778E+02 -0.23580168251E+02  0.18018317027E+03  0.18537313625E+03  0.00000000000E+00 0. -1.
<mgrwt>
<rscale>  0 0.92304515E+02</rscale>
<asrwt>0</asrwt>
<pdfrwt beam="1">  1        2 0.70255270E-01 0.92304515E+02</pdfrwt>
<pdfrwt beam="2">  1       -2 0.71759644E-03 0.92304515E+02</pdfrwt>
<totfact> 0.20237881E+05</totfact>
</mgrwt>
</event>
<event>
 7    1  0.3480999E-009  0.9150468E+02  0.7818608E-02  0.1299248E+00
         -2   -1    0    0    0  501 -0.00000000000E+00  0.00000000000E+00  0.83550118532E+02  0.83550118571E+02  0.25500000000E-02 0.  1.
          2   -1    0    0  501    0  0.00000000000E+00 -0.00000000000E+00 -0.25054144033E+02  0.25054144163E+02  0.25500000000E-02 0. -1.
         23    2    1    2    0    0  0.00000000000E+00  0.00000000000E+00  0.58495974499E+02  0.10860426273E+03  0.91504682127E+02 0.  0.
    9000005    2    3    3    0    0  0.88002463237E+01 -0.35481085350E+02  0.60239277489E+02  0.72006573485E+02  0.14826473610E+02 0.  0.
         22    1    3    3    0    0 -0.88002463237E+01  0.35481085350E+02 -0.17433029899E+01  0.36597689248E+02  0.00000000000E+00 0.  1.
         22    1    4    4    0    0  0.65040847104E+01 -0.36017232423E+02  0.53127905876E+02  0.64514483119E+02  0.00000000000E+00 0. -1.
         22    1    4    4    0    0  0.22961616133E+01  0.53614707298E+00  0.71113716129E+01  0.74920903662E+01  0.00000000000E+00 0. -1.
<mgrwt>
<rscale>  0 0.91504682E+02</rscale>
<asrwt>0</asrwt>
<pdfrwt beam="2">  1        2 0.38544837E-02 0.91504682E+02</pdfrwt>
<pdfrwt beam="1">  1       -2 0.12853864E-01 0.91504682E+02</pdfrwt>
<totfact> 0.83317567E+04</totfact>
</mgrwt>
</event>
<event>
 7    1  0.3480999E-009  0.9135966E+02  0.7818608E-02  0.1299592E+00
         -2   -1    0    0    0  501 -0.00000000000E+00  0.00000000000E+00  0.87215939793E+02  0.87215939831E+02  0.25500000000E-02 0.  1.
          2   -1    0    0  501    0  0.00000000000E+00 -0.00000000000E+00 -0.23925064379E+02  0.23925064515E+02  0.25500000000E-02 0. -1.
         23    2    1    2    0    0  0.00000000000E+00 -0.35527136788E-14  0.63290875414E+02  0.11114100435E+03  0.91359662522E+02 0.  0.
    9000005    2    3    3    0    0 -0.32525264129E+02 -0.21746316424E+02  0.58386744411E+01  0.41631648994E+02  0.12973395623E+02 0.  0.
         22    1    3    3    0    0  0.32525264129E+02  0.21746316424E+02  0.57452200973E+02  0.69509355352E+02  0.00000000000E+00 0.  1.
         22    1    4    4    0    0 -0.22178535475E+02 -0.21308706778E+02  0.30522486801E+01  0.30907355797E+02  0.00000000000E+00 0. -1.
         22    1    4    4    0    0 -0.10346728655E+02 -0.43760964666E+00  0.27864257610E+01  0.10724293197E+02  0.00000000000E+00 0. -1.
<mgrwt>
<rscale>  0 0.91359663E+02</rscale>
<asrwt>0</asrwt>
<pdfrwt beam="2">  1        2 0.36807791E-02 0.91359663E+02</pdfrwt>
<pdfrwt beam="1">  1       -2 0.13417837E-01 0.91359663E+02</pdfrwt>
<totfact> 0.82635990E+04</totfact>
</mgrwt>
</event>
<event>
 7    1  0.3480999E-009  0.9400803E+02  0.7818608E-02  0.1293426E+00
          2   -1    0    0  501    0  0.00000000000E+00  0.00000000000E+00  0.27208355883E+03  0.27208355885E+03  0.25500000000E-02 0. -1.
         -2   -1    0    0    0  501 -0.00000000000E+00 -0.00000000000E+00 -0.81202158570E+01  0.81202162574E+01  0.25500000000E-02 0.  1.
         23    2    1    2    0    0  0.10408340856E-16  0.71054273576E-14  0.26396334298E+03  0.28020377510E+03  0.94008027033E+02 0.  0.
    9000005    2    3    3    0    0  0.20692691937E-01  0.45267611815E+02  0.11599619014E+03  0.12546711032E+03  0.15418253438E+02 0.  0.
         22    1    3    3    0    0 -0.20692691937E-01 -0.45267611815E+02  0.14796715284E+03  0.15473666478E+03  0.00000000000E+00 0. -1.
         22    1    4    4    0    0  0.54175663519E+00  0.30945846081E+02  0.95997838941E+02  0.10086388834E+03  0.00000000000E+00 0.  1.
         22    1    4    4    0    0 -0.52106394326E+00  0.14321765734E+02  0.19998351196E+02  0.24603221983E+02  0.00000000000E+00 0.  1.
<mgrwt>
<rscale>  0 0.94008027E+02</rscale>
<asrwt>0</asrwt>
<pdfrwt beam="1">  1        2 0.41859002E-01 0.94008027E+02</pdfrwt>
<pdfrwt beam="2">  1       -2 0.12492642E-02 0.94008027E+02</pdfrwt>
<totfact> 0.15960406E+05</totfact>
</mgrwt>
</event>
<event>
 7    1  0.3480999E-009  0.9092479E+02  0.7818608E-02  0.1300628E+00
          2   -1    0    0  501    0  0.00000000000E+00  0.00000000000E+00  0.78447420242E+03  0.78447420242E+03  0.25500000000E-02 0.  1.
         -2   -1    0    0    0  501 -0.00000000000E+00 -0.00000000000E+00 -0.26346678920E+01  0.26346691260E+01  0.25500000000E-02 0. -1.
         23    2    1    2    0    0  0.00000000000E+00  0.00000000000E+00  0.78183953452E+03  0.78710887155E+03  0.90924792669E+02 0.  0.
    9000005    2    3    3    0    0 -0.11409242833E+02 -0.24394586467E+02  0.70698300019E+03  0.70755532100E+03  0.91816695969E+01 0.  0.
         22    1    3    3    0    0  0.11409242833E+02  0.24394586467E+02  0.74856534338E+02  0.79553550543E+02  0.00000000000E+00 0. -1.
         22    1    4    4    0    0 -0.47648236692E+01 -0.18324920067E+02  0.53771318492E+03  0.53804644360E+03  0.00000000000E+00 0. -1.
         22    1    4    4    0    0 -0.66444191636E+01 -0.60696664005E+01  0.16926981527E+03  0.16950887740E+03  0.00000000000E+00 0. -1.
<mgrwt>
<rscale>  0 0.90924793E+02</rscale>
<asrwt>0</asrwt>
<pdfrwt beam="1">  1        2 0.12068847E+00 0.90924793E+02</pdfrwt>
<pdfrwt beam="2">  1       -2 0.40533318E-03 0.90924793E+02</pdfrwt>
<totfact> 0.24465814E+05</totfact>
</mgrwt>
</event>
<event>
 7    1  0.3480999E-009  0.9149721E+02  0.7818608E-02  0.1299266E+00
          2   -1    0    0  501    0  0.00000000000E+00  0.00000000000E+00  0.46683965163E+03  0.46683965164E+03  0.25500000000E-02 0. -1.
         -2   -1    0    0    0  501 -0.00000000000E+00 -0.00000000000E+00 -0.44831978720E+01  0.44831985972E+01  0.25500000000E-02 0.  1.
         23    2    1    2    0    0  0.00000000000E+00  0.35527136788E-14  0.46235645376E+03  0.47132285023E+03  0.91497206631E+02 0.  0.
    9000005    2    3    3    0    0 -0.32621218585E+02 -0.30498334176E+02  0.20399746665E+03  0.20913273122E+03  0.11280096550E+02 0.  0.
         22    1    3    3    0    0  0.32621218585E+02  0.30498334176E+02  0.25835898711E+03  0.26219011901E+03  0.00000000000E+00 0. -1.
         22    1    4    4    0    0 -0.56100840359E+01 -0.11349324170E+02  0.46505398143E+02  0.48197844956E+02  0.00000000000E+00 0.  1.
         22    1    4    4    0    0 -0.27011134550E+02 -0.19149010006E+02  0.15749206851E+03  0.16093488626E+03  0.00000000000E+00 0.  1.
<mgrwt>
<rscale>  0 0.91497207E+02</rscale>
<asrwt>0</asrwt>
<pdfrwt beam="1">  1        2 0.71821513E-01 0.91497207E+02</pdfrwt>
<pdfrwt beam="2">  1       -2 0.68972253E-03 0.91497207E+02</pdfrwt>
<totfact> 0.20870521E+05</totfact>
</mgrwt>
</event>
<event>
 7    1  0.3480999E-009  0.9114423E+02  0.7818608E-02  0.1300104E+00
         -2   -1    0    0    0  501 -0.00000000000E+00  0.00000000000E+00  0.51776279713E+01  0.51776285992E+01  0.25500000000E-02 0.  1.
          2   -1    0    0  501    0  0.00000000000E+00 -0.00000000000E+00 -0.40111371223E+03  0.40111371224E+03  0.25500000000E-02 0. -1.
         23    2    1    2    0    0  0.00000000000E+00 -0.35527136788E-14 -0.39593608426E+03  0.40629134084E+03  0.91144230873E+02 0.  0.
    9000005    2    3    3    0    0 -0.35823725774E+02 -0.23084202699E+02 -0.26955205354E+03  0.27291539487E+03  0.28780975673E+01 0.  0.
         22    1    3    3    0    0  0.35823725774E+02  0.23084202699E+02 -0.12638403072E+03  0.13337594597E+03  0.00000000000E+00 0.  1.
         22    1    4    4    0    0 -0.29295602663E+02 -0.19718461309E+02 -0.22818587677E+03  0.23090223994E+03  0.00000000000E+00 0.  1.
         22    1    4    4    0    0 -0.65281231112E+01 -0.33657413897E+01 -0.41366176767E+02  0.42013154926E+02  0.00000000000E+00 0.  1.
<mgrwt>
<rscale>  0 0.91144231E+02</rscale>
<asrwt>0</asrwt>
<pdfrwt beam="2">  1        2 0.61709777E-01 0.91144231E+02</pdfrwt>
<pdfrwt beam="1">  1       -2 0.79655852E-03 0.91144231E+02</pdfrwt>
<totfact> 0.20001330E+05</totfact>
</mgrwt>
</event>
<event>
 7    1  0.3480999E-009  0.9230196E+02  0.7818608E-02  0.1297371E+00
         -2   -1    0    0    0  501 -0.00000000000E+00  0.00000000000E+00  0.36474712671E+02  0.36474712760E+02  0.25500000000E-02 0.  1.
          2   -1    0    0  501    0  0.00000000000E+00 -0.00000000000E+00 -0.58394230698E+02  0.58394230753E+02  0.25500000000E-02 0. -1.
         23    2    1    2    0    0  0.00000000000E+00  0.00000000000E+00 -0.21919518027E+02  0.94868943514E+02  0.92301956495E+02 0.  0.
    9000005    2    3    3    0    0  0.18651333000E+02  0.34098977620E+02  0.12525199090E+02  0.42935803471E+02  0.13266126415E+02 0.  0.
         22    1    3    3    0    0 -0.18651333000E+02 -0.34098977620E+02 -0.34444717117E+02  0.51933140042E+02  0.00000000000E+00 0. -1.
         22    1    4    4    0    0  0.64021179379E+01  0.20217924731E+01  0.15808239036E+01  0.68973736385E+01  0.00000000000E+00 0. -1.
         22    1    4    4    0    0  0.12249215062E+02  0.32077185147E+02  0.10944375187E+02  0.36038429833E+02  0.00000000000E+00 0. -1.
<mgrwt>
<rscale>  0 0.92301956E+02</rscale>
<asrwt>0</asrwt>
<pdfrwt beam="2">  1        2 0.89837278E-02 0.92301956E+02</pdfrwt>
<pdfrwt beam="1">  1       -2 0.56114943E-02 0.92301956E+02</pdfrwt>
<totfact> 0.10170874E+05</totfact>
</mgrwt>
</event>
<event>
 7    1  0.3480999E-009  0.9065663E+02  0.7818608E-02  0.1301269E+00
         -2   -1    0    0    0  501 -0.00000000000E+00  0.00000000000E+00  0.30788544223E+01  0.30788554783E+01  0.25500000000E-02 0.  1.
          2   -1    0    0  501    0  0.00000000000E+00 -0.00000000000E+00 -0.66734429534E+03  0.66734429534E+03  0.25500000000E-02 0. -1.
         23    2    1    2    0    0  0.00000000000E+00  0.00000000000E+00 -0.66426544091E+03  0.67042315082E+03  0.90656633305E+02 0.  0.
    9000005    2    3    3    0    0  0.36968143414E+02  0.14380457520E+02 -0.48281110463E+03  0.48468377066E+03  0.15438704632E+02 0.  0.
         22    1    3    3    0    0 -0.36968143414E+02 -0.14380457520E+02 -0.18145433629E+03  0.18573938016E+03  0.00000000000E+00 0.  1.
         22    1    4    4    0    0  0.30340020867E+02  0.12511498668E+02 -0.30933878775E+03  0.31107481427E+03  0.00000000000E+00 0. -1.
         22    1    4    4    0    0  0.66281225468E+01  0.18689588516E+01 -0.17347231687E+03  0.17360895639E+03  0.00000000000E+00 0. -1.
<mgrwt>
<rscale>  0 0.90656633E+02</rscale>
<asrwt>0</asrwt>
<pdfrwt beam="2">  1        2 0.10266824E+00 0.90656633E+02</pdfrwt>
<pdfrwt beam="1">  1       -2 0.47367052E-03 0.90656633E+02</pdfrwt>
<totfact> 0.23798594E+05</totfact>
</mgrwt>
</event>
<event>
 7    1  0.3480999E-009  0.9345755E+02  0.7818608E-02  0.1294688E+00
          2   -1    0    0  501    0  0.00000000000E+00  0.00000000000E+00  0.18953071855E+03  0.18953071857E+03  0.25500000000E-02 0. -1.
         -2   -1    0    0    0  501 -0.00000000000E+00 -0.00000000000E+00 -0.11520973692E+02  0.11520973974E+02  0.25500000000E-02 0.  1.
         23    2    1    2    0    0  0.00000000000E+00  0.00000000000E+00  0.17800974486E+03  0.20105169254E+03  0.93457550842E+02 0.  0.
    9000005    2    3    3    0    0  0.45333697278E+02 -0.66941666247E+01  0.74904478522E+02  0.88221501893E+02  0.85086143306E+01 0.  0.
         22    1    3    3    0    0 -0.45333697278E+02  0.66941666247E+01  0.10310526634E+03  0.11283019065E+03  0.00000000000E+00 0.  1.
         22    1    4    4    0    0  0.41153273040E+02 -0.61944509513E+01  0.71804848502E+02  0.82993369451E+02  0.00000000000E+00 0.  1.
         22    1    4    4    0    0  0.41804242380E+01 -0.49971567339E+00  0.30996300208E+01  0.52281324419E+01  0.00000000000E+00 0.  1.
<mgrwt>
<rscale>  0 0.93457551E+02</rscale>
<asrwt>0</asrwt>
<pdfrwt beam="1">  1        2 0.29158574E-01 0.93457551E+02</pdfrwt>
<pdfrwt beam="2">  1       -2 0.17724574E-02 0.93457551E+02</pdfrwt>
<totfact> 0.14191615E+05</totfact>
</mgrwt>
</event>
<event>
 7    1  0.3480999E-009  0.9301302E+02  0.7818608E-02  0.1295715E+00
         -2   -1    0    0    0  501 -0.00000000000E+00  0.00000000000E+00  0.92002755545E+01  0.92002759079E+01  0.25500000000E-02 0.  1.
          2   -1    0    0  501    0  0.00000000000E+00 -0.00000000000E+00 -0.23508596457E+03  0.23508596459E+03  0.25500000000E-02 0. -1.
         23    2    1    2    0    0  0.17763568394E-14  0.35527136788E-14 -0.22588568902E+03  0.24428624049E+03  0.93013024850E+02 0.  0.
    9000005    2    3    3    0    0 -0.12063436879E+02 -0.28804732283E+02 -0.20262917062E+03  0.20534905057E+03  0.11593647964E+02 0.  0.
         22    1    3    3    0    0  0.12063436879E+02  0.28804732283E+02 -0.23256518402E+02  0.38937189927E+02  0.00000000000E+00 0.  1.
         22    1    4    4    0    0 -0.91321124027E+01 -0.28807620586E+02 -0.18967330712E+03  0.19206571249E+03  0.00000000000E+00 0. -1.
         22    1    4    4    0    0 -0.29313244758E+01  0.28883029243E-02 -0.12955863492E+02  0.13283338073E+02  0.00000000000E+00 0. -1.
<mgrwt>
<rscale>  0 0.93013025E+02</rscale>
<asrwt>0</asrwt>
<pdfrwt beam="2">  1        2 0.36167067E-01 0.93013025E+02</pdfrwt>
<pdfrwt beam="1">  1       -2 0.14154272E-02 0.93013025E+02</pdfrwt>
<totfact> 0.15553101E+05</totfact>
</mgrwt>
</event>
<event>
 7    1  0.3480999E-009  0.9163509E+02  0.7818608E-02  0.1298940E+00
          2   -1    0    0  501    0  0.00000000000E+00  0.00000000000E+00  0.11763353646E+03  0.11763353648E+03  0.25500000000E-02 0. -1.
         -2   -1    0    0    0  501 -0.00000000000E+00 -0.00000000000E+00 -0.17845653763E+02  0.17845653945E+02  0.25500000000E-02 0.  1.
         23    2    1    2    0    0  0.35527136788E-14 -0.17763568394E-14  0.99787882692E+02  0.13547919043E+03  0.91635088841E+02 0.  0.
    9000005    2    3    3    0    0  0.19008134243E+02 -0.72714103105E+01  0.11015927854E+03  0.11263737730E+03  0.11744340784E+02 0.  0.
         22    1    3    3    0    0 -0.19008134243E+02  0.72714103105E+01 -0.10371395848E+02  0.22841813132E+02  0.00000000000E+00 0.  1.
         22    1    4    4    0    0  0.19041585060E+02 -0.91939827626E+01  0.93152833361E+02  0.95522571384E+02  0.00000000000E+00 0.  1.
         22    1    4    4    0    0 -0.33450816986E-01  0.19225724522E+01  0.17006445179E+02  0.17114805912E+02  0.00000000000E+00 0.  1.
<mgrwt>
<rscale>  0 0.91635089E+02</rscale>
<asrwt>0</asrwt>
<pdfrwt beam="1">  1        2 0.18097467E-01 0.91635089E+02</pdfrwt>
<pdfrwt beam="2">  1       -2 0.27454852E-02 0.91635089E+02</pdfrwt>
<totfact> 0.12728075E+05</totfact>
</mgrwt>
</event>
<event>
 7    1  0.3480999E-009  0.8919860E+02  0.7818608E-02  0.1304804E+00
         -2   -1    0    0    0  501 -0.00000000000E+00  0.00000000000E+00  0.65570885994E+02  0.65570886044E+02  0.25500000000E-02 0.  1.
          2   -1    0    0  501    0  0.00000000000E+00 -0.00000000000E+00 -0.30335070648E+02  0.30335070755E+02  0.25500000000E-02 0. -1.
         23    2    1    2    0    0  0.00000000000E+00 -0.35527136788E-14  0.35235815347E+02  0.95905956799E+02  0.89198597895E+02 0.  0.
    9000005    2    3    3    0    0  0.13170215918E+02  0.18976766428E+02  0.57494997734E+02  0.63827249656E+02  0.15318968074E+02 0.  0.
         22    1    3    3    0    0 -0.13170215918E+02 -0.18976766428E+02 -0.22259182387E+02  0.32078707143E+02  0.00000000000E+00 0. -1.
         22    1    4    4    0    0  0.81341875356E+01  0.39895818192E+01  0.36128173548E+02  0.37246834682E+02  0.00000000000E+00 0.  1.
         22    1    4    4    0    0  0.50360283827E+01  0.14987184609E+02  0.21366824186E+02  0.26580414974E+02  0.00000000000E+00 0.  1.
<mgrwt>
<rscale>  0 0.89198598E+02</rscale>
<asrwt>0</asrwt>
<pdfrwt beam="2">  1        2 0.46669340E-02 0.89198598E+02</pdfrwt>
<pdfrwt beam="1">  1       -2 0.10087829E-01 0.89198598E+02</pdfrwt>
<totfact> 0.94669084E+04</totfact>
</mgrwt>
</event>
<event>
 7    1  0.3480999E-009  0.9110418E+02  0.7818608E-02  0.1300200E+00
         -2   -1    0    0    0  501 -0.00000000000E+00  0.00000000000E+00  0.27347908641E+02  0.27347908760E+02  0.25500000000E-02 0.  1.
          2   -1    0    0  501    0  0.00000000000E+00 -0.00000000000E+00 -0.75873920664E+02  0.75873920706E+02  0.25500000000E-02 0. -1.
         23    2    1    2    0    0 -0.35527136788E-14  0.00000000000E+00 -0.48526012022E+02  0.10322182947E+03  0.91104183415E+02 0.  0.
    9000005    2    3    3    0    0 -0.25851142913E+02  0.19774764494E+02 -0.60174925371E+02  0.68652766955E+02  0.57321781560E+01 0.  0.
         22    1    3    3    0    0  0.25851142913E+02 -0.19774764494E+02  0.11648913349E+02  0.34569062512E+02  0.00000000000E+00 0.  1.
         22    1    4    4    0    0 -0.24146805286E+02  0.19886766369E+02 -0.57874193061E+02  0.65787338482E+02  0.00000000000E+00 0. -1.
         22    1    4    4    0    0 -0.17043376277E+01 -0.11200187476E+00 -0.23007323109E+01  0.28654284733E+01  0.00000000000E+00 0. -1.
<mgrwt>
<rscale>  0 0.91104183E+02</rscale>
<asrwt>0</asrwt>
<pdfrwt beam="2">  1        2 0.11672911E-01 0.91104183E+02</pdfrwt>
<pdfrwt beam="1">  1       -2 0.42073706E-02 0.91104183E+02</pdfrwt>
<totfact> 0.11339254E+05</totfact>
</mgrwt>
</event>
<event>
 7    1  0.3480999E-009  0.9063188E+02  0.7818608E-02  0.1301329E+00
         -2   -1    0    0    0  501 -0.00000000000E+00  0.00000000000E+00  0.41151314982E+01  0.41151322883E+01  0.25500000000E-02 0.  1.
          2   -1    0    0  501    0  0.00000000000E+00 -0.00000000000E+00 -0.49902031315E+03  0.49902031316E+03  0.25500000000E-02 0. -1.
         23    2    1    2    0    0  0.35527136788E-14  0.00000000000E+00 -0.49490518165E+03  0.50313544545E+03  0.90631879806E+02 0.  0.
    9000005    2    3    3    0    0  0.21768926345E+02 -0.39410059081E+02 -0.25013950471E+03  0.25426343915E+03  0.72859974021E+01 0.  0.
         22    1    3    3    0    0 -0.21768926345E+02  0.39410059081E+02 -0.24476567694E+03  0.24887200630E+03  0.00000000000E+00 0. -1.
         22    1    4    4    0    0  0.13690445212E+02 -0.20672789470E+02 -0.12009713995E+03  0.12262999445E+03  0.00000000000E+00 0. -1.
         22    1    4    4    0    0  0.80784811332E+01 -0.18737269611E+02 -0.13004236476E+03  0.13163344469E+03  0.00000000000E+00 0. -1.
<mgrwt>
<rscale>  0 0.90631880E+02</rscale>
<asrwt>0</asrwt>
<pdfrwt beam="2">  1        2 0.76772308E-01 0.90631880E+02</pdfrwt>
<pdfrwt beam="1">  1       -2 0.63309761E-03 0.90631880E+02</pdfrwt>
<totfact> 0.21880182E+05</totfact>
</mgrwt>
</event>
<event>
 7    1  0.3480999E-009  0.9283088E+02  0.7818608E-02  0.1296138E+00
         -2   -1    0    0    0  501 -0.00000000000E+00  0.00000000000E+00  0.14652898097E+03  0.14652898099E+03  0.25500000000E-02 0.  1.
          2   -1    0    0  501    0  0.00000000000E+00 -0.00000000000E+00 -0.14702844869E+02  0.14702845091E+02  0.25500000000E-02 0. -1.
         23    2    1    2    0    0  0.00000000000E+00  0.00000000000E+00  0.13182613610E+03  0.16123182608E+03  0.92830876236E+02 0.  0.
    9000005    2    3    3    0    0  0.53085701971E+01 -0.20682784028E+02  0.13708613073E+03  0.13924032736E+03  0.11802671380E+02 0.  0.
         22    1    3    3    0    0 -0.53085701971E+01  0.20682784028E+02 -0.52599946284E+01  0.21991498725E+02  0.00000000000E+00 0. -1.
         22    1    4    4    0    0  0.84805237774E+01 -0.16758853073E+02  0.93869584988E+02  0.95730232558E+02  0.00000000000E+00 0.  1.
         22    1    4    4    0    0 -0.31719535804E+01 -0.39239309554E+01  0.43216545740E+02  0.43510094799E+02  0.00000000000E+00 0.  1.
<mgrwt>
<rscale>  0 0.92830876E+02</rscale>
<asrwt>0</asrwt>
<pdfrwt beam="2">  1        2 0.22619762E-02 0.92830876E+02</pdfrwt>
<pdfrwt beam="1">  1       -2 0.22542920E-01 0.92830876E+02</pdfrwt>
<totfact> 0.67315425E+04</totfact>
</mgrwt>
</event>
<event>
 7    1  0.3480999E-009  0.9452001E+02  0.7818608E-02  0.1292261E+00
          2   -1    0    0  501    0  0.00000000000E+00  0.00000000000E+00  0.90407824976E+03  0.90407824976E+03  0.25500000000E-02 0.  1.
         -2   -1    0    0    0  501 -0.00000000000E+00 -0.00000000000E+00 -0.24704800537E+01  0.24704813697E+01  0.25500000000E-02 0. -1.
         23    2    1    2    0    0  0.00000000000E+00  0.35527136788E-14  0.90160776971E+03  0.90654873113E+03  0.94520005949E+02 0.  0.
    9000005    2    3    3    0    0 -0.19296161026E+02  0.28738363511E+02  0.75358439325E+03  0.75453177371E+03  0.15183030519E+02 0.  0.
         22    1    3    3    0    0  0.19296161026E+02 -0.28738363511E+02  0.14802337645E+03  0.15201695742E+03  0.00000000000E+00 0. -1.
         22    1    4    4    0    0  0.11483801268E+01  0.29601532654E+01  0.24430426082E+02  0.24635888513E+02  0.00000000000E+00 0.  1.
         22    1    4    4    0    0 -0.20444541153E+02  0.25778210245E+02  0.72915396717E+03  0.72989588520E+03  0.00000000000E+00 0.  1.
<mgrwt>
<rscale>  0 0.94520006E+02</rscale>
<asrwt>0</asrwt>
<pdfrwt beam="1">  1        2 0.13908942E+00 0.94520006E+02</pdfrwt>
<pdfrwt beam="2">  1       -2 0.38007270E-03 0.94520006E+02</pdfrwt>
<totfact> 0.22557958E+05</totfact>
</mgrwt>
</event>
<event>
 7    1  0.3480999E-009  0.9161937E+02  0.7818608E-02  0.1298977E+00
         -2   -1    0    0    0  501 -0.00000000000E+00  0.00000000000E+00  0.17546522433E+02  0.17546522618E+02  0.25500000000E-02 0. -1.
          2   -1    0    0  501    0  0.00000000000E+00 -0.00000000000E+00 -0.11959788787E+03  0.11959788789E+03  0.25500000000E-02 0.  1.
         23    2    1    2    0    0  0.35527136788E-14 -0.17763568394E-14 -0.10205136543E+03  0.13714441051E+03  0.91619365571E+02 0.  0.
    9000005    2    3    3    0    0  0.23348715056E+02 -0.12029798982E+02  0.46302935836E+01  0.27276967977E+02  0.57196857488E+01 0.  0.
         22    1    3    3    0    0 -0.23348715056E+02  0.12029798982E+02 -0.10668165902E+03  0.10986744253E+03  0.00000000000E+00 0.  1.
         22    1    4    4    0    0  0.12382707164E+02 -0.94723327625E+01  0.33291337669E+01  0.15941758257E+02  0.00000000000E+00 0.  1.
         22    1    4    4    0    0  0.10966007892E+02 -0.25574662194E+01  0.13011598167E+01  0.11335209721E+02  0.00000000000E+00 0.  1.
<mgrwt>
<rscale>  0 0.91619366E+02</rscale>
<asrwt>0</asrwt>
<pdfrwt beam="2">  1        2 0.18399675E-01 0.91619366E+02</pdfrwt>
<pdfrwt beam="1">  1       -2 0.26994651E-02 0.91619366E+02</pdfrwt>
<totfact> 0.12801652E+05</totfact>
</mgrwt>
</event>
<event>
 7    1  0.3480999E-009  0.8722558E+02  0.7818608E-02  0.1309713E+00
         -2   -1    0    0    0  501 -0.00000000000E+00  0.00000000000E+00  0.94864121797E+01  0.94864125224E+01  0.25500000000E-02 0.  1.
          2   -1    0    0  501    0  0.00000000000E+00 -0.00000000000E+00 -0.20050523909E+03  0.20050523910E+03  0.25500000000E-02 0. -1.
         23    2    1    2    0    0  0.00000000000E+00  0.00000000000E+00 -0.19101882691E+03  0.20999165162E+03  0.87225578355E+02 0.  0.
    9000005    2    3    3    0    0  0.52922571709E+01 -0.35491980466E+02 -0.15507379838E+03  0.15920057230E+03  0.30414819771E+01 0.  0.
         22    1    3    3    0    0 -0.52922571709E+01  0.35491980466E+02 -0.35945028524E+02  0.50791079325E+02  0.00000000000E+00 0.  1.
         22    1    4    4    0    0  0.31483878734E+01 -0.24465117331E+02 -0.11221085468E+03  0.11489007886E+03  0.00000000000E+00 0. -1.
         22    1    4    4    0    0  0.21438692975E+01 -0.11026863135E+02 -0.42862943697E+02  0.44310493436E+02  0.00000000000E+00 0. -1.
<mgrwt>
<rscale>  0 0.87225578E+02</rscale>
<asrwt>0</asrwt>
<pdfrwt beam="2">  1        2 0.30846957E-01 0.87225578E+02</pdfrwt>
<pdfrwt beam="1">  1       -2 0.14594482E-02 0.87225578E+02</pdfrwt>
<totfact> 0.17436473E+05</totfact>
</mgrwt>
</event>
<event>
 7    1  0.3480999E-009  0.9078042E+02  0.7818608E-02  0.1300973E+00
          2   -1    0    0  501    0  0.00000000000E+00  0.00000000000E+00  0.18246197315E+02  0.18246197493E+02  0.25500000000E-02 0. -1.
         -2   -1    0    0    0  501 -0.00000000000E+00 -0.00000000000E+00 -0.11291508805E+03  0.11291508808E+03  0.25500000000E-02 0.  1.
         23    2    1    2    0    0 -0.88817841970E-15  0.00000000000E+00 -0.94668890737E+02  0.13116128557E+03  0.90780416170E+02 0.  0.
    9000005    2    3    3    0    0  0.59855825493E+01 -0.43654032133E+02 -0.56450510661E+02  0.72833365196E+02  0.13286730673E+02 0.  0.
         22    1    3    3    0    0 -0.59855825493E+01  0.43654032133E+02 -0.38218380076E+02  0.58327920378E+02  0.00000000000E+00 0.  1.
         22    1    4    4    0    0  0.10091567540E+02 -0.35261377582E+02 -0.44721567734E+02  0.57837903705E+02  0.00000000000E+00 0. -1.
         22    1    4    4    0    0 -0.41059849903E+01 -0.83926545517E+01 -0.11728942927E+02  0.14995461491E+02  0.00000000000E+00 0. -1.
<mgrwt>
<rscale>  0 0.90780416E+02</rscale>
<asrwt>0</asrwt>
<pdfrwt beam="1">  1        2 0.28071074E-02 0.90780416E+02</pdfrwt>
<pdfrwt beam="2">  1       -2 0.17371552E-01 0.90780416E+02</pdfrwt>
<totfact> 0.77736873E+04</totfact>
</mgrwt>
</event>
<event>
 7    1  0.3480999E-009  0.9032811E+02  0.7818608E-02  0.1302059E+00
         -2   -1    0    0    0  501 -0.00000000000E+00  0.00000000000E+00  0.67724517580E+01  0.67724522380E+01  0.25500000000E-02 0.  1.
          2   -1    0    0  501    0  0.00000000000E+00 -0.00000000000E+00 -0.30118954165E+03  0.30118954166E+03  0.25500000000E-02 0. -1.
         23    2    1    2    0    0  0.00000000000E+00  0.00000000000E+00 -0.29441708990E+03  0.30796199390E+03  0.90328106732E+02 0.  0.
    9000005    2    3    3    0    0  0.88608001480E+01  0.37808798067E+02 -0.22322310667E+03  0.22686574098E+03  0.11466912780E+02 0.  0.
         22    1    3    3    0    0 -0.88608001480E+01 -0.37808798067E+02 -0.71193983228E+02  0.81096252925E+02  0.00000000000E+00 0.  1.
         22    1    4    4    0    0  0.53477259977E+00  0.26185743221E+02 -0.14551471028E+03  0.14785300145E+03  0.00000000000E+00 0. -1.
         22    1    4    4    0    0  0.83260275482E+01  0.11623054846E+02 -0.77708396388E+02  0.79012739529E+02  0.00000000000E+00 0. -1.
<mgrwt>
<rscale>  0 0.90328107E+02</rscale>
<asrwt>0</asrwt>
<pdfrwt beam="2">  1        2 0.46336842E-01 0.90328107E+02</pdfrwt>
<pdfrwt beam="1">  1       -2 0.10419159E-02 0.90328107E+02</pdfrwt>
<totfact> 0.18446654E+05</totfact>
</mgrwt>
</event>
<event>
 7    1  0.3480999E-009  0.9801569E+02  0.7818608E-02  0.1284525E+00
         -2   -1    0    0    0  501 -0.00000000000E+00  0.00000000000E+00  0.70471096326E+02  0.70471096372E+02  0.25500000000E-02 0.  1.
          2   -1    0    0  501    0  0.00000000000E+00 -0.00000000000E+00 -0.34081615952E+02  0.34081616048E+02  0.25500000000E-02 0. -1.
         23    2    1    2    0    0  0.00000000000E+00  0.00000000000E+00  0.36389480374E+02  0.10455271242E+03  0.98015689522E+02 0.  0.
    9000005    2    3    3    0    0 -0.11989653876E+02 -0.23388948048E+02  0.62118840081E+02  0.67772355682E+02  0.65990310470E+01 0.  0.
         22    1    3    3    0    0  0.11989653876E+02  0.23388948048E+02 -0.25729359707E+02  0.36780356739E+02  0.00000000000E+00 0. -1.
         22    1    4    4    0    0 -0.17395143190E+01 -0.96854169566E+01  0.26146074240E+02  0.27936542554E+02  0.00000000000E+00 0. -1.
         22    1    4    4    0    0 -0.10250139557E+02 -0.13703531092E+02  0.35972765841E+02  0.39835813128E+02  0.00000000000E+00 0. -1.
<mgrwt>
<rscale>  0 0.98015690E+02</rscale>
<asrwt>0</asrwt>
<pdfrwt beam="2">  1        2 0.52433256E-02 0.98015690E+02</pdfrwt>
<pdfrwt beam="1">  1       -2 0.10841707E-01 0.98015690E+02</pdfrwt>
<totfact> 0.73852185E+04</totfact>
</mgrwt>
</event>
<event>
 7    1  0.3480999E-009  0.9223308E+02  0.7818608E-02  0.1297532E+00
          2   -1    0    0  501    0  0.00000000000E+00  0.00000000000E+00  0.46993340772E+02  0.46993340841E+02  0.25500000000E-02 0. -1.
         -2   -1    0    0    0  501 -0.00000000000E+00 -0.00000000000E+00 -0.45256094576E+02  0.45256094648E+02  0.25500000000E-02 0.  1.
         23    2    1    2    0    0  0.00000000000E+00  0.00000000000E+00  0.17372461954E+01  0.92249435489E+02  0.92233076083E+02 0.  0.
    9000005    2    3    3    0    0 -0.28186864600E+01 -0.44063789891E+02  0.83629607243E+01  0.47601225379E+02  0.15696336279E+02 0.  0.
         22    1    3    3    0    0  0.28186864600E+01  0.44063789891E+02 -0.66257145289E+01  0.44648210109E+02  0.00000000000E+00 0.  1.
         22    1    4    4    0    0 -0.76164549543E+01 -0.24253434213E+02  0.96172819898E+01  0.27179616813E+02  0.00000000000E+00 0. -1.
         22    1    4    4    0    0  0.47977684943E+01 -0.19810355678E+02 -0.12543212656E+01  0.20421608567E+02  0.00000000000E+00 0. -1.
<mgrwt>
<rscale>  0 0.92233076E+02</rscale>
<asrwt>0</asrwt>
<pdfrwt beam="1">  1        2 0.72297447E-02 0.92233076E+02</pdfrwt>
<pdfrwt beam="2">  1       -2 0.69624761E-02 0.92233076E+02</pdfrwt>
<totfact> 0.96221970E+04</totfact>
</mgrwt>
</event>
<event>
 7    1  0.3480999E-009  0.9684823E+02  0.7818608E-02  0.1287067E+00
         -2   -1    0    0    0  501 -0.00000000000E+00  0.00000000000E+00  0.59707791952E+03  0.59707791952E+03  0.25500000000E-02 0.  1.
          2   -1    0    0  501    0  0.00000000000E+00 -0.00000000000E+00 -0.39272843748E+01  0.39272852026E+01  0.25500000000E-02 0. -1.
         23    2    1    2    0    0  0.71054273576E-14  0.00000000000E+00  0.59315063514E+03  0.60100520473E+03  0.96848232493E+02 0.  0.
    9000005    2    3    3    0    0 -0.39716622546E+02  0.26517917296E+02  0.33099174297E+03  0.33453213894E+03  0.86952875186E+01 0.  0.
         22    1    3    3    0    0  0.39716622546E+02 -0.26517917296E+02  0.26215889218E+03  0.26647306579E+03  0.00000000000E+00 0. -1.
         22    1    4    4    0    0 -0.59821950490E+01  0.18269126698E+01  0.61485069847E+02  0.61802411616E+02  0.00000000000E+00 0. -1.
         22    1    4    4    0    0 -0.33734427497E+02  0.24691004626E+02  0.26950667312E+03  0.27272972732E+03  0.00000000000E+00 0. -1.
<mgrwt>
<rscale>  0 0.96848232E+02</rscale>
<asrwt>0</asrwt>
<pdfrwt beam="2">  1        2 0.60419777E-03 0.96848232E+02</pdfrwt>
<pdfrwt beam="1">  1       -2 0.91858124E-01 0.96848232E+02</pdfrwt>
<totfact> 0.26836689E+04</totfact>
</mgrwt>
</event>
<event>
 7    1  0.3480999E-009  0.8277809E+02  0.7818608E-02  0.1321347E+00
          2   -1    0    0  501    0  0.00000000000E+00  0.00000000000E+00  0.10190042247E+03  0.10190042250E+03  0.25500000000E-02 0. -1.
         -2   -1    0    0    0  501 -0.00000000000E+00 -0.00000000000E+00 -0.16811048870E+02  0.16811049063E+02  0.25500000000E-02 0.  1.
         23    2    1    2    0    0  0.35527136788E-14  0.00000000000E+00  0.85089373596E+02  0.11871147156E+03  0.82778088774E+02 0.  0.
    9000005    2    3    3    0    0 -0.21756083406E+02 -0.33926904334E+02  0.43302190306E+02  0.60655199805E+02  0.13401924308E+02 0.  0.
         22    1    3    3    0    0  0.21756083406E+02  0.33926904334E+02  0.41787183289E+02  0.58056271755E+02  0.00000000000E+00 0.  1.
         22    1    4    4    0    0 -0.23560429235E+02 -0.29952165313E+02  0.38837315260E+02  0.54411056683E+02  0.00000000000E+00 0.  1.
         22    1    4    4    0    0  0.18043458288E+01 -0.39747390207E+01  0.44648750463E+01  0.62441431223E+01  0.00000000000E+00 0.  1.
<mgrwt>
<rscale>  0 0.82778089E+02</rscale>
<asrwt>0</asrwt>
<pdfrwt beam="1">  1        2 0.15676988E-01 0.82778089E+02</pdfrwt>
<pdfrwt beam="2">  1       -2 0.25863152E-02 0.82778089E+02</pdfrwt>
<totfact> 0.16062980E+05</totfact>
</mgrwt>
</event>
<event>
 7    1  0.3480999E-009  0.8970474E+02  0.7818608E-02  0.1303568E+00
          2   -1    0    0  501    0  0.00000000000E+00  0.00000000000E+00  0.34729616683E+02  0.34729616777E+02  0.25500000000E-02 0. -1.
         -2   -1    0    0    0  501 -0.00000000000E+00 -0.00000000000E+00 -0.57925631241E+02  0.57925631297E+02  0.25500000000E-02 0.  1.
         23    2    1    2    0    0  0.00000000000E+00  0.00000000000E+00 -0.23196014558E+02  0.92655248074E+02  0.89704737357E+02 0.  0.
    9000005    2    3    3    0    0  0.13627211576E+02  0.14337375978E+02  0.28957073944E+02  0.36877063400E+02  0.11408086094E+02 0.  0.
         22    1    3    3    0    0 -0.13627211576E+02 -0.14337375978E+02 -0.52153088502E+02  0.55778184674E+02  0.00000000000E+00 0.  1.
         22    1    4    4    0    0  0.15028005001E+02  0.13907304067E+02  0.28889931245E+02  0.35410198645E+02  0.00000000000E+00 0. -1.
         22    1    4    4    0    0 -0.14007934247E+01  0.43007191080E+00  0.67142698589E-01  0.14668647549E+01  0.00000000000E+00 0. -1.
<mgrwt>
<rscale>  0 0.89704737E+02</rscale>
<asrwt>0</asrwt>
<pdfrwt beam="1">  1        2 0.53430180E-02 0.89704737E+02</pdfrwt>
<pdfrwt beam="2">  1       -2 0.89116356E-02 0.89704737E+02</pdfrwt>
<totfact> 0.96430648E+04</totfact>
</mgrwt>
</event>
<event>
 7    1  0.3480999E-009  0.9190949E+02  0.7818608E-02  0.1298292E+00
          2   -1    0    0  501    0  0.00000000000E+00  0.00000000000E+00  0.14329625687E+03  0.14329625690E+03  0.25500000000E-02 0. -1.
         -2   -1    0    0    0  501 -0.00000000000E+00 -0.00000000000E+00 -0.14737568171E+02  0.14737568391E+02  0.25500000000E-02 0.  1.
         23    2    1    2    0    0 -0.35527136788E-14  0.00000000000E+00  0.12855868870E+03  0.15803382529E+03  0.91909485332E+02 0.  0.
    9000005    2    3    3    0    0  0.24200028088E+02  0.80583489601E+01  0.12917280181E+03  0.13251999605E+03  0.15011937840E+02 0.  0.
         22    1    3    3    0    0 -0.24200028088E+02 -0.80583489601E+01 -0.61411310913E+00  0.25513829237E+02  0.00000000000E+00 0.  1.
         22    1    4    4    0    0  0.17643602057E+02  0.18694123757E+01  0.10885680026E+03  0.11029321991E+03  0.00000000000E+00 0.  1.
         22    1    4    4    0    0  0.65564260316E+01  0.61889365844E+01  0.20316001557E+02  0.22226776141E+02  0.00000000000E+00 0.  1.
<mgrwt>
<rscale>  0 0.91909485E+02</rscale>
<asrwt>0</asrwt>
<pdfrwt beam="1">  1        2 0.22045577E-01 0.91909485E+02</pdfrwt>
<pdfrwt beam="2">  1       -2 0.22673183E-02 0.91909485E+02</pdfrwt>
<totfact> 0.13469753E+05</totfact>
</mgrwt>
</event>
<event>
 7    1  0.3480999E-009  0.9265699E+02  0.7818608E-02  0.1296542E+00
          2   -1    0    0  501    0  0.00000000000E+00  0.00000000000E+00  0.22951552357E+03  0.22951552358E+03  0.25500000000E-02 0. -1.
         -2   -1    0    0    0  501 -0.00000000000E+00 -0.00000000000E+00 -0.93515660368E+01  0.93515663845E+01  0.25500000000E-02 0.  1.
         23    2    1    2    0    0  0.00000000000E+00  0.35527136788E-14  0.22016395753E+03  0.23886708996E+03  0.92656993655E+02 0.  0.
    9000005    2    3    3    0    0 -0.17730989411E+02  0.29008305437E+02  0.33149916863E+02  0.48787840239E+02  0.11201187321E+02 0.  0.
         22    1    3    3    0    0  0.17730989411E+02 -0.29008305437E+02  0.18701404067E+03  0.19007924972E+03  0.00000000000E+00 0. -1.
         22    1    4    4    0    0 -0.12613020154E+02  0.18644638750E+02  0.28528041367E+02  0.36339509845E+02  0.00000000000E+00 0. -1.
         22    1    4    4    0    0 -0.51179692570E+01  0.10363666686E+02  0.46218754955E+01  0.12448330394E+02  0.00000000000E+00 0. -1.
<mgrwt>
<rscale>  0 0.92656994E+02</rscale>
<asrwt>0</asrwt>
<pdfrwt beam="1">  1        2 0.35310078E-01 0.92656994E+02</pdfrwt>
<pdfrwt beam="2">  1       -2 0.14387026E-02 0.92656994E+02</pdfrwt>
<totfact> 0.15575830E+05</totfact>
</mgrwt>
</event>
<event>
 7    1  0.3480999E-009  0.9436385E+02  0.7818608E-02  0.1292615E+00
         -2   -1    0    0    0  501 -0.00000000000E+00  0.00000000000E+00  0.55866900699E+01  0.55866906519E+01  0.25500000000E-02 0.  1.
          2   -1    0    0  501    0  0.00000000000E+00 -0.00000000000E+00 -0.39847098933E+03  0.39847098934E+03  0.25500000000E-02 0. -1.
         23    2    1    2    0    0  0.35527136788E-14  0.00000000000E+00 -0.39288429926E+03  0.40405767999E+03  0.94363849826E+02 0.  0.
    9000005    2    3    3    0    0 -0.26553482270E+02 -0.96671620301E+01 -0.35745331984E+03  0.35873775341E+03  0.11016279624E+02 0.  0.
         22    1    3    3    0    0  0.26553482270E+02  0.96671620301E+01 -0.35430979424E+02  0.45319926581E+02  0.00000000000E+00 0.  1.
         22    1    4    4    0    0 -0.91777290843E+01 -0.51343201496E+01 -0.19746186768E+03  0.19774170309E+03  0.00000000000E+00 0. -1.
         22    1    4    4    0    0 -0.17375753185E+02 -0.45328418806E+01 -0.15999145216E+03  0.16099605032E+03  0.00000000000E+00 0. -1.
<mgrwt>
<rscale>  0 0.94363850E+02</rscale>
<asrwt>0</asrwt>
<pdfrwt beam="2">  1        2 0.61303207E-01 0.94363850E+02</pdfrwt>
<pdfrwt beam="1">  1       -2 0.85949114E-03 0.94363850E+02</pdfrwt>
<totfact> 0.18193344E+05</totfact>
</mgrwt>
</event>
<event>
 7    1  0.3480999E-009  0.9241300E+02  0.7818608E-02  0.1297111E+00
          2   -1    0    0  501    0  0.00000000000E+00  0.00000000000E+00  0.19541846609E+03  0.19541846610E+03  0.25500000000E-02 0. -1.
         -2   -1    0    0    0  501 -0.00000000000E+00 -0.00000000000E+00 -0.10925479252E+02  0.10925479550E+02  0.25500000000E-02 0.  1.
         23    2    1    2    0    0  0.00000000000E+00  0.00000000000E+00  0.18449298684E+03  0.20634394565E+03  0.92412995389E+02 0.  0.
    9000005    2    3    3    0    0  0.38340099615E+01 -0.22070931464E+02  0.18188783696E+03  0.18379150778E+03  0.13939420764E+02 0.  0.
         22    1    3    3    0    0 -0.38340099615E+01  0.22070931464E+02  0.26051498764E+01  0.22552437872E+02  0.00000000000E+00 0.  1.
         22    1    4    4    0    0  0.56471084640E+01 -0.15984108520E+02  0.83756343550E+02  0.85454705219E+02  0.00000000000E+00 0. -1.
         22    1    4    4    0    0 -0.18130985026E+01 -0.60868229443E+01  0.98131493409E+02  0.98336802563E+02  0.00000000000E+00 0. -1.
<mgrwt>
<rscale>  0 0.92412995E+02</rscale>
<asrwt>0</asrwt>
<pdfrwt beam="1">  1        2 0.30064378E-01 0.92412995E+02</pdfrwt>
<pdfrwt beam="2">  1       -2 0.16808431E-02 0.92412995E+02</pdfrwt>
<totfact> 0.14791756E+05</totfact>
</mgrwt>
</event>
<event>
 7    1  0.3480999E-009  0.9178316E+02  0.7818608E-02  0.1298590E+00
         -2   -1    0    0    0  501 -0.00000000000E+00  0.00000000000E+00  0.44119438530E+01  0.44119445899E+01  0.25500000000E-02 0.  1.
          2   -1    0    0  501    0  0.00000000000E+00 -0.00000000000E+00 -0.47734900920E+03  0.47734900920E+03  0.25500000000E-02 0. -1.
         23    2    1    2    0    0  0.00000000000E+00 -0.17763568394E-14 -0.47293706534E+03  0.48176095379E+03  0.91783161985E+02 0.  0.
    9000005    2    3    3    0    0  0.91293936701E+01 -0.11063068774E+02 -0.46502970353E+03  0.46538219650E+03  0.11055602145E+02 0.  0.
         22    1    3    3    0    0 -0.91293936701E+01  0.11063068774E+02 -0.79073618141E+01  0.16378757289E+02  0.00000000000E+00 0.  1.
         22    1    4    4    0    0  0.69156821195E+01 -0.39973686924E+01 -0.36141872795E+03  0.36150698821E+03  0.00000000000E+00 0.  1.
         22    1    4    4    0    0  0.22137115506E+01 -0.70657000815E+01 -0.10361097558E+03  0.10387520829E+03  0.00000000000E+00 0.  1.
<mgrwt>
<rscale>  0 0.91783162E+02</rscale>
<asrwt>0</asrwt>
<pdfrwt beam="2">  1        2 0.73438268E-01 0.91783162E+02</pdfrwt>
<pdfrwt beam="1">  1       -2 0.67876103E-03 0.91783162E+02</pdfrwt>
<totfact> 0.20853700E+05</totfact>
</mgrwt>
</event>
<event>
 7    1  0.3480999E-009  0.9023406E+02  0.7818608E-02  0.1302286E+00
          2   -1    0    0  501    0  0.00000000000E+00  0.00000000000E+00  0.12427945046E+04  0.12427945046E+04  0.25500000000E-02 0.  1.
         -2   -1    0    0    0  501 -0.00000000000E+00 -0.00000000000E+00 -0.16378775749E+01  0.16378795599E+01  0.25500000000E-02 0. -1.
         23    2    1    2    0    0  0.17763568394E-14  0.17763568394E-14  0.12411566270E+04  0.12444323842E+04  0.90234061995E+02 0.  0.
    9000005    2    3    3    0    0  0.15500484043E+02  0.83941894794E+01  0.11926698871E+04  0.11928408018E+04  0.98484214498E+01 0.  0.
         22    1    3    3    0    0 -0.15500484043E+02 -0.83941894794E+01  0.48486739892E+02  0.51591582336E+02  0.00000000000E+00 0. -1.
         22    1    4    4    0    0  0.10164736202E+02  0.57507078928E+01  0.46530045180E+03  0.46544699263E+03  0.00000000000E+00 0. -1.
         22    1    4    4    0    0  0.53357478418E+01  0.26434815866E+01  0.72736943533E+03  0.72739380919E+03  0.00000000000E+00 0. -1.
<mgrwt>
<rscale>  0 0.90234062E+02</rscale>
<asrwt>0</asrwt>
<pdfrwt beam="1">  1        2 0.19119950E+00 0.90234062E+02</pdfrwt>
<pdfrwt beam="2">  1       -2 0.25198087E-03 0.90234062E+02</pdfrwt>
<totfact> 0.25444140E+05</totfact>
</mgrwt>
</event>
<event>
 7    1  0.3480999E-009  0.9222248E+02  0.7818608E-02  0.1297557E+00
          2   -1    0    0  501    0  0.00000000000E+00  0.00000000000E+00  0.41067618230E+02  0.41067618309E+02  0.25500000000E-02 0. -1.
         -2   -1    0    0    0  501 -0.00000000000E+00 -0.00000000000E+00 -0.51774285361E+02  0.51774285424E+02  0.25500000000E-02 0.  1.
         23    2    1    2    0    0  0.35527136788E-14  0.44408920985E-15 -0.10706667132E+02  0.92841903733E+02  0.92222482983E+02 0.  0.
    9000005    2    3    3    0    0 -0.27135921257E+02 -0.35532661613E+01 -0.42562863603E+02  0.50844270746E+02  0.49556620907E+01 0.  0.
         22    1    3    3    0    0  0.27135921257E+02  0.35532661613E+01  0.31856196471E+02  0.41997632987E+02  0.00000000000E+00 0. -1.
         22    1    4    4    0    0 -0.68465238136E+01 -0.12154261483E+01 -0.72156729504E+01  0.10020882455E+02  0.00000000000E+00 0. -1.
         22    1    4    4    0    0 -0.20289397443E+02 -0.23378400130E+01 -0.35347190652E+02  0.40823388291E+02  0.00000000000E+00 0. -1.
<mgrwt>
<rscale>  0 0.92222483E+02</rscale>
<asrwt>0</asrwt>
<pdfrwt beam="1">  1        2 0.63180951E-02 0.92222483E+02</pdfrwt>
<pdfrwt beam="2">  1       -2 0.79652747E-02 0.92222483E+02</pdfrwt>
<totfact> 0.92919742E+04</totfact>
</mgrwt>
</event>
<event>
 7    1  0.3480999E-009  0.1006271E+03  0.7818608E-02  0.1278983E+00
          2   -1    0    0  501    0  0.00000000000E+00  0.00000000000E+00  0.38091891150E+03  0.38091891151E+03  0.25500000000E-02 0. -1.
         -2   -1    0    0    0  501 -0.00000000000E+00 -0.00000000000E+00 -0.66456474497E+01  0.66456479390E+01  0.25500000000E-02 0.  1.
         23    2    1    2    0    0  0.00000000000E+00  0.00000000000E+00  0.37427326405E+03  0.38756455945E+03  0.10062709157E+03 0.  0.
    9000005    2    3    3    0    0  0.13393994285E+02 -0.16634289607E+02  0.36251189988E+03  0.36318365789E+03  0.56029573097E+01 0.  0.
         22    1    3    3    0    0 -0.13393994285E+02  0.16634289607E+02  0.11761364173E+02  0.24380901560E+02  0.00000000000E+00 0.  1.
         22    1    4    4    0    0  0.32403864816E+01 -0.76906717609E+01  0.16295384542E+03  0.16316740567E+03  0.00000000000E+00 0.  1.
         22    1    4    4    0    0  0.10153607804E+02 -0.89436178462E+01  0.19955805446E+03  0.20001625222E+03  0.00000000000E+00 0.  1.
<mgrwt>
<rscale>  0 0.10062709E+03</rscale>
<asrwt>0</asrwt>
<pdfrwt beam="1">  1        2 0.58602919E-01 0.10062709E+03</pdfrwt>
<pdfrwt beam="2">  1       -2 0.10224072E-02 0.10062709E+03</pdfrwt>
<totfact> 0.15070768E+05</totfact>
</mgrwt>
</event>
<event>
 7    1  0.3480999E-009  0.9131059E+02  0.7818608E-02  0.1299709E+00
          2   -1    0    0  501    0  0.00000000000E+00  0.00000000000E+00  0.60500683428E+03  0.60500683428E+03  0.25500000000E-02 0. -1.
         -2   -1    0    0    0  501 -0.00000000000E+00 -0.00000000000E+00 -0.34452598865E+01  0.34452608302E+01  0.25500000000E-02 0.  1.
         23    2    1    2    0    0  0.00000000000E+00  0.71054273576E-14  0.60156157439E+03  0.60845209511E+03  0.91310592287E+02 0.  0.
    9000005    2    3    3    0    0  0.16905286815E+02  0.37019745270E+02  0.42999908492E+03  0.43212870456E+03  0.13407237291E+02 0.  0.
         22    1    3    3    0    0 -0.16905286815E+02 -0.37019745270E+02  0.17156248947E+03  0.17632339055E+03  0.00000000000E+00 0.  1.
         22    1    4    4    0    0  0.10679467480E+02  0.32944371939E+02  0.31734069298E+03  0.31922483940E+03  0.00000000000E+00 0.  1.
         22    1    4    4    0    0  0.62258193351E+01  0.40753733305E+01  0.11265839193E+03  0.11290386516E+03  0.00000000000E+00 0.  1.
<mgrwt>
<rscale>  0 0.91310592E+02</rscale>
<asrwt>0</asrwt>
<pdfrwt beam="1">  1        2 0.93077949E-01 0.91310592E+02</pdfrwt>
<pdfrwt beam="2">  1       -2 0.53004020E-03 0.91310592E+02</pdfrwt>
<totfact> 0.22750191E+05</totfact>
</mgrwt>
</event>
<event>
 7    1  0.3480999E-009  0.8728696E+02  0.7818608E-02  0.1309558E+00
          2   -1    0    0  501    0  0.00000000000E+00  0.00000000000E+00  0.22923430656E+03  0.22923430658E+03  0.25500000000E-02 0.  1.
         -2   -1    0    0    0  501 -0.00000000000E+00 -0.00000000000E+00 -0.83091974910E+01  0.83091978823E+01  0.25500000000E-02 0. -1.
         23    2    1    2    0    0  0.71054273576E-14  0.00000000000E+00  0.22092510907E+03  0.23754350446E+03  0.87286956027E+02 0.  0.
    9000005    2    3    3    0    0 -0.42047260140E+02  0.55119579454E+01  0.97446916072E+02  0.10698616873E+03  0.12320108864E+02 0.  0.
         22    1    3    3    0    0  0.42047260140E+02 -0.55119579454E+01  0.12347819300E+03  0.13055733573E+03  0.00000000000E+00 0.  1.
         22    1    4    4    0    0 -0.15587882792E+02  0.68300381050E+01  0.47353505671E+02  0.50318843486E+02  0.00000000000E+00 0. -1.
         22    1    4    4    0    0 -0.26459377348E+02 -0.13180801597E+01  0.50093410401E+02  0.56667325246E+02  0.00000000000E+00 0. -1.
<mgrwt>
<rscale>  0 0.87286956E+02</rscale>
<asrwt>0</asrwt>
<pdfrwt beam="1">  1        2 0.35266820E-01 0.87286956E+02</pdfrwt>
<pdfrwt beam="2">  1       -2 0.12783380E-02 0.87286956E+02</pdfrwt>
<totfact> 0.18268474E+05</totfact>
</mgrwt>
</event>
<event>
 7    1  0.3480999E-009  0.1069330E+03  0.7818608E-02  0.1266357E+00
         -2   -1    0    0    0  501 -0.00000000000E+00  0.00000000000E+00  0.80092425911E+01  0.80092429970E+01  0.25500000000E-02 0.  1.
          2   -1    0    0  501    0  0.00000000000E+00 -0.00000000000E+00 -0.35692101329E+03  0.35692101330E+03  0.25500000000E-02 0. -1.
         23    2    1    2    0    0 -0.17763568394E-14  0.00000000000E+00 -0.34891177070E+03  0.36493025629E+03  0.10693300813E+03 0.  0.
    9000005    2    3    3    0    0 -0.11070780023E+02 -0.48111356392E+02 -0.11412546233E+03  0.12500969574E+03  0.12866160680E+02 0.  0.
         22    1    3    3    0    0  0.11070780023E+02  0.48111356392E+02 -0.23478630836E+03  0.23992056056E+03  0.00000000000E+00 0. -1.
         22    1    4    4    0    0 -0.14036022428E+01 -0.29295989532E+02 -0.75019457945E+02  0.80549017203E+02  0.00000000000E+00 0.  1.
         22    1    4    4    0    0 -0.96671777803E+01 -0.18815366860E+02 -0.39106004389E+02  0.44460678533E+02  0.00000000000E+00 0.  1.
<mgrwt>
<rscale>  0 0.10693301E+03</rscale>
<asrwt>0</asrwt>
<pdfrwt beam="2">  1        2 0.54910913E-01 0.10693301E+03</pdfrwt>
<pdfrwt beam="1">  1       -2 0.12321915E-02 0.10693301E+03</pdfrwt>
<totfact> 0.12489280E+05</totfact>
</mgrwt>
</event>
<event>
 7    1  0.3480999E-009  0.9150532E+02  0.7818608E-02  0.1299247E+00
          2   -1    0    0  501    0  0.00000000000E+00  0.00000000000E+00  0.58532377253E+03  0.58532377254E+03  0.25500000000E-02 0.  1.
         -2   -1    0    0    0  501 -0.00000000000E+00 -0.00000000000E+00 -0.35763212277E+01  0.35763221368E+01  0.25500000000E-02 0. -1.
         23    2    1    2    0    0  0.44408920985E-15  0.00000000000E+00  0.58174745131E+03  0.58890009468E+03  0.91505324481E+02 0.  0.
    9000005    2    3    3    0    0  0.25962311996E+01 -0.42882710955E+02  0.37223874385E+03  0.37503199089E+03  0.15544917367E+02 0.  0.
         22    1    3    3    0    0 -0.25962311996E+01  0.42882710955E+02  0.20950870746E+03  0.21386810378E+03  0.00000000000E+00 0.  1.
         22    1    4    4    0    0  0.62027316085E+01 -0.16205757447E+02  0.19363497468E+03  0.19441091501E+03  0.00000000000E+00 0.  1.
         22    1    4    4    0    0 -0.36065004089E+01 -0.26676953507E+02  0.17860376917E+03  0.18062107589E+03  0.00000000000E+00 0.  1.
<mgrwt>
<rscale>  0 0.91505324E+02</rscale>
<asrwt>0</asrwt>
<pdfrwt beam="1">  1        2 0.90049771E-01 0.91505324E+02</pdfrwt>
<pdfrwt beam="2">  1       -2 0.55020358E-03 0.91505324E+02</pdfrwt>
<totfact> 0.22409648E+05</totfact>
</mgrwt>
</event>
<event>
 7    1  0.3480999E-009  0.9231975E+02  0.7818608E-02  0.1297329E+00
         -2   -1    0    0    0  501 -0.00000000000E+00  0.00000000000E+00  0.56301143181E+01  0.56301148956E+01  0.25500000000E-02 0.  1.
          2   -1    0    0  501    0  0.00000000000E+00 -0.00000000000E+00 -0.37845303145E+03  0.37845303146E+03  0.25500000000E-02 0. -1.
         23    2    1    2    0    0  0.00000000000E+00  0.00000000000E+00 -0.37282291713E+03  0.38408314635E+03  0.92319747479E+02 0.  0.
    9000005    2    3    3    0    0  0.37737469492E+02 -0.24953554472E+02 -0.15504869616E+03  0.16165920923E+03  0.68414373211E+01 0.  0.
         22    1    3    3    0    0 -0.37737469492E+02  0.24953554472E+02 -0.21777422098E+03  0.22242393712E+03  0.00000000000E+00 0. -1.
         22    1    4    4    0    0  0.32730148175E+02 -0.23447193057E+02 -0.13095134582E+03  0.13700105267E+03  0.00000000000E+00 0. -1.
         22    1    4    4    0    0  0.50073213169E+01 -0.15063614145E+01 -0.24097350337E+02  0.24658156556E+02  0.00000000000E+00 0. -1.
<mgrwt>
<rscale>  0 0.92319747E+02</rscale>
<asrwt>0</asrwt>
<pdfrwt beam="2">  1        2 0.58223523E-01 0.92319747E+02</pdfrwt>
<pdfrwt beam="1">  1       -2 0.86617178E-03 0.92319747E+02</pdfrwt>
<totfact> 0.18930444E+05</totfact>
</mgrwt>
</event>
<event>
 7    1  0.3480999E-009  0.9169646E+02  0.7818608E-02  0.1298795E+00
         -2   -1    0    0    0  501 -0.00000000000E+00  0.00000000000E+00  0.15440506728E+01  0.15440527785E+01  0.25500000000E-02 0.  1.
          2   -1    0    0  501    0  0.00000000000E+00 -0.00000000000E+00 -0.13613922434E+04  0.13613922434E+04  0.25500000000E-02 0. -1.
         23    2    1    2    0    0 -0.88817841970E-15  0.00000000000E+00 -0.13598481927E+04  0.13629362962E+04  0.91696456768E+02 0.  0.
    9000005    2    3    3    0    0 -0.48685844152E+01 -0.18192466394E+02 -0.13001159405E+04  0.13003055457E+04  0.11763695428E+02 0.  0.
         22    1    3    3    0    0  0.48685844152E+01  0.18192466394E+02 -0.59732252241E+02  0.62630750478E+02  0.00000000000E+00 0.  1.
         22    1    4    4    0    0 -0.77837265490E+01 -0.66209473238E+01 -0.55524552854E+03  0.55533955406E+03  0.00000000000E+00 0.  1.
         22    1    4    4    0    0  0.29151421338E+01 -0.11571519071E+02 -0.74487041195E+03  0.74496599164E+03  0.00000000000E+00 0.  1.
<mgrwt>
<rscale>  0 0.91696457E+02</rscale>
<asrwt>0</asrwt>
<pdfrwt beam="2">  1        2 0.20944400E+00 0.91696457E+02</pdfrwt>
<pdfrwt beam="1">  1       -2 0.23754751E-03 0.91696457E+02</pdfrwt>
<totfact> 0.23958788E+05</totfact>
</mgrwt>
</event>
<event>
 7    1  0.3480999E-009  0.9139032E+02  0.7818608E-02  0.1299519E+00
          2   -1    0    0  501    0  0.00000000000E+00  0.00000000000E+00  0.74929269372E+02  0.74929269415E+02  0.25500000000E-02 0.  1.
         -2   -1    0    0    0  501 -0.00000000000E+00 -0.00000000000E+00 -0.27866916005E+02  0.27866916122E+02  0.25500000000E-02 0. -1.
         23    2    1    2    0    0  0.00000000000E+00  0.00000000000E+00  0.47062353367E+02  0.10279618554E+03  0.91390320366E+02 0.  0.
    9000005    2    3    3    0    0 -0.48000346362E+01  0.16498978971E+02 -0.23172543468E+02  0.30489910754E+02  0.98697136449E+01 0.  0.
         22    1    3    3    0    0  0.48000346362E+01 -0.16498978971E+02  0.70234896835E+02  0.72306274783E+02  0.00000000000E+00 0.  1.
         22    1    4    4    0    0  0.12502490849E+01  0.67807098379E+01 -0.35084795810E+01  0.77363155088E+01  0.00000000000E+00 0.  1.
         22    1    4    4    0    0 -0.60502837212E+01  0.97182691335E+01 -0.19664063887E+02  0.22753595245E+02  0.00000000000E+00 0.  1.
<mgrwt>
<rscale>  0 0.91390320E+02</rscale>
<asrwt>0</asrwt>
<pdfrwt beam="1">  1        2 0.11527580E-01 0.91390320E+02</pdfrwt>
<pdfrwt beam="2">  1       -2 0.42872179E-02 0.91390320E+02</pdfrwt>
<totfact> 0.11200818E+05</totfact>
</mgrwt>
</event>
<event>
 7    1  0.3480999E-009  0.8993898E+02  0.7818608E-02  0.1303000E+00
          2   -1    0    0  501    0  0.00000000000E+00  0.00000000000E+00  0.15615813314E+02  0.15615813522E+02  0.25500000000E-02 0. -1.
         -2   -1    0    0    0  501 -0.00000000000E+00 -0.00000000000E+00 -0.12950047277E+03  0.12950047280E+03  0.25500000000E-02 0.  1.
         23    2    1    2    0    0  0.35527136788E-14  0.00000000000E+00 -0.11388465946E+03  0.14511628632E+03  0.89938984290E+02 0.  0.
    9000005    2    3    3    0    0  0.28360216904E+02 -0.33801369307E+02 -0.68506901036E+02  0.81823510829E+02  0.74200380639E+01 0.  0.
         22    1    3    3    0    0 -0.28360216904E+02  0.33801369307E+02 -0.45377758422E+02  0.63292775490E+02  0.00000000000E+00 0. -1.
         22    1    4    4    0    0  0.28620633936E+02 -0.33884343031E+02 -0.67411181988E+02  0.80694218173E+02  0.00000000000E+00 0.  1.
         22    1    4    4    0    0 -0.26041703229E+00  0.82973723644E-01 -0.10957190480E+01  0.11292926555E+01  0.00000000000E+00 0.  1.
<mgrwt>
<rscale>  0 0.89938984E+02</rscale>
<asrwt>0</asrwt>
<pdfrwt beam="1">  1        2 0.24024329E-02 0.89938984E+02</pdfrwt>
<pdfrwt beam="2">  1       -2 0.19923149E-01 0.89938984E+02</pdfrwt>
<totfact> 0.76116166E+04</totfact>
</mgrwt>
</event>
<event>
 7    1  0.3480999E-009  0.9034440E+02  0.7818608E-02  0.1302020E+00
          2   -1    0    0  501    0  0.00000000000E+00  0.00000000000E+00  0.47375743413E+03  0.47375743414E+03  0.25500000000E-02 0. -1.
         -2   -1    0    0    0  501 -0.00000000000E+00 -0.00000000000E+00 -0.43071146499E+01  0.43071154048E+01  0.25500000000E-02 0.  1.
         23    2    1    2    0    0  0.00000000000E+00  0.00000000000E+00  0.46945031948E+03  0.47806454954E+03  0.90344402530E+02 0.  0.
    9000005    2    3    3    0    0 -0.40420875369E+02 -0.19297449892E+02  0.25564816071E+03  0.25962095996E+03  0.63892123245E+01 0.  0.
         22    1    3    3    0    0  0.40420875369E+02  0.19297449892E+02  0.21380215876E+03  0.21844358958E+03  0.00000000000E+00 0. -1.
         22    1    4    4    0    0 -0.78284048648E+01 -0.26965475719E+01  0.61800019513E+02  0.62352206884E+02  0.00000000000E+00 0. -1.
         22    1    4    4    0    0 -0.32592470504E+02 -0.16600902320E+02  0.19384814120E+03  0.19726875307E+03  0.00000000000E+00 0. -1.
<mgrwt>
<rscale>  0 0.90344403E+02</rscale>
<asrwt>0</asrwt>
<pdfrwt beam="1">  1        2 0.72885742E-01 0.90344403E+02</pdfrwt>
<pdfrwt beam="2">  1       -2 0.66263324E-03 0.90344403E+02</pdfrwt>
<totfact> 0.21689941E+05</totfact>
</mgrwt>
</event>
<event>
 7    1  0.3480999E-009  0.9137853E+02  0.7818608E-02  0.1299547E+00
          2   -1    0    0  501    0  0.00000000000E+00  0.00000000000E+00  0.70181530699E+02  0.70181530745E+02  0.25500000000E-02 0. -1.
         -2   -1    0    0    0  501 -0.00000000000E+00 -0.00000000000E+00 -0.29744418471E+02  0.29744418581E+02  0.25500000000E-02 0.  1.
         23    2    1    2    0    0  0.35527136788E-14  0.00000000000E+00  0.40437112227E+02  0.99925949326E+02  0.91378527584E+02 0.  0.
    9000005    2    3    3    0    0  0.31642802859E+02 -0.22595189021E+02  0.44165336923E+02  0.60865621639E+02  0.15563976750E+02 0.  0.
         22    1    3    3    0    0 -0.31642802859E+02  0.22595189021E+02 -0.37282246963E+01  0.39060327687E+02  0.00000000000E+00 0.  1.
         22    1    4    4    0    0  0.17405841875E+02 -0.21363900554E+02  0.27902432149E+02  0.39216390682E+02  0.00000000000E+00 0.  1.
         22    1    4    4    0    0  0.14236960984E+02 -0.12312884667E+01  0.16262904774E+02  0.21649230957E+02  0.00000000000E+00 0.  1.
<mgrwt>
<rscale>  0 0.91378528E+02</rscale>
<asrwt>0</asrwt>
<pdfrwt beam="1">  1        2 0.10797158E-01 0.91378528E+02</pdfrwt>
<pdfrwt beam="2">  1       -2 0.45760644E-02 0.91378528E+02</pdfrwt>
<totfact> 0.11001602E+05</totfact>
</mgrwt>
</event>
<event>
 7    1  0.3480999E-009  0.8949046E+02  0.7818608E-02  0.1304090E+00
          2   -1    0    0  501    0  0.00000000000E+00  0.00000000000E+00  0.15481452477E+03  0.15481452479E+03  0.25500000000E-02 0. -1.
         -2   -1    0    0    0  501 -0.00000000000E+00 -0.00000000000E+00 -0.12932478205E+02  0.12932478456E+02  0.25500000000E-02 0.  1.
         23    2    1    2    0    0  0.00000000000E+00 -0.71054273576E-14  0.14188204656E+03  0.16774700324E+03  0.89490457372E+02 0.  0.
    9000005    2    3    3    0    0  0.19329500482E+02  0.38370282751E+02  0.61740425677E+02  0.76815228900E+02  0.15581753458E+02 0.  0.
         22    1    3    3    0    0 -0.19329500482E+02 -0.38370282751E+02  0.80141620886E+02  0.90931774345E+02  0.00000000000E+00 0. -1.
         22    1    4    4    0    0 -0.11563491209E+01  0.24256045567E+01  0.24550664250E+00  0.26983280502E+01  0.00000000000E+00 0.  1.
         22    1    4    4    0    0  0.20485849603E+02  0.35944678194E+02  0.61494919035E+02  0.74116900850E+02  0.00000000000E+00 0.  1.
<mgrwt>
<rscale>  0 0.89490457E+02</rscale>
<asrwt>0</asrwt>
<pdfrwt beam="1">  1        2 0.23817619E-01 0.89490457E+02</pdfrwt>
<pdfrwt beam="2">  1       -2 0.19896120E-02 0.89490457E+02</pdfrwt>
<totfact> 0.14864985E+05</totfact>
</mgrwt>
</event>
<event>
 7    1  0.3480999E-009  0.9562384E+02  0.7818608E-02  0.1289777E+00
         -2   -1    0    0    0  501 -0.00000000000E+00  0.00000000000E+00  0.70678036659E+02  0.70678036705E+02  0.25500000000E-02 0.  1.
          2   -1    0    0  501    0  0.00000000000E+00 -0.00000000000E+00 -0.32343568376E+02  0.32343568476E+02  0.25500000000E-02 0. -1.
         23    2    1    2    0    0  0.00000000000E+00  0.00000000000E+00  0.38334468284E+02  0.10302160518E+03  0.95623844702E+02 0.  0.
    9000005    2    3    3    0    0  0.21798551870E+02 -0.20648530267E+02  0.58947000527E+02  0.66601622324E+02  0.77128826792E+01 0.  0.
         22    1    3    3    0    0 -0.21798551870E+02  0.20648530267E+02 -0.20612532243E+02  0.36419982857E+02  0.00000000000E+00 0. -1.
         22    1    4    4    0    0  0.11459332378E+02 -0.14832513092E+02  0.30770927742E+02  0.36030122638E+02  0.00000000000E+00 0.  1.
         22    1    4    4    0    0  0.10339219493E+02 -0.58160171750E+01  0.28176072785E+02  0.30571499687E+02  0.00000000000E+00 0.  1.
<mgrwt>
<rscale>  0 0.95623845E+02</rscale>
<asrwt>0</asrwt>
<pdfrwt beam="2">  1        2 0.49759336E-02 0.95623845E+02</pdfrwt>
<pdfrwt beam="1">  1       -2 0.10873544E-01 0.95623845E+02</pdfrwt>
<totfact> 0.78355706E+04</totfact>
</mgrwt>
</event>
<event>
 7    1  0.3480999E-009  0.9136736E+02  0.7818608E-02  0.1299574E+00
          2   -1    0    0  501    0  0.00000000000E+00  0.00000000000E+00  0.48776432028E+02  0.48776432095E+02  0.25500000000E-02 0. -1.
         -2   -1    0    0    0  501 -0.00000000000E+00 -0.00000000000E+00 -0.42787032765E+02  0.42787032841E+02  0.25500000000E-02 0.  1.
         23    2    1    2    0    0  0.00000000000E+00  0.00000000000E+00  0.59893992631E+01  0.91563464936E+02  0.91367364018E+02 0.  0.
    9000005    2    3    3    0    0 -0.56542144762E+01  0.45216131590E+02  0.52318505671E+01  0.45988882356E+02  0.33371159340E+01 0.  0.
         22    1    3    3    0    0  0.56542144762E+01 -0.45216131590E+02  0.75754869598E+00  0.45574582580E+02  0.00000000000E+00 0.  1.
         22    1    4    4    0    0  0.17094128943E+00  0.11622599760E+01 -0.28934945333E+00  0.12098728373E+01  0.00000000000E+00 0.  1.
         22    1    4    4    0    0 -0.58251557656E+01  0.44053871614E+02  0.55212000204E+01  0.44779009519E+02  0.00000000000E+00 0.  1.
<mgrwt>
<rscale>  0 0.91367364E+02</rscale>
<asrwt>0</asrwt>
<pdfrwt beam="1">  1        2 0.75040664E-02 0.91367364E+02</pdfrwt>
<pdfrwt beam="2">  1       -2 0.65826205E-02 0.91367364E+02</pdfrwt>
<totfact> 0.99827391E+04</totfact>
</mgrwt>
</event>
<event>
 7    1  0.3480999E-009  0.1152003E+03  0.7818608E-02  0.1251232E+00
         -2   -1    0    0    0  501 -0.00000000000E+00  0.00000000000E+00  0.13223169561E+02  0.13223169807E+02  0.25500000000E-02 0.  1.
          2   -1    0    0  501    0  0.00000000000E+00 -0.00000000000E+00 -0.25090637057E+03  0.25090637058E+03  0.25500000000E-02 0. -1.
         23    2    1    2    0    0  0.00000000000E+00  0.00000000000E+00 -0.23768320101E+03  0.26412954039E+03  0.11520030410E+03 0.  0.
    9000005    2    3    3    0    0  0.37552282289E+02 -0.43020162697E+02 -0.10440239825E+03  0.11913064147E+03  0.55982741299E+01 0.  0.
         22    1    3    3    0    0 -0.37552282289E+02  0.43020162697E+02 -0.13328080276E+03  0.14499889892E+03  0.00000000000E+00 0.  1.
         22    1    4    4    0    0  0.28024717748E+02 -0.31766329018E+02 -0.82279874477E+02  0.92544379668E+02  0.00000000000E+00 0.  1.
         22    1    4    4    0    0  0.95275645405E+01 -0.11253833679E+02 -0.22122523772E+02  0.26586261802E+02  0.00000000000E+00 0.  1.
<mgrwt>
<rscale>  0 0.11520030E+03</rscale>
<asrwt>0</asrwt>
<pdfrwt beam="2">  1        2 0.38600977E-01 0.11520030E+03</pdfrwt>
<pdfrwt beam="1">  1       -2 0.20343340E-02 0.11520030E+03</pdfrwt>
<totfact> 0.89058001E+04</totfact>
</mgrwt>
</event>
<event>
 7    1  0.3480999E-009  0.9269079E+02  0.7818608E-02  0.1296463E+00
          2   -1    0    0  501    0  0.00000000000E+00  0.00000000000E+00  0.29587640505E+03  0.29587640506E+03  0.25500000000E-02 0. -1.
         -2   -1    0    0    0  501 -0.00000000000E+00 -0.00000000000E+00 -0.72594345222E+01  0.72594349701E+01  0.25500000000E-02 0.  1.
         23    2    1    2    0    0 -0.35527136788E-14 -0.88817841970E-15  0.28861697052E+03  0.30313584003E+03  0.92690786137E+02 0.  0.
    9000005    2    3    3    0    0 -0.18099095780E+02 -0.58260379162E+01  0.28200587194E+03  0.28300559884E+03  0.14259634521E+02 0.  0.
         22    1    3    3    0    0  0.18099095780E+02  0.58260379162E+01  0.66110985780E+01  0.20130241188E+02  0.00000000000E+00 0.  1.
         22    1    4    4    0    0 -0.18937101793E+02 -0.22103109036E+01  0.19746146866E+03  0.19837976436E+03  0.00000000000E+00 0.  1.
         22    1    4    4    0    0  0.83800601231E+00 -0.36157270127E+01  0.84544403280E+02  0.84625834483E+02  0.00000000000E+00 0.  1.
<mgrwt>
<rscale>  0 0.92690786E+02</rscale>
<asrwt>0</asrwt>
<pdfrwt beam="1">  1        2 0.45519449E-01 0.92690786E+02</pdfrwt>
<pdfrwt beam="2">  1       -2 0.11168361E-02 0.92690786E+02</pdfrwt>
<totfact> 0.17103899E+05</totfact>
</mgrwt>
</event>
<event>
 7    1  0.3480999E-009  0.9261451E+02  0.7818608E-02  0.1296641E+00
         -2   -1    0    0    0  501 -0.00000000000E+00  0.00000000000E+00  0.32869794446E+01  0.32869804337E+01  0.25500000000E-02 0.  1.
          2   -1    0    0  501    0  0.00000000000E+00 -0.00000000000E+00 -0.65238056564E+03  0.65238056564E+03  0.25500000000E-02 0. -1.
         23    2    1    2    0    0 -0.22204460493E-15 -0.71054273576E-14 -0.64909358619E+03  0.65566754607E+03  0.92614509343E+02 0.  0.
    9000005    2    3    3    0    0 -0.37657690295E+00 -0.41535719894E+02 -0.46725647274E+03  0.46914651867E+03  0.66698442077E+01 0.  0.
         22    1    3    3    0    0  0.37657690295E+00  0.41535719894E+02 -0.18183711345E+03  0.18652102741E+03  0.00000000000E+00 0. -1.
         22    1    4    4    0    0  0.12713067178E+01 -0.36121218581E+01 -0.61175983904E+02  0.61295714791E+02  0.00000000000E+00 0. -1.
         22    1    4    4    0    0 -0.16478836208E+01 -0.37923598036E+02 -0.40608048884E+03  0.40785080388E+03  0.00000000000E+00 0. -1.
<mgrwt>
<rscale>  0 0.92614509E+02</rscale>
<asrwt>0</asrwt>
<pdfrwt beam="2">  1        2 0.10036614E+00 0.92614509E+02</pdfrwt>
<pdfrwt beam="1">  1       -2 0.50568974E-03 0.92614509E+02</pdfrwt>
<totfact> 0.22363698E+05</totfact>
</mgrwt>
</event>
<event>
 7    1  0.3480999E-009  0.9182715E+02  0.7818608E-02  0.1298486E+00
         -2   -1    0    0    0  501 -0.00000000000E+00  0.00000000000E+00  0.40793395361E+01  0.40793403331E+01  0.25500000000E-02 0.  1.
          2   -1    0    0  501    0  0.00000000000E+00 -0.00000000000E+00 -0.51676412186E+03  0.51676412187E+03  0.25500000000E-02 0. -1.
         23    2    1    2    0    0  0.00000000000E+00  0.35527136788E-14 -0.51268478233E+03  0.52084346220E+03  0.91827153334E+02 0.  0.
    9000005    2    3    3    0    0 -0.51267646746E+01  0.31627431398E+02 -0.43959458891E+03  0.44103898547E+03  0.15665438768E+02 0.  0.
         22    1    3    3    0    0  0.51267646746E+01 -0.31627431398E+02 -0.73090193413E+02  0.79804476729E+02  0.00000000000E+00 0.  1.
         22    1    4    4    0    0  0.71681663191E+00  0.27503419004E+02 -0.38432833337E+03  0.38531184736E+03  0.00000000000E+00 0.  1.
         22    1    4    4    0    0 -0.58435813065E+01  0.41240123946E+01 -0.55266255545E+02  0.55727138117E+02  0.00000000000E+00 0.  1.
<mgrwt>
<rscale>  0 0.91827153E+02</rscale>
<asrwt>0</asrwt>
<pdfrwt beam="2">  1        2 0.79502121E-01 0.91827153E+02</pdfrwt>
<pdfrwt beam="1">  1       -2 0.62759117E-03 0.91827153E+02</pdfrwt>
<totfact> 0.21373569E+05</totfact>
</mgrwt>
</event>
<event>
 7    1  0.3480999E-009  0.8943234E+02  0.7818608E-02  0.1304232E+00
          2   -1    0    0  501    0  0.00000000000E+00  0.00000000000E+00  0.86458361171E+02  0.86458361209E+02  0.25500000000E-02 0. -1.
         -2   -1    0    0    0  501 -0.00000000000E+00 -0.00000000000E+00 -0.23127155744E+02  0.23127155885E+02  0.25500000000E-02 0.  1.
         23    2    1    2    0    0 -0.35527136788E-14 -0.17763568394E-14  0.63331205427E+02  0.10958551709E+03  0.89432343007E+02 0.  0.
    9000005    2    3    3    0    0  0.31221880688E+02  0.15012864849E+02  0.64999440203E+02  0.74901587790E+02  0.13606200135E+02 0.  0.
         22    1    3    3    0    0 -0.31221880688E+02 -0.15012864849E+02 -0.16682347755E+01  0.34683929304E+02  0.00000000000E+00 0. -1.
         22    1    4    4    0    0  0.29642307514E+01  0.70393760343E+01  0.16951780419E+02  0.18593072319E+02  0.00000000000E+00 0. -1.
         22    1    4    4    0    0  0.28257649936E+02  0.79734888151E+01  0.48047659784E+02  0.56308515471E+02  0.00000000000E+00 0. -1.
<mgrwt>
<rscale>  0 0.89432343E+02</rscale>
<asrwt>0</asrwt>
<pdfrwt beam="1">  1        2 0.13301286E-01 0.89432343E+02</pdfrwt>
<pdfrwt beam="2">  1       -2 0.35580240E-02 0.89432343E+02</pdfrwt>
<totfact> 0.12390434E+05</totfact>
</mgrwt>
</event>
<event>
 7    1  0.3480999E-009  0.9284134E+02  0.7818608E-02  0.1296113E+00
         -2   -1    0    0    0  501 -0.00000000000E+00  0.00000000000E+00  0.16986790280E+02  0.16986790471E+02  0.25500000000E-02 0.  1.
          2   -1    0    0  501    0  0.00000000000E+00 -0.00000000000E+00 -0.12685613375E+03  0.12685613378E+03  0.25500000000E-02 0. -1.
         23    2    1    2    0    0  0.00000000000E+00  0.00000000000E+00 -0.10986934347E+03  0.14384292425E+03  0.92841338968E+02 0.  0.
    9000005    2    3    3    0    0  0.16223033091E+02 -0.21903050391E+02 -0.11241747767E+03  0.11646732550E+03  0.13565330904E+02 0.  0.
         22    1    3    3    0    0 -0.16223033091E+02  0.21903050391E+02  0.25481342026E+01  0.27375598752E+02  0.00000000000E+00 0.  1.
         22    1    4    4    0    0  0.21855657576E+01 -0.12944427143E+02 -0.61872338298E+02  0.63249673028E+02  0.00000000000E+00 0.  1.
         22    1    4    4    0    0  0.14037467333E+02 -0.89586232479E+01 -0.50545139376E+02  0.53217652468E+02  0.00000000000E+00 0.  1.
<mgrwt>
<rscale>  0 0.92841339E+02</rscale>
<asrwt>0</asrwt>
<pdfrwt beam="2">  1        2 0.19516328E-01 0.92841339E+02</pdfrwt>
<pdfrwt beam="1">  1       -2 0.26133525E-02 0.92841339E+02</pdfrwt>
<totfact> 0.12583628E+05</totfact>
</mgrwt>
</event>
<event>
 7    1  0.3480999E-009  0.9049524E+02  0.7818608E-02  0.1301657E+00
         -2   -1    0    0    0  501 -0.00000000000E+00  0.00000000000E+00  0.52039025204E+03  0.52039025205E+03  0.25500000000E-02 0.  1.
          2   -1    0    0  501    0  0.00000000000E+00 -0.00000000000E+00 -0.39342529569E+01  0.39342537833E+01  0.25500000000E-02 0. -1.
         23    2    1    2    0    0 -0.71054273576E-14 -0.35527136788E-14  0.51645599908E+03  0.52432450583E+03  0.90495239790E+02 0.  0.
    9000005    2    3    3    0    0  0.38280510154E+02  0.19708879285E+02  0.32883436748E+03  0.33182589798E+03  0.11070137801E+02 0.  0.
         22    1    3    3    0    0 -0.38280510154E+02 -0.19708879285E+02  0.18762163160E+03  0.19249860785E+03  0.00000000000E+00 0. -1.
         22    1    4    4    0    0  0.10725719310E+01  0.34610432120E+01  0.37780055776E+02  0.37953416778E+02  0.00000000000E+00 0.  1.
         22    1    4    4    0    0  0.37207938223E+02  0.16247836073E+02  0.29105431171E+03  0.29387248120E+03  0.00000000000E+00 0.  1.
<mgrwt>
<rscale>  0 0.90495240E+02</rscale>
<asrwt>0</asrwt>
<pdfrwt beam="2">  1        2 0.60526929E-03 0.90495240E+02</pdfrwt>
<pdfrwt beam="1">  1       -2 0.80060100E-01 0.90495240E+02</pdfrwt>
<totfact> 0.35870212E+04</totfact>
</mgrwt>
</event>
<event>
 7    1  0.3480999E-009  0.9066748E+02  0.7818608E-02  0.1301243E+00
         -2   -1    0    0    0  501 -0.00000000000E+00  0.00000000000E+00  0.20447274075E+01  0.20447289975E+01  0.25500000000E-02 0.  1.
          2   -1    0    0  501    0  0.00000000000E+00 -0.00000000000E+00 -0.10050958750E+04  0.10050958751E+04  0.25500000000E-02 0. -1.
         23    2    1    2    0    0  0.00000000000E+00 -0.44408920985E-15 -0.10030511476E+04  0.10071406040E+04  0.90667477856E+02 0.  0.
    9000005    2    3    3    0    0  0.34441465801E+02  0.34197610144E+01 -0.81906447984E+03  0.81992681380E+03  0.14678164611E+02 0.  0.
         22    1    3    3    0    0 -0.34441465801E+02 -0.34197610144E+01 -0.18398666780E+03  0.18721379025E+03  0.00000000000E+00 0.  1.
         22    1    4    4    0    0  0.63245087512E+01 -0.39275753838E+01 -0.26101521867E+03  0.26112136955E+03  0.00000000000E+00 0.  1.
         22    1    4    4    0    0  0.28116957050E+02  0.73473363982E+01 -0.55804926117E+03  0.55880544425E+03  0.00000000000E+00 0.  1.
<mgrwt>
<rscale>  0 0.90667478E+02</rscale>
<asrwt>0</asrwt>
<pdfrwt beam="2">  1        2 0.15462974E+00 0.90667478E+02</pdfrwt>
<pdfrwt beam="1">  1       -2 0.31457437E-03 0.90667478E+02</pdfrwt>
<totfact> 0.25378173E+05</totfact>
</mgrwt>
</event>
<event>
 7    1  0.3480999E-009  0.1021731E+03  0.7818608E-02  0.1275792E+00
         -2   -1    0    0    0  501 -0.00000000000E+00  0.00000000000E+00  0.10987266546E+02  0.10987266842E+02  0.25500000000E-02 0.  1.
          2   -1    0    0  501    0  0.00000000000E+00 -0.00000000000E+00 -0.23753267964E+03  0.23753267965E+03  0.25500000000E-02 0. -1.
         23    2    1    2    0    0  0.71054273576E-14  0.00000000000E+00 -0.22654541309E+03  0.24851994649E+03  0.10217308653E+03 0.  0.
    9000005    2    3    3    0    0 -0.44678703325E+02 -0.17250570125E+02 -0.71071864623E+02  0.85836840504E+02  0.47942201071E+01 0.  0.
         22    1    3    3    0    0  0.44678703325E+02  0.17250570125E+02 -0.15547354847E+03  0.16268310599E+03  0.00000000000E+00 0. -1.
         22    1    4    4    0    0 -0.38024262824E+01 -0.29543041835E+01 -0.65230797893E+01  0.81078313241E+01  0.00000000000E+00 0.  1.
         22    1    4    4    0    0 -0.40876277042E+02 -0.14296265942E+02 -0.64548784833E+02  0.77729009180E+02  0.00000000000E+00 0.  1.
<mgrwt>
<rscale>  0 0.10217309E+03</rscale>
<asrwt>0</asrwt>
<pdfrwt beam="2">  1        2 0.36543485E-01 0.10217309E+03</pdfrwt>
<pdfrwt beam="1">  1       -2 0.16903489E-02 0.10217309E+03</pdfrwt>
<totfact> 0.12111550E+05</totfact>
</mgrwt>
</event>
<event>
 7    1  0.3480999E-009  0.9141153E+02  0.7818608E-02  0.1299469E+00
          2   -1    0    0  501    0  0.00000000000E+00  0.00000000000E+00  0.14908715804E+03  0.14908715807E+03  0.25500000000E-02 0. -1.
         -2   -1    0    0    0  501 -0.00000000000E+00 -0.00000000000E+00 -0.14012051669E+02  0.14012051901E+02  0.25500000000E-02 0.  1.
         23    2    1    2    0    0  0.00000000000E+00  0.00000000000E+00  0.13507510638E+03  0.16309920997E+03  0.91411530616E+02 0.  0.
    9000005    2    3    3    0    0  0.20975115520E+02 -0.32172948091E+02  0.10934549023E+03  0.11687078573E+03  0.15076148876E+02 0.  0.
         22    1    3    3    0    0 -0.20975115520E+02  0.32172948091E+02  0.25729616148E+02  0.46228424233E+02  0.00000000000E+00 0.  1.
         22    1    4    4    0    0  0.16187896092E+02 -0.12662778931E+02  0.45199272661E+02  0.49652474251E+02  0.00000000000E+00 0. -1.
         22    1    4    4    0    0  0.47872194282E+01 -0.19510169160E+02  0.64146217567E+02  0.67218311483E+02  0.00000000000E+00 0. -1.
<mgrwt>
<rscale>  0 0.91411531E+02</rscale>
<asrwt>0</asrwt>
<pdfrwt beam="1">  1        2 0.22936485E-01 0.91411531E+02</pdfrwt>
<pdfrwt beam="2">  1       -2 0.21557004E-02 0.91411531E+02</pdfrwt>
<totfact> 0.13854860E+05</totfact>
</mgrwt>
</event>
<event>
 7    1  0.3480999E-009  0.8682447E+02  0.7818608E-02  0.1310729E+00
         -2   -1    0    0    0  501 -0.00000000000E+00  0.00000000000E+00  0.79566594648E+02  0.79566594689E+02  0.25500000000E-02 0.  1.
          2   -1    0    0  501    0  0.00000000000E+00 -0.00000000000E+00 -0.23686099846E+02  0.23686099983E+02  0.25500000000E-02 0. -1.
         23    2    1    2    0    0  0.00000000000E+00  0.00000000000E+00  0.55880494802E+02  0.10325269467E+03  0.86824473841E+02 0.  0.
    9000005    2    3    3    0    0 -0.32387864590E+02 -0.28605754399E+02  0.31251906026E+02  0.53515079706E+02  0.44630895402E+01 0.  0.
         22    1    3    3    0    0  0.32387864590E+02  0.28605754399E+02  0.24628588776E+02  0.49737614966E+02  0.00000000000E+00 0. -1.
         22    1    4    4    0    0 -0.18894940003E+02 -0.13788955872E+02  0.16244340188E+02  0.28478634973E+02  0.00000000000E+00 0.  1.
         22    1    4    4    0    0 -0.13492924586E+02 -0.14816798528E+02  0.15007565838E+02  0.25036444733E+02  0.00000000000E+00 0.  1.
<mgrwt>
<rscale>  0 0.86824474E+02</rscale>
<asrwt>0</asrwt>
<pdfrwt beam="2">  1        2 0.36440155E-02 0.86824474E+02</pdfrwt>
<pdfrwt beam="1">  1       -2 0.12241014E-01 0.86824474E+02</pdfrwt>
<totfact> 0.96083188E+04</totfact>
</mgrwt>
</event>
<event>
 7    1  0.3480999E-009  0.9418648E+02  0.7818608E-02  0.1293019E+00
          2   -1    0    0  501    0  0.00000000000E+00  0.00000000000E+00  0.43476561024E+03  0.43476561024E+03  0.25500000000E-02 0. -1.
         -2   -1    0    0    0  501 -0.00000000000E+00 -0.00000000000E+00 -0.51010772688E+01  0.51010779061E+01  0.25500000000E-02 0.  1.
         23    2    1    2    0    0  0.00000000000E+00  0.00000000000E+00  0.42966453297E+03  0.43986668815E+03  0.94186477022E+02 0.  0.
    9000005    2    3    3    0    0  0.33891693260E+02  0.31934491699E+02  0.18522218305E+03  0.19102834492E+03  0.40140794674E+01 0.  0.
         22    1    3    3    0    0 -0.33891693260E+02 -0.31934491699E+02  0.24444234991E+03  0.24883834323E+03  0.00000000000E+00 0. -1.
         22    1    4    4    0    0  0.31648496790E+02  0.29944189060E+02  0.16864801588E+03  0.17418505983E+03  0.00000000000E+00 0. -1.
         22    1    4    4    0    0  0.22431964701E+01  0.19903026394E+01  0.16574167174E+02  0.16843285086E+02  0.00000000000E+00 0. -1.
<mgrwt>
<rscale>  0 0.94186477E+02</rscale>
<asrwt>0</asrwt>
<pdfrwt beam="1">  1        2 0.66887011E-01 0.94186477E+02</pdfrwt>
<pdfrwt beam="2">  1       -2 0.78478124E-03 0.94186477E+02</pdfrwt>
<totfact> 0.18858356E+05</totfact>
</mgrwt>
</event>
<event>
 7    1  0.3480999E-009  0.8580796E+02  0.7818608E-02  0.1313333E+00
          2   -1    0    0  501    0  0.00000000000E+00  0.00000000000E+00  0.35046753777E+03  0.35046753778E+03  0.25500000000E-02 0.  1.
         -2   -1    0    0    0  501 -0.00000000000E+00 -0.00000000000E+00 -0.52522735464E+01  0.52522741654E+01  0.25500000000E-02 0. -1.
         23    2    1    2    0    0  0.00000000000E+00  0.00000000000E+00  0.34521526423E+03  0.35571981195E+03  0.85807959754E+02 0.  0.
    9000005    2    3    3    0    0  0.37910964203E+02  0.11159532465E+02  0.11801835160E+03  0.12511145677E+03  0.12758092668E+02 0.  0.
         22    1    3    3    0    0 -0.37910964203E+02 -0.11159532465E+02  0.22719691263E+03  0.23060835518E+03  0.00000000000E+00 0.  1.
         22    1    4    4    0    0  0.90084349266E+01  0.20439709589E+01  0.14037692477E+02  0.16804360363E+02  0.00000000000E+00 0. -1.
         22    1    4    4    0    0  0.28902529276E+02  0.91155615065E+01  0.10398065912E+03  0.10830709640E+03  0.00000000000E+00 0. -1.
<mgrwt>
<rscale>  0 0.85807960E+02</rscale>
<asrwt>0</asrwt>
<pdfrwt beam="1">  1        2 0.53918095E-01 0.85807960E+02</pdfrwt>
<pdfrwt beam="2">  1       -2 0.80804195E-03 0.85807960E+02</pdfrwt>
<totfact> 0.22349958E+05</totfact>
</mgrwt>
</event>
<event>
 7    1  0.3480999E-009  0.8784354E+02  0.7818608E-02  0.1308160E+00
          2   -1    0    0  501    0  0.00000000000E+00  0.00000000000E+00  0.11238210656E+04  0.11238210656E+04  0.25500000000E-02 0. -1.
         -2   -1    0    0    0  501 -0.00000000000E+00 -0.00000000000E+00 -0.17165730327E+01  0.17165749267E+01  0.25500000000E-02 0.  1.
         23    2    1    2    0    0  0.00000000000E+00 -0.17763568394E-14  0.11221044926E+04  0.11255376406E+04  0.87843542787E+02 0.  0.
    9000005    2    3    3    0    0  0.14159766654E+02  0.12645354280E+02  0.10682334672E+04  0.10684194180E+04  0.60752145803E+01 0.  0.
         22    1    3    3    0    0 -0.14159766654E+02 -0.12645354280E+02  0.53871025391E+02  0.57118222602E+02  0.00000000000E+00 0.  1.
         22    1    4    4    0    0  0.57856423569E+01  0.75865749178E+01  0.65876493416E+03  0.65883402178E+03  0.00000000000E+00 0.  1.
         22    1    4    4    0    0  0.83741242970E+01  0.50587793620E+01  0.40946853305E+03  0.40958539618E+03  0.00000000000E+00 0.  1.
<mgrwt>
<rscale>  0 0.87843543E+02</rscale>
<asrwt>0</asrwt>
<pdfrwt beam="1">  1        2 0.17289607E+00 0.87843543E+02</pdfrwt>
<pdfrwt beam="2">  1       -2 0.26408750E-03 0.87843543E+02</pdfrwt>
<totfact> 0.27567982E+05</totfact>
</mgrwt>
</event>
<event>
 7    1  0.3480999E-009  0.9166533E+02  0.7818608E-02  0.1298868E+00
         -2   -1    0    0    0  501 -0.00000000000E+00  0.00000000000E+00  0.58375136625E+01  0.58375142195E+01  0.25500000000E-02 0.  1.
          2   -1    0    0  501    0  0.00000000000E+00 -0.00000000000E+00 -0.35985067901E+03  0.35985067902E+03  0.25500000000E-02 0. -1.
         23    2    1    2    0    0  0.00000000000E+00  0.44408920985E-15 -0.35401316535E+03  0.36568819324E+03  0.91665333876E+02 0.  0.
    9000005    2    3    3    0    0 -0.25902484429E+02 -0.34042221770E+01 -0.32612661264E+03  0.32747579669E+03  0.14117454317E+02 0.  0.
         22    1    3    3    0    0  0.25902484429E+02  0.34042221770E+01 -0.27886552708E+02  0.38212396550E+02  0.00000000000E+00 0.  1.
         22    1    4    4    0    0 -0.97141263899E+01  0.46231188782E+01 -0.16218234693E+03  0.16253876810E+03  0.00000000000E+00 0.  1.
         22    1    4    4    0    0 -0.16188358039E+02 -0.80273410551E+01 -0.16394426571E+03  0.16493702858E+03  0.00000000000E+00 0.  1.
<mgrwt>
<rscale>  0 0.91665334E+02</rscale>
<asrwt>0</asrwt>
<pdfrwt beam="2">  1        2 0.55361626E-01 0.91665334E+02</pdfrwt>
<pdfrwt beam="1">  1       -2 0.89807935E-03 0.91665334E+02</pdfrwt>
<totfact> 0.18942094E+05</totfact>
</mgrwt>
</event>
<event>
 7    1  0.3480999E-009  0.8611259E+02  0.7818608E-02  0.1312548E+00
          2   -1    0    0  501    0  0.00000000000E+00  0.00000000000E+00  0.13847973162E+02  0.13847973397E+02  0.25500000000E-02 0.  1.
         -2   -1    0    0    0  501 -0.00000000000E+00 -0.00000000000E+00 -0.13387118508E+03  0.13387118510E+03  0.25500000000E-02 0. -1.
         23    2    1    2    0    0  0.35527136788E-14 -0.35527136788E-14 -0.12002321191E+03  0.14771915850E+03  0.86112591350E+02 0.  0.
    9000005    2    3    3    0    0 -0.24203214577E+02  0.26183093637E+02 -0.98779544129E+02  0.10621441890E+03  0.15898253205E+02 0.  0.
         22    1    3    3    0    0  0.24203214577E+02 -0.26183093637E+02 -0.21243667784E+02  0.41504739600E+02  0.00000000000E+00 0.  1.
         22    1    4    4    0    0 -0.23810840128E+01  0.85172098671E+01 -0.41399966129E+02  0.42334024384E+02  0.00000000000E+00 0. -1.
         22    1    4    4    0    0 -0.21822130565E+02  0.17665883770E+02 -0.57379578000E+02  0.63880394513E+02  0.00000000000E+00 0. -1.
<mgrwt>
<rscale>  0 0.86112591E+02</rscale>
<asrwt>0</asrwt>
<pdfrwt beam="1">  1        2 0.21304575E-02 0.86112591E+02</pdfrwt>
<pdfrwt beam="2">  1       -2 0.20595566E-01 0.86112591E+02</pdfrwt>
<totfact> 0.83975671E+04</totfact>
</mgrwt>
</event>
<event>
 7    1  0.3480999E-009  0.9449409E+02  0.7818608E-02  0.1292320E+00
          2   -1    0    0  501    0  0.00000000000E+00  0.00000000000E+00  0.52526085528E+03  0.52526085529E+03  0.25500000000E-02 0. -1.
         -2   -1    0    0    0  501 -0.00000000000E+00 -0.00000000000E+00 -0.42498558505E+01  0.42498566156E+01  0.25500000000E-02 0.  1.
         23    2    1    2    0    0  0.00000000000E+00  0.00000000000E+00  0.52101099943E+03  0.52951071191E+03  0.94494087076E+02 0.  0.
    9000005    2    3    3    0    0 -0.36305163600E+02 -0.79083941575E+01  0.42150909293E+03  0.42329754417E+03  0.11414371516E+02 0.  0.
         22    1    3    3    0    0  0.36305163600E+02  0.79083941575E+01  0.99501906501E+02  0.10621316773E+03  0.00000000000E+00 0.  1.
         22    1    4    4    0    0 -0.25730109862E+02 -0.96077083143E+01  0.33590695903E+03  0.33702793911E+03  0.00000000000E+00 0.  1.
         22    1    4    4    0    0 -0.10575053738E+02  0.16993141568E+01  0.85602133899E+02  0.86269605066E+02  0.00000000000E+00 0.  1.
<mgrwt>
<rscale>  0 0.94494087E+02</rscale>
<asrwt>0</asrwt>
<pdfrwt beam="1">  1        2 0.80809356E-01 0.94494087E+02</pdfrwt>
<pdfrwt beam="2">  1       -2 0.65382409E-03 0.94494087E+02</pdfrwt>
<totfact> 0.19913675E+05</totfact>
</mgrwt>
</event>
<event>
 7    1  0.3480999E-009  0.9129995E+02  0.7818608E-02  0.1299734E+00
          2   -1    0    0  501    0  0.00000000000E+00  0.00000000000E+00  0.54022065560E+03  0.54022065560E+03  0.25500000000E-02 0. -1.
         -2   -1    0    0    0  501 -0.00000000000E+00 -0.00000000000E+00 -0.38575350321E+01  0.38575358749E+01  0.25500000000E-02 0.  1.
         23    2    1    2    0    0 -0.11102230246E-15  0.00000000000E+00  0.53636312057E+03  0.54407819148E+03  0.91299952573E+02 0.  0.
    9000005    2    3    3    0    0 -0.84100193958E+00  0.42893777261E+02  0.35251716060E+03  0.35529280961E+03  0.11137712082E+02 0.  0.
         22    1    3    3    0    0  0.84100193958E+00 -0.42893777261E+02  0.18384595996E+03  0.18878538187E+03  0.00000000000E+00 0.  1.
         22    1    4    4    0    0  0.28665489355E+01  0.26680604417E+02  0.18218709256E+03  0.18415267701E+03  0.00000000000E+00 0.  1.
         22    1    4    4    0    0 -0.37075508751E+01  0.16213172844E+02  0.17033006804E+03  0.17114013260E+03  0.00000000000E+00 0.  1.
<mgrwt>
<rscale>  0 0.91299953E+02</rscale>
<asrwt>0</asrwt>
<pdfrwt beam="1">  1        2 0.83110803E-01 0.91299953E+02</pdfrwt>
<pdfrwt beam="2">  1       -2 0.59346747E-03 0.91299953E+02</pdfrwt>
<totfact> 0.22006451E+05</totfact>
</mgrwt>
</event>
<event>
 7    1  0.3480999E-009  0.9223774E+02  0.7818608E-02  0.1297521E+00
         -2   -1    0    0    0  501 -0.00000000000E+00  0.00000000000E+00  0.87894331155E+02  0.87894331192E+02  0.25500000000E-02 0.  1.
          2   -1    0    0  501    0  0.00000000000E+00 -0.00000000000E+00 -0.24198946512E+02  0.24198946646E+02  0.25500000000E-02 0. -1.
         23    2    1    2    0    0  0.00000000000E+00  0.00000000000E+00  0.63695384643E+02  0.11209327784E+03  0.92237741254E+02 0.  0.
    9000005    2    3    3    0    0  0.17672236308E+02 -0.33985906764E+02  0.62791839518E+02  0.73776621036E+02  0.57293024619E+01 0.  0.
         22    1    3    3    0    0 -0.17672236308E+02  0.33985906764E+02  0.90354512544E+00  0.38316656802E+02  0.00000000000E+00 0. -1.
         22    1    4    4    0    0  0.88745796367E+00 -0.52055971593E+01  0.10865325225E+02  0.12080609077E+02  0.00000000000E+00 0. -1.
         22    1    4    4    0    0  0.16784778345E+02 -0.28780309605E+02  0.51926514293E+02  0.61696011959E+02  0.00000000000E+00 0. -1.
<mgrwt>
<rscale>  0 0.92237741E+02</rscale>
<asrwt>0</asrwt>
<pdfrwt beam="2">  1        2 0.37229149E-02 0.92237741E+02</pdfrwt>
<pdfrwt beam="1">  1       -2 0.13522205E-01 0.92237741E+02</pdfrwt>
<totfact> 0.80526429E+04</totfact>
</mgrwt>
</event>
<event>
 7    1  0.3480999E-009  0.9337897E+02  0.7818608E-02  0.1294869E+00
         -2   -1    0    0    0  501 -0.00000000000E+00  0.00000000000E+00  0.28187306236E+01  0.28187317770E+01  0.25500000000E-02 0. -1.
          2   -1    0    0  501    0  0.00000000000E+00 -0.00000000000E+00 -0.77336496627E+03  0.77336496628E+03  0.25500000000E-02 0.  1.
         23    2    1    2    0    0  0.00000000000E+00  0.00000000000E+00 -0.77054623565E+03  0.77618369805E+03  0.93378969001E+02 0.  0.
    9000005    2    3    3    0    0  0.32888076735E+02 -0.19499665954E+02 -0.60431707273E+03  0.60561407248E+03  0.10364257286E+02 0.  0.
         22    1    3    3    0    0 -0.32888076735E+02  0.19499665954E+02 -0.16622916292E+03  0.17056962557E+03  0.00000000000E+00 0. -1.
         22    1    4    4    0    0  0.28166219931E+02 -0.19908688858E+02 -0.55462617644E+03  0.55569765829E+03  0.00000000000E+00 0. -1.
         22    1    4    4    0    0  0.47218568043E+01  0.40902290326E+00 -0.49690896292E+02  0.49916414192E+02  0.00000000000E+00 0. -1.
<mgrwt>
<rscale>  0 0.93378969E+02</rscale>
<asrwt>0</asrwt>
<pdfrwt beam="2">  1        2 0.11897906E+00 0.93378969E+02</pdfrwt>
<pdfrwt beam="1">  1       -2 0.43365157E-03 0.93378969E+02</pdfrwt>
<totfact> 0.22744090E+05</totfact>
</mgrwt>
</event>
<event>
 7    1  0.3480999E-009  0.9013218E+02  0.7818608E-02  0.1302532E+00
          2   -1    0    0  501    0  0.00000000000E+00  0.00000000000E+00  0.17370109691E+03  0.17370109693E+03  0.25500000000E-02 0. -1.
         -2   -1    0    0    0  501 -0.00000000000E+00 -0.00000000000E+00 -0.11692226127E+02  0.11692226405E+02  0.25500000000E-02 0.  1.
         23    2    1    2    0    0 -0.35527136788E-14  0.35527136788E-14  0.16200887078E+03  0.18539332333E+03  0.90132181402E+02 0.  0.
    9000005    2    3    3    0    0 -0.30098355319E+02  0.19125001261E+02  0.13638246307E+03  0.14147989215E+03  0.12029421567E+02 0.  0.
         22    1    3    3    0    0  0.30098355319E+02 -0.19125001261E+02  0.25626407715E+02  0.43913431186E+02  0.00000000000E+00 0.  1.
         22    1    4    4    0    0 -0.27282460603E+02  0.19453480217E+02  0.13250815122E+03  0.13667911578E+03  0.00000000000E+00 0. -1.
         22    1    4    4    0    0 -0.28158947168E+01 -0.32847895523E+00  0.38743118442E+01  0.48007763691E+01  0.00000000000E+00 0. -1.
<mgrwt>
<rscale>  0 0.90132181E+02</rscale>
<asrwt>0</asrwt>
<pdfrwt beam="1">  1        2 0.26723247E-01 0.90132181E+02</pdfrwt>
<pdfrwt beam="2">  1       -2 0.17988040E-02 0.90132181E+02</pdfrwt>
<totfact> 0.15173058E+05</totfact>
</mgrwt>
</event>
<event>
 7    1  0.3480999E-009  0.9134134E+02  0.7818608E-02  0.1299636E+00
         -2   -1    0    0    0  501 -0.00000000000E+00  0.00000000000E+00  0.17069365856E+01  0.17069384904E+01  0.25500000000E-02 0.  1.
          2   -1    0    0  501    0  0.00000000000E+00 -0.00000000000E+00 -0.12219602819E+04  0.12219602819E+04  0.25500000000E-02 0. -1.
         23    2    1    2    0    0  0.00000000000E+00 -0.22204460493E-15 -0.12202533453E+04  0.12236672204E+04  0.91341335185E+02 0.  0.
    9000005    2    3    3    0    0 -0.21392064381E+02  0.98169634999E+00 -0.11494111711E+04  0.11496591276E+04  0.10558662846E+02 0.  0.
         22    1    3    3    0    0  0.21392064381E+02 -0.98169634999E+00 -0.70842174232E+02  0.74008092775E+02  0.00000000000E+00 0.  1.
         22    1    4    4    0    0 -0.11972761862E+02  0.46924584593E+01 -0.79278406074E+03  0.79288834848E+03  0.00000000000E+00 0. -1.
         22    1    4    4    0    0 -0.94193025194E+01 -0.37107621093E+01 -0.35662711033E+03  0.35677077912E+03  0.00000000000E+00 0. -1.
<mgrwt>
<rscale>  0 0.91341335E+02</rscale>
<asrwt>0</asrwt>
<pdfrwt beam="2">  1        2 0.18799319E+00 0.91341335E+02</pdfrwt>
<pdfrwt beam="1">  1       -2 0.26260675E-03 0.91341335E+02</pdfrwt>
<totfact> 0.24697359E+05</totfact>
</mgrwt>
</event>
<event>
 7    1  0.3480999E-009  0.8944429E+02  0.7818608E-02  0.1304203E+00
          2   -1    0    0  501    0  0.00000000000E+00  0.00000000000E+00  0.11000953296E+03  0.11000953299E+03  0.25500000000E-02 0. -1.
         -2   -1    0    0    0  501 -0.00000000000E+00 -0.00000000000E+00 -0.18180882184E+02  0.18180882363E+02  0.25500000000E-02 0.  1.
         23    2    1    2    0    0 -0.88817841970E-15  0.00000000000E+00  0.91828650775E+02  0.12819041535E+03  0.89444292634E+02 0.  0.
    9000005    2    3    3    0    0  0.70380914331E+01 -0.36236851583E+02  0.12410861468E+02  0.40612853145E+02  0.11520859976E+02 0.  0.
         22    1    3    3    0    0 -0.70380914331E+01  0.36236851583E+02  0.79417789306E+02  0.87577562206E+02  0.00000000000E+00 0. -1.
         22    1    4    4    0    0  0.84259112607E+00 -0.27290388408E+02  0.11708425196E+02  0.29707953141E+02  0.00000000000E+00 0.  1.
         22    1    4    4    0    0  0.61955003070E+01 -0.89464631746E+01  0.70243627264E+00  0.10904900004E+02  0.00000000000E+00 0.  1.
<mgrwt>
<rscale>  0 0.89444293E+02</rscale>
<asrwt>0</asrwt>
<pdfrwt beam="1">  1        2 0.16924544E-01 0.89444293E+02</pdfrwt>
<pdfrwt beam="2">  1       -2 0.27970587E-02 0.89444293E+02</pdfrwt>
<totfact> 0.13315208E+05</totfact>
</mgrwt>
</event>
<event>
 7    1  0.3480999E-009  0.8814276E+02  0.7818608E-02  0.1307413E+00
          2   -1    0    0  501    0  0.00000000000E+00  0.00000000000E+00  0.97209506979E+02  0.97209507012E+02  0.25500000000E-02 0. -1.
         -2   -1    0    0    0  501 -0.00000000000E+00 -0.00000000000E+00 -0.19980417796E+02  0.19980417959E+02  0.25500000000E-02 0.  1.
         23    2    1    2    0    0  0.00000000000E+00  0.17763568394E-14  0.77229089182E+02  0.11718992497E+03  0.88142760898E+02 0.  0.
    9000005    2    3    3    0    0  0.39756390190E+02  0.15623656543E+02  0.29178295011E+02  0.52897250232E+02  0.11048845081E+02 0.  0.
         22    1    3    3    0    0 -0.39756390190E+02 -0.15623656543E+02  0.48050794171E+02  0.64292674740E+02  0.00000000000E+00 0. -1.
         22    1    4    4    0    0  0.99586548835E+01 -0.88928644047E+00  0.77606513505E+01  0.12656751038E+02  0.00000000000E+00 0.  1.
         22    1    4    4    0    0  0.29797735306E+02  0.16512942983E+02  0.21417643661E+02  0.40240499193E+02  0.00000000000E+00 0.  1.
<mgrwt>
<rscale>  0 0.88142761E+02</rscale>
<asrwt>0</asrwt>
<pdfrwt beam="1">  1        2 0.14955309E-01 0.88142761E+02</pdfrwt>
<pdfrwt beam="2">  1       -2 0.30739105E-02 0.88142761E+02</pdfrwt>
<totfact> 0.13347741E+05</totfact>
</mgrwt>
</event>
<event>
 7    1  0.3480999E-009  0.9106887E+02  0.7818608E-02  0.1300284E+00
          2   -1    0    0  501    0  0.00000000000E+00  0.00000000000E+00  0.71901841959E+03  0.71901841960E+03  0.25500000000E-02 0. -1.
         -2   -1    0    0    0  501 -0.00000000000E+00 -0.00000000000E+00 -0.28836320265E+01  0.28836331539E+01  0.25500000000E-02 0.  1.
         23    2    1    2    0    0  0.00000000000E+00  0.00000000000E+00  0.71613478757E+03  0.72190205275E+03  0.91068873957E+02 0.  0.
    9000005    2    3    3    0    0  0.23280277407E+02  0.12776722277E+02  0.65110199390E+03  0.65165619735E+03  0.40959910517E+01 0.  0.
         22    1    3    3    0    0 -0.23280277407E+02 -0.12776722277E+02  0.65032793670E+02  0.70245855400E+02  0.00000000000E+00 0.  1.
         22    1    4    4    0    0  0.70829908932E+01  0.60311721303E+01  0.21342862215E+03  0.21363127241E+03  0.00000000000E+00 0. -1.
         22    1    4    4    0    0  0.16197286514E+02  0.67455501464E+01  0.43767337175E+03  0.43802492495E+03  0.00000000000E+00 0. -1.
<mgrwt>
<rscale>  0 0.91068874E+02</rscale>
<asrwt>0</asrwt>
<pdfrwt beam="1">  1        2 0.11061837E+00 0.91068874E+02</pdfrwt>
<pdfrwt beam="2">  1       -2 0.44363516E-03 0.91068874E+02</pdfrwt>
<totfact> 0.23934237E+05</totfact>
</mgrwt>
</event>
<event>
 7    1  0.3480999E-009  0.9491873E+02  0.7818608E-02  0.1291359E+00
         -2   -1    0    0    0  501 -0.00000000000E+00  0.00000000000E+00  0.15586336649E+04  0.15586336649E+04  0.25500000000E-02 0.  1.
          2   -1    0    0  501    0  0.00000000000E+00 -0.00000000000E+00 -0.14451051705E+01  0.14451074203E+01  0.25500000000E-02 0. -1.
         23    2    1    2    0    0  0.44408920985E-15 -0.35527136788E-14  0.15571885597E+04  0.15600787723E+04  0.94918729964E+02 0.  0.
    9000005    2    3    3    0    0  0.33629369132E+01 -0.28292413986E+02  0.13967432709E+04  0.13971233774E+04  0.15817609720E+02 0.  0.
         22    1    3    3    0    0 -0.33629369132E+01  0.28292413986E+02  0.16044528881E+03  0.16295539493E+03  0.00000000000E+00 0. -1.
         22    1    4    4    0    0  0.57775294029E+01 -0.16861214486E+02  0.11086971091E+04  0.11088403673E+04  0.00000000000E+00 0.  1.
         22    1    4    4    0    0 -0.24145924897E+01 -0.11431199500E+02  0.28804616178E+03  0.28828301007E+03  0.00000000000E+00 0.  1.
<mgrwt>
<rscale>  0 0.94918730E+02</rscale>
<asrwt>0</asrwt>
<pdfrwt beam="2">  1        2 0.22232446E-03 0.94918730E+02</pdfrwt>
<pdfrwt beam="1">  1       -2 0.23978935E+00 0.94918730E+02</pdfrwt>
<totfact> 0.89257699E+03</totfact>
</mgrwt>
</event>
<event>
 6    1  0.3480999E-009  0.1305351E+03  0.7818608E-02  0.1226664E+00
          2   -1    0    0  501    0  0.00000000000E+00  0.00000000000E+00  0.81247978762E+02  0.81247978802E+02  0.25500000000E-02 0. -1.
         -2   -1    0    0    0  501 -0.00000000000E+00 -0.00000000000E+00 -0.52430280013E+02  0.52430280075E+02  0.25500000000E-02 0.  1.
    9000005    2    1    2    0    0 -0.62823183170E+02  0.83588761323E+00  0.29254056250E+02  0.70847999769E+02  0.14703340182E+02 0.  0.
         22    1    1    2    0    0  0.62823183170E+02 -0.83588761323E+00 -0.43635750137E+00  0.62830259108E+02  0.00000000000E+00 0.  1.
         22    1    3    3    0    0 -0.40233590186E+02  0.30982657280E+01  0.11302973812E+02  0.41905825928E+02  0.00000000000E+00 0.  1.
         22    1    3    3    0    0 -0.22589592984E+02 -0.22623781148E+01  0.17951082438E+02  0.28942173841E+02  0.00000000000E+00 0.  1.
<mgrwt>
<rscale>  0 0.13053512E+03</rscale>
<asrwt>0</asrwt>
<pdfrwt beam="1">  1        2 0.12499689E-01 0.13053512E+03</pdfrwt>
<pdfrwt beam="2">  1       -2 0.80661969E-02 0.13053512E+03</pdfrwt>
<totfact> 0.41222485E+04</totfact>
</mgrwt>
</event>
<event>
 7    1  0.3480999E-009  0.9109362E+02  0.7818608E-02  0.1300225E+00
         -2   -1    0    0    0  501 -0.00000000000E+00  0.00000000000E+00  0.65800161998E+01  0.65800166939E+01  0.25500000000E-02 0.  1.
          2   -1    0    0  501    0  0.00000000000E+00 -0.00000000000E+00 -0.31527457879E+03  0.31527457880E+03  0.25500000000E-02 0. -1.
         23    2    1    2    0    0  0.00000000000E+00  0.00000000000E+00 -0.30869456259E+03  0.32185459549E+03  0.91093620347E+02 0.  0.
    9000005    2    3    3    0    0  0.35699218677E+02  0.78219167954E+01 -0.24769826241E+03  0.25074787828E+03  0.13581335254E+02 0.  0.
         22    1    3    3    0    0 -0.35699218677E+02 -0.78219167954E+01 -0.60996300179E+02  0.71106717208E+02  0.00000000000E+00 0.  1.
         22    1    4    4    0    0  0.15698530935E+02  0.70669863634E+01 -0.78238804323E+02  0.80110527845E+02  0.00000000000E+00 0.  1.
         22    1    4    4    0    0  0.20000687742E+02  0.75493043205E+00 -0.16945945808E+03  0.17063735044E+03  0.00000000000E+00 0.  1.
<mgrwt>
<rscale>  0 0.91093620E+02</rscale>
<asrwt>0</asrwt>
<pdfrwt beam="2">  1        2 0.48503770E-01 0.91093620E+02</pdfrwt>
<pdfrwt beam="1">  1       -2 0.10123105E-02 0.91093620E+02</pdfrwt>
<totfact> 0.18345408E+05</totfact>
</mgrwt>
</event>
<event>
 6    1  0.3480999E-009  0.1692845E+03  0.7818608E-02  0.1178596E+00
         -2   -1    0    0    0  501 -0.00000000000E+00  0.00000000000E+00  0.50401255638E+01  0.50401262089E+01  0.25500000000E-02 0. -1.
          2   -1    0    0  501    0  0.00000000000E+00 -0.00000000000E+00 -0.14214541064E+04  0.14214541064E+04  0.25500000000E-02 0.  1.
    9000005    2    1    2    0    0 -0.62806216806E+02  0.37530310870E+02 -0.10655280263E+04  0.10680613962E+04  0.72129181994E+01 0.  0.
         22    1    1    2    0    0  0.62806216806E+02 -0.37530310870E+02 -0.35088595454E+03  0.35843283638E+03  0.00000000000E+00 0. -1.
         22    1    3    3    0    0 -0.57091120381E+02  0.35847548443E+02 -0.99588771844E+03  0.99816671478E+03  0.00000000000E+00 0. -1.
         22    1    3    3    0    0 -0.57150964247E+01  0.16827624263E+01 -0.69640307843E+02  0.69894681436E+02  0.00000000000E+00 0. -1.
<mgrwt>
<rscale>  0 0.16928447E+03</rscale>
<asrwt>0</asrwt>
<pdfrwt beam="2">  1        2 0.21868493E+00 0.16928447E+03</pdfrwt>
<pdfrwt beam="1">  1       -2 0.77540512E-03 0.16928447E+03</pdfrwt>
<totfact> 0.44876761E+04</totfact>
</mgrwt>
</event>
<event>
 7    1  0.3480999E-009  0.9075711E+02  0.7818608E-02  0.1301029E+00
          2   -1    0    0  501    0  0.00000000000E+00  0.00000000000E+00  0.12861660408E+02  0.12861660661E+02  0.25500000000E-02 0. -1.
         -2   -1    0    0    0  501 -0.00000000000E+00 -0.00000000000E+00 -0.16010478749E+03  0.16010478751E+03  0.25500000000E-02 0.  1.
         23    2    1    2    0    0  0.00000000000E+00  0.00000000000E+00 -0.14724312708E+03  0.17296644817E+03  0.90757113882E+02 0.  0.
    9000005    2    3    3    0    0  0.39224665204E+02  0.16665119693E+02 -0.46789629000E+02  0.63846304057E+02  0.84131198178E+01 0.  0.
         22    1    3    3    0    0 -0.39224665204E+02 -0.16665119693E+02 -0.10045349808E+03  0.10912014411E+03  0.00000000000E+00 0.  1.
         22    1    4    4    0    0  0.26181349375E+02  0.14773140087E+02 -0.29632833799E+02  0.42211533520E+02  0.00000000000E+00 0. -1.
         22    1    4    4    0    0  0.13043315828E+02  0.18919796060E+01 -0.17156795201E+02  0.21634770537E+02  0.00000000000E+00 0. -1.
<mgrwt>
<rscale>  0 0.90757114E+02</rscale>
<asrwt>0</asrwt>
<pdfrwt beam="1">  1        2 0.19787171E-02 0.90757114E+02</pdfrwt>
<pdfrwt beam="2">  1       -2 0.24631504E-01 0.90757114E+02</pdfrwt>
<totfact> 0.68990647E+04</totfact>
</mgrwt>
</event>
<event>
 7    1  0.3480999E-009  0.8891391E+02  0.7818608E-02  0.1305503E+00
         -2   -1    0    0    0  501 -0.00000000000E+00  0.00000000000E+00  0.48951748602E+01  0.48951755243E+01  0.25500000000E-02 0. -1.
          2   -1    0    0  501    0  0.00000000000E+00 -0.00000000000E+00 -0.40374870312E+03  0.40374870313E+03  0.25500000000E-02 0.  1.
         23    2    1    2    0    0  0.00000000000E+00  0.00000000000E+00 -0.39885352826E+03  0.40864387865E+03  0.88913905295E+02 0.  0.
    9000005    2    3    3    0    0 -0.31805201833E+02  0.22042399627E+02 -0.29749219683E+03  0.30014706877E+03  0.94455001298E+01 0.  0.
         22    1    3    3    0    0  0.31805201833E+02 -0.22042399627E+02 -0.10136133143E+03  0.10849680988E+03  0.00000000000E+00 0. -1.
         22    1    4    4    0    0 -0.12955186267E+02  0.52521158544E+01 -0.82231804368E+02  0.83411577265E+02  0.00000000000E+00 0.  1.
         22    1    4    4    0    0 -0.18850015566E+02  0.16790283773E+02 -0.21526039246E+03  0.21673549151E+03  0.00000000000E+00 0.  1.
<mgrwt>
<rscale>  0 0.88913905E+02</rscale>
<asrwt>0</asrwt>
<pdfrwt beam="2">  1        2 0.62115159E-01 0.88913905E+02</pdfrwt>
<pdfrwt beam="1">  1       -2 0.75310420E-03 0.88913905E+02</pdfrwt>
<totfact> 0.21408327E+05</totfact>
</mgrwt>
</event>
<event>
 7    1  0.3480999E-009  0.9372287E+02  0.7818608E-02  0.1294079E+00
         -2   -1    0    0    0  501 -0.00000000000E+00  0.00000000000E+00  0.24345035336E+02  0.24345035469E+02  0.25500000000E-02 0.  1.
          2   -1    0    0  501    0  0.00000000000E+00 -0.00000000000E+00 -0.90202951372E+02  0.90202951408E+02  0.25500000000E-02 0. -1.
         23    2    1    2    0    0 -0.35527136788E-14 -0.35527136788E-14 -0.65857916037E+02  0.11454798688E+03  0.93722869104E+02 0.  0.
    9000005    2    3    3    0    0  0.30157266058E+02  0.17049295082E+02  0.55659590745E+01  0.35165941711E+02  0.23504036049E+01 0.  0.
         22    1    3    3    0    0 -0.30157266058E+02 -0.17049295082E+02 -0.71423875111E+02  0.79382045166E+02  0.00000000000E+00 0. -1.
         22    1    4    4    0    0  0.83269357043E+01  0.59349851142E+01  0.15666372637E+01  0.10344866304E+02  0.00000000000E+00 0.  1.
         22    1    4    4    0    0  0.21830330354E+02  0.11114309968E+02  0.39993218108E+01  0.24821075407E+02  0.00000000000E+00 0.  1.
<mgrwt>
<rscale>  0 0.93722869E+02</rscale>
<asrwt>0</asrwt>
<pdfrwt beam="2">  1        2 0.13877377E-01 0.93722869E+02</pdfrwt>
<pdfrwt beam="1">  1       -2 0.37453901E-02 0.93722869E+02</pdfrwt>
<totfact> 0.11019267E+05</totfact>
</mgrwt>
</event>
<event>
 7    1  0.3480999E-009  0.9479223E+02  0.7818608E-02  0.1291645E+00
         -2   -1    0    0    0  501 -0.00000000000E+00  0.00000000000E+00  0.25909068733E+03  0.25909068735E+03  0.25500000000E-02 0.  1.
          2   -1    0    0  501    0  0.00000000000E+00 -0.00000000000E+00 -0.86702908318E+01  0.86702912068E+01  0.25500000000E-02 0. -1.
         23    2    1    2    0    0  0.00000000000E+00 -0.35527136788E-14  0.25042039650E+03  0.26776097855E+03  0.94792228856E+02 0.  0.
    9000005    2    3    3    0    0 -0.41738218622E+02  0.18799974167E+02  0.10543466904E+03  0.11572026332E+03  0.13386261008E+02 0.  0.
         22    1    3    3    0    0  0.41738218622E+02 -0.18799974167E+02  0.14498572746E+03  0.15204071524E+03  0.00000000000E+00 0. -1.
         22    1    4    4    0    0 -0.39249339847E+02  0.20554730791E+02  0.10146922905E+03  0.11072042305E+03  0.00000000000E+00 0. -1.
         22    1    4    4    0    0 -0.24888787749E+01 -0.17547566236E+01  0.39654399880E+01  0.49998402638E+01  0.00000000000E+00 0. -1.
<mgrwt>
<rscale>  0 0.94792229E+02</rscale>
<asrwt>0</asrwt>
<pdfrwt beam="2">  1        2 0.13338912E-02 0.94792229E+02</pdfrwt>
<pdfrwt beam="1">  1       -2 0.39860099E-01 0.94792229E+02</pdfrwt>
<totfact> 0.49921432E+04</totfact>
</mgrwt>
</event>
<event>
 7    1  0.3480999E-009  0.9111518E+02  0.7818608E-02  0.1300173E+00
          2   -1    0    0  501    0  0.00000000000E+00  0.00000000000E+00  0.13266086037E+03  0.13266086040E+03  0.25500000000E-02 0. -1.
         -2   -1    0    0    0  501 -0.00000000000E+00 -0.00000000000E+00 -0.15645111411E+02  0.15645111619E+02  0.25500000000E-02 0.  1.
         23    2    1    2    0    0  0.00000000000E+00  0.00000000000E+00  0.11701574896E+03  0.14830597201E+03  0.91115178926E+02 0.  0.
    9000005    2    3    3    0    0  0.25652831737E+02  0.15272152733E+02  0.11443844588E+03  0.11834017624E+03  0.41149716028E+01 0.  0.
         22    1    3    3    0    0 -0.25652831737E+02 -0.15272152733E+02  0.25773030768E+01  0.29965795774E+02  0.00000000000E+00 0.  1.
         22    1    4    4    0    0  0.56700811655E+00  0.41297302422E+00  0.10472126469E+01  0.12604361351E+01  0.00000000000E+00 0.  1.
         22    1    4    4    0    0  0.25085823621E+02  0.14859179709E+02  0.11339123324E+03  0.11707974011E+03  0.00000000000E+00 0.  1.
<mgrwt>
<rscale>  0 0.91115179E+02</rscale>
<asrwt>0</asrwt>
<pdfrwt beam="1">  1        2 0.20409364E-01 0.91115179E+02</pdfrwt>
<pdfrwt beam="2">  1       -2 0.24069402E-02 0.91115179E+02</pdfrwt>
<totfact> 0.13441975E+05</totfact>
</mgrwt>
</event>
<event>
 7    1  0.3480999E-009  0.9267634E+02  0.7818608E-02  0.1296497E+00
         -2   -1    0    0    0  501 -0.00000000000E+00  0.00000000000E+00  0.27418885730E+02  0.27418885848E+02  0.25500000000E-02 0.  1.
          2   -1    0    0  501    0  0.00000000000E+00 -0.00000000000E+00 -0.78311926470E+02  0.78311926511E+02  0.25500000000E-02 0. -1.
         23    2    1    2    0    0  0.00000000000E+00 -0.17763568394E-14 -0.50893040740E+02  0.10573081236E+03  0.92676335094E+02 0.  0.
    9000005    2    3    3    0    0 -0.16312458731E+02  0.14150633977E+02 -0.71230687042E+02  0.76066749776E+02  0.15684479374E+02 0.  0.
         22    1    3    3    0    0  0.16312458731E+02 -0.14150633977E+02  0.20337646302E+02  0.29664062583E+02  0.00000000000E+00 0.  1.
         22    1    4    4    0    0 -0.18142971425E+02  0.10635847661E+02 -0.46686092309E+02  0.51204295549E+02  0.00000000000E+00 0. -1.
         22    1    4    4    0    0  0.18305126949E+01  0.35147863168E+01 -0.24544594733E+02  0.24862454227E+02  0.00000000000E+00 0. -1.
<mgrwt>
<rscale>  0 0.92676335E+02</rscale>
<asrwt>0</asrwt>
<pdfrwt beam="2">  1        2 0.12047989E-01 0.92676335E+02</pdfrwt>
<pdfrwt beam="1">  1       -2 0.42182902E-02 0.92676335E+02</pdfrwt>
<totfact> 0.10908319E+05</totfact>
</mgrwt>
</event>
<event>
 7    1  0.3480999E-009  0.9188772E+02  0.7818608E-02  0.1298344E+00
         -2   -1    0    0    0  501 -0.00000000000E+00  0.00000000000E+00  0.13723201022E+02  0.13723201259E+02  0.25500000000E-02 0.  1.
          2   -1    0    0  501    0  0.00000000000E+00 -0.00000000000E+00 -0.15381529314E+03  0.15381529316E+03  0.25500000000E-02 0. -1.
         23    2    1    2    0    0  0.22204460493E-15  0.00000000000E+00 -0.14009209211E+03  0.16753849442E+03  0.91887718649E+02 0.  0.
    9000005    2    3    3    0    0  0.12289169784E+01 -0.33973265841E+02 -0.12481620095E+03  0.13026858860E+03  0.15333888179E+02 0.  0.
         22    1    3    3    0    0 -0.12289169784E+01  0.33973265841E+02 -0.15275891161E+02  0.37269905817E+02  0.00000000000E+00 0.  1.
         22    1    4    4    0    0  0.33165016490E+01 -0.14076315841E+02 -0.29238431859E+02  0.32619438199E+02  0.00000000000E+00 0. -1.
         22    1    4    4    0    0 -0.20875846705E+01 -0.19896950000E+02 -0.95577769094E+02  0.97649150401E+02  0.00000000000E+00 0. -1.
<mgrwt>
<rscale>  0 0.91887719E+02</rscale>
<asrwt>0</asrwt>
<pdfrwt beam="2">  1        2 0.23663890E-01 0.91887719E+02</pdfrwt>
<pdfrwt beam="1">  1       -2 0.21112618E-02 0.91887719E+02</pdfrwt>
<totfact> 0.13806974E+05</totfact>
</mgrwt>
</event>
<event>
 7    1  0.3480999E-009  0.8835696E+02  0.7818608E-02  0.1306880E+00
         -2   -1    0    0    0  501 -0.00000000000E+00  0.00000000000E+00  0.83203613993E+01  0.83203617900E+01  0.25500000000E-02 0.  1.
          2   -1    0    0  501    0  0.00000000000E+00 -0.00000000000E+00 -0.23457373206E+03  0.23457373207E+03  0.25500000000E-02 0. -1.
         23    2    1    2    0    0 -0.35527136788E-14  0.00000000000E+00 -0.22625337066E+03  0.24289409386E+03  0.88356964064E+02 0.  0.
    9000005    2    3    3    0    0  0.29571948522E+02 -0.25032620162E+02 -0.64017622522E+02  0.76096101713E+02  0.13828539001E+02 0.  0.
         22    1    3    3    0    0 -0.29571948522E+02  0.25032620162E+02 -0.16223574814E+03  0.16679799215E+03  0.00000000000E+00 0. -1.
         22    1    4    4    0    0  0.14688832018E+02 -0.20748914417E+02 -0.43585785113E+02  0.50457902250E+02  0.00000000000E+00 0. -1.
         22    1    4    4    0    0  0.14883116504E+02 -0.42837057450E+01 -0.20431837409E+02  0.25638199463E+02  0.00000000000E+00 0. -1.
<mgrwt>
<rscale>  0 0.88356964E+02</rscale>
<asrwt>0</asrwt>
<pdfrwt beam="2">  1        2 0.36088262E-01 0.88356964E+02</pdfrwt>
<pdfrwt beam="1">  1       -2 0.12800558E-02 0.88356964E+02</pdfrwt>
<totfact> 0.17833440E+05</totfact>
</mgrwt>
</event>
<event>
 7    1  0.3480999E-009  0.9217947E+02  0.7818608E-02  0.1297658E+00
         -2   -1    0    0    0  501 -0.00000000000E+00  0.00000000000E+00  0.23221813196E+03  0.23221813197E+03  0.25500000000E-02 0.  1.
          2   -1    0    0  501    0  0.00000000000E+00 -0.00000000000E+00 -0.91477077501E+01  0.91477081055E+01  0.25500000000E-02 0. -1.
         23    2    1    2    0    0  0.00000000000E+00  0.00000000000E+00  0.22307042421E+03  0.24136584007E+03  0.92179469514E+02 0.  0.
    9000005    2    3    3    0    0 -0.41244949382E+02 -0.16128245832E+02  0.91475014293E+02  0.10251837675E+03  0.13456343015E+02 0.  0.
         22    1    3    3    0    0  0.41244949382E+02  0.16128245832E+02  0.13159540991E+03  0.13884746333E+03  0.00000000000E+00 0.  1.
         22    1    4    4    0    0 -0.78136776933E+01 -0.29250224870E+01  0.76811759146E+01  0.11340625162E+02  0.00000000000E+00 0. -1.
         22    1    4    4    0    0 -0.33431271689E+02 -0.13203223345E+02  0.83793838379E+02  0.91177751583E+02  0.00000000000E+00 0. -1.
<mgrwt>
<rscale>  0 0.92179470E+02</rscale>
<asrwt>0</asrwt>
<pdfrwt beam="2">  1        2 0.14073396E-02 0.92179470E+02</pdfrwt>
<pdfrwt beam="1">  1       -2 0.35725868E-01 0.92179470E+02</pdfrwt>
<totfact> 0.56622819E+04</totfact>
</mgrwt>
</event>
<event>
 7    1  0.3480999E-009  0.9230890E+02  0.7818608E-02  0.1297355E+00
          2   -1    0    0  501    0  0.00000000000E+00  0.00000000000E+00  0.93507769616E+03  0.93507769616E+03  0.25500000000E-02 0. -1.
         -2   -1    0    0    0  501 -0.00000000000E+00 -0.00000000000E+00 -0.22781341655E+01  0.22781355926E+01  0.25500000000E-02 0.  1.
         23    2    1    2    0    0  0.44408920985E-15  0.00000000000E+00  0.93279956200E+03  0.93735583176E+03  0.92308897025E+02 0.  0.
    9000005    2    3    3    0    0 -0.37975904324E+01  0.27094566523E+02  0.84158922210E+03  0.84213050250E+03  0.12760378480E+02 0.  0.
         22    1    3    3    0    0  0.37975904324E+01 -0.27094566523E+02  0.91210339900E+02  0.95225329261E+02  0.00000000000E+00 0.  1.
         22    1    4    4    0    0 -0.38493844520E+01  0.20683295450E+02  0.45287748553E+03  0.45336589348E+03  0.00000000000E+00 0. -1.
         22    1    4    4    0    0  0.51794019681E-01  0.64112710733E+01  0.38871173656E+03  0.38876460901E+03  0.00000000000E+00 0. -1.
<mgrwt>
<rscale>  0 0.92308897E+02</rscale>
<asrwt>0</asrwt>
<pdfrwt beam="1">  1        2 0.14385814E+00 0.92308897E+02</pdfrwt>
<pdfrwt beam="2">  1       -2 0.35048220E-03 0.92308897E+02</pdfrwt>
<totfact> 0.24093502E+05</totfact>
</mgrwt>
</event>
<event>
 7    1  0.3480999E-009  0.9055300E+02  0.7818608E-02  0.1301518E+00
          2   -1    0    0  501    0  0.00000000000E+00  0.00000000000E+00  0.15600785746E+03  0.15600785748E+03  0.25500000000E-02 0. -1.
         -2   -1    0    0    0  501 -0.00000000000E+00 -0.00000000000E+00 -0.13140117562E+02  0.13140117809E+02  0.25500000000E-02 0.  1.
         23    2    1    2    0    0  0.35527136788E-14  0.00000000000E+00  0.14286773990E+03  0.16914797529E+03  0.90553003490E+02 0.  0.
    9000005    2    3    3    0    0 -0.27933334918E+02 -0.28119421305E+02  0.33604713734E+02  0.52918108472E+02  0.10003817515E+02 0.  0.
         22    1    3    3    0    0  0.27933334918E+02  0.28119421305E+02  0.10926302616E+03  0.11622986682E+03  0.00000000000E+00 0. -1.
         22    1    4    4    0    0 -0.25369169812E+02 -0.20274476877E+02  0.24899257954E+02  0.40922148480E+02  0.00000000000E+00 0.  1.
         22    1    4    4    0    0 -0.25641651059E+01 -0.78449444278E+01  0.87054557804E+01  0.11995959991E+02  0.00000000000E+00 0.  1.
<mgrwt>
<rscale>  0 0.90553003E+02</rscale>
<asrwt>0</asrwt>
<pdfrwt beam="1">  1        2 0.24001210E-01 0.90553003E+02</pdfrwt>
<pdfrwt beam="2">  1       -2 0.20215564E-02 0.90553003E+02</pdfrwt>
<totfact> 0.14435816E+05</totfact>
</mgrwt>
</event>
<event>
 7    1  0.4689525E-009  0.8968637E+02  0.7818608E-02  0.1303613E+00
          2   -1    0    0  501    0  0.00000000000E+00  0.00000000000E+00  0.87493362092E+02  0.87493362130E+02  0.25500000000E-02 0. -1.
         -2   -1    0    0    0  501 -0.00000000000E+00 -0.00000000000E+00 -0.22983587958E+02  0.22983588100E+02  0.25500000000E-02 0.  1.
         23    2    1    2    0    0  0.00000000000E+00  0.00000000000E+00  0.64509774134E+02  0.11047695023E+03  0.89686373397E+02 0.  0.
    9000005    2    3    3    0    0 -0.25479359951E+02 -0.13192640517E+02 -0.72268378195E+01  0.33215154742E+02  0.15092242124E+02 0.  0.
         22    1    3    3    0    0  0.25479359951E+02  0.13192640517E+02  0.71736611954E+02  0.77261795487E+02  0.00000000000E+00 0. -1.
         22    1    4    4    0    0 -0.10829081267E+02 -0.62430405224E+01 -0.10905135219E+02  0.16588144266E+02  0.00000000000E+00 0. -1.
         22    1    4    4    0    0 -0.14650278684E+02 -0.69495999949E+01  0.36782973992E+01  0.16627010476E+02  0.00000000000E+00 0. -1.
<mgrwt>
<rscale>  0 0.89686373E+02</rscale>
<asrwt>0</asrwt>
<pdfrwt beam="1">  1        2 0.13460517E-01 0.89686373E+02</pdfrwt>
<pdfrwt beam="2">  1       -2 0.35359366E-02 0.89686373E+02</pdfrwt>
<totfact> 0.12336475E+05</totfact>
</mgrwt>
</event>
<event>
 7    1  0.3480999E-009  0.9074601E+02  0.7818608E-02  0.1301055E+00
          2   -1    0    0  501    0  0.00000000000E+00  0.00000000000E+00  0.17988056983E+02  0.17988057164E+02  0.25500000000E-02 0.  1.
         -2   -1    0    0    0  501 -0.00000000000E+00 -0.00000000000E+00 -0.11444869651E+03  0.11444869654E+03  0.25500000000E-02 0. -1.
         23    2    1    2    0    0  0.00000000000E+00  0.35527136788E-14 -0.96460639524E+02  0.13243675370E+03  0.90746012325E+02 0.  0.
    9000005    2    3    3    0    0 -0.37689368299E+02  0.22957628918E+02 -0.58581821856E+02  0.74278813259E+02  0.11746107392E+02 0.  0.
         22    1    3    3    0    0  0.37689368299E+02 -0.22957628918E+02 -0.37878817668E+02  0.58157940440E+02  0.00000000000E+00 0. -1.
         22    1    4    4    0    0 -0.31165752392E+02  0.23329458596E+02 -0.52442177747E+02  0.65312707549E+02  0.00000000000E+00 0. -1.
         22    1    4    4    0    0 -0.65236159073E+01 -0.37182967833E+00 -0.61396441093E+01  0.89661057101E+01  0.00000000000E+00 0. -1.
<mgrwt>
<rscale>  0 0.90746012E+02</rscale>
<asrwt>0</asrwt>
<pdfrwt beam="1">  1        2 0.27673935E-02 0.90746012E+02</pdfrwt>
<pdfrwt beam="2">  1       -2 0.17607491E-01 0.90746012E+02</pdfrwt>
<totfact> 0.77480897E+04</totfact>
</mgrwt>
</event>
<event>
 7    1  0.3480999E-009  0.9714872E+02  0.7818608E-02  0.1286409E+00
         -2   -1    0    0    0  501 -0.00000000000E+00  0.00000000000E+00  0.47184571113E+02  0.47184571182E+02  0.25500000000E-02 0.  1.
          2   -1    0    0  501    0  0.00000000000E+00 -0.00000000000E+00 -0.50005081431E+02  0.50005081496E+02  0.25500000000E-02 0. -1.
         23    2    1    2    0    0  0.00000000000E+00  0.00000000000E+00 -0.28205103181E+01  0.97189652678E+02  0.97148717486E+02 0.  0.
    9000005    2    3    3    0    0  0.13975164812E+02 -0.34539425040E+02 -0.30732152178E+02  0.50634987338E+02  0.15203935398E+02 0.  0.
         22    1    3    3    0    0 -0.13975164812E+02  0.34539425040E+02  0.27911641859E+02  0.46554665340E+02  0.00000000000E+00 0.  1.
         22    1    4    4    0    0  0.94407931797E+01 -0.30987208006E+02 -0.18972828502E+02  0.37540696014E+02  0.00000000000E+00 0. -1.
         22    1    4    4    0    0  0.45343716327E+01 -0.35522170346E+01 -0.11759323676E+02  0.13094291324E+02  0.00000000000E+00 0. -1.
<mgrwt>
<rscale>  0 0.97148717E+02</rscale>
<asrwt>0</asrwt>
<pdfrwt beam="2">  1        2 0.76930895E-02 0.97148717E+02</pdfrwt>
<pdfrwt beam="1">  1       -2 0.72591648E-02 0.97148717E+02</pdfrwt>
<totfact> 0.84239864E+04</totfact>
</mgrwt>
</event>
<event>
 7    1  0.3480999E-009  0.9271900E+02  0.7818608E-02  0.1296398E+00
          2   -1    0    0  501    0  0.00000000000E+00  0.00000000000E+00  0.30648190043E+02  0.30648190149E+02  0.25500000000E-02 0. -1.
         -2   -1    0    0    0  501 -0.00000000000E+00 -0.00000000000E+00 -0.70124970328E+02  0.70124970375E+02  0.25500000000E-02 0.  1.
         23    2    1    2    0    0  0.00000000000E+00  0.00000000000E+00 -0.39476780286E+02  0.10077316052E+03  0.92719003986E+02 0.  0.
    9000005    2    3    3    0    0  0.90372129610E+01  0.40195359973E+02 -0.42776201615E+02  0.59442489557E+02  0.25035891476E+01 0.  0.
         22    1    3    3    0    0 -0.90372129610E+01 -0.40195359973E+02  0.32994213296E+01  0.41330670967E+02  0.00000000000E+00 0. -1.
         22    1    4    4    0    0  0.39119239736E+01  0.22540881591E+02 -0.22959235086E+02  0.32411741203E+02  0.00000000000E+00 0.  1.
         22    1    4    4    0    0  0.51252889874E+01  0.17654478382E+02 -0.19816966529E+02  0.27030748354E+02  0.00000000000E+00 0.  1.
<mgrwt>
<rscale>  0 0.92719004E+02</rscale>
<asrwt>0</asrwt>
<pdfrwt beam="1">  1        2 0.47151062E-02 0.92719004E+02</pdfrwt>
<pdfrwt beam="2">  1       -2 0.10788457E-01 0.92719004E+02</pdfrwt>
<totfact> 0.84646747E+04</totfact>
</mgrwt>
</event>
<event>
 7    1  0.3480999E-009  0.9558822E+02  0.7818608E-02  0.1289857E+00
          2   -1    0    0  501    0  0.00000000000E+00  0.00000000000E+00  0.97476667368E+02  0.97476667401E+02  0.25500000000E-02 0. -1.
         -2   -1    0    0    0  501 -0.00000000000E+00 -0.00000000000E+00 -0.23434089916E+02  0.23434090055E+02  0.25500000000E-02 0.  1.
         23    2    1    2    0    0 -0.35527136788E-14  0.00000000000E+00  0.74042577452E+02  0.12091075746E+03  0.95588220994E+02 0.  0.
    9000005    2    3    3    0    0  0.26977954522E+02  0.91709304279E+01 -0.10845025231E+02  0.31368470885E+02  0.73790513129E+01 0.  0.
         22    1    3    3    0    0 -0.26977954522E+02 -0.91709304279E+01  0.84887602683E+02  0.89542286571E+02  0.00000000000E+00 0. -1.
         22    1    4    4    0    0  0.16666356118E+02  0.31734753044E+01 -0.33886134939E+01  0.17300898045E+02  0.00000000000E+00 0.  1.
         22    1    4    4    0    0  0.10311598404E+02  0.59974551235E+01 -0.74564117367E+01  0.14067572840E+02  0.00000000000E+00 0.  1.
<mgrwt>
<rscale>  0 0.95588221E+02</rscale>
<asrwt>0</asrwt>
<pdfrwt beam="1">  1        2 0.14996410E-01 0.95588221E+02</pdfrwt>
<pdfrwt beam="2">  1       -2 0.36052446E-02 0.95588221E+02</pdfrwt>
<totfact> 0.10680663E+05</totfact>
</mgrwt>
</event>
<event>
 7    1  0.3480999E-009  0.6301660E+02  0.7818608E-02  0.1385591E+00
          2   -1    0    0  501    0  0.00000000000E+00  0.00000000000E+00  0.67329993684E+02  0.67329993732E+02  0.25500000000E-02 0.  1.
         -2   -1    0    0    0  501 -0.00000000000E+00 -0.00000000000E+00 -0.14744883359E+02  0.14744883579E+02  0.25500000000E-02 0. -1.
         23    2    1    2    0    0  0.00000000000E+00  0.00000000000E+00  0.52585110325E+02  0.82074877311E+02  0.63016598272E+02 0.  0.
    9000005    2    3    3    0    0  0.16473181226E+02 -0.17237347485E+02  0.12718291705E+01  0.25492683373E+02  0.89312657625E+01 0.  0.
         22    1    3    3    0    0 -0.16473181226E+02  0.17237347485E+02  0.51313281155E+02  0.56582193938E+02  0.00000000000E+00 0.  1.
         22    1    4    4    0    0  0.11761316791E+02 -0.70661721913E+01  0.32733584853E+01  0.14105822836E+02  0.00000000000E+00 0.  1.
         22    1    4    4    0    0  0.47118644343E+01 -0.10171175293E+02 -0.20015293149E+01  0.11386860537E+02  0.00000000000E+00 0.  1.
<mgrwt>
<rscale>  0 0.63016598E+02</rscale>
<asrwt>0</asrwt>
<pdfrwt beam="1">  1        2 0.10358460E-01 0.63016598E+02</pdfrwt>
<pdfrwt beam="2">  1       -2 0.22684436E-02 0.63016598E+02</pdfrwt>
<totfact> 0.29881200E+05</totfact>
</mgrwt>
</event>
<event>
 7    1  0.3480999E-009  0.9132907E+02  0.7818608E-02  0.1299665E+00
          2   -1    0    0  501    0  0.00000000000E+00  0.00000000000E+00  0.42045058434E+03  0.42045058435E+03  0.25500000000E-02 0. -1.
         -2   -1    0    0    0  501 -0.00000000000E+00 -0.00000000000E+00 -0.49595588106E+01  0.49595594661E+01  0.25500000000E-02 0.  1.
         23    2    1    2    0    0  0.00000000000E+00 -0.17763568394E-14  0.41549102553E+03  0.42541014382E+03  0.91329065276E+02 0.  0.
    9000005    2    3    3    0    0 -0.13576712222E+02  0.12901553275E+02  0.40139568064E+03  0.40196966730E+03  0.10504465767E+02 0.  0.
         22    1    3    3    0    0  0.13576712222E+02 -0.12901553275E+02  0.14095344890E+02  0.23440476514E+02  0.00000000000E+00 0.  1.
         22    1    4    4    0    0 -0.64088258011E+01  0.18588098790E+01  0.71305335306E+02  0.71616890922E+02  0.00000000000E+00 0.  1.
         22    1    4    4    0    0 -0.71678864206E+01  0.11042743396E+02  0.33009034534E+03  0.33035277638E+03  0.00000000000E+00 0.  1.
<mgrwt>
<rscale>  0 0.91329065E+02</rscale>
<asrwt>0</asrwt>
<pdfrwt beam="1">  1        2 0.64684700E-01 0.91329065E+02</pdfrwt>
<pdfrwt beam="2">  1       -2 0.76300916E-03 0.91329065E+02</pdfrwt>
<totfact> 0.20228992E+05</totfact>
</mgrwt>
</event>
<event>
 7    1  0.3480999E-009  0.9023797E+02  0.7818608E-02  0.1302276E+00
          2   -1    0    0  501    0  0.00000000000E+00  0.00000000000E+00  0.10518407987E+03  0.10518407990E+03  0.25500000000E-02 0. -1.
         -2   -1    0    0    0  501 -0.00000000000E+00 -0.00000000000E+00 -0.19353907416E+02  0.19353907584E+02  0.25500000000E-02 0.  1.
         23    2    1    2    0    0 -0.88817841970E-15 -0.35527136788E-14  0.85830172455E+02  0.12453798749E+03  0.90237973290E+02 0.  0.
    9000005    2    3    3    0    0 -0.45644904347E+01 -0.31762881978E+02  0.13527682802E+01  0.34171251014E+02  0.11667440566E+02 0.  0.
         22    1    3    3    0    0  0.45644904347E+01  0.31762881978E+02  0.84477404175E+02  0.90366736472E+02  0.00000000000E+00 0. -1.
         22    1    4    4    0    0  0.67692673985E+00 -0.22116062675E+00  0.20698809957E+01  0.21889607512E+01  0.00000000000E+00 0.  1.
         22    1    4    4    0    0 -0.52414171746E+01 -0.31541721352E+02 -0.71711271551E+00  0.31982290263E+02  0.00000000000E+00 0.  1.
<mgrwt>
<rscale>  0 0.90237973E+02</rscale>
<asrwt>0</asrwt>
<pdfrwt beam="1">  1        2 0.16182166E-01 0.90237973E+02</pdfrwt>
<pdfrwt beam="2">  1       -2 0.29775242E-02 0.90237973E+02</pdfrwt>
<totfact> 0.12818151E+05</totfact>
</mgrwt>
</event>
<event>
 7    1  0.3480999E-009  0.9157650E+02  0.7818608E-02  0.1299078E+00
         -2   -1    0    0    0  501 -0.00000000000E+00  0.00000000000E+00  0.46795864930E+01  0.46795871878E+01  0.25500000000E-02 0.  1.
          2   -1    0    0  501    0  0.00000000000E+00 -0.00000000000E+00 -0.44802328215E+03  0.44802328216E+03  0.25500000000E-02 0. -1.
         23    2    1    2    0    0  0.00000000000E+00  0.00000000000E+00 -0.44334369566E+03  0.45270286935E+03  0.91576500448E+02 0.  0.
    9000005    2    3    3    0    0 -0.14040385871E+02 -0.31282494582E+02 -0.36993002590E+03  0.37167636868E+03  0.10925752636E+02 0.  0.
         22    1    3    3    0    0  0.14040385871E+02  0.31282494582E+02 -0.73413669754E+02  0.81026500661E+02  0.00000000000E+00 0.  1.
         22    1    4    4    0    0 -0.95583870867E+01 -0.19738060299E+02 -0.17775638305E+03  0.17910411917E+03  0.00000000000E+00 0.  1.
         22    1    4    4    0    0 -0.44819987839E+01 -0.11544434283E+02 -0.19217364285E+03  0.19257224952E+03  0.00000000000E+00 0.  1.
<mgrwt>
<rscale>  0 0.91576500E+02</rscale>
<asrwt>0</asrwt>
<pdfrwt beam="2">  1        2 0.68926625E-01 0.91576500E+02</pdfrwt>
<pdfrwt beam="1">  1       -2 0.71993679E-03 0.91576500E+02</pdfrwt>
<totfact> 0.20533013E+05</totfact>
</mgrwt>
</event>
<event>
 7    1  0.3480999E-009  0.8535342E+02  0.7818608E-02  0.1314511E+00
          2   -1    0    0  501    0  0.00000000000E+00  0.00000000000E+00  0.89667501514E+03  0.89667501514E+03  0.25500000000E-02 0.  1.
         -2   -1    0    0    0  501 -0.00000000000E+00 -0.00000000000E+00 -0.20311716422E+01  0.20311732428E+01  0.25500000000E-02 0. -1.
         23    2    1    2    0    0  0.88817841970E-15  0.00000000000E+00  0.89464384350E+03  0.89870618838E+03  0.85353420175E+02 0.  0.
    9000005    2    3    3    0    0 -0.60904211788E+01 -0.29206055421E+02  0.76593315079E+03  0.76658302872E+03  0.10288903551E+02 0.  0.
         22    1    3    3    0    0  0.60904211788E+01  0.29206055421E+02  0.12871069271E+03  0.13212315967E+03  0.00000000000E+00 0. -1.
         22    1    4    4    0    0 -0.75723634579E+01 -0.15253737317E+02  0.48630028631E+03  0.48659838230E+03  0.00000000000E+00 0.  1.
         22    1    4    4    0    0  0.14819422790E+01 -0.13952318104E+02  0.27963286448E+03  0.27998464642E+03  0.00000000000E+00 0.  1.
<mgrwt>
<rscale>  0 0.85353420E+02</rscale>
<asrwt>0</asrwt>
<pdfrwt beam="1">  1        2 0.13794985E+00 0.85353420E+02</pdfrwt>
<pdfrwt beam="2">  1       -2 0.31248842E-03 0.85353420E+02</pdfrwt>
<totfact> 0.29472024E+05</totfact>
</mgrwt>
</event>
<event>
 7    1  0.3480999E-009  0.8946147E+02  0.7818608E-02  0.1304161E+00
         -2   -1    0    0    0  501 -0.00000000000E+00  0.00000000000E+00  0.28263001568E+01  0.28263013071E+01  0.25500000000E-02 0.  1.
          2   -1    0    0  501    0  0.00000000000E+00 -0.00000000000E+00 -0.70793544189E+03  0.70793544190E+03  0.25500000000E-02 0. -1.
         23    2    1    2    0    0  0.00000000000E+00  0.00000000000E+00 -0.70510914173E+03  0.71076174320E+03  0.89461465690E+02 0.  0.
    9000005    2    3    3    0    0 -0.34134065678E+02 -0.17235451888E+02 -0.53592682026E+03  0.53731188549E+03  0.49305549772E+01 0.  0.
         22    1    3    3    0    0  0.34134065678E+02  0.17235451888E+02 -0.16918232148E+03  0.17344985771E+03  0.00000000000E+00 0.  1.
         22    1    4    4    0    0 -0.37069113772E+01 -0.27662177545E+00 -0.49456776731E+02  0.49596274821E+02  0.00000000000E+00 0.  1.
         22    1    4    4    0    0 -0.30427154301E+02 -0.16958830112E+02 -0.48647004353E+03  0.48771561067E+03  0.00000000000E+00 0.  1.
<mgrwt>
<rscale>  0 0.89461466E+02</rscale>
<asrwt>0</asrwt>
<pdfrwt beam="2">  1        2 0.10891300E+00 0.89461466E+02</pdfrwt>
<pdfrwt beam="1">  1       -2 0.43481606E-03 0.89461466E+02</pdfrwt>
<totfact> 0.24995959E+05</totfact>
</mgrwt>
</event>
<event>
 7    1  0.5848296E-009  0.9077462E+02  0.7818608E-02  0.1300987E+00
          2   -1    0    0  501    0  0.00000000000E+00  0.00000000000E+00  0.14470793059E+03  0.14470793061E+03  0.25500000000E-02 0.  1.
         -2   -1    0    0    0  501 -0.00000000000E+00 -0.00000000000E+00 -0.14235625497E+02  0.14235625725E+02  0.25500000000E-02 0. -1.
         23    2    1    2    0    0  0.00000000000E+00  0.00000000000E+00  0.13047230509E+03  0.15894355633E+03  0.90774620377E+02 0.  0.
    9000005    2    3    3    0    0  0.33909928724E+02 -0.22905336420E+02  0.36522337402E+02  0.56468514830E+02  0.13426627845E+02 0.  0.
         22    1    3    3    0    0 -0.33909928724E+02  0.22905336420E+02  0.93949967688E+02  0.10247504150E+03  0.00000000000E+00 0.  1.
         22    1    4    4    0    0  0.30736596112E+02 -0.22436942173E+02  0.37170609730E+02  0.53195948552E+02  0.00000000000E+00 0. -1.
         22    1    4    4    0    0  0.31733326122E+01 -0.46839424643E+00 -0.64827232793E+00  0.32725662787E+01  0.00000000000E+00 0. -1.
<mgrwt>
<rscale>  0 0.90774620E+02</rscale>
<asrwt>0</asrwt>
<pdfrwt beam="1">  1        2 0.22262758E-01 0.90774620E+02</pdfrwt>
<pdfrwt beam="2">  1       -2 0.21900963E-02 0.90774620E+02</pdfrwt>
<totfact> 0.13978751E+05</totfact>
</mgrwt>
</event>
<event>
 7    1  0.3480999E-009  0.8869985E+02  0.7818608E-02  0.1306031E+00
          2   -1    0    0  501    0  0.00000000000E+00  0.00000000000E+00  0.10888606984E+03  0.10888606986E+03  0.25500000000E-02 0. -1.
         -2   -1    0    0    0  501 -0.00000000000E+00 -0.00000000000E+00 -0.18063978677E+02  0.18063978857E+02  0.25500000000E-02 0.  1.
         23    2    1    2    0    0  0.00000000000E+00  0.00000000000E+00  0.90822091158E+02  0.12695004872E+03  0.88699845705E+02 0.  0.
    9000005    2    3    3    0    0  0.77677124519E+01 -0.32171949321E+02  0.57666077552E+01  0.35682272717E+02  0.12024938312E+02 0.  0.
         22    1    3    3    0    0 -0.77677124519E+01  0.32171949321E+02  0.85055483403E+02  0.91267776004E+02  0.00000000000E+00 0. -1.
         22    1    4    4    0    0  0.45919466065E+01 -0.31267529936E+02  0.65819634241E+01  0.32281057053E+02  0.00000000000E+00 0.  1.
         22    1    4    4    0    0  0.31757658454E+01 -0.90441938520E+00 -0.81535566884E+00  0.34012156644E+01  0.00000000000E+00 0.  1.
<mgrwt>
<rscale>  0 0.88699846E+02</rscale>
<asrwt>0</asrwt>
<pdfrwt beam="1">  1        2 0.16751703E-01 0.88699846E+02</pdfrwt>
<pdfrwt beam="2">  1       -2 0.27790737E-02 0.88699846E+02</pdfrwt>
<totfact> 0.13579459E+05</totfact>
</mgrwt>
</event>
<event>
 7    1  0.3480999E-009  0.9201807E+02  0.7818608E-02  0.1298037E+00
          2   -1    0    0  501    0  0.00000000000E+00  0.00000000000E+00  0.20331197431E+02  0.20331197591E+02  0.25500000000E-02 0. -1.
         -2   -1    0    0    0  501 -0.00000000000E+00 -0.00000000000E+00 -0.10411740147E+03  0.10411740150E+03  0.25500000000E-02 0.  1.
         23    2    1    2    0    0 -0.17763568394E-14 -0.71054273576E-14 -0.83786204035E+02  0.12444859909E+03  0.92018073380E+02 0.  0.
    9000005    2    3    3    0    0  0.11621850192E+02  0.40780228459E+02 -0.62737505773E+02  0.77107896374E+02  0.14544367207E+02 0.  0.
         22    1    3    3    0    0 -0.11621850192E+02 -0.40780228459E+02 -0.21048698262E+02  0.47340702715E+02  0.00000000000E+00 0. -1.
         22    1    4    4    0    0  0.36359805281E+01  0.48624753155E+01 -0.19027686726E+02  0.19972903713E+02  0.00000000000E+00 0. -1.
         22    1    4    4    0    0  0.79858696642E+01  0.35917753143E+02 -0.43709819048E+02  0.57134992661E+02  0.00000000000E+00 0. -1.
<mgrwt>
<rscale>  0 0.92018073E+02</rscale>
<asrwt>0</asrwt>
<pdfrwt beam="1">  1        2 0.31278766E-02 0.92018073E+02</pdfrwt>
<pdfrwt beam="2">  1       -2 0.16018062E-01 0.92018073E+02</pdfrwt>
<totfact> 0.77056820E+04</totfact>
</mgrwt>
</event>
<event>
 7    1  0.3480999E-009  0.8727182E+02  0.7818608E-02  0.1309596E+00
          2   -1    0    0  501    0  0.00000000000E+00  0.00000000000E+00  0.83632866527E+02  0.83632866566E+02  0.25500000000E-02 0. -1.
         -2   -1    0    0    0  501 -0.00000000000E+00 -0.00000000000E+00 -0.22767276942E+02  0.22767277085E+02  0.25500000000E-02 0.  1.
         23    2    1    2    0    0  0.00000000000E+00  0.00000000000E+00  0.60865589585E+02  0.10640014365E+03  0.87271820042E+02 0.  0.
    9000005    2    3    3    0    0 -0.15719264609E+02 -0.22354085030E+02 -0.92305075549E+01  0.31165422733E+02  0.11801733222E+02 0.  0.
         22    1    3    3    0    0  0.15719264609E+02  0.22354085030E+02  0.70096097140E+02  0.75234720918E+02  0.00000000000E+00 0. -1.
         22    1    4    4    0    0  0.13604898703E+01 -0.46302011370E+01 -0.33018495487E+01  0.58473845177E+01  0.00000000000E+00 0. -1.
         22    1    4    4    0    0 -0.17079754480E+02 -0.17723883892E+02 -0.59286580062E+01  0.25318038215E+02  0.00000000000E+00 0. -1.
<mgrwt>
<rscale>  0 0.87271820E+02</rscale>
<asrwt>0</asrwt>
<pdfrwt beam="1">  1        2 0.12866595E-01 0.87271820E+02</pdfrwt>
<pdfrwt beam="2">  1       -2 0.35026580E-02 0.87271820E+02</pdfrwt>
<totfact> 0.13128323E+05</totfact>
</mgrwt>
</event>
<event>
 7    1  0.3480999E-009  0.9031528E+02  0.7818608E-02  0.1302090E+00
         -2   -1    0    0    0  501 -0.00000000000E+00  0.00000000000E+00  0.19682046895E+03  0.19682046897E+03  0.25500000000E-02 0.  1.
          2   -1    0    0  501    0  0.00000000000E+00 -0.00000000000E+00 -0.10360773431E+02  0.10360773745E+02  0.25500000000E-02 0. -1.
         23    2    1    2    0    0  0.00000000000E+00  0.71054273576E-14  0.18645969552E+03  0.20718124271E+03  0.90315277104E+02 0.  0.
    9000005    2    3    3    0    0 -0.53712334960E+01  0.44222874210E+02  0.77414910916E+02  0.89387873621E+02  0.35511639872E+01 0.  0.
         22    1    3    3    0    0  0.53712334960E+01 -0.44222874210E+02  0.10904478460E+03  0.11779336909E+03  0.00000000000E+00 0.  1.
         22    1    4    4    0    0  0.56103999711E-01  0.12388257197E+02  0.20767854730E+02  0.24182139155E+02  0.00000000000E+00 0.  1.
         22    1    4    4    0    0 -0.54273374957E+01  0.31834617012E+02  0.56647056187E+02  0.65205734466E+02  0.00000000000E+00 0.  1.
<mgrwt>
<rscale>  0 0.90315277E+02</rscale>
<asrwt>0</asrwt>
<pdfrwt beam="2">  1        2 0.15939652E-02 0.90315277E+02</pdfrwt>
<pdfrwt beam="1">  1       -2 0.30280072E-01 0.90315277E+02</pdfrwt>
<totfact> 0.64289146E+04</totfact>
</mgrwt>
</event>
<event>
 7    1  0.3480999E-009  0.8851814E+02  0.7818608E-02  0.1306480E+00
          2   -1    0    0  501    0  0.00000000000E+00  0.00000000000E+00  0.14146068058E+03  0.14146068060E+03  0.25500000000E-02 0.  1.
         -2   -1    0    0    0  501 -0.00000000000E+00 -0.00000000000E+00 -0.13847419921E+02  0.13847420155E+02  0.25500000000E-02 0. -1.
         23    2    1    2    0    0  0.00000000000E+00  0.00000000000E+00  0.12761326066E+03  0.15530810076E+03  0.88518144269E+02 0.  0.
    9000005    2    3    3    0    0  0.36957728867E+02 -0.13064030583E+02  0.97087164786E+02  0.10562525515E+03  0.13936798124E+02 0.  0.
         22    1    3    3    0    0 -0.36957728867E+02  0.13064030583E+02  0.30526095871E+02  0.49682845603E+02  0.00000000000E+00 0. -1.
         22    1    4    4    0    0  0.15553247082E+02 -0.44972354613E+01  0.23703426262E+02  0.28705069903E+02  0.00000000000E+00 0.  1.
         22    1    4    4    0    0  0.21404481784E+02 -0.85667951213E+01  0.73383738524E+02  0.76920185250E+02  0.00000000000E+00 0.  1.
<mgrwt>
<rscale>  0 0.88518144E+02</rscale>
<asrwt>0</asrwt>
<pdfrwt beam="1">  1        2 0.21763180E-01 0.88518144E+02</pdfrwt>
<pdfrwt beam="2">  1       -2 0.21303725E-02 0.88518144E+02</pdfrwt>
<totfact> 0.14852260E+05</totfact>
</mgrwt>
</event>
<event>
 7    1  0.3480999E-009  0.9149570E+02  0.7818608E-02  0.1299270E+00
         -2   -1    0    0    0  501 -0.00000000000E+00  0.00000000000E+00  0.36664951072E+02  0.36664951161E+02  0.25500000000E-02 0. -1.
          2   -1    0    0  501    0  0.00000000000E+00 -0.00000000000E+00 -0.57080834289E+02  0.57080834346E+02  0.25500000000E-02 0.  1.
         23    2    1    2    0    0  0.00000000000E+00 -0.35527136788E-14 -0.20415883217E+02  0.93745785507E+02  0.91495704887E+02 0.  0.
    9000005    2    3    3    0    0  0.10108880705E+01 -0.21808825863E+02 -0.50864213530E+02  0.56279165708E+02  0.10174944451E+02 0.  0.
         22    1    3    3    0    0 -0.10108880705E+01  0.21808825863E+02  0.30448330313E+02  0.37466619798E+02  0.00000000000E+00 0. -1.
         22    1    4    4    0    0  0.12733406393E+01 -0.66821745471E+00 -0.29465102409E+00  0.14678999205E+01  0.00000000000E+00 0.  1.
         22    1    4    4    0    0 -0.26245256885E+00 -0.21140608408E+02 -0.50569562506E+02  0.54811265788E+02  0.00000000000E+00 0.  1.
<mgrwt>
<rscale>  0 0.91495705E+02</rscale>
<asrwt>0</asrwt>
<pdfrwt beam="2">  1        2 0.87816667E-02 0.91495705E+02</pdfrwt>
<pdfrwt beam="1">  1       -2 0.56407618E-02 0.91495705E+02</pdfrwt>
<totfact> 0.10363587E+05</totfact>
</mgrwt>
</event>
<event>
 7    1  0.3480999E-009  0.9207521E+02  0.7818608E-02  0.1297903E+00
         -2   -1    0    0    0  501 -0.00000000000E+00  0.00000000000E+00  0.19611276157E+01  0.19611292735E+01  0.25500000000E-02 0.  1.
          2   -1    0    0  501    0  0.00000000000E+00 -0.00000000000E+00 -0.10807354709E+04  0.10807354709E+04  0.25500000000E-02 0. -1.
         23    2    1    2    0    0  0.00000000000E+00  0.35527136788E-14 -0.10787743433E+04  0.10826966002E+04  0.92075210047E+02 0.  0.
    9000005    2    3    3    0    0  0.18196998058E+01  0.16848050090E+02 -0.10426602482E+04  0.10428042956E+04  0.36383621418E+01 0.  0.
         22    1    3    3    0    0 -0.18196998058E+01 -0.16848050090E+02 -0.36114095061E+02  0.39892304538E+02  0.00000000000E+00 0.  1.
         22    1    4    4    0    0  0.18335870674E+01  0.16780898726E+02 -0.98935177837E+03  0.98949578168E+03  0.00000000000E+00 0. -1.
         22    1    4    4    0    0 -0.13887261574E-01  0.67151364398E-01 -0.53308469839E+02  0.53308513942E+02  0.00000000000E+00 0. -1.
<mgrwt>
<rscale>  0 0.92075210E+02</rscale>
<asrwt>0</asrwt>
<pdfrwt beam="2">  1        2 0.16626652E+00 0.92075210E+02</pdfrwt>
<pdfrwt beam="1">  1       -2 0.30171293E-03 0.92075210E+02</pdfrwt>
<totfact> 0.24391244E+05</totfact>
</mgrwt>
</event>
<event>
 7    1  0.3480999E-009  0.9224554E+02  0.7818608E-02  0.1297503E+00
          2   -1    0    0  501    0  0.00000000000E+00  0.00000000000E+00  0.24425175706E+02  0.24425175839E+02  0.25500000000E-02 0. -1.
         -2   -1    0    0    0  501 -0.00000000000E+00 -0.00000000000E+00 -0.87094973183E+02  0.87094973220E+02  0.25500000000E-02 0.  1.
         23    2    1    2    0    0 -0.71054273576E-14 -0.88817841970E-15 -0.62669797477E+02  0.11152014906E+03  0.92245542604E+02 0.  0.
    9000005    2    3    3    0    0  0.40590630793E+02  0.51648324420E+01 -0.55442532531E+02  0.69968877588E+02  0.12144736110E+02 0.  0.
         22    1    3    3    0    0 -0.40590630793E+02 -0.51648324420E+01 -0.72272649463E+01  0.41551271472E+02  0.00000000000E+00 0.  1.
         22    1    4    4    0    0  0.32015436368E+02  0.13398953491E+01 -0.49124674205E+02  0.58651658980E+02  0.00000000000E+00 0.  1.
         22    1    4    4    0    0  0.85751944247E+01  0.38249370929E+01 -0.63178583254E+01  0.11317218607E+02  0.00000000000E+00 0.  1.
<mgrwt>
<rscale>  0 0.92245543E+02</rscale>
<asrwt>0</asrwt>
<pdfrwt beam="1">  1        2 0.37577194E-02 0.92245543E+02</pdfrwt>
<pdfrwt beam="2">  1       -2 0.13399227E-01 0.92245543E+02</pdfrwt>
<totfact> 0.80720276E+04</totfact>
</mgrwt>
</event>
<event>
 7    1  0.3480999E-009  0.8965128E+02  0.7818608E-02  0.1303698E+00
          2   -1    0    0  501    0  0.00000000000E+00  0.00000000000E+00  0.28278970295E+03  0.28278970296E+03  0.25500000000E-02 0. -1.
         -2   -1    0    0    0  501 -0.00000000000E+00 -0.00000000000E+00 -0.71054140085E+01  0.71054144661E+01  0.25500000000E-02 0.  1.
         23    2    1    2    0    0  0.00000000000E+00  0.88817841970E-15  0.27568428894E+03  0.28989511743E+03  0.89651279629E+02 0.  0.
    9000005    2    3    3    0    0 -0.15608723912E+02 -0.68954104337E+01  0.27163954125E+03  0.27235832949E+03  0.99920131820E+01 0.  0.
         22    1    3    3    0    0  0.15608723912E+02  0.68954104337E+01  0.40447476950E+01  0.17536787936E+02  0.00000000000E+00 0.  1.
         22    1    4    4    0    0 -0.84792546536E-01 -0.32927970158E+01  0.26983422925E+02  0.27183723341E+02  0.00000000000E+00 0. -1.
         22    1    4    4    0    0 -0.15523931365E+02 -0.36026134179E+01  0.24465611832E+03  0.24517460615E+03  0.00000000000E+00 0. -1.
<mgrwt>
<rscale>  0 0.89651280E+02</rscale>
<asrwt>0</asrwt>
<pdfrwt beam="1">  1        2 0.43506099E-01 0.89651280E+02</pdfrwt>
<pdfrwt beam="2">  1       -2 0.10931409E-02 0.89651280E+02</pdfrwt>
<totfact> 0.18383636E+05</totfact>
</mgrwt>
</event>
<event>
 7    1  0.3480999E-009  0.1149614E+03  0.7818608E-02  0.1251648E+00
          2   -1    0    0  501    0  0.00000000000E+00  0.00000000000E+00  0.10627816803E+03  0.10627816806E+03  0.25500000000E-02 0. -1.
         -2   -1    0    0    0  501 -0.00000000000E+00 -0.00000000000E+00 -0.31088543908E+02  0.31088544012E+02  0.25500000000E-02 0.  1.
         23    2    1    2    0    0 -0.17763568394E-14  0.00000000000E+00  0.75189624124E+02  0.13736671208E+03  0.11496144576E+03 0.  0.
    9000005    2    3    3    0    0  0.98872596879E+01 -0.29785884236E+02  0.94606283295E+02  0.10046192299E+03  0.12541623847E+02 0.  0.
         22    1    3    3    0    0 -0.98872596879E+01  0.29785884236E+02 -0.19416659170E+02  0.36904789082E+02  0.00000000000E+00 0.  1.
         22    1    4    4    0    0  0.87528280874E+01 -0.25490231592E+02  0.62689104348E+02  0.68236996637E+02  0.00000000000E+00 0. -1.
         22    1    4    4    0    0  0.11344316005E+01 -0.42956526442E+01  0.31917178947E+02  0.32224926356E+02  0.00000000000E+00 0. -1.
<mgrwt>
<rscale>  0 0.11496145E+03</rscale>
<asrwt>0</asrwt>
<pdfrwt beam="1">  1        2 0.16350488E-01 0.11496145E+03</pdfrwt>
<pdfrwt beam="2">  1       -2 0.47828528E-02 0.11496145E+03</pdfrwt>
<totfact> 0.65365517E+04</totfact>
</mgrwt>
</event>
<event>
 7    1  0.3480999E-009  0.8964036E+02  0.7818608E-02  0.1303725E+00
          2   -1    0    0  501    0  0.00000000000E+00  0.00000000000E+00  0.62798162534E+03  0.62798162534E+03  0.25500000000E-02 0. -1.
         -2   -1    0    0    0  501 -0.00000000000E+00 -0.00000000000E+00 -0.31988966036E+01  0.31988976200E+01  0.25500000000E-02 0.  1.
         23    2    1    2    0    0  0.00000000000E+00 -0.35527136788E-14  0.62478272873E+03  0.63118052296E+03  0.89640361687E+02 0.  0.
    9000005    2    3    3    0    0  0.34665689085E+02  0.21340357763E+02  0.43364059330E+03  0.43575166939E+03  0.13350369005E+02 0.  0.
         22    1    3    3    0    0 -0.34665689085E+02 -0.21340357763E+02  0.19114213544E+03  0.19542885357E+03  0.00000000000E+00 0.  1.
         22    1    4    4    0    0  0.44952182890E+01 -0.31777823020E+00  0.89382906999E+02  0.89496435874E+02  0.00000000000E+00 0.  1.
         22    1    4    4    0    0  0.30170470796E+02  0.21658135993E+02  0.34425768630E+03  0.34625523352E+03  0.00000000000E+00 0.  1.
<mgrwt>
<rscale>  0 0.89640362E+02</rscale>
<asrwt>0</asrwt>
<pdfrwt beam="1">  1        2 0.96612471E-01 0.89640362E+02</pdfrwt>
<pdfrwt beam="2">  1       -2 0.49213846E-03 0.89640362E+02</pdfrwt>
<totfact> 0.24131928E+05</totfact>
</mgrwt>
</event>
<event>
 7    1  0.3480999E-009  0.9145687E+02  0.7818608E-02  0.1299362E+00
          2   -1    0    0  501    0  0.00000000000E+00  0.00000000000E+00  0.36526768525E+02  0.36526768614E+02  0.25500000000E-02 0. -1.
         -2   -1    0    0    0  501 -0.00000000000E+00 -0.00000000000E+00 -0.57248145803E+02  0.57248145860E+02  0.25500000000E-02 0.  1.
         23    2    1    2    0    0  0.00000000000E+00  0.00000000000E+00 -0.20721377279E+02  0.93774914474E+02  0.91456870208E+02 0.  0.
    9000005    2    3    3    0    0  0.15083166474E+02 -0.18923944241E+02  0.27504976091E+02  0.39817535591E+02  0.15597911857E+02 0.  0.
         22    1    3    3    0    0 -0.15083166474E+02  0.18923944241E+02 -0.48226353370E+02  0.53957378882E+02  0.00000000000E+00 0.  1.
         22    1    4    4    0    0  0.27342551544E+01 -0.13453955338E+02  0.20308728619E+02  0.24513863906E+02  0.00000000000E+00 0.  1.
         22    1    4    4    0    0  0.12348911319E+02 -0.54699889032E+01  0.71962474717E+01  0.15303671685E+02  0.00000000000E+00 0.  1.
<mgrwt>
<rscale>  0 0.91456870E+02</rscale>
<asrwt>0</asrwt>
<pdfrwt beam="1">  1        2 0.56195028E-02 0.91456870E+02</pdfrwt>
<pdfrwt beam="2">  1       -2 0.88074071E-02 0.91456870E+02</pdfrwt>
<totfact> 0.92337649E+04</totfact>
</mgrwt>
</event>
<event>
 7    1  0.4199956E-009  0.9175660E+02  0.7818608E-02  0.1298653E+00
          2   -1    0    0  501    0  0.00000000000E+00  0.00000000000E+00  0.14762073520E+03  0.14762073522E+03  0.25500000000E-02 0. -1.
         -2   -1    0    0    0  501 -0.00000000000E+00 -0.00000000000E+00 -0.14258283816E+02  0.14258284044E+02  0.25500000000E-02 0.  1.
         23    2    1    2    0    0  0.00000000000E+00  0.00000000000E+00  0.13336245138E+03  0.16187901927E+03  0.91756598888E+02 0.  0.
    9000005    2    3    3    0    0 -0.23303099233E+02 -0.32584000116E+02  0.34316367437E+02  0.55038585709E+02  0.15712458287E+02 0.  0.
         22    1    3    3    0    0  0.23303099233E+02  0.32584000116E+02  0.99046083947E+02  0.10684043356E+03  0.00000000000E+00 0. -1.
         22    1    4    4    0    0 -0.95709617300E+01 -0.24093535106E+02  0.15339529280E+02  0.30123129002E+02  0.00000000000E+00 0.  1.
         22    1    4    4    0    0 -0.13732137503E+02 -0.84904650094E+01  0.18976838158E+02  0.24915456708E+02  0.00000000000E+00 0.  1.
<mgrwt>
<rscale>  0 0.91756599E+02</rscale>
<asrwt>0</asrwt>
<pdfrwt beam="1">  1        2 0.22710884E-01 0.91756599E+02</pdfrwt>
<pdfrwt beam="2">  1       -2 0.21935820E-02 0.91756599E+02</pdfrwt>
<totfact> 0.13667686E+05</totfact>
</mgrwt>
</event>
<event>
 7    1  0.3480999E-009  0.9049577E+02  0.7818608E-02  0.1301656E+00
          2   -1    0    0  501    0  0.00000000000E+00  0.00000000000E+00  0.22550951228E+03  0.22550951229E+03  0.25500000000E-02 0. -1.
         -2   -1    0    0    0  501 -0.00000000000E+00 -0.00000000000E+00 -0.90788670576E+01  0.90788674157E+01  0.25500000000E-02 0.  1.
         23    2    1    2    0    0  0.00000000000E+00  0.17763568394E-14  0.21643064522E+03  0.23458837971E+03  0.90495766219E+02 0.  0.
    9000005    2    3    3    0    0 -0.47203804266E+01 -0.11892773748E+02  0.22057442752E+03  0.22113880757E+03  0.92506258804E+01 0.  0.
         22    1    3    3    0    0  0.47203804266E+01  0.11892773748E+02 -0.41437823034E+01  0.13449572134E+02  0.00000000000E+00 0.  1.
         22    1    4    4    0    0 -0.21406206737E+01 -0.12683018008E+02  0.19460254641E+03  0.19502715778E+03  0.00000000000E+00 0. -1.
         22    1    4    4    0    0 -0.25797597529E+01  0.79024425986E+00  0.25971881113E+02  0.26111649793E+02  0.00000000000E+00 0. -1.
<mgrwt>
<rscale>  0 0.90495766E+02</rscale>
<asrwt>0</asrwt>
<pdfrwt beam="1">  1        2 0.34693770E-01 0.90495766E+02</pdfrwt>
<pdfrwt beam="2">  1       -2 0.13967489E-02 0.90495766E+02</pdfrwt>
<totfact> 0.16488204E+05</totfact>
</mgrwt>
</event>
<event>
 7    1  0.3480999E-009  0.8728963E+02  0.7818608E-02  0.1309551E+00
          2   -1    0    0  501    0  0.00000000000E+00  0.00000000000E+00  0.52211487832E+01  0.52211494059E+01  0.25500000000E-02 0. -1.
         -2   -1    0    0    0  501 -0.00000000000E+00 -0.00000000000E+00 -0.36483727984E+03  0.36483727985E+03  0.25500000000E-02 0.  1.
         23    2    1    2    0    0  0.00000000000E+00  0.35527136788E-14 -0.35961613105E+03  0.37005842925E+03  0.87289629087E+02 0.  0.
    9000005    2    3    3    0    0  0.27378309302E+02 -0.19115594340E+02 -0.29832431422E+03  0.30026111857E+03  0.66607135341E+01 0.  0.
         22    1    3    3    0    0 -0.27378309302E+02  0.19115594340E+02 -0.61291816838E+02  0.69797310682E+02  0.00000000000E+00 0. -1.
         22    1    4    4    0    0  0.61506236731E+01 -0.70276563961E+01 -0.66323886184E+02  0.66978175584E+02  0.00000000000E+00 0.  1.
         22    1    4    4    0    0  0.21227685629E+02 -0.12087937944E+02 -0.23200042803E+03  0.23328294299E+03  0.00000000000E+00 0.  1.
<mgrwt>
<rscale>  0 0.87289629E+02</rscale>
<asrwt>0</asrwt>
<pdfrwt beam="1">  1        2 0.80325399E-03 0.87289629E+02</pdfrwt>
<pdfrwt beam="2">  1       -2 0.56128792E-01 0.87289629E+02</pdfrwt>
<totfact> 0.50743935E+04</totfact>
</mgrwt>
</event>
<event>
 7    1  0.3480999E-009  0.9204582E+02  0.7818608E-02  0.1297972E+00
         -2   -1    0    0    0  501 -0.00000000000E+00  0.00000000000E+00  0.59230099127E+02  0.59230099182E+02  0.25500000000E-02 0. -1.
          2   -1    0    0  501    0  0.00000000000E+00 -0.00000000000E+00 -0.35760671895E+02  0.35760671986E+02  0.25500000000E-02 0.  1.
         23    2    1    2    0    0  0.00000000000E+00  0.00000000000E+00  0.23469427232E+02  0.94990771168E+02  0.92045817898E+02 0.  0.
    9000005    2    3    3    0    0 -0.15835810573E+02 -0.37455478432E+02  0.31297484885E+02  0.53578644349E+02  0.15409503855E+02 0.  0.
         22    1    3    3    0    0  0.15835810573E+02  0.37455478432E+02 -0.78280576523E+01  0.41412126819E+02  0.00000000000E+00 0.  1.
         22    1    4    4    0    0 -0.14934418202E+02 -0.15545264929E+02  0.15755692369E+02  0.26700823036E+02  0.00000000000E+00 0. -1.
         22    1    4    4    0    0 -0.90139237110E+00 -0.21910213503E+02  0.15541792515E+02  0.26877821313E+02  0.00000000000E+00 0. -1.
<mgrwt>
<rscale>  0 0.92045818E+02</rscale>
<asrwt>0</asrwt>
<pdfrwt beam="2">  1        2 0.55016419E-02 0.92045818E+02</pdfrwt>
<pdfrwt beam="1">  1       -2 0.91123228E-02 0.92045818E+02</pdfrwt>
<totfact> 0.90117307E+04</totfact>
</mgrwt>
</event>
<event>
 7    1  0.3480999E-009  0.8938327E+02  0.7818608E-02  0.1304352E+00
          2   -1    0    0  501    0  0.00000000000E+00  0.00000000000E+00  0.35489591387E+03  0.35489591387E+03  0.25500000000E-02 0. -1.
         -2   -1    0    0    0  501 -0.00000000000E+00 -0.00000000000E+00 -0.56279663031E+01  0.56279668808E+01  0.25500000000E-02 0.  1.
         23    2    1    2    0    0  0.00000000000E+00  0.00000000000E+00  0.34926794756E+03  0.36052388076E+03  0.89383272487E+02 0.  0.
    9000005    2    3    3    0    0  0.21946609974E+02 -0.23701603036E+02  0.29697506127E+03  0.29905872288E+03  0.14089465526E+02 0.  0.
         22    1    3    3    0    0 -0.21946609974E+02  0.23701603036E+02  0.52292886293E+02  0.61465157875E+02  0.00000000000E+00 0.  1.
         22    1    4    4    0    0  0.47392745988E+01 -0.37424086098E+01  0.21682227055E+02  0.22507450233E+02  0.00000000000E+00 0. -1.
         22    1    4    4    0    0  0.17207335375E+02 -0.19959194426E+02  0.27529283421E+03  0.27655127265E+03  0.00000000000E+00 0. -1.
<mgrwt>
<rscale>  0 0.89383272E+02</rscale>
<asrwt>0</asrwt>
<pdfrwt beam="1">  1        2 0.54599379E-01 0.89383272E+02</pdfrwt>
<pdfrwt beam="2">  1       -2 0.86584090E-03 0.89383272E+02</pdfrwt>
<totfact> 0.20152249E+05</totfact>
</mgrwt>
</event>
<event>
 7    1  0.3480999E-009  0.1233676E+03  0.7818608E-02  0.1237643E+00
         -2   -1    0    0    0  501 -0.00000000000E+00  0.00000000000E+00  0.60114241567E+01  0.60114246975E+01  0.25500000000E-02 0.  1.
          2   -1    0    0  501    0  0.00000000000E+00 -0.00000000000E+00 -0.63294295793E+03  0.63294295794E+03  0.25500000000E-02 0. -1.
         23    2    1    2    0    0  0.00000000000E+00  0.00000000000E+00 -0.62693153378E+03  0.63895438263E+03  0.12336756075E+03 0.  0.
    9000005    2    3    3    0    0 -0.39177179591E+02  0.46141804781E+02 -0.35273378270E+03  0.35815494488E+03  0.13781347332E+02 0.  0.
         22    1    3    3    0    0  0.39177179591E+02 -0.46141804781E+02 -0.27419775108E+03  0.28079943776E+03  0.00000000000E+00 0.  1.
         22    1    4    4    0    0 -0.21536718690E+01  0.10389316556E+02 -0.61012194663E+02  0.61927894350E+02  0.00000000000E+00 0.  1.
         22    1    4    4    0    0 -0.37023507722E+02  0.35752488224E+02 -0.29172158803E+03  0.29622705053E+03  0.00000000000E+00 0.  1.
<mgrwt>
<rscale>  0 0.12336756E+03</rscale>
<asrwt>0</asrwt>
<pdfrwt beam="2">  1        2 0.97375787E-01 0.12336756E+03</pdfrwt>
<pdfrwt beam="1">  1       -2 0.92483503E-03 0.12336756E+03</pdfrwt>
<totfact> 0.10279670E+05</totfact>
</mgrwt>
</event>
<event>
 7    1  0.3480999E-009  0.8975869E+02  0.7818608E-02  0.1303437E+00
         -2   -1    0    0    0  501 -0.00000000000E+00  0.00000000000E+00  0.48519153044E+01  0.48519159745E+01  0.25500000000E-02 0.  1.
          2   -1    0    0  501    0  0.00000000000E+00 -0.00000000000E+00 -0.41512583918E+03  0.41512583919E+03  0.25500000000E-02 0. -1.
         23    2    1    2    0    0  0.00000000000E+00  0.33306690739E-15 -0.41027392388E+03  0.41997775517E+03  0.89758688822E+02 0.  0.
    9000005    2    3    3    0    0 -0.31870756565E+02  0.26440279149E+00 -0.35160157593E+03  0.35320755638E+03  0.10774722735E+02 0.  0.
         22    1    3    3    0    0  0.31870756565E+02 -0.26440279149E+00 -0.58672347947E+02  0.66770198790E+02  0.00000000000E+00 0.  1.
         22    1    4    4    0    0 -0.22517905270E+02  0.50504619518E+01 -0.25116970789E+03  0.25222764596E+03  0.00000000000E+00 0. -1.
         22    1    4    4    0    0 -0.93528512954E+01 -0.47860591603E+01 -0.10043186804E+03  0.10097991042E+03  0.00000000000E+00 0. -1.
<mgrwt>
<rscale>  0 0.89758689E+02</rscale>
<asrwt>0</asrwt>
<pdfrwt beam="2">  1        2 0.63865486E-01 0.89758689E+02</pdfrwt>
<pdfrwt beam="1">  1       -2 0.74644889E-03 0.89758689E+02</pdfrwt>
<totfact> 0.21085657E+05</totfact>
</mgrwt>
</event>
<event>
 7    1  0.3480999E-009  0.9027941E+02  0.7818608E-02  0.1302176E+00
          2   -1    0    0  501    0  0.00000000000E+00  0.00000000000E+00  0.28668971727E+03  0.28668971728E+03  0.25500000000E-02 0. -1.
         -2   -1    0    0    0  501 -0.00000000000E+00 -0.00000000000E+00 -0.71073112645E+01  0.71073117220E+01  0.25500000000E-02 0.  1.
         23    2    1    2    0    0  0.71054273576E-14  0.00000000000E+00  0.27958240600E+03  0.29379702900E+03  0.90279413508E+02 0.  0.
    9000005    2    3    3    0    0 -0.40059495610E+02 -0.11924871841E+02  0.98783525299E+02  0.10822978776E+03  0.14440787088E+02 0.  0.
         22    1    3    3    0    0  0.40059495610E+02  0.11924871841E+02  0.18079888071E+03  0.18556724124E+03  0.00000000000E+00 0. -1.
         22    1    4    4    0    0 -0.51805901367E+01 -0.18497012566E+01  0.29520772023E+02  0.30028917558E+02  0.00000000000E+00 0.  1.
         22    1    4    4    0    0 -0.34878905473E+02 -0.10075170584E+02  0.69262753276E+02  0.78200870204E+02  0.00000000000E+00 0.  1.
<mgrwt>
<rscale>  0 0.90279414E+02</rscale>
<asrwt>0</asrwt>
<pdfrwt beam="1">  1        2 0.44106101E-01 0.90279414E+02</pdfrwt>
<pdfrwt beam="2">  1       -2 0.10934328E-02 0.90279414E+02</pdfrwt>
<totfact> 0.18136998E+05</totfact>
</mgrwt>
</event>
<event>
 6    1  0.3480999E-009  0.3210704E+03  0.7818608E-02  0.1075158E+00
          2   -1    0    0  501    0  0.00000000000E+00  0.00000000000E+00  0.60521700798E+03  0.60521700798E+03  0.25500000000E-02 0. -1.
         -2   -1    0    0    0  501 -0.00000000000E+00 -0.00000000000E+00 -0.42582330142E+02  0.42582330218E+02  0.25500000000E-02 0.  1.
    9000005    2    1    2    0    0  0.90099030784E+02  0.12120462641E+03  0.38995726573E+03  0.41839601333E+03  0.13422297224E+02 0.  0.
         22    1    1    2    0    0 -0.90099030784E+02 -0.12120462641E+03  0.17267741211E+03  0.22940332488E+03  0.00000000000E+00 0.  1.
         22    1    3    3    0    0  0.24100205669E+02  0.24248857299E+02  0.80578754927E+02  0.87531495698E+02  0.00000000000E+00 0. -1.
         22    1    3    3    0    0  0.65998825115E+02  0.96955769109E+02  0.30937851080E+03  0.33086451763E+03  0.00000000000E+00 0. -1.
<mgrwt>
<rscale>  0 0.32107040E+03</rscale>
<asrwt>0</asrwt>
<pdfrwt beam="1">  1        2 0.93110299E-01 0.32107040E+03</pdfrwt>
<pdfrwt beam="2">  1       -2 0.65511284E-02 0.32107040E+03</pdfrwt>
<totfact> 0.64633956E+03</totfact>
</mgrwt>
</event>
<event>
 7    1  0.3480999E-009  0.8982040E+02  0.7818608E-02  0.1303287E+00
          2   -1    0    0  501    0  0.00000000000E+00  0.00000000000E+00  0.35255162280E+02  0.35255162373E+02  0.25500000000E-02 0. -1.
         -2   -1    0    0    0  501 -0.00000000000E+00 -0.00000000000E+00 -0.57209388290E+02  0.57209388347E+02  0.25500000000E-02 0.  1.
         23    2    1    2    0    0  0.00000000000E+00  0.00000000000E+00 -0.21954226010E+02  0.92464550720E+02  0.89820404698E+02 0.  0.
    9000005    2    3    3    0    0  0.12692220758E+02  0.69519514574E+01 -0.54581910918E+02  0.56771583355E+02  0.58656270170E+01 0.  0.
         22    1    3    3    0    0 -0.12692220758E+02 -0.69519514574E+01  0.32627684908E+02  0.35692967365E+02  0.00000000000E+00 0. -1.
         22    1    4    4    0    0  0.85240200734E+01  0.32143362351E+01 -0.42358497772E+02  0.43327049394E+02  0.00000000000E+00 0.  1.
         22    1    4    4    0    0  0.41682006844E+01  0.37376152223E+01 -0.12223413146E+02  0.13444533961E+02  0.00000000000E+00 0.  1.
<mgrwt>
<rscale>  0 0.89820405E+02</rscale>
<asrwt>0</asrwt>
<pdfrwt beam="1">  1        2 0.54238711E-02 0.89820405E+02</pdfrwt>
<pdfrwt beam="2">  1       -2 0.88014444E-02 0.89820405E+02</pdfrwt>
<totfact> 0.96440876E+04</totfact>
</mgrwt>
</event>
<event>
 7    1  0.3480999E-009  0.9075360E+02  0.7818608E-02  0.1301037E+00
         -2   -1    0    0    0  501 -0.00000000000E+00  0.00000000000E+00  0.98901935300E+02  0.98901935333E+02  0.25500000000E-02 0.  1.
          2   -1    0    0  501    0  0.00000000000E+00 -0.00000000000E+00 -0.20819145486E+02  0.20819145642E+02  0.25500000000E-02 0. -1.
         23    2    1    2    0    0  0.00000000000E+00  0.00000000000E+00  0.78082789814E+02  0.11972108097E+03  0.90753595876E+02 0.  0.
    9000005    2    3    3    0    0  0.12798895814E+02 -0.39043015477E+02  0.14055347118E+02  0.43644263154E+02  0.43703697837E+01 0.  0.
         22    1    3    3    0    0 -0.12798895814E+02  0.39043015477E+02  0.64027442696E+02  0.76076817821E+02  0.00000000000E+00 0.  1.
         22    1    4    4    0    0  0.41696515534E+01 -0.76254143220E+01  0.38181597437E+01  0.94926962180E+01  0.00000000000E+00 0. -1.
         22    1    4    4    0    0  0.86292442608E+01 -0.31417601155E+02  0.10237187375E+02  0.34151566936E+02  0.00000000000E+00 0. -1.
<mgrwt>
<rscale>  0 0.90753596E+02</rscale>
<asrwt>0</asrwt>
<pdfrwt beam="2">  1        2 0.32029455E-02 0.90753596E+02</pdfrwt>
<pdfrwt beam="1">  1       -2 0.15215682E-01 0.90753596E+02</pdfrwt>
<totfact> 0.81000635E+04</totfact>
</mgrwt>
</event>
<event>
 7    1  0.3480999E-009  0.9165525E+02  0.7818608E-02  0.1298892E+00
          2   -1    0    0  501    0  0.00000000000E+00  0.00000000000E+00  0.22400656962E+03  0.22400656963E+03  0.25500000000E-02 0. -1.
         -2   -1    0    0    0  501 -0.00000000000E+00 -0.00000000000E+00 -0.93754899098E+01  0.93754902566E+01  0.25500000000E-02 0.  1.
         23    2    1    2    0    0  0.00000000000E+00  0.00000000000E+00  0.21463107971E+03  0.23338205989E+03  0.91655253540E+02 0.  0.
    9000005    2    3    3    0    0 -0.16012459778E+02  0.37076806544E+02  0.16147996238E+03  0.16662781115E+03  0.76131955619E+01 0.  0.
         22    1    3    3    0    0  0.16012459778E+02 -0.37076806544E+02  0.53151117333E+02  0.66754248744E+02  0.00000000000E+00 0.  1.
         22    1    4    4    0    0 -0.93800583409E+01  0.26327221001E+02  0.98207573247E+02  0.10210698068E+03  0.00000000000E+00 0.  1.
         22    1    4    4    0    0 -0.66324014370E+01  0.10749585543E+02  0.63272389129E+02  0.64520830467E+02  0.00000000000E+00 0.  1.
<mgrwt>
<rscale>  0 0.91655254E+02</rscale>
<asrwt>0</asrwt>
<pdfrwt beam="1">  1        2 0.34462544E-01 0.91655254E+02</pdfrwt>
<pdfrwt beam="2">  1       -2 0.14423833E-02 0.91655254E+02</pdfrwt>
<totfact> 0.15895146E+05</totfact>
</mgrwt>
</event>
<event>
 7    1  0.3480999E-009  0.8458024E+02  0.7818608E-02  0.1316534E+00
         -2   -1    0    0    0  501 -0.00000000000E+00  0.00000000000E+00  0.18202530611E+02  0.18202530790E+02  0.25500000000E-02 0.  1.
          2   -1    0    0  501    0  0.00000000000E+00 -0.00000000000E+00 -0.98253061603E+02  0.98253061636E+02  0.25500000000E-02 0. -1.
         23    2    1    2    0    0  0.00000000000E+00  0.00000000000E+00 -0.80050530992E+02  0.11645559243E+03  0.84580242936E+02 0.  0.
    9000005    2    3    3    0    0  0.38428654794E+02  0.14219157555E+02 -0.44769880121E+02  0.62384617987E+02  0.14441344966E+02 0.  0.
         22    1    3    3    0    0 -0.38428654794E+02 -0.14219157555E+02 -0.35280650872E+02  0.54070974439E+02  0.00000000000E+00 0.  1.
         22    1    4    4    0    0  0.38122827509E+02  0.15421045328E+02 -0.39680492910E+02  0.57146304639E+02  0.00000000000E+00 0. -1.
         22    1    4    4    0    0  0.30582728506E+00 -0.12018877728E+01 -0.50893872108E+01  0.52383133477E+01  0.00000000000E+00 0. -1.
<mgrwt>
<rscale>  0 0.84580243E+02</rscale>
<asrwt>0</asrwt>
<pdfrwt beam="2">  1        2 0.15115855E-01 0.84580243E+02</pdfrwt>
<pdfrwt beam="1">  1       -2 0.28003894E-02 0.84580243E+02</pdfrwt>
<totfact> 0.14987492E+05</totfact>
</mgrwt>
</event>
<event>
 7    1  0.3480999E-009  0.9008548E+02  0.7818608E-02  0.1302645E+00
         -2   -1    0    0    0  501 -0.00000000000E+00  0.00000000000E+00  0.10282288040E+02  0.10282288356E+02  0.25500000000E-02 0.  1.
          2   -1    0    0  501    0  0.00000000000E+00 -0.00000000000E+00 -0.19731489152E+03  0.19731489154E+03  0.25500000000E-02 0. -1.
         23    2    1    2    0    0 -0.55511151231E-16  0.00000000000E+00 -0.18703260348E+03  0.20759717989E+03  0.90085483486E+02 0.  0.
    9000005    2    3    3    0    0  0.45885720969E+00  0.24658105099E+02 -0.17969542076E+03  0.18186651828E+03  0.13294868576E+02 0.  0.
         22    1    3    3    0    0 -0.45885720969E+00 -0.24658105099E+02 -0.73371827202E+01  0.25730661618E+02  0.00000000000E+00 0.  1.
         22    1    4    4    0    0  0.19768634504E+01  0.22920992949E+02 -0.17608806040E+03  0.17758458526E+03  0.00000000000E+00 0. -1.
         22    1    4    4    0    0 -0.15180062407E+01  0.17371121500E+01 -0.36073603571E+01  0.42819330114E+01  0.00000000000E+00 0. -1.
<mgrwt>
<rscale>  0 0.90085483E+02</rscale>
<asrwt>0</asrwt>
<pdfrwt beam="2">  1        2 0.30356134E-01 0.90085483E+02</pdfrwt>
<pdfrwt beam="1">  1       -2 0.15818906E-02 0.90085483E+02</pdfrwt>
<totfact> 0.15899346E+05</totfact>
</mgrwt>
</event>
<event>
 7    1  0.3480999E-009  0.8995183E+02  0.7818608E-02  0.1302968E+00
          2   -1    0    0  501    0  0.00000000000E+00  0.00000000000E+00  0.93067080319E+02  0.93067080353E+02  0.25500000000E-02 0. -1.
         -2   -1    0    0    0  501 -0.00000000000E+00 -0.00000000000E+00 -0.21735212398E+02  0.21735212548E+02  0.25500000000E-02 0.  1.
         23    2    1    2    0    0  0.00000000000E+00  0.00000000000E+00  0.71331867920E+02  0.11480229290E+03  0.89951826409E+02 0.  0.
    9000005    2    3    3    0    0 -0.40649133269E+02  0.12988516231E+02  0.50361173840E+02  0.67254174120E+02  0.12877209193E+02 0.  0.
         22    1    3    3    0    0  0.40649133269E+02 -0.12988516231E+02  0.20970694080E+02  0.47548118781E+02  0.00000000000E+00 0.  1.
         22    1    4    4    0    0 -0.21186583953E+02  0.75358212004E+01  0.16772396306E+02  0.28053042947E+02  0.00000000000E+00 0. -1.
         22    1    4    4    0    0 -0.19462549316E+02  0.54526950307E+01  0.33588777535E+02  0.39201131173E+02  0.00000000000E+00 0. -1.
<mgrwt>
<rscale>  0 0.89951826E+02</rscale>
<asrwt>0</asrwt>
<pdfrwt beam="1">  1        2 0.14318012E-01 0.89951826E+02</pdfrwt>
<pdfrwt beam="2">  1       -2 0.33438789E-02 0.89951826E+02</pdfrwt>
<totfact> 0.12460763E+05</totfact>
</mgrwt>
</event>
<event>
 7    1  0.3480999E-009  0.9073683E+02  0.7818608E-02  0.1301077E+00
         -2   -1    0    0    0  501 -0.00000000000E+00  0.00000000000E+00  0.27592086155E+01  0.27592097938E+01  0.25500000000E-02 0. -1.
          2   -1    0    0  501    0  0.00000000000E+00 -0.00000000000E+00 -0.74597209143E+03  0.74597209143E+03  0.25500000000E-02 0.  1.
         23    2    1    2    0    0  0.00000000000E+00  0.00000000000E+00 -0.74321288281E+03  0.74873130123E+03  0.90736829663E+02 0.  0.
    9000005    2    3    3    0    0 -0.20353269351E+02  0.11853049016E+02 -0.69069938582E+03  0.69117769395E+03  0.10305954391E+02 0.  0.
         22    1    3    3    0    0  0.20353269351E+02 -0.11853049016E+02 -0.52513496992E+02  0.57553607277E+02  0.00000000000E+00 0. -1.
         22    1    4    4    0    0 -0.71559823601E+01  0.87649889900E+01 -0.40356050939E+03  0.40371910761E+03  0.00000000000E+00 0.  1.
         22    1    4    4    0    0 -0.13197286991E+02  0.30880600256E+01 -0.28713887643E+03  0.28745858634E+03  0.00000000000E+00 0.  1.
<mgrwt>
<rscale>  0 0.90736830E+02</rscale>
<asrwt>0</asrwt>
<pdfrwt beam="2">  1        2 0.11476478E+00 0.90736830E+02</pdfrwt>
<pdfrwt beam="1">  1       -2 0.42449432E-03 0.90736830E+02</pdfrwt>
<totfact> 0.24357713E+05</totfact>
</mgrwt>
</event>
<event>
 7    1  0.3480999E-009  0.9166135E+02  0.7818608E-02  0.1298878E+00
         -2   -1    0    0    0  501 -0.00000000000E+00  0.00000000000E+00  0.20319037459E+01  0.20319053460E+01  0.25500000000E-02 0.  1.
          2   -1    0    0  501    0  0.00000000000E+00 -0.00000000000E+00 -0.10337350672E+04  0.10337350672E+04  0.25500000000E-02 0. -1.
         23    2    1    2    0    0  0.00000000000E+00  0.00000000000E+00 -0.10317031634E+04  0.10357669725E+04  0.91661354684E+02 0.  0.
    9000005    2    3    3    0    0  0.30209231001E+02  0.78052095763E+01 -0.89213611995E+03  0.89275481025E+03  0.11435723105E+02 0.  0.
         22    1    3    3    0    0 -0.30209231001E+02 -0.78052095763E+01 -0.13956704349E+03  0.14301216229E+03  0.00000000000E+00 0.  1.
         22    1    4    4    0    0  0.19925288411E+02  0.77626802629E+00 -0.44718160675E+03  0.44762597012E+03  0.00000000000E+00 0. -1.
         22    1    4    4    0    0  0.10283942589E+02  0.70289415500E+01 -0.44495451321E+03  0.44512884013E+03  0.00000000000E+00 0. -1.
<mgrwt>
<rscale>  0 0.91661355E+02</rscale>
<asrwt>0</asrwt>
<pdfrwt beam="2">  1        2 0.15903574E+00 0.91661355E+02</pdfrwt>
<pdfrwt beam="1">  1       -2 0.31260153E-03 0.91661355E+02</pdfrwt>
<totfact> 0.24680559E+05</totfact>
</mgrwt>
</event>
<event>
 7    1  0.3480999E-009  0.9193797E+02  0.7818608E-02  0.1298225E+00
         -2   -1    0    0    0  501 -0.00000000000E+00  0.00000000000E+00  0.92619738633E+01  0.92619742144E+01  0.25500000000E-02 0.  1.
          2   -1    0    0  501    0  0.00000000000E+00 -0.00000000000E+00 -0.22815305761E+03  0.22815305762E+03  0.25500000000E-02 0. -1.
         23    2    1    2    0    0  0.00000000000E+00  0.35527136788E-14 -0.21889108374E+03  0.23741503183E+03  0.91937972563E+02 0.  0.
    9000005    2    3    3    0    0  0.38455601961E+02 -0.20909692731E+02 -0.13609880124E+03  0.14376349360E+03  0.15133070407E+02 0.  0.
         22    1    3    3    0    0 -0.38455601961E+02  0.20909692731E+02 -0.82792282503E+02  0.93651538238E+02  0.00000000000E+00 0.  1.
         22    1    4    4    0    0  0.32723784096E+02 -0.10928464575E+02 -0.94463828823E+02  0.10056685507E+03  0.00000000000E+00 0. -1.
         22    1    4    4    0    0  0.57318178656E+01 -0.99812281561E+01 -0.41634972416E+02  0.43196638523E+02  0.00000000000E+00 0. -1.
<mgrwt>
<rscale>  0 0.91937973E+02</rscale>
<asrwt>0</asrwt>
<pdfrwt beam="2">  1        2 0.35100466E-01 0.91937973E+02</pdfrwt>
<pdfrwt beam="1">  1       -2 0.14249193E-02 0.91937973E+02</pdfrwt>
<totfact> 0.15870744E+05</totfact>
</mgrwt>
</event>
<event>
 7    1  0.3480999E-009  0.9107150E+02  0.7818608E-02  0.1300277E+00
         -2   -1    0    0    0  501 -0.00000000000E+00  0.00000000000E+00  0.25660856745E+02  0.25660856871E+02  0.25500000000E-02 0. -1.
          2   -1    0    0  501    0  0.00000000000E+00 -0.00000000000E+00 -0.80804189300E+02  0.80804189341E+02  0.25500000000E-02 0.  1.
         23    2    1    2    0    0  0.71054273576E-14  0.00000000000E+00 -0.55143332556E+02  0.10646504621E+03  0.91071504542E+02 0.  0.
    9000005    2    3    3    0    0  0.40234701121E+02 -0.49336982000E+01 -0.50098233382E+02  0.65616232546E+02  0.12348458744E+02 0.  0.
         22    1    3    3    0    0 -0.40234701121E+02  0.49336982000E+01 -0.50450991740E+01  0.40848813666E+02  0.00000000000E+00 0. -1.
         22    1    4    4    0    0  0.29874840214E+02 -0.16058066008E-01 -0.42148732884E+02  0.51662578521E+02  0.00000000000E+00 0.  1.
         22    1    4    4    0    0  0.10359860907E+02 -0.49176401340E+01 -0.79495004973E+01  0.13953654025E+02  0.00000000000E+00 0.  1.
<mgrwt>
<rscale>  0 0.91071505E+02</rscale>
<asrwt>0</asrwt>
<pdfrwt beam="2">  1        2 0.12431414E-01 0.91071505E+02</pdfrwt>
<pdfrwt beam="1">  1       -2 0.39478242E-02 0.91071505E+02</pdfrwt>
<totfact> 0.11555602E+05</totfact>
</mgrwt>
</event>
<event>
 7    1  0.3480999E-009  0.9233772E+02  0.7818608E-02  0.1297287E+00
          2   -1    0    0  501    0  0.00000000000E+00  0.00000000000E+00  0.17461423614E+03  0.17461423616E+03  0.25500000000E-02 0. -1.
         -2   -1    0    0    0  501 -0.00000000000E+00 -0.00000000000E+00 -0.12207273785E+02  0.12207274052E+02  0.25500000000E-02 0.  1.
         23    2    1    2    0    0  0.00000000000E+00  0.00000000000E+00  0.16240696236E+03  0.18682151021E+03  0.92337723906E+02 0.  0.
    9000005    2    3    3    0    0  0.38297909330E+02  0.19661756488E+02  0.11375625920E+03  0.12185840187E+03  0.74611710380E+01 0.  0.
         22    1    3    3    0    0 -0.38297909330E+02 -0.19661756488E+02  0.48650703161E+02  0.64963108341E+02  0.00000000000E+00 0.  1.
         22    1    4    4    0    0  0.26690824692E+02  0.16179787259E+02  0.74489951084E+02  0.80764710431E+02  0.00000000000E+00 0.  1.
         22    1    4    4    0    0  0.11607084638E+02  0.34819692297E+01  0.39266308113E+02  0.41093691442E+02  0.00000000000E+00 0.  1.
<mgrwt>
<rscale>  0 0.92337724E+02</rscale>
<asrwt>0</asrwt>
<pdfrwt beam="1">  1        2 0.26863729E-01 0.92337724E+02</pdfrwt>
<pdfrwt beam="2">  1       -2 0.18780421E-02 0.92337724E+02</pdfrwt>
<totfact> 0.14239576E+05</totfact>
</mgrwt>
</event>
<event>
 7    1  0.3480999E-009  0.9169982E+02  0.7818608E-02  0.1298787E+00
         -2   -1    0    0    0  501 -0.00000000000E+00  0.00000000000E+00  0.21847947662E+02  0.21847947811E+02  0.25500000000E-02 0. -1.
          2   -1    0    0  501    0  0.00000000000E+00 -0.00000000000E+00 -0.96220206123E+02  0.96220206157E+02  0.25500000000E-02 0.  1.
         23    2    1    2    0    0  0.00000000000E+00  0.00000000000E+00 -0.74372258461E+02  0.11806815397E+03  0.91699815446E+02 0.  0.
    9000005    2    3    3    0    0 -0.25915482188E+01 -0.45612915166E+02 -0.34385762749E+02  0.57354284123E+02  0.44585956707E+01 0.  0.
         22    1    3    3    0    0  0.25915482188E+01  0.45612915166E+02 -0.39986495713E+02  0.60713869845E+02  0.00000000000E+00 0.  1.
         22    1    4    4    0    0 -0.34513850488E+01 -0.37346648095E+02 -0.29467746704E+02  0.47697298440E+02  0.00000000000E+00 0.  1.
         22    1    4    4    0    0  0.85983682994E+00 -0.82662670716E+01 -0.49180160450E+01  0.96569856835E+01  0.00000000000E+00 0.  1.
<mgrwt>
<rscale>  0 0.91699815E+02</rscale>
<asrwt>0</asrwt>
<pdfrwt beam="2">  1        2 0.14803108E-01 0.91699815E+02</pdfrwt>
<pdfrwt beam="1">  1       -2 0.33612228E-02 0.91699815E+02</pdfrwt>
<totfact> 0.11935318E+05</totfact>
</mgrwt>
</event>
<event>
 7    1  0.3480999E-009  0.9095370E+02  0.7818608E-02  0.1300558E+00
          2   -1    0    0  501    0  0.00000000000E+00  0.00000000000E+00  0.22269299034E+03  0.22269299035E+03  0.25500000000E-02 0. -1.
         -2   -1    0    0    0  501 -0.00000000000E+00 -0.00000000000E+00 -0.92869731001E+01  0.92869734502E+01  0.25500000000E-02 0.  1.
         23    2    1    2    0    0  0.71054273576E-14  0.00000000000E+00  0.21340601724E+03  0.23197996380E+03  0.90953699279E+02 0.  0.
    9000005    2    3    3    0    0 -0.41476036545E+02 -0.11777086948E+02  0.14043782794E+03  0.14722550650E+03  0.96749605169E+01 0.  0.
         22    1    3    3    0    0  0.41476036545E+02  0.11777086948E+02  0.72968189293E+02  0.84754457305E+02  0.00000000000E+00 0. -1.
         22    1    4    4    0    0 -0.23197225464E+01 -0.26930362592E+01  0.18341098622E+02  0.18682330038E+02  0.00000000000E+00 0.  1.
         22    1    4    4    0    0 -0.39156313998E+02 -0.90840506889E+01  0.12209672932E+03  0.12854317646E+03  0.00000000000E+00 0.  1.
<mgrwt>
<rscale>  0 0.90953699E+02</rscale>
<asrwt>0</asrwt>
<pdfrwt beam="1">  1        2 0.34260458E-01 0.90953699E+02</pdfrwt>
<pdfrwt beam="2">  1       -2 0.14287652E-02 0.90953699E+02</pdfrwt>
<totfact> 0.16191780E+05</totfact>
</mgrwt>
</event>
<event>
 7    1  0.3480999E-009  0.9142818E+02  0.7818608E-02  0.1299430E+00
         -2   -1    0    0    0  501 -0.00000000000E+00  0.00000000000E+00  0.28404389251E+03  0.28404389252E+03  0.25500000000E-02 0. -1.
          2   -1    0    0  501    0  0.00000000000E+00 -0.00000000000E+00 -0.73572354841E+01  0.73572359260E+01  0.25500000000E-02 0.  1.
         23    2    1    2    0    0  0.00000000000E+00  0.00000000000E+00  0.27668665702E+03  0.29140112844E+03  0.91428176643E+02 0.  0.
    9000005    2    3    3    0    0  0.23008022560E+02 -0.38284961695E+02  0.11866675807E+03  0.12718969200E+03  0.10015532242E+02 0.  0.
         22    1    3    3    0    0 -0.23008022560E+02  0.38284961695E+02  0.15801989895E+03  0.16421143644E+03  0.00000000000E+00 0. -1.
         22    1    4    4    0    0  0.39464191414E+01 -0.15087912578E+02  0.35714712269E+02  0.38971271502E+02  0.00000000000E+00 0. -1.
         22    1    4    4    0    0  0.19061603419E+02 -0.23197049116E+02  0.82952045802E+02  0.88218420499E+02  0.00000000000E+00 0. -1.
<mgrwt>
<rscale>  0 0.91428177E+02</rscale>
<asrwt>0</asrwt>
<pdfrwt beam="2">  1        2 0.11318825E-02 0.91428177E+02</pdfrwt>
<pdfrwt beam="1">  1       -2 0.43699056E-01 0.91428177E+02</pdfrwt>
<totfact> 0.52193303E+04</totfact>
</mgrwt>
</event>
<event>
 7    1  0.3480999E-009  0.9092608E+02  0.7818608E-02  0.1300624E+00
          2   -1    0    0  501    0  0.00000000000E+00  0.00000000000E+00  0.16503582478E+03  0.16503582480E+03  0.25500000000E-02 0. -1.
         -2   -1    0    0    0  501 -0.00000000000E+00 -0.00000000000E+00 -0.12523875870E+02  0.12523876129E+02  0.25500000000E-02 0.  1.
         23    2    1    2    0    0  0.00000000000E+00  0.00000000000E+00  0.15251194891E+03  0.17755970093E+03  0.90926084453E+02 0.  0.
    9000005    2    3    3    0    0  0.25587499087E+02  0.16325982582E+02  0.14223960550E+03  0.14551631072E+03  0.46511824365E+01 0.  0.
         22    1    3    3    0    0 -0.25587499087E+02 -0.16325982582E+02  0.10272343417E+02  0.32043390209E+02  0.00000000000E+00 0.  1.
         22    1    4    4    0    0  0.13321762916E+02  0.64623874913E+01  0.76391730321E+02  0.77813419670E+02  0.00000000000E+00 0. -1.
         22    1    4    4    0    0  0.12265736171E+02  0.98635950908E+01  0.65847875176E+02  0.67702891054E+02  0.00000000000E+00 0. -1.
<mgrwt>
<rscale>  0 0.90926084E+02</rscale>
<asrwt>0</asrwt>
<pdfrwt beam="1">  1        2 0.25390126E-01 0.90926084E+02</pdfrwt>
<pdfrwt beam="2">  1       -2 0.19267502E-02 0.90926084E+02</pdfrwt>
<totfact> 0.14555913E+05</totfact>
</mgrwt>
</event>
<event>
 7    1  0.3480999E-009  0.8926731E+02  0.7818608E-02  0.1304636E+00
          2   -1    0    0  501    0  0.00000000000E+00  0.00000000000E+00  0.52281764797E+03  0.52281764797E+03  0.25500000000E-02 0.  1.
         -2   -1    0    0    0  501 -0.00000000000E+00 -0.00000000000E+00 -0.38104359025E+01  0.38104367558E+01  0.25500000000E-02 0. -1.
         23    2    1    2    0    0  0.00000000000E+00  0.88817841970E-15  0.51900721206E+03  0.52662808473E+03  0.89267314569E+02 0.  0.
    9000005    2    3    3    0    0 -0.35301046604E+02  0.71469441166E+01  0.41297381542E+03  0.41464449707E+03  0.92435936774E+01 0.  0.
         22    1    3    3    0    0  0.35301046604E+02 -0.71469441166E+01  0.10603339664E+03  0.11198358766E+03  0.00000000000E+00 0. -1.
         22    1    4    4    0    0 -0.23956548221E+02  0.48918462545E+00  0.27848039504E+03  0.27950936644E+03  0.00000000000E+00 0.  1.
         22    1    4    4    0    0 -0.11344498384E+02  0.66577594912E+01  0.13449342038E+03  0.13513513063E+03  0.00000000000E+00 0.  1.
<mgrwt>
<rscale>  0 0.89267315E+02</rscale>
<asrwt>0</asrwt>
<pdfrwt beam="1">  1        2 0.80433410E-01 0.89267315E+02</pdfrwt>
<pdfrwt beam="2">  1       -2 0.58622152E-03 0.89267315E+02</pdfrwt>
<totfact> 0.23117107E+05</totfact>
</mgrwt>
</event>
<event>
 7    1  0.3480999E-009  0.9062692E+02  0.7818608E-02  0.1301341E+00
         -2   -1    0    0    0  501 -0.00000000000E+00  0.00000000000E+00  0.58029406096E+03  0.58029406097E+03  0.25500000000E-02 0.  1.
          2   -1    0    0  501    0  0.00000000000E+00 -0.00000000000E+00 -0.35383944329E+01  0.35383953517E+01  0.25500000000E-02 0. -1.
         23    2    1    2    0    0  0.35527136788E-14  0.00000000000E+00  0.57675566653E+03  0.58383245632E+03  0.90626917516E+02 0.  0.
    9000005    2    3    3    0    0 -0.16073732591E+02 -0.41390158598E+02  0.32332152282E+03  0.32653812039E+03  0.10900772240E+02 0.  0.
         22    1    3    3    0    0  0.16073732591E+02  0.41390158598E+02  0.25343414371E+03  0.25729433593E+03  0.00000000000E+00 0.  1.
         22    1    4    4    0    0 -0.11277764251E+02 -0.28660423789E+02  0.18465708111E+03  0.18720802724E+03  0.00000000000E+00 0.  1.
         22    1    4    4    0    0 -0.47959683406E+01 -0.12729734809E+02  0.13866444172E+03  0.13933009315E+03  0.00000000000E+00 0.  1.
<mgrwt>
<rscale>  0 0.90626918E+02</rscale>
<asrwt>0</asrwt>
<pdfrwt beam="2">  1        2 0.54436898E-03 0.90626918E+02</pdfrwt>
<pdfrwt beam="1">  1       -2 0.89275922E-01 0.90626918E+02</pdfrwt>
<totfact> 0.32677248E+04</totfact>
</mgrwt>
</event>
<event>
 7    1  0.3480999E-009  0.9056774E+02  0.7818608E-02  0.1301483E+00
          2   -1    0    0  501    0  0.00000000000E+00  0.00000000000E+00  0.10315554185E+03  0.10315554188E+03  0.25500000000E-02 0. -1.
         -2   -1    0    0    0  501 -0.00000000000E+00 -0.00000000000E+00 -0.19878999473E+02  0.19878999636E+02  0.25500000000E-02 0.  1.
         23    2    1    2    0    0  0.00000000000E+00  0.00000000000E+00  0.83276542380E+02  0.12303454152E+03  0.90567742029E+02 0.  0.
    9000005    2    3    3    0    0  0.39793336985E+02  0.44438783443E+01  0.69785426390E+02  0.80782110421E+02  0.72447156307E+01 0.  0.
         22    1    3    3    0    0 -0.39793336985E+02 -0.44438783443E+01  0.13491115990E+02  0.42252431099E+02  0.00000000000E+00 0. -1.
         22    1    4    4    0    0  0.18135483619E+02  0.56304052846E+01  0.33518606948E+02  0.38523943743E+02  0.00000000000E+00 0. -1.
         22    1    4    4    0    0  0.21657853365E+02 -0.11865269403E+01  0.36266819441E+02  0.42258166678E+02  0.00000000000E+00 0. -1.
<mgrwt>
<rscale>  0 0.90567742E+02</rscale>
<asrwt>0</asrwt>
<pdfrwt beam="1">  1        2 0.15870084E-01 0.90567742E+02</pdfrwt>
<pdfrwt beam="2">  1       -2 0.30583076E-02 0.90567742E+02</pdfrwt>
<totfact> 0.12614878E+05</totfact>
</mgrwt>
</event>
<event>
 7    1  0.3480999E-009  0.8931857E+02  0.7818608E-02  0.1304510E+00
          2   -1    0    0  501    0  0.00000000000E+00  0.00000000000E+00  0.33552628113E+03  0.33552628114E+03  0.25500000000E-02 0.  1.
         -2   -1    0    0    0  501 -0.00000000000E+00 -0.00000000000E+00 -0.59442485568E+01  0.59442491037E+01  0.25500000000E-02 0. -1.
         23    2    1    2    0    0  0.00000000000E+00  0.00000000000E+00  0.32958203257E+03  0.34147053024E+03  0.89318569343E+02 0.  0.
    9000005    2    3    3    0    0  0.29204141649E+02  0.27326056304E+02  0.10203330028E+03  0.11043369159E+03  0.13609211272E+02 0.  0.
         22    1    3    3    0    0 -0.29204141649E+02 -0.27326056304E+02  0.22754873230E+03  0.23103683865E+03  0.00000000000E+00 0.  1.
         22    1    4    4    0    0  0.11205369939E+02  0.13939000496E+02  0.29369779683E+02  0.34386625437E+02  0.00000000000E+00 0.  1.
         22    1    4    4    0    0  0.17998771710E+02  0.13387055808E+02  0.72663520592E+02  0.76047066157E+02  0.00000000000E+00 0.  1.
<mgrwt>
<rscale>  0 0.89318569E+02</rscale>
<asrwt>0</asrwt>
<pdfrwt beam="1">  1        2 0.51619432E-01 0.89318569E+02</pdfrwt>
<pdfrwt beam="2">  1       -2 0.91449975E-03 0.89318569E+02</pdfrwt>
<totfact> 0.19780610E+05</totfact>
</mgrwt>
</event>
<event>
 7    1  0.3480999E-009  0.8972003E+02  0.7818608E-02  0.1303531E+00
          2   -1    0    0  501    0  0.00000000000E+00  0.00000000000E+00  0.23536773735E+03  0.23536773736E+03  0.25500000000E-02 0. -1.
         -2   -1    0    0    0  501 -0.00000000000E+00 -0.00000000000E+00 -0.85501140791E+01  0.85501144593E+01  0.25500000000E-02 0.  1.
         23    2    1    2    0    0  0.00000000000E+00  0.71054273576E-14  0.22681762327E+03  0.24391785182E+03  0.89720032388E+02 0.  0.
    9000005    2    3    3    0    0 -0.68715631169E+01 -0.42219387086E+02  0.89618125515E+02  0.10020495327E+03  0.13413769559E+02 0.  0.
         22    1    3    3    0    0  0.68715631169E+01  0.42219387086E+02  0.13719949775E+03  0.14371289855E+03  0.00000000000E+00 0.  1.
         22    1    4    4    0    0 -0.21208516525E+01 -0.39013021781E+02  0.79269705065E+02  0.88375336047E+02  0.00000000000E+00 0.  1.
         22    1    4    4    0    0 -0.47507114644E+01 -0.32063653046E+01  0.10348420450E+02  0.11829617225E+02  0.00000000000E+00 0.  1.
<mgrwt>
<rscale>  0 0.89720032E+02</rscale>
<asrwt>0</asrwt>
<pdfrwt beam="1">  1        2 0.36210425E-01 0.89720032E+02</pdfrwt>
<pdfrwt beam="2">  1       -2 0.13154020E-02 0.89720032E+02</pdfrwt>
<totfact> 0.17139751E+05</totfact>
</mgrwt>
</event>
<event>
 7    1  0.3480999E-009  0.9539219E+02  0.7818608E-02  0.1290295E+00
         -2   -1    0    0    0  501 -0.00000000000E+00  0.00000000000E+00  0.22976662082E+01  0.22976676232E+01  0.25500000000E-02 0.  1.
          2   -1    0    0  501    0  0.00000000000E+00 -0.00000000000E+00 -0.99009897906E+03  0.99009897907E+03  0.25500000000E-02 0. -1.
         23    2    1    2    0    0  0.00000000000E+00  0.00000000000E+00 -0.98780131286E+03  0.99239664669E+03  0.95392194035E+02 0.  0.
    9000005    2    3    3    0    0  0.23116609763E+01  0.27673974279E+02 -0.89708295189E+03  0.89752297466E+03  0.42982364046E+01 0.  0.
         22    1    3    3    0    0 -0.23116609763E+01 -0.27673974279E+02 -0.90718360967E+02  0.94873672035E+02  0.00000000000E+00 0.  1.
         22    1    4    4    0    0  0.55908069552E+00  0.57288167469E+01 -0.24799217283E+03  0.24805896415E+03  0.00000000000E+00 0. -1.
         22    1    4    4    0    0  0.17525802808E+01  0.21945157532E+02 -0.64909077906E+03  0.64946401050E+03  0.00000000000E+00 0. -1.
<mgrwt>
<rscale>  0 0.95392194E+02</rscale>
<asrwt>0</asrwt>
<pdfrwt beam="2">  1        2 0.15232258E+00 0.95392194E+02</pdfrwt>
<pdfrwt beam="1">  1       -2 0.35348801E-03 0.95392194E+02</pdfrwt>
<totfact> 0.22179945E+05</totfact>
</mgrwt>
</event>
<event>
 7    1  0.3480999E-009  0.9122162E+02  0.7818608E-02  0.1299920E+00
          2   -1    0    0  501    0  0.00000000000E+00  0.00000000000E+00  0.94786682251E+01  0.94786685681E+01  0.25500000000E-02 0. -1.
         -2   -1    0    0    0  501 -0.00000000000E+00 -0.00000000000E+00 -0.21947662557E+03  0.21947662559E+03  0.25500000000E-02 0.  1.
         23    2    1    2    0    0  0.35527136788E-14  0.00000000000E+00 -0.20999795735E+03  0.22895529416E+03  0.91221623707E+02 0.  0.
    9000005    2    3    3    0    0  0.22702631321E+02  0.34503269342E+02 -0.14785990681E+03  0.15434281270E+03  0.15914355991E+02 0.  0.
         22    1    3    3    0    0 -0.22702631321E+02 -0.34503269342E+02 -0.62138050543E+02  0.74612481459E+02  0.00000000000E+00 0. -1.
         22    1    4    4    0    0  0.37139694527E+01  0.20019482763E+02 -0.70319953521E+02  0.73208395163E+02  0.00000000000E+00 0. -1.
         22    1    4    4    0    0  0.18988661868E+02  0.14483786579E+02 -0.77539953285E+02  0.81134417534E+02  0.00000000000E+00 0. -1.
<mgrwt>
<rscale>  0 0.91221624E+02</rscale>
<asrwt>0</asrwt>
<pdfrwt beam="1">  1        2 0.14582568E-02 0.91221624E+02</pdfrwt>
<pdfrwt beam="2">  1       -2 0.33765631E-01 0.91221624E+02</pdfrwt>
<totfact> 0.59714967E+04</totfact>
</mgrwt>
</event>
<event>
 7    1  0.3480999E-009  0.9000985E+02  0.7818608E-02  0.1302828E+00
          2   -1    0    0  501    0  0.00000000000E+00  0.00000000000E+00  0.20946425291E+03  0.20946425292E+03  0.25500000000E-02 0. -1.
         -2   -1    0    0    0  501 -0.00000000000E+00 -0.00000000000E+00 -0.96696371073E+01  0.96696374435E+01  0.25500000000E-02 0.  1.
         23    2    1    2    0    0 -0.35527136788E-14 -0.35527136788E-14  0.19979461580E+03  0.21913389037E+03  0.90009851707E+02 0.  0.
    9000005    2    3    3    0    0 -0.18831980327E+02 -0.27481424499E+02  0.26592789398E+02  0.42757177491E+02  0.33358062843E+01 0.  0.
         22    1    3    3    0    0  0.18831980327E+02  0.27481424499E+02  0.17320182640E+03  0.17637671287E+03  0.00000000000E+00 0. -1.
         22    1    4    4    0    0 -0.46253538994E+01 -0.57045856831E+01  0.43184446815E+01  0.85196925401E+01  0.00000000000E+00 0. -1.
         22    1    4    4    0    0 -0.14206626427E+02 -0.21776838816E+02  0.22274344716E+02  0.34237484951E+02  0.00000000000E+00 0. -1.
<mgrwt>
<rscale>  0 0.90009852E+02</rscale>
<asrwt>0</asrwt>
<pdfrwt beam="1">  1        2 0.32225267E-01 0.90009852E+02</pdfrwt>
<pdfrwt beam="2">  1       -2 0.14876366E-02 0.90009852E+02</pdfrwt>
<totfact> 0.16283345E+05</totfact>
</mgrwt>
</event>
<event>
 7    1  0.3480999E-009  0.9417257E+02  0.7818608E-02  0.1293051E+00
          2   -1    0    0  501    0  0.00000000000E+00  0.00000000000E+00  0.49708043424E+03  0.49708043424E+03  0.25500000000E-02 0. -1.
         -2   -1    0    0    0  501 -0.00000000000E+00 -0.00000000000E+00 -0.44602805883E+01  0.44602813172E+01  0.25500000000E-02 0.  1.
         23    2    1    2    0    0 -0.17763568394E-14  0.00000000000E+00  0.49262015365E+03  0.50154071556E+03  0.94172573419E+02 0.  0.
    9000005    2    3    3    0    0  0.95839226486E+01  0.37924844631E+02  0.38535946573E+03  0.38736978849E+03  0.48259506434E+01 0.  0.
         22    1    3    3    0    0 -0.95839226486E+01 -0.37924844631E+02  0.10726068792E+03  0.11417092707E+03  0.00000000000E+00 0. -1.
         22    1    4    4    0    0 -0.40734063985E+00  0.44785624249E+01  0.41296772820E+02  0.41540906263E+02  0.00000000000E+00 0. -1.
         22    1    4    4    0    0  0.99912632884E+01  0.33446282206E+02  0.34406269291E+03  0.34582888223E+03  0.00000000000E+00 0. -1.
<mgrwt>
<rscale>  0 0.94172573E+02</rscale>
<asrwt>0</asrwt>
<pdfrwt beam="1">  1        2 0.76473889E-01 0.94172573E+02</pdfrwt>
<pdfrwt beam="2">  1       -2 0.68619729E-03 0.94172573E+02</pdfrwt>
<totfact> 0.19741222E+05</totfact>
</mgrwt>
</event>
<event>
 7    1  0.3480999E-009  0.8974166E+02  0.7818608E-02  0.1303479E+00
         -2   -1    0    0    0  501 -0.00000000000E+00  0.00000000000E+00  0.16602824178E+02  0.16602824374E+02  0.25500000000E-02 0.  1.
          2   -1    0    0  501    0  0.00000000000E+00 -0.00000000000E+00 -0.12126800965E+03  0.12126800968E+03  0.25500000000E-02 0. -1.
         23    2    1    2    0    0  0.00000000000E+00 -0.35527136788E-14 -0.10466518548E+03  0.13787083405E+03  0.89741661629E+02 0.  0.
    9000005    2    3    3    0    0 -0.33763722849E+02  0.26683868357E+02 -0.35152001854E+02  0.56114485626E+02  0.78201311728E+01 0.  0.
         22    1    3    3    0    0  0.33763722849E+02 -0.26683868357E+02 -0.69513183621E+02  0.81756348428E+02  0.00000000000E+00 0. -1.
         22    1    4    4    0    0 -0.61266754860E+01  0.27148845644E+01 -0.27442860185E+01  0.72413987917E+01  0.00000000000E+00 0.  1.
         22    1    4    4    0    0 -0.27637047363E+02  0.23968983793E+02 -0.32407715836E+02  0.48873086834E+02  0.00000000000E+00 0.  1.
<mgrwt>
<rscale>  0 0.89741662E+02</rscale>
<asrwt>0</asrwt>
<pdfrwt beam="2">  1        2 0.18656616E-01 0.89741662E+02</pdfrwt>
<pdfrwt beam="1">  1       -2 0.25542807E-02 0.89741662E+02</pdfrwt>
<totfact> 0.13606623E+05</totfact>
</mgrwt>
</event>
<event>
 7    1  0.3480999E-009  0.8945493E+02  0.7818608E-02  0.1304177E+00
         -2   -1    0    0    0  501 -0.00000000000E+00  0.00000000000E+00  0.30949409156E+01  0.30949419661E+01  0.25500000000E-02 0.  1.
          2   -1    0    0  501    0  0.00000000000E+00 -0.00000000000E+00 -0.64639229256E+03  0.64639229257E+03  0.25500000000E-02 0. -1.
         23    2    1    2    0    0 -0.35527136788E-14  0.00000000000E+00 -0.64329735165E+03  0.64948723454E+03  0.89454933828E+02 0.  0.
    9000005    2    3    3    0    0  0.23364278781E+02 -0.18691681165E+02 -0.56257780445E+03  0.56340057025E+03  0.55810420956E+01 0.  0.
         22    1    3    3    0    0 -0.23364278781E+02  0.18691681165E+02 -0.80719547195E+02  0.86086664281E+02  0.00000000000E+00 0.  1.
         22    1    4    4    0    0  0.37895867227E+01 -0.75622379344E+00 -0.64384192810E+02  0.64500055239E+02  0.00000000000E+00 0. -1.
         22    1    4    4    0    0  0.19574692058E+02 -0.17935457371E+02 -0.49819361164E+03  0.49890051502E+03  0.00000000000E+00 0. -1.
<mgrwt>
<rscale>  0 0.89454934E+02</rscale>
<asrwt>0</asrwt>
<pdfrwt beam="2">  1        2 0.99444861E-01 0.89454934E+02</pdfrwt>
<pdfrwt beam="1">  1       -2 0.47614535E-03 0.89454934E+02</pdfrwt>
<totfact> 0.24450412E+05</totfact>
</mgrwt>
</event>
<event>
 7    1  0.3480999E-009  0.9205529E+02  0.7818608E-02  0.1297949E+00
          2   -1    0    0  501    0  0.00000000000E+00  0.00000000000E+00  0.39871840389E+02  0.39871840471E+02  0.25500000000E-02 0.  1.
         -2   -1    0    0    0  501 -0.00000000000E+00 -0.00000000000E+00 -0.53133843152E+02  0.53133843214E+02  0.25500000000E-02 0. -1.
         23    2    1    2    0    0  0.00000000000E+00  0.00000000000E+00 -0.13262002763E+02  0.93005683684E+02  0.92055290344E+02 0.  0.
    9000005    2    3    3    0    0 -0.43759986177E+02  0.17515415977E+01 -0.17360785431E+02  0.49019273197E+02  0.13545773727E+02 0.  0.
         22    1    3    3    0    0  0.43759986177E+02 -0.17515415977E+01  0.40987826673E+01  0.43986410487E+02  0.00000000000E+00 0.  1.
         22    1    4    4    0    0 -0.32041048578E+02  0.62999195773E+01 -0.16034411110E+02  0.36378841657E+02  0.00000000000E+00 0. -1.
         22    1    4    4    0    0 -0.11718937599E+02 -0.45483779796E+01 -0.13263743206E+01  0.12640431541E+02  0.00000000000E+00 0. -1.
<mgrwt>
<rscale>  0 0.92055290E+02</rscale>
<asrwt>0</asrwt>
<pdfrwt beam="1">  1        2 0.61341292E-02 0.92055290E+02</pdfrwt>
<pdfrwt beam="2">  1       -2 0.81744375E-02 0.92055290E+02</pdfrwt>
<totfact> 0.92692708E+04</totfact>
</mgrwt>
</event>
<event>
 7    1  0.3480999E-009  0.9025591E+02  0.7818608E-02  0.1302233E+00
         -2   -1    0    0    0  501 -0.00000000000E+00  0.00000000000E+00  0.70751524989E+01  0.70751529585E+01  0.25500000000E-02 0.  1.
          2   -1    0    0  501    0  0.00000000000E+00 -0.00000000000E+00 -0.28784290722E+03  0.28784290723E+03  0.25500000000E-02 0. -1.
         23    2    1    2    0    0  0.00000000000E+00  0.00000000000E+00 -0.28076775472E+03  0.29491806019E+03  0.90255914681E+02 0.  0.
    9000005    2    3    3    0    0 -0.16391828546E+02 -0.34794244502E+02 -0.21277913376E+03  0.21680414290E+03  0.15803326333E+02 0.  0.
         22    1    3    3    0    0  0.16391828546E+02  0.34794244502E+02 -0.67988620960E+02  0.78113917285E+02  0.00000000000E+00 0.  1.
         22    1    4    4    0    0 -0.12957052005E+02 -0.25552437417E+02 -0.18739643107E+03  0.18957382370E+03  0.00000000000E+00 0.  1.
         22    1    4    4    0    0 -0.34347765404E+01 -0.92418070850E+01 -0.25382702687E+02  0.27230319201E+02  0.00000000000E+00 0.  1.
<mgrwt>
<rscale>  0 0.90255915E+02</rscale>
<asrwt>0</asrwt>
<pdfrwt beam="2">  1        2 0.44283515E-01 0.90255915E+02</pdfrwt>
<pdfrwt beam="1">  1       -2 0.10884853E-02 0.90255915E+02</pdfrwt>
<totfact> 0.18176750E+05</totfact>
</mgrwt>
</event>
<event>
 7    1  0.3480999E-009  0.9110013E+02  0.7818608E-02  0.1300209E+00
          2   -1    0    0  501    0  0.00000000000E+00  0.00000000000E+00  0.51182458788E+01  0.51182465141E+01  0.25500000000E-02 0. -1.
         -2   -1    0    0    0  501 -0.00000000000E+00 -0.00000000000E+00 -0.40537485746E+03  0.40537485747E+03  0.25500000000E-02 0.  1.
         23    2    1    2    0    0  0.00000000000E+00  0.00000000000E+00 -0.40025661158E+03  0.41049310398E+03  0.91100127895E+02 0.  0.
    9000005    2    3    3    0    0 -0.15466763477E+02  0.33250337331E+02 -0.32033747021E+03  0.32256202380E+03  0.92389755936E+01 0.  0.
         22    1    3    3    0    0  0.15466763477E+02 -0.33250337331E+02 -0.79919141368E+02  0.87931080183E+02  0.00000000000E+00 0. -1.
         22    1    4    4    0    0 -0.15732920867E+02  0.32664527663E+02 -0.31922176703E+03  0.32127407725E+03  0.00000000000E+00 0. -1.
         22    1    4    4    0    0  0.26615739001E+00  0.58580966806E+00 -0.11157031811E+01  0.12879465485E+01  0.00000000000E+00 0. -1.
<mgrwt>
<rscale>  0 0.91100128E+02</rscale>
<asrwt>0</asrwt>
<pdfrwt beam="1">  1        2 0.78742281E-03 0.91100128E+02</pdfrwt>
<pdfrwt beam="2">  1       -2 0.62365338E-01 0.91100128E+02</pdfrwt>
<totfact> 0.42399310E+04</totfact>
</mgrwt>
</event>
<event>
 7    1  0.3480999E-009  0.9115552E+02  0.7818608E-02  0.1300077E+00
          2   -1    0    0  501    0  0.00000000000E+00  0.00000000000E+00  0.66717295129E+02  0.66717295178E+02  0.25500000000E-02 0. -1.
         -2   -1    0    0    0  501 -0.00000000000E+00 -0.00000000000E+00 -0.31136334771E+02  0.31136334875E+02  0.25500000000E-02 0.  1.
         23    2    1    2    0    0  0.00000000000E+00  0.00000000000E+00  0.35580960359E+02  0.97853630053E+02  0.91155516424E+02 0.  0.
    9000005    2    3    3    0    0 -0.21331935900E+02  0.54942342358E+01  0.59988879874E+02  0.64975299284E+02  0.11742474585E+02 0.  0.
         22    1    3    3    0    0  0.21331935900E+02 -0.54942342358E+01 -0.24407919516E+02  0.32878330769E+02  0.00000000000E+00 0.  1.
         22    1    4    4    0    0 -0.15627277903E+02  0.86341654701E+01  0.49587923966E+02  0.52704106399E+02  0.00000000000E+00 0. -1.
         22    1    4    4    0    0 -0.57046579968E+01 -0.31399312344E+01  0.10400955908E+02  0.12271192885E+02  0.00000000000E+00 0. -1.
<mgrwt>
<rscale>  0 0.91155516E+02</rscale>
<asrwt>0</asrwt>
<pdfrwt beam="1">  1        2 0.10264199E-01 0.91155516E+02</pdfrwt>
<pdfrwt beam="2">  1       -2 0.47902054E-02 0.91155516E+02</pdfrwt>
<totfact> 0.10923686E+05</totfact>
</mgrwt>
</event>
<event>
 7    1  0.3480999E-009  0.8605705E+02  0.7818608E-02  0.1312691E+00
          2   -1    0    0  501    0  0.00000000000E+00  0.00000000000E+00  0.42261003896E+03  0.42261003897E+03  0.25500000000E-02 0. -1.
         -2   -1    0    0    0  501 -0.00000000000E+00 -0.00000000000E+00 -0.43809976834E+01  0.43809984255E+01  0.25500000000E-02 0.  1.
         23    2    1    2    0    0  0.00000000000E+00  0.00000000000E+00  0.41822904128E+03  0.42699103740E+03  0.86057045307E+02 0.  0.
    9000005    2    3    3    0    0  0.26098158033E+02 -0.33008224615E+02  0.21193780293E+03  0.21645189195E+03  0.12772332342E+02 0.  0.
         22    1    3    3    0    0 -0.26098158033E+02  0.33008224615E+02  0.20629123835E+03  0.21053914544E+03  0.00000000000E+00 0.  1.
         22    1    4    4    0    0  0.12193674843E+02 -0.18353762255E+02  0.14031767535E+03  0.14203730606E+03  0.00000000000E+00 0. -1.
         22    1    4    4    0    0  0.13904483190E+02 -0.14654462360E+02  0.71620127577E+02  0.74414585896E+02  0.00000000000E+00 0. -1.
<mgrwt>
<rscale>  0 0.86057045E+02</rscale>
<asrwt>0</asrwt>
<pdfrwt beam="1">  1        2 0.65016932E-01 0.86057045E+02</pdfrwt>
<pdfrwt beam="2">  1       -2 0.67399967E-03 0.86057045E+02</pdfrwt>
<totfact> 0.23715305E+05</totfact>
</mgrwt>
</event>
<event>
 7    1  0.3480999E-009  0.8879604E+02  0.7818608E-02  0.1305794E+00
          2   -1    0    0  501    0  0.00000000000E+00  0.00000000000E+00  0.35374955965E+01  0.35374965156E+01  0.25500000000E-02 0. -1.
         -2   -1    0    0    0  501 -0.00000000000E+00 -0.00000000000E+00 -0.55722578345E+03  0.55722578346E+03  0.25500000000E-02 0.  1.
         23    2    1    2    0    0  0.00000000000E+00  0.00000000000E+00 -0.55368828786E+03  0.56076327997E+03  0.88796036276E+02 0.  0.
    9000005    2    3    3    0    0  0.20169654229E+02  0.88601961732E+01 -0.51940370473E+03  0.52001097123E+03  0.12078231791E+02 0.  0.
         22    1    3    3    0    0 -0.20169654229E+02 -0.88601961732E+01 -0.34284583126E+02  0.40752308745E+02  0.00000000000E+00 0. -1.
         22    1    4    4    0    0  0.11190604204E+02 -0.30722897537E+00 -0.16769479345E+03  0.16806804503E+03  0.00000000000E+00 0. -1.
         22    1    4    4    0    0  0.89790500248E+01  0.91674251486E+01 -0.35170891128E+03  0.35194292619E+03  0.00000000000E+00 0. -1.
<mgrwt>
<rscale>  0 0.88796036E+02</rscale>
<asrwt>0</asrwt>
<pdfrwt beam="1">  1        2 0.54423061E-03 0.88796036E+02</pdfrwt>
<pdfrwt beam="2">  1       -2 0.85726974E-01 0.88796036E+02</pdfrwt>
<totfact> 0.35639346E+04</totfact>
</mgrwt>
</event>
<event>
 7    1  0.3480999E-009  0.9265795E+02  0.7818608E-02  0.1296540E+00
         -2   -1    0    0    0  501 -0.00000000000E+00  0.00000000000E+00  0.89086479864E+01  0.89086483514E+01  0.25500000000E-02 0.  1.
          2   -1    0    0  501    0  0.00000000000E+00 -0.00000000000E+00 -0.24093147956E+03  0.24093147957E+03  0.25500000000E-02 0. -1.
         23    2    1    2    0    0  0.00000000000E+00  0.00000000000E+00 -0.23202283157E+03  0.24984012793E+03  0.92657947042E+02 0.  0.
    9000005    2    3    3    0    0 -0.14112134711E+02  0.85548390679E+01 -0.23228159183E+03  0.23333544452E+03  0.14776811089E+02 0.  0.
         22    1    3    3    0    0  0.14112134711E+02 -0.85548390679E+01  0.25876025724E+00  0.16504683410E+02  0.00000000000E+00 0.  1.
         22    1    4    4    0    0 -0.12108979730E+02  0.72273026445E+01 -0.95765585251E+02  0.96798288271E+02  0.00000000000E+00 0.  1.
         22    1    4    4    0    0 -0.20031549809E+01  0.13275364235E+01 -0.13651600658E+03  0.13653715625E+03  0.00000000000E+00 0.  1.
<mgrwt>
<rscale>  0 0.92657947E+02</rscale>
<asrwt>0</asrwt>
<pdfrwt beam="2">  1        2 0.37066376E-01 0.92657947E+02</pdfrwt>
<pdfrwt beam="1">  1       -2 0.13705614E-02 0.92657947E+02</pdfrwt>
<totfact> 0.15857320E+05</totfact>
</mgrwt>
</event>
<event>
 7    1  0.3480999E-009  0.9155034E+02  0.7818608E-02  0.1299140E+00
          2   -1    0    0  501    0  0.00000000000E+00  0.00000000000E+00  0.31589183453E+03  0.31589183454E+03  0.25500000000E-02 0. -1.
         -2   -1    0    0    0  501 -0.00000000000E+00 -0.00000000000E+00 -0.66331759236E+01  0.66331764138E+01  0.25500000000E-02 0.  1.
         23    2    1    2    0    0  0.00000000000E+00  0.00000000000E+00  0.30925865861E+03  0.32252501096E+03  0.91550340076E+02 0.  0.
    9000005    2    3    3    0    0 -0.22318954312E+02 -0.38655618854E+02  0.14180492086E+03  0.14922426982E+03  0.12917218515E+02 0.  0.
         22    1    3    3    0    0  0.22318954312E+02  0.38655618854E+02  0.16745373775E+03  0.17330074113E+03  0.00000000000E+00 0.  1.
         22    1    4    4    0    0 -0.10168783591E+02 -0.14274712167E+02  0.76181390386E+02  0.78171451364E+02  0.00000000000E+00 0. -1.
         22    1    4    4    0    0 -0.12150170721E+02 -0.24380906687E+02  0.65623530472E+02  0.71052818460E+02  0.00000000000E+00 0. -1.
<mgrwt>
<rscale>  0 0.91550340E+02</rscale>
<asrwt>0</asrwt>
<pdfrwt beam="1">  1        2 0.48598737E-01 0.91550340E+02</pdfrwt>
<pdfrwt beam="2">  1       -2 0.10204888E-02 0.91550340E+02</pdfrwt>
<totfact> 0.18115405E+05</totfact>
</mgrwt>
</event>
<event>
 7    1  0.3480999E-009  0.9128052E+02  0.7818608E-02  0.1299780E+00
         -2   -1    0    0    0  501 -0.00000000000E+00  0.00000000000E+00  0.56803121145E+02  0.56803121202E+02  0.25500000000E-02 0.  1.
          2   -1    0    0  501    0  0.00000000000E+00 -0.00000000000E+00 -0.36671105266E+02  0.36671105355E+02  0.25500000000E-02 0. -1.
         23    2    1    2    0    0  0.00000000000E+00  0.00000000000E+00  0.20132015878E+02  0.93474226557E+02  0.91280518004E+02 0.  0.
    9000005    2    3    3    0    0  0.26875292395E+02  0.16826388224E+02  0.43327572624E+02  0.54187555348E+02  0.73214700138E+01 0.  0.
         22    1    3    3    0    0 -0.26875292395E+02 -0.16826388224E+02 -0.23195556746E+02  0.39286671209E+02  0.00000000000E+00 0. -1.
         22    1    4    4    0    0  0.93594795007E+01  0.49792210652E+01  0.20445945485E+02  0.23031048299E+02  0.00000000000E+00 0. -1.
         22    1    4    4    0    0  0.17515812894E+02  0.11847167158E+02  0.22881627139E+02  0.31156507050E+02  0.00000000000E+00 0. -1.
<mgrwt>
<rscale>  0 0.91280518E+02</rscale>
<asrwt>0</asrwt>
<pdfrwt beam="2">  1        2 0.56417085E-02 0.91280518E+02</pdfrwt>
<pdfrwt beam="1">  1       -2 0.87389417E-02 0.91280518E+02</pdfrwt>
<totfact> 0.92955058E+04</totfact>
</mgrwt>
</event>
<event>
 7    1  0.3480999E-009  0.9168381E+02  0.7818608E-02  0.1298825E+00
         -2   -1    0    0    0  501 -0.00000000000E+00  0.00000000000E+00  0.90783406772E+00  0.90783764903E+00  0.25500000000E-02 0. -1.
          2   -1    0    0  501    0  0.00000000000E+00 -0.00000000000E+00 -0.23148239035E+04  0.23148239035E+04  0.25500000000E-02 0.  1.
         23    2    1    2    0    0  0.00000000000E+00  0.00000000000E+00 -0.23139160694E+04  0.23157317411E+04  0.91683807701E+02 0.  0.
    9000005    2    3    3    0    0  0.48046081247E+01  0.18473940334E+02 -0.22083113139E+04  0.22084156886E+04  0.98297557627E+01 0.  0.
         22    1    3    3    0    0 -0.48046081247E+01 -0.18473940334E+02 -0.10560475554E+03  0.10731605249E+03  0.00000000000E+00 0. -1.
         22    1    4    4    0    0  0.70452323406E+01  0.17701299507E+02 -0.19131912077E+04  0.19132860655E+04  0.00000000000E+00 0.  1.
         22    1    4    4    0    0 -0.22406242159E+01  0.77264082702E+00 -0.29512010615E+03  0.29512962309E+03  0.00000000000E+00 0.  1.
<mgrwt>
<rscale>  0 0.91683808E+02</rscale>
<asrwt>0</asrwt>
<pdfrwt beam="2">  1        2 0.35612203E+00 0.91683808E+02</pdfrwt>
<pdfrwt beam="1">  1       -2 0.13966891E-03 0.91683808E+02</pdfrwt>
<totfact> 0.16426945E+05</totfact>
</mgrwt>
</event>
<event>
 7    1  0.3480999E-009  0.9075194E+02  0.7818608E-02  0.1301041E+00
          2   -1    0    0  501    0  0.00000000000E+00  0.00000000000E+00  0.19973103302E+03  0.19973103304E+03  0.25500000000E-02 0. -1.
         -2   -1    0    0    0  501 -0.00000000000E+00 -0.00000000000E+00 -0.10308756459E+02  0.10308756774E+02  0.25500000000E-02 0.  1.
         23    2    1    2    0    0  0.88817841970E-15  0.00000000000E+00  0.18942227656E+03  0.21003978981E+03  0.90751939077E+02 0.  0.
    9000005    2    3    3    0    0 -0.72766820258E+01  0.16274589342E+02  0.19069350160E+03  0.19216723060E+03  0.15697789849E+02 0.  0.
         22    1    3    3    0    0  0.72766820258E+01 -0.16274589342E+02 -0.12712250374E+01  0.17872559208E+02  0.00000000000E+00 0.  1.
         22    1    4    4    0    0 -0.59688590603E+01  0.15956360374E+02  0.98396984565E+02  0.99860899687E+02  0.00000000000E+00 0. -1.
         22    1    4    4    0    0 -0.13078229655E+01  0.31822896766E+00  0.92296517035E+02  0.92306330917E+02  0.00000000000E+00 0. -1.
<mgrwt>
<rscale>  0 0.90751939E+02</rscale>
<asrwt>0</asrwt>
<pdfrwt beam="1">  1        2 0.30727847E-01 0.90751939E+02</pdfrwt>
<pdfrwt beam="2">  1       -2 0.15859628E-02 0.90751939E+02</pdfrwt>
<totfact> 0.15656000E+05</totfact>
</mgrwt>
</event>
<event>
 7    1  0.3480999E-009  0.9267073E+02  0.7818608E-02  0.1296510E+00
          2   -1    0    0  501    0  0.00000000000E+00  0.00000000000E+00  0.24380882974E+03  0.24380882975E+03  0.25500000000E-02 0. -1.
         -2   -1    0    0    0  501 -0.00000000000E+00 -0.00000000000E+00 -0.88059405897E+01  0.88059409589E+01  0.25500000000E-02 0.  1.
         23    2    1    2    0    0  0.00000000000E+00  0.35527136788E-14  0.23500288915E+03  0.25261477071E+03  0.92670731480E+02 0.  0.
    9000005    2    3    3    0    0  0.23888862433E+02  0.28016699224E+02  0.43628946606E+02  0.57731218126E+02  0.85904237718E+01 0.  0.
         22    1    3    3    0    0 -0.23888862433E+02 -0.28016699224E+02  0.19137394254E+03  0.19488355259E+03  0.00000000000E+00 0. -1.
         22    1    4    4    0    0  0.95633859198E+01  0.53599947446E+01  0.13869855533E+02  0.17679388745E+02  0.00000000000E+00 0.  1.
         22    1    4    4    0    0  0.14325476513E+02  0.22656704480E+02  0.29759091073E+02  0.40051829380E+02  0.00000000000E+00 0.  1.
<mgrwt>
<rscale>  0 0.92670731E+02</rscale>
<asrwt>0</asrwt>
<pdfrwt beam="1">  1        2 0.37509052E-01 0.92670731E+02</pdfrwt>
<pdfrwt beam="2">  1       -2 0.13547601E-02 0.92670731E+02</pdfrwt>
<totfact> 0.15921284E+05</totfact>
</mgrwt>
</event>
<event>
 7    1  0.3480999E-009  0.9173668E+02  0.7818608E-02  0.1298700E+00
         -2   -1    0    0    0  501 -0.00000000000E+00  0.00000000000E+00  0.39444607744E+02  0.39444607827E+02  0.25500000000E-02 0. -1.
          2   -1    0    0  501    0  0.00000000000E+00 -0.00000000000E+00 -0.53338207418E+02  0.53338207479E+02  0.25500000000E-02 0.  1.
         23    2    1    2    0    0  0.17763568394E-14  0.00000000000E+00 -0.13893599674E+02  0.92782815306E+02  0.91736681345E+02 0.  0.
    9000005    2    3    3    0    0 -0.13139704317E+02 -0.35908134866E+02  0.15977603846E+02  0.44261327500E+02  0.15547839346E+02 0.  0.
         22    1    3    3    0    0  0.13139704317E+02  0.35908134866E+02 -0.29871203520E+02  0.48521487805E+02  0.00000000000E+00 0.  1.
         22    1    4    4    0    0 -0.88274463174E+01 -0.78405575720E+01  0.94524258317E+01  0.15124367942E+02  0.00000000000E+00 0.  1.
         22    1    4    4    0    0 -0.43122579998E+01 -0.28067577294E+02  0.65251780141E+01  0.29136959559E+02  0.00000000000E+00 0.  1.
<mgrwt>
<rscale>  0 0.91736681E+02</rscale>
<asrwt>0</asrwt>
<pdfrwt beam="2">  1        2 0.82058781E-02 0.91736681E+02</pdfrwt>
<pdfrwt beam="1">  1       -2 0.60684012E-02 0.91736681E+02</pdfrwt>
<totfact> 0.10103078E+05</totfact>
</mgrwt>
</event>
<event>
 7    1  0.3480999E-009  0.9000572E+02  0.7818608E-02  0.1302838E+00
          2   -1    0    0  501    0  0.00000000000E+00  0.00000000000E+00  0.19727685488E+02  0.19727685653E+02  0.25500000000E-02 0. -1.
         -2   -1    0    0    0  501 -0.00000000000E+00 -0.00000000000E+00 -0.10266067517E+03  0.10266067521E+03  0.25500000000E-02 0.  1.
         23    2    1    2    0    0  0.00000000000E+00  0.00000000000E+00 -0.82932989686E+02  0.12238836086E+03  0.90005722571E+02 0.  0.
    9000005    2    3    3    0    0  0.37307807028E+02 -0.13896473828E+02 -0.69029280014E+02  0.80218494927E+02  0.92185128369E+01 0.  0.
         22    1    3    3    0    0 -0.37307807028E+02  0.13896473828E+02 -0.13903709672E+02  0.42169865933E+02  0.00000000000E+00 0. -1.
         22    1    4    4    0    0  0.32371695900E+02 -0.95589621315E+01 -0.52313813533E+02  0.62257815082E+02  0.00000000000E+00 0. -1.
         22    1    4    4    0    0  0.49361111287E+01 -0.43375116968E+01 -0.16715466482E+02  0.17960679845E+02  0.00000000000E+00 0. -1.
<mgrwt>
<rscale>  0 0.90005723E+02</rscale>
<asrwt>0</asrwt>
<pdfrwt beam="1">  1        2 0.30350286E-02 0.90005723E+02</pdfrwt>
<pdfrwt beam="2">  1       -2 0.15793950E-01 0.90005723E+02</pdfrwt>
<totfact> 0.81770332E+04</totfact>
</mgrwt>
</event>
<event>
 7    1  0.3480999E-009  0.8838309E+02  0.7818608E-02  0.1306815E+00
         -2   -1    0    0    0  501 -0.00000000000E+00  0.00000000000E+00  0.20987439094E+02  0.20987439248E+02  0.25500000000E-02 0.  1.
          2   -1    0    0  501    0  0.00000000000E+00 -0.00000000000E+00 -0.93050538948E+02  0.93050538983E+02  0.25500000000E-02 0. -1.
         23    2    1    2    0    0  0.35527136788E-14  0.71054273576E-14 -0.72063099854E+02  0.11403797823E+03  0.88383087287E+02 0.  0.
    9000005    2    3    3    0    0  0.17500848557E+02  0.38467155792E+02 -0.26440657844E+02  0.51849482592E+02  0.14256881946E+02 0.  0.
         22    1    3    3    0    0 -0.17500848557E+02 -0.38467155792E+02 -0.45622442010E+02  0.62188495640E+02  0.00000000000E+00 0. -1.
         22    1    4    4    0    0 -0.65897782839E+00 -0.90833282144E+00 -0.13371363290E+01  0.17456385236E+01  0.00000000000E+00 0.  1.
         22    1    4    4    0    0  0.18159826385E+02  0.39375488614E+02 -0.25103521515E+02  0.50103844068E+02  0.00000000000E+00 0.  1.
<mgrwt>
<rscale>  0 0.88383087E+02</rscale>
<asrwt>0</asrwt>
<pdfrwt beam="2">  1        2 0.14315467E-01 0.88383087E+02</pdfrwt>
<pdfrwt beam="1">  1       -2 0.32288368E-02 0.88383087E+02</pdfrwt>
<totfact> 0.13077644E+05</totfact>
</mgrwt>
</event>
<event>
 7    1  0.3480999E-009  0.9072141E+02  0.7818608E-02  0.1301114E+00
          2   -1    0    0  501    0  0.00000000000E+00  0.00000000000E+00  0.69996914531E+02  0.69996914577E+02  0.25500000000E-02 0.  1.
         -2   -1    0    0    0  501 -0.00000000000E+00 -0.00000000000E+00 -0.29395487080E+02  0.29395487191E+02  0.25500000000E-02 0. -1.
         23    2    1    2    0    0  0.00000000000E+00  0.00000000000E+00  0.40601427451E+02  0.99392401768E+02  0.90721406615E+02 0.  0.
    9000005    2    3    3    0    0 -0.40915663916E+02 -0.27474337787E+01  0.13030923955E+01  0.42594522545E+02  0.11443572650E+02 0.  0.
         22    1    3    3    0    0  0.40915663916E+02  0.27474337787E+01  0.39298335055E+02  0.56797879223E+02  0.00000000000E+00 0.  1.
         22    1    4    4    0    0 -0.36260532662E+01 -0.38233026723E+01  0.19473316575E+00  0.52729333979E+01  0.00000000000E+00 0. -1.
         22    1    4    4    0    0 -0.37289610650E+02  0.10758688936E+01  0.11083592297E+01  0.37321589147E+02  0.00000000000E+00 0. -1.
<mgrwt>
<rscale>  0 0.90721407E+02</rscale>
<asrwt>0</asrwt>
<pdfrwt beam="1">  1        2 0.10768756E-01 0.90721407E+02</pdfrwt>
<pdfrwt beam="2">  1       -2 0.45223827E-02 0.90721407E+02</pdfrwt>
<totfact> 0.11217753E+05</totfact>
</mgrwt>
</event>
<event>
 7    1  0.3480999E-009  0.9125555E+02  0.7818608E-02  0.1299839E+00
          2   -1    0    0  501    0  0.00000000000E+00  0.00000000000E+00  0.20867404308E+02  0.20867404464E+02  0.25500000000E-02 0. -1.
         -2   -1    0    0    0  501 -0.00000000000E+00 -0.00000000000E+00 -0.99767734636E+02  0.99767734668E+02  0.25500000000E-02 0.  1.
         23    2    1    2    0    0  0.00000000000E+00  0.00000000000E+00 -0.78900330327E+02  0.12063513913E+03  0.91255545956E+02 0.  0.
    9000005    2    3    3    0    0 -0.30668545378E+02  0.28814327980E+02 -0.60607141201E+02  0.74749782634E+02  0.11978283131E+02 0.  0.
         22    1    3    3    0    0  0.30668545378E+02 -0.28814327980E+02 -0.18293189126E+02  0.45885356498E+02  0.00000000000E+00 0. -1.
         22    1    4    4    0    0 -0.10665307487E+02  0.14678259747E+02 -0.17722886980E+02  0.25363375483E+02  0.00000000000E+00 0.  1.
         22    1    4    4    0    0 -0.20003237891E+02  0.14136068234E+02 -0.42884254221E+02  0.49386407151E+02  0.00000000000E+00 0.  1.
<mgrwt>
<rscale>  0 0.91255546E+02</rscale>
<asrwt>0</asrwt>
<pdfrwt beam="1">  1        2 0.32103700E-02 0.91255546E+02</pdfrwt>
<pdfrwt beam="2">  1       -2 0.15348882E-01 0.91255546E+02</pdfrwt>
<totfact> 0.79690179E+04</totfact>
</mgrwt>
</event>
<event>
 7    1  0.3480999E-009  0.9069117E+02  0.7818608E-02  0.1301187E+00
          2   -1    0    0  501    0  0.00000000000E+00  0.00000000000E+00  0.66390555824E+03  0.66390555824E+03  0.25500000000E-02 0. -1.
         -2   -1    0    0    0  501 -0.00000000000E+00 -0.00000000000E+00 -0.30971598235E+01  0.30971608732E+01  0.25500000000E-02 0.  1.
         23    2    1    2    0    0  0.00000000000E+00  0.00000000000E+00  0.66080839841E+03  0.66700271911E+03  0.90691167669E+02 0.  0.
    9000005    2    3    3    0    0 -0.14263950482E+02  0.10262316415E+02  0.63718027520E+03  0.63755677494E+03  0.13082918343E+02 0.  0.
         22    1    3    3    0    0  0.14263950482E+02 -0.10262316415E+02  0.23628123217E+02  0.29445944174E+02  0.00000000000E+00 0.  1.
         22    1    4    4    0    0 -0.13603931635E+02  0.13157023471E+02  0.54297603665E+03  0.54330576161E+03  0.00000000000E+00 0. -1.
         22    1    4    4    0    0 -0.66001884650E+00 -0.28947070560E+01  0.94204238549E+02  0.94251013334E+02  0.00000000000E+00 0. -1.
<mgrwt>
<rscale>  0 0.90691168E+02</rscale>
<asrwt>0</asrwt>
<pdfrwt beam="1">  1        2 0.10213936E+00 0.90691168E+02</pdfrwt>
<pdfrwt beam="2">  1       -2 0.47648602E-03 0.90691168E+02</pdfrwt>
<totfact> 0.23743922E+05</totfact>
</mgrwt>
</event>
<event>
 7    1  0.3480999E-009  0.9202815E+02  0.7818608E-02  0.1298013E+00
         -2   -1    0    0    0  501 -0.00000000000E+00  0.00000000000E+00  0.14564668453E+03  0.14564668456E+03  0.25500000000E-02 0. -1.
          2   -1    0    0  501    0  0.00000000000E+00 -0.00000000000E+00 -0.14537200327E+02  0.14537200551E+02  0.25500000000E-02 0.  1.
         23    2    1    2    0    0  0.00000000000E+00  0.00000000000E+00  0.13110948421E+03  0.16018388511E+03  0.92028148949E+02 0.  0.
    9000005    2    3    3    0    0 -0.39586323352E+02 -0.95952371486E+01  0.31012032576E+02  0.52116103621E+02  0.97568703827E+01 0.  0.
         22    1    3    3    0    0  0.39586323352E+02  0.95952371486E+01  0.10009745163E+03  0.10806778149E+03  0.00000000000E+00 0.  1.
         22    1    4    4    0    0 -0.26022428646E+02 -0.10367320701E+02  0.17948701180E+02  0.33268664013E+02  0.00000000000E+00 0.  1.
         22    1    4    4    0    0 -0.13563894705E+02  0.77208355290E+00  0.13063331396E+02  0.18847439608E+02  0.00000000000E+00 0.  1.
<mgrwt>
<rscale>  0 0.92028149E+02</rscale>
<asrwt>0</asrwt>
<pdfrwt beam="2">  1        2 0.22364924E-02 0.92028149E+02</pdfrwt>
<pdfrwt beam="1">  1       -2 0.22407182E-01 0.92028149E+02</pdfrwt>
<totfact> 0.68961762E+04</totfact>
</mgrwt>
</event>
<event>
 7    1  0.3480999E-009  0.9086712E+02  0.7818608E-02  0.1300765E+00
          2   -1    0    0  501    0  0.00000000000E+00  0.00000000000E+00  0.12114086836E+03  0.12114086839E+03  0.25500000000E-02 0. -1.
         -2   -1    0    0    0  501 -0.00000000000E+00 -0.00000000000E+00 -0.17039736899E+02  0.17039737090E+02  0.25500000000E-02 0.  1.
         23    2    1    2    0    0  0.00000000000E+00  0.17763568394E-14  0.10410113146E+03  0.13818060548E+03  0.90867123639E+02 0.  0.
    9000005    2    3    3    0    0  0.28191007077E+02  0.11940378744E+02  0.29392049217E+01  0.32487460449E+02  0.10463777343E+02 0.  0.
         22    1    3    3    0    0 -0.28191007077E+02 -0.11940378744E+02  0.10116192654E+03  0.10569314503E+03  0.00000000000E+00 0. -1.
         22    1    4    4    0    0  0.14711865319E+02  0.11619089558E+02  0.31122673288E+01  0.19003379469E+02  0.00000000000E+00 0. -1.
         22    1    4    4    0    0  0.13479141759E+02  0.32128918569E+00 -0.17306240710E+00  0.13484080980E+02  0.00000000000E+00 0. -1.
<mgrwt>
<rscale>  0 0.90867124E+02</rscale>
<asrwt>0</asrwt>
<pdfrwt beam="1">  1        2 0.18637057E-01 0.90867124E+02</pdfrwt>
<pdfrwt beam="2">  1       -2 0.26214980E-02 0.90867124E+02</pdfrwt>
<totfact> 0.13147539E+05</totfact>
</mgrwt>
</event>
<event>
 7    1  0.3480999E-009  0.9153708E+02  0.7818608E-02  0.1299172E+00
         -2   -1    0    0    0  501 -0.00000000000E+00  0.00000000000E+00  0.14207869678E+02  0.14207869907E+02  0.25500000000E-02 0.  1.
          2   -1    0    0  501    0  0.00000000000E+00 -0.00000000000E+00 -0.14743654299E+03  0.14743654301E+03  0.25500000000E-02 0. -1.
         23    2    1    2    0    0  0.17763568394E-14  0.00000000000E+00 -0.13322867331E+03  0.16164441292E+03  0.91537079020E+02 0.  0.
    9000005    2    3    3    0    0  0.13804977515E+02 -0.18408645560E+02  0.30756899773E+01  0.23411511311E+02  0.30304054962E+01 0.  0.
         22    1    3    3    0    0 -0.13804977515E+02  0.18408645560E+02 -0.13630436329E+03  0.13823290161E+03  0.00000000000E+00 0. -1.
         22    1    4    4    0    0  0.29668367815E+01 -0.50753004484E+01 -0.35567352111E+00  0.58895924124E+01  0.00000000000E+00 0. -1.
         22    1    4    4    0    0  0.10838140733E+02 -0.13333345112E+02  0.34313634984E+01  0.17521918898E+02  0.00000000000E+00 0. -1.
<mgrwt>
<rscale>  0 0.91537079E+02</rscale>
<asrwt>0</asrwt>
<pdfrwt beam="2">  1        2 0.22682544E-01 0.91537079E+02</pdfrwt>
<pdfrwt beam="1">  1       -2 0.21858262E-02 0.91537079E+02</pdfrwt>
<totfact> 0.13751188E+05</totfact>
</mgrwt>
</event>
<event>
 7    1  0.3480999E-009  0.9899838E+02  0.7818608E-02  0.1282416E+00
         -2   -1    0    0    0  501 -0.00000000000E+00  0.00000000000E+00  0.11695062887E+02  0.11695063165E+02  0.25500000000E-02 0.  1.
          2   -1    0    0  501    0  0.00000000000E+00 -0.00000000000E+00 -0.20950463490E+03  0.20950463491E+03  0.25500000000E-02 0. -1.
         23    2    1    2    0    0  0.00000000000E+00  0.00000000000E+00 -0.19780957201E+03  0.22119969808E+03  0.98998382061E+02 0.  0.
    9000005    2    3    3    0    0  0.13037214292E+02 -0.12096386130E+02 -0.20174583561E+03  0.20298471290E+03  0.13605880026E+02 0.  0.
         22    1    3    3    0    0 -0.13037214292E+02  0.12096386130E+02  0.39362635990E+01  0.18214985178E+02  0.00000000000E+00 0.  1.
         22    1    4    4    0    0  0.75714614907E+01 -0.61387685810E+01 -0.45621948858E+02  0.46651620833E+02  0.00000000000E+00 0.  1.
         22    1    4    4    0    0  0.54657528015E+01 -0.59576175491E+01 -0.15612388675E+03  0.15633309207E+03  0.00000000000E+00 0.  1.
<mgrwt>
<rscale>  0 0.98998382E+02</rscale>
<asrwt>0</asrwt>
<pdfrwt beam="2">  1        2 0.32231480E-01 0.98998382E+02</pdfrwt>
<pdfrwt beam="1">  1       -2 0.17992406E-02 0.98998382E+02</pdfrwt>
<totfact> 0.12592051E+05</totfact>
</mgrwt>
</event>
<event>
 7    1  0.3480999E-009  0.9242323E+02  0.7818608E-02  0.1297087E+00
          2   -1    0    0  501    0  0.00000000000E+00  0.00000000000E+00  0.73164652827E+03  0.73164652827E+03  0.25500000000E-02 0. -1.
         -2   -1    0    0    0  501 -0.00000000000E+00 -0.00000000000E+00 -0.29187769878E+01  0.29187781017E+01  0.25500000000E-02 0.  1.
         23    2    1    2    0    0  0.00000000000E+00  0.00000000000E+00  0.72872775128E+03  0.73456530638E+03  0.92423232159E+02 0.  0.
    9000005    2    3    3    0    0 -0.28752689477E+02 -0.20508860878E+02  0.59858511783E+03  0.59971562870E+03  0.10361539277E+02 0.  0.
         22    1    3    3    0    0  0.28752689477E+02  0.20508860878E+02  0.13014263345E+03  0.13484967767E+03  0.00000000000E+00 0.  1.
         22    1    4    4    0    0 -0.13667320914E+02 -0.15628786372E+02  0.36908193774E+03  0.36966543169E+03  0.00000000000E+00 0. -1.
         22    1    4    4    0    0 -0.15085368563E+02 -0.48800745069E+01  0.22950318009E+03  0.23005019701E+03  0.00000000000E+00 0. -1.
<mgrwt>
<rscale>  0 0.92423232E+02</rscale>
<asrwt>0</asrwt>
<pdfrwt beam="1">  1        2 0.11256120E+00 0.92423232E+02</pdfrwt>
<pdfrwt beam="2">  1       -2 0.44904191E-03 0.92423232E+02</pdfrwt>
<totfact> 0.23107677E+05</totfact>
</mgrwt>
</event>
<event>
 7    1  0.3480999E-009  0.8826658E+02  0.7818608E-02  0.1307105E+00
          2   -1    0    0  501    0  0.00000000000E+00  0.00000000000E+00  0.39552402201E+02  0.39552402284E+02  0.25500000000E-02 0.  1.
         -2   -1    0    0    0  501 -0.00000000000E+00 -0.00000000000E+00 -0.49244727564E+02  0.49244727630E+02  0.25500000000E-02 0. -1.
         23    2    1    2    0    0  0.00000000000E+00  0.00000000000E+00 -0.96923253629E+01  0.88797129914E+02  0.88266579802E+02 0.  0.
    9000005    2    3    3    0    0  0.19717678614E+02  0.19323572416E+02 -0.39096621639E+02  0.48463521839E+02  0.76144484091E+01 0.  0.
         22    1    3    3    0    0 -0.19717678614E+02 -0.19323572416E+02  0.29404296276E+02  0.40333608075E+02  0.00000000000E+00 0.  1.
         22    1    4    4    0    0  0.20102992704E+02  0.19664758682E+02 -0.38312248859E+02  0.47525377035E+02  0.00000000000E+00 0.  1.
         22    1    4    4    0    0 -0.38531408907E+00 -0.34118626600E+00 -0.78437277990E+00  0.93814480396E+00  0.00000000000E+00 0.  1.
<mgrwt>
<rscale>  0 0.88266580E+02</rscale>
<asrwt>0</asrwt>
<pdfrwt beam="1">  1        2 0.60849850E-02 0.88266580E+02</pdfrwt>
<pdfrwt beam="2">  1       -2 0.75761119E-02 0.88266580E+02</pdfrwt>
<totfact> 0.10444734E+05</totfact>
</mgrwt>
</event>
<event>
 7    1  0.3480999E-009  0.9417921E+02  0.7818608E-02  0.1293035E+00
          2   -1    0    0  501    0  0.00000000000E+00  0.00000000000E+00  0.14046315512E+02  0.14046315743E+02  0.25500000000E-02 0. -1.
         -2   -1    0    0    0  501 -0.00000000000E+00 -0.00000000000E+00 -0.15786565261E+03  0.15786565263E+03  0.25500000000E-02 0.  1.
         23    2    1    2    0    0  0.00000000000E+00  0.00000000000E+00 -0.14381933710E+03  0.17191196838E+03  0.94179207614E+02 0.  0.
    9000005    2    3    3    0    0  0.81366281749E+01 -0.81751596722E+01 -0.15516354922E+03  0.15573392454E+03  0.66550954131E+01 0.  0.
         22    1    3    3    0    0 -0.81366281749E+01  0.81751596722E+01  0.11344212115E+02  0.16178043832E+02  0.00000000000E+00 0. -1.
         22    1    4    4    0    0  0.14643741600E+01  0.90995097330E+00 -0.35128581755E+02  0.35170863773E+02  0.00000000000E+00 0.  1.
         22    1    4    4    0    0  0.66722540149E+01 -0.90851106455E+01 -0.12003496746E+03  0.12056306077E+03  0.00000000000E+00 0.  1.
<mgrwt>
<rscale>  0 0.94179208E+02</rscale>
<asrwt>0</asrwt>
<pdfrwt beam="1">  1        2 0.21609718E-02 0.94179208E+02</pdfrwt>
<pdfrwt beam="2">  1       -2 0.24287022E-01 0.94179208E+02</pdfrwt>
<totfact> 0.63137590E+04</totfact>
</mgrwt>
</event>
<event>
 7    1  0.3480999E-009  0.9027044E+02  0.7818608E-02  0.1302198E+00
         -2   -1    0    0    0  501 -0.00000000000E+00  0.00000000000E+00  0.37464379680E+01  0.37464388358E+01  0.25500000000E-02 0.  1.
          2   -1    0    0  501    0  0.00000000000E+00 -0.00000000000E+00 -0.54376660625E+03  0.54376660626E+03  0.25500000000E-02 0. -1.
         23    2    1    2    0    0  0.00000000000E+00  0.00000000000E+00 -0.54002016828E+03  0.54751304509E+03  0.90270440314E+02 0.  0.
    9000005    2    3    3    0    0  0.40025441831E+02 -0.11718422614E+02 -0.35843893707E+03  0.36120389086E+03  0.15824719331E+02 0.  0.
         22    1    3    3    0    0 -0.40025441831E+02  0.11718422614E+02 -0.18158123121E+03  0.18630915423E+03  0.00000000000E+00 0.  1.
         22    1    4    4    0    0  0.56006346442E+01 -0.79084617311E+01 -0.96416247531E+02  0.96902031265E+02  0.00000000000E+00 0.  1.
         22    1    4    4    0    0  0.34424807186E+02 -0.38099608826E+01 -0.26202268954E+03  0.26430185960E+03  0.00000000000E+00 0.  1.
<mgrwt>
<rscale>  0 0.90270440E+02</rscale>
<asrwt>0</asrwt>
<pdfrwt beam="2">  1        2 0.83656338E-01 0.90270440E+02</pdfrwt>
<pdfrwt beam="1">  1       -2 0.57637557E-03 0.90270440E+02</pdfrwt>
<totfact> 0.22721779E+05</totfact>
</mgrwt>
</event>
<event>
 7    1  0.3480999E-009  0.9179717E+02  0.7818608E-02  0.1298557E+00
         -2   -1    0    0    0  501 -0.00000000000E+00  0.00000000000E+00  0.27583976789E+01  0.27583988576E+01  0.25500000000E-02 0.  1.
          2   -1    0    0  501    0  0.00000000000E+00 -0.00000000000E+00 -0.76373304580E+03  0.76373304580E+03  0.25500000000E-02 0. -1.
         23    2    1    2    0    0  0.00000000000E+00  0.00000000000E+00 -0.76097464812E+03  0.76649144466E+03  0.91797165843E+02 0.  0.
    9000005    2    3    3    0    0 -0.32968461747E+02  0.18397258471E+02 -0.59507904748E+03  0.59635406223E+03  0.96807126522E+01 0.  0.
         22    1    3    3    0    0  0.32968461747E+02 -0.18397258471E+02 -0.16589560064E+03  0.17013738243E+03  0.00000000000E+00 0. -1.
         22    1    4    4    0    0 -0.15583798853E+02  0.13133785022E+02 -0.27010033020E+03  0.27086812192E+03  0.00000000000E+00 0. -1.
         22    1    4    4    0    0 -0.17384662894E+02  0.52634734495E+01 -0.32497871728E+03  0.32548594031E+03  0.00000000000E+00 0. -1.
<mgrwt>
<rscale>  0 0.91797166E+02</rscale>
<asrwt>0</asrwt>
<pdfrwt beam="2">  1        2 0.11749722E+00 0.91797166E+02</pdfrwt>
<pdfrwt beam="1">  1       -2 0.42436957E-03 0.91797166E+02</pdfrwt>
<totfact> 0.23735631E+05</totfact>
</mgrwt>
</event>
<event>
 7    1  0.3480999E-009  0.9069542E+02  0.7818608E-02  0.1301176E+00
          2   -1    0    0  501    0  0.00000000000E+00  0.00000000000E+00  0.90139535938E+02  0.90139535974E+02  0.25500000000E-02 0. -1.
         -2   -1    0    0    0  501 -0.00000000000E+00 -0.00000000000E+00 -0.22813683023E+02  0.22813683165E+02  0.25500000000E-02 0.  1.
         23    2    1    2    0    0  0.00000000000E+00  0.00000000000E+00  0.67325852915E+02  0.11295321914E+03  0.90695420188E+02 0.  0.
    9000005    2    3    3    0    0 -0.34108553634E+02 -0.28072831648E+02  0.27234176743E+02  0.53297374445E+02  0.12142175757E+02 0.  0.
         22    1    3    3    0    0  0.34108553634E+02  0.28072831648E+02  0.40091676172E+02  0.59655844693E+02  0.00000000000E+00 0.  1.
         22    1    4    4    0    0 -0.43698973212E+01 -0.59049682364E+01  0.99713919257E+01  0.12385205263E+02  0.00000000000E+00 0. -1.
         22    1    4    4    0    0 -0.29738656313E+02 -0.22167863412E+02  0.17262784817E+02  0.40912169182E+02  0.00000000000E+00 0. -1.
<mgrwt>
<rscale>  0 0.90695420E+02</rscale>
<asrwt>0</asrwt>
<pdfrwt beam="1">  1        2 0.13867621E-01 0.90695420E+02</pdfrwt>
<pdfrwt beam="2">  1       -2 0.35097974E-02 0.90695420E+02</pdfrwt>
<totfact> 0.12066469E+05</totfact>
</mgrwt>
</event>
<event>
 7    1  0.3480999E-009  0.9183074E+02  0.7818608E-02  0.1298478E+00
          2   -1    0    0  501    0  0.00000000000E+00  0.00000000000E+00  0.84663756921E+01  0.84663760761E+01  0.25500000000E-02 0. -1.
         -2   -1    0    0    0  501 -0.00000000000E+00 -0.00000000000E+00 -0.24901104628E+03  0.24901104629E+03  0.25500000000E-02 0.  1.
         23    2    1    2    0    0  0.00000000000E+00  0.00000000000E+00 -0.24054467059E+03  0.25747742237E+03  0.91830738218E+02 0.  0.
    9000005    2    3    3    0    0  0.10465232030E+01 -0.40728210941E+02 -0.64533178222E+02  0.76812185475E+02  0.87004809445E+01 0.  0.
         22    1    3    3    0    0 -0.10465232030E+01  0.40728210941E+02 -0.17601149237E+03  0.18066523690E+03  0.00000000000E+00 0.  1.
         22    1    4    4    0    0  0.28923994183E+01 -0.69368990994E+01 -0.15607591906E+02  0.17322917439E+02  0.00000000000E+00 0.  1.
         22    1    4    4    0    0 -0.18458762153E+01 -0.33791311842E+02 -0.48925586316E+02  0.59489268035E+02  0.00000000000E+00 0.  1.
<mgrwt>
<rscale>  0 0.91830738E+02</rscale>
<asrwt>0</asrwt>
<pdfrwt beam="1">  1        2 0.13025196E-02 0.91830738E+02</pdfrwt>
<pdfrwt beam="2">  1       -2 0.38309386E-01 0.91830738E+02</pdfrwt>
<totfact> 0.55264253E+04</totfact>
</mgrwt>
</event>
<event>
 7    1  0.3480999E-009  0.9262126E+02  0.7818608E-02  0.1296625E+00
         -2   -1    0    0    0  501 -0.00000000000E+00  0.00000000000E+00  0.55458960218E+01  0.55458966080E+01  0.25500000000E-02 0.  1.
          2   -1    0    0  501    0  0.00000000000E+00 -0.00000000000E+00 -0.38671380154E+03  0.38671380155E+03  0.25500000000E-02 0. -1.
         23    2    1    2    0    0  0.00000000000E+00 -0.17763568394E-14 -0.38116790552E+03  0.39225969816E+03  0.92621264301E+02 0.  0.
    9000005    2    3    3    0    0 -0.37780859963E+02 -0.15719867859E+02 -0.27845104627E+03  0.28169179685E+03  0.11864890233E+02 0.  0.
         22    1    3    3    0    0  0.37780859963E+02  0.15719867859E+02 -0.10271685926E+03  0.11056790131E+03  0.00000000000E+00 0.  1.
         22    1    4    4    0    0 -0.38597747213E+02 -0.15681280893E+02 -0.27538510052E+03  0.27851865691E+03  0.00000000000E+00 0. -1.
         22    1    4    4    0    0  0.81688724993E+00 -0.38586965630E-01 -0.30659457453E+01  0.31731399348E+01  0.00000000000E+00 0. -1.
<mgrwt>
<rscale>  0 0.92621264E+02</rscale>
<asrwt>0</asrwt>
<pdfrwt beam="2">  1        2 0.59494410E-01 0.92621264E+02</pdfrwt>
<pdfrwt beam="1">  1       -2 0.85321512E-03 0.92621264E+02</pdfrwt>
<totfact> 0.18914237E+05</totfact>
</mgrwt>
</event>
<event>
 7    1  0.3480999E-009  0.9107877E+02  0.7818608E-02  0.1300260E+00
          2   -1    0    0  501    0  0.00000000000E+00  0.00000000000E+00  0.54754439029E+03  0.54754439029E+03  0.25500000000E-02 0. -1.
         -2   -1    0    0    0  501 -0.00000000000E+00 -0.00000000000E+00 -0.37875199743E+01  0.37875208327E+01  0.25500000000E-02 0.  1.
         23    2    1    2    0    0  0.00000000000E+00  0.00000000000E+00  0.54375687031E+03  0.55133191113E+03  0.91078769278E+02 0.  0.
    9000005    2    3    3    0    0 -0.77097187398E+01 -0.41210259103E+02  0.36643426003E+03  0.36912040398E+03  0.14767548649E+02 0.  0.
         22    1    3    3    0    0  0.77097187398E+01  0.41210259103E+02  0.17732261028E+03  0.18221150714E+03  0.00000000000E+00 0.  1.
         22    1    4    4    0    0 -0.89575110092E+01 -0.16922361252E+02  0.12402496655E+03  0.12549420561E+03  0.00000000000E+00 0. -1.
         22    1    4    4    0    0  0.12477922694E+01 -0.24287897851E+02  0.24240929348E+03  0.24362619837E+03  0.00000000000E+00 0. -1.
<mgrwt>
<rscale>  0 0.91078769E+02</rscale>
<asrwt>0</asrwt>
<pdfrwt beam="1">  1        2 0.84237651E-01 0.91078769E+02</pdfrwt>
<pdfrwt beam="2">  1       -2 0.58269508E-03 0.91078769E+02</pdfrwt>
<totfact> 0.22240322E+05</totfact>
</mgrwt>
</event>
<event>
 7    1  0.3480999E-009  0.8926167E+02  0.7818608E-02  0.1304650E+00
          2   -1    0    0  501    0  0.00000000000E+00  0.00000000000E+00  0.65169263057E+02  0.65169263107E+02  0.25500000000E-02 0. -1.
         -2   -1    0    0    0  501 -0.00000000000E+00 -0.00000000000E+00 -0.30565200625E+02  0.30565200731E+02  0.25500000000E-02 0.  1.
         23    2    1    2    0    0  0.00000000000E+00  0.00000000000E+00  0.34604062433E+02  0.95734463838E+02  0.89261673912E+02 0.  0.
    9000005    2    3    3    0    0 -0.28726262435E+02 -0.21806447758E+02 -0.82208272970E+01  0.39746157044E+02  0.14541515774E+02 0.  0.
         22    1    3    3    0    0  0.28726262435E+02  0.21806447758E+02  0.42824889730E+02  0.55988306794E+02  0.00000000000E+00 0. -1.
         22    1    4    4    0    0 -0.43823832906E+01 -0.11407208634E+02 -0.76395060690E+00  0.12243909206E+02  0.00000000000E+00 0. -1.
         22    1    4    4    0    0 -0.24343879144E+02 -0.10399239124E+02 -0.74568766901E+01  0.27502247838E+02  0.00000000000E+00 0. -1.
<mgrwt>
<rscale>  0 0.89261674E+02</rscale>
<asrwt>0</asrwt>
<pdfrwt beam="1">  1        2 0.10026040E-01 0.89261674E+02</pdfrwt>
<pdfrwt beam="2">  1       -2 0.47023386E-02 0.89261674E+02</pdfrwt>
<totfact> 0.11511097E+05</totfact>
</mgrwt>
</event>
<event>
 7    1  0.3480999E-009  0.9400264E+02  0.7818608E-02  0.1293438E+00
          2   -1    0    0  501    0  0.00000000000E+00  0.00000000000E+00  0.33766861363E+03  0.33766861364E+03  0.25500000000E-02 0. -1.
         -2   -1    0    0    0  501 -0.00000000000E+00 -0.00000000000E+00 -0.65422838868E+01  0.65422843838E+01  0.25500000000E-02 0.  1.
         23    2    1    2    0    0  0.00000000000E+00 -0.35527136788E-14  0.33112632974E+03  0.34421089802E+03  0.94002638627E+02 0.  0.
    9000005    2    3    3    0    0 -0.35419464287E+02 -0.28430810326E+02  0.19593908076E+03  0.20159798937E+03  0.13666620787E+02 0.  0.
         22    1    3    3    0    0  0.35419464287E+02  0.28430810326E+02  0.13518724898E+03  0.14261290865E+03  0.00000000000E+00 0.  1.
         22    1    4    4    0    0 -0.29744881064E+02 -0.20828795291E+02  0.17308856671E+03  0.17685657632E+03  0.00000000000E+00 0. -1.
         22    1    4    4    0    0 -0.56745832230E+01 -0.76020150350E+01  0.22850514047E+02  0.24741413047E+02  0.00000000000E+00 0. -1.
<mgrwt>
<rscale>  0 0.94002639E+02</rscale>
<asrwt>0</asrwt>
<pdfrwt beam="1">  1        2 0.51949031E-01 0.94002639E+02</pdfrwt>
<pdfrwt beam="2">  1       -2 0.10065050E-02 0.94002639E+02</pdfrwt>
<totfact> 0.17302805E+05</totfact>
</mgrwt>
</event>
<event>
 7    1  0.3480999E-009  0.1046134E+03  0.7818608E-02  0.1270883E+00
          2   -1    0    0  501    0  0.00000000000E+00  0.00000000000E+00  0.33753707508E+02  0.33753707605E+02  0.25500000000E-02 0. -1.
         -2   -1    0    0    0  501 -0.00000000000E+00 -0.00000000000E+00 -0.81057498339E+02  0.81057498379E+02  0.25500000000E-02 0.  1.
         23    2    1    2    0    0  0.00000000000E+00 -0.22204460493E-15 -0.47303790831E+02  0.11481120598E+03  0.10461340446E+03 0.  0.
    9000005    2    3    3    0    0  0.50071284174E+02  0.10564432940E+01 -0.92489851578E+01  0.51911143933E+02  0.10048560429E+02 0.  0.
         22    1    3    3    0    0 -0.50071284174E+02 -0.10564432940E+01 -0.38054805673E+02  0.62900062051E+02  0.00000000000E+00 0.  1.
         22    1    4    4    0    0  0.43470429992E+02 -0.24004302057E+01 -0.67795937412E+01  0.44061357675E+02  0.00000000000E+00 0. -1.
         22    1    4    4    0    0  0.66008541819E+01  0.34568734998E+01 -0.24693914166E+01  0.78497862578E+01  0.00000000000E+00 0. -1.
<mgrwt>
<rscale>  0 0.10461340E+03</rscale>
<asrwt>0</asrwt>
<pdfrwt beam="1">  1        2 0.51928781E-02 0.10461340E+03</pdfrwt>
<pdfrwt beam="2">  1       -2 0.12470384E-01 0.10461340E+03</pdfrwt>
<totfact> 0.60517443E+04</totfact>
</mgrwt>
</event>
<event>
 7    1  0.3480999E-009  0.9017274E+02  0.7818608E-02  0.1302434E+00
          2   -1    0    0  501    0  0.00000000000E+00  0.00000000000E+00  0.15136592635E+02  0.15136592850E+02  0.25500000000E-02 0. -1.
         -2   -1    0    0    0  501 -0.00000000000E+00 -0.00000000000E+00 -0.13429579124E+03  0.13429579126E+03  0.25500000000E-02 0.  1.
         23    2    1    2    0    0  0.00000000000E+00  0.88817841970E-15 -0.11915919860E+03  0.14943238411E+03  0.90172738727E+02 0.  0.
    9000005    2    3    3    0    0  0.44310407321E+02  0.55951444008E+01 -0.57064595190E+02  0.72944099971E+02  0.83519972807E+01 0.  0.
         22    1    3    3    0    0 -0.44310407321E+02 -0.55951444008E+01 -0.62094603411E+02  0.76488284139E+02  0.00000000000E+00 0.  1.
         22    1    4    4    0    0  0.18986019892E+02 -0.16877086100E+01 -0.22767818820E+02  0.29693280140E+02  0.00000000000E+00 0.  1.
         22    1    4    4    0    0  0.25324387429E+02  0.72828530108E+01 -0.34296776370E+02  0.43250819831E+02  0.00000000000E+00 0.  1.
<mgrwt>
<rscale>  0 0.90172739E+02</rscale>
<asrwt>0</asrwt>
<pdfrwt beam="1">  1        2 0.23287067E-02 0.90172739E+02</pdfrwt>
<pdfrwt beam="2">  1       -2 0.20660890E-01 0.90172739E+02</pdfrwt>
<totfact> 0.74695276E+04</totfact>
</mgrwt>
</event>
<event>
 7    1  0.3480999E-009  0.9251342E+02  0.7818608E-02  0.1296877E+00
         -2   -1    0    0    0  501 -0.00000000000E+00  0.00000000000E+00  0.28977356381E+02  0.28977356494E+02  0.25500000000E-02 0.  1.
          2   -1    0    0  501    0  0.00000000000E+00 -0.00000000000E+00 -0.73839840803E+02  0.73839840847E+02  0.25500000000E-02 0. -1.
         23    2    1    2    0    0  0.00000000000E+00  0.88817841970E-15 -0.44862484422E+02  0.10281719734E+03  0.92513423677E+02 0.  0.
    9000005    2    3    3    0    0  0.17159015455E+02 -0.66173970230E+01 -0.69014430932E+02  0.72460348444E+02  0.12218374077E+02 0.  0.
         22    1    3    3    0    0 -0.17159015455E+02  0.66173970230E+01  0.24151946510E+02  0.30356848897E+02  0.00000000000E+00 0.  1.
         22    1    4    4    0    0  0.27102863156E+00  0.18755381427E+00  0.50118115312E+00  0.59984623081E+00  0.00000000000E+00 0.  1.
         22    1    4    4    0    0  0.16887986823E+02 -0.68049508373E+01 -0.69515612085E+02  0.71860502213E+02  0.00000000000E+00 0.  1.
<mgrwt>
<rscale>  0 0.92513424E+02</rscale>
<asrwt>0</asrwt>
<pdfrwt beam="2">  1        2 0.11359976E-01 0.92513424E+02</pdfrwt>
<pdfrwt beam="1">  1       -2 0.44580548E-02 0.92513424E+02</pdfrwt>
<totfact> 0.10780139E+05</totfact>
</mgrwt>
</event>
<event>
 7    1  0.3480999E-009  0.9031463E+02  0.7818608E-02  0.1302092E+00
         -2   -1    0    0    0  501 -0.00000000000E+00  0.00000000000E+00  0.25290634687E+03  0.25290634688E+03  0.25500000000E-02 0. -1.
          2   -1    0    0  501    0  0.00000000000E+00 -0.00000000000E+00 -0.80629969712E+01  0.80629973744E+01  0.25500000000E-02 0.  1.
         23    2    1    2    0    0  0.00000000000E+00  0.00000000000E+00  0.24484334990E+03  0.26096934426E+03  0.90314631442E+02 0.  0.
    9000005    2    3    3    0    0 -0.21609183074E+02  0.34957921484E+02  0.16997035905E+03  0.17555870191E+03  0.15553835315E+02 0.  0.
         22    1    3    3    0    0  0.21609183074E+02 -0.34957921484E+02  0.74872990850E+02  0.85410642349E+02  0.00000000000E+00 0.  1.
         22    1    4    4    0    0 -0.18959519756E+02  0.32391008010E+02  0.12698624938E+03  0.13241657117E+03  0.00000000000E+00 0.  1.
         22    1    4    4    0    0 -0.26496633175E+01  0.25669134745E+01  0.42984109672E+02  0.43142130740E+02  0.00000000000E+00 0.  1.
<mgrwt>
<rscale>  0 0.90314631E+02</rscale>
<asrwt>0</asrwt>
<pdfrwt beam="2">  1        2 0.12404610E-02 0.90314631E+02</pdfrwt>
<pdfrwt beam="1">  1       -2 0.38908671E-01 0.90314631E+02</pdfrwt>
<totfact> 0.57230745E+04</totfact>
</mgrwt>
</event>
<event>
 7    1  0.3480999E-009  0.9350725E+02  0.7818608E-02  0.1294574E+00
          2   -1    0    0  501    0  0.00000000000E+00  0.00000000000E+00  0.21996047666E+02  0.21996047814E+02  0.25500000000E-02 0. -1.
         -2   -1    0    0    0  501 -0.00000000000E+00 -0.00000000000E+00 -0.99377014486E+02  0.99377014519E+02  0.25500000000E-02 0.  1.
         23    2    1    2    0    0  0.00000000000E+00  0.00000000000E+00 -0.77380966820E+02  0.12137306233E+03  0.93507252308E+02 0.  0.
    9000005    2    3    3    0    0  0.41470371414E+02 -0.49948288126E+01 -0.63526358643E+02  0.77365219989E+02  0.14319182987E+02 0.  0.
         22    1    3    3    0    0 -0.41470371414E+02  0.49948288126E+01 -0.13854608176E+02  0.44007842344E+02  0.00000000000E+00 0. -1.
         22    1    4    4    0    0 -0.39092915328E+00 -0.21314222736E+01 -0.25387442507E+01  0.33378149861E+01  0.00000000000E+00 0. -1.
         22    1    4    4    0    0  0.41861300567E+02 -0.28634065390E+01 -0.60987614393E+02  0.74027405003E+02  0.00000000000E+00 0. -1.
<mgrwt>
<rscale>  0 0.93507252E+02</rscale>
<asrwt>0</asrwt>
<pdfrwt beam="1">  1        2 0.33840074E-02 0.93507252E+02</pdfrwt>
<pdfrwt beam="2">  1       -2 0.15288771E-01 0.93507252E+02</pdfrwt>
<totfact> 0.75086506E+04</totfact>
</mgrwt>
</event>
<event>
 7    1  0.3480999E-009  0.9195032E+02  0.7818608E-02  0.1298196E+00
          2   -1    0    0  501    0  0.00000000000E+00  0.00000000000E+00  0.99575987300E+01  0.99575990565E+01  0.25500000000E-02 0.  1.
         -2   -1    0    0    0  501 -0.00000000000E+00 -0.00000000000E+00 -0.21227157323E+03  0.21227157324E+03  0.25500000000E-02 0. -1.
         23    2    1    2    0    0  0.00000000000E+00  0.00000000000E+00 -0.20231397450E+03  0.22222917230E+03  0.91950316714E+02 0.  0.
    9000005    2    3    3    0    0  0.22728370993E+02 -0.22906063087E+02 -0.17870004178E+03  0.18224311982E+03  0.15413734662E+02 0.  0.
         22    1    3    3    0    0 -0.22728370993E+02  0.22906063087E+02 -0.23613932713E+02  0.39986052472E+02  0.00000000000E+00 0.  1.
         22    1    4    4    0    0  0.19428552170E+02 -0.19282588300E+02 -0.17055255058E+03  0.17273522906E+03  0.00000000000E+00 0. -1.
         22    1    4    4    0    0  0.32998188232E+01 -0.36234747871E+01 -0.81474912043E+01  0.95078907610E+01  0.00000000000E+00 0. -1.
<mgrwt>
<rscale>  0 0.91950317E+02</rscale>
<asrwt>0</asrwt>
<pdfrwt beam="1">  1        2 0.15319385E-02 0.91950317E+02</pdfrwt>
<pdfrwt beam="2">  1       -2 0.32657162E-01 0.91950317E+02</pdfrwt>
<totfact> 0.59404802E+04</totfact>
</mgrwt>
</event>
<event>
 6    1  0.3480999E-009  0.3394267E+03  0.7818608E-02  0.1067040E+00
          2   -1    0    0  501    0  0.00000000000E+00  0.00000000000E+00  0.24954406521E+03  0.24954406522E+03  0.25500000000E-02 0.  1.
         -2   -1    0    0    0  501 -0.00000000000E+00 -0.00000000000E+00 -0.11542097459E+03  0.11542097461E+03  0.25500000000E-02 0. -1.
    9000005    2    1    2    0    0  0.43817042805E+01 -0.15866619212E+03  0.24789571976E+01  0.15875073936E+03  0.12215426545E+01 0.  0.
         22    1    1    2    0    0 -0.43817042805E+01  0.15866619212E+03  0.13164413343E+03  0.20621430047E+03  0.00000000000E+00 0.  1.
         22    1    3    3    0    0  0.38953535095E+01 -0.14115923579E+03  0.18225980336E+01  0.14122473399E+03  0.00000000000E+00 0. -1.
         22    1    3    3    0    0  0.48635077101E+00 -0.17506956328E+02  0.65635916397E+00  0.17526005372E+02  0.00000000000E+00 0. -1.
<mgrwt>
<rscale>  0 0.33942669E+03</rscale>
<asrwt>0</asrwt>
<pdfrwt beam="1">  1        2 0.38391394E-01 0.33942669E+03</pdfrwt>
<pdfrwt beam="2">  1       -2 0.17757073E-01 0.33942669E+03</pdfrwt>
<totfact> 0.34532979E+03</totfact>
</mgrwt>
</event>
<event>
 7    1  0.3480999E-009  0.8612181E+02  0.7818608E-02  0.1312525E+00
          2   -1    0    0  501    0  0.00000000000E+00  0.00000000000E+00  0.37470912889E+03  0.37470912890E+03  0.25500000000E-02 0. -1.
         -2   -1    0    0    0  501 -0.00000000000E+00 -0.00000000000E+00 -0.49484815854E+01  0.49484822424E+01  0.25500000000E-02 0.  1.
         23    2    1    2    0    0  0.71054273576E-14  0.17763568394E-14  0.36976064730E+03  0.37965761114E+03  0.86121805614E+02 0.  0.
    9000005    2    3    3    0    0  0.33299446482E+02  0.15025714913E+02  0.28273197121E+03  0.28527214770E+03  0.10402185792E+02 0.  0.
         22    1    3    3    0    0 -0.33299446482E+02 -0.15025714913E+02  0.87028676099E+02  0.94385463437E+02  0.00000000000E+00 0.  1.
         22    1    4    4    0    0  0.24591726569E+02  0.12434621641E+02  0.24052760341E+03  0.24210101370E+03  0.00000000000E+00 0.  1.
         22    1    4    4    0    0  0.87077199125E+01  0.25910932718E+01  0.42204367793E+02  0.43171134004E+02  0.00000000000E+00 0.  1.
<mgrwt>
<rscale>  0 0.86121806E+02</rscale>
<asrwt>0</asrwt>
<pdfrwt beam="1">  1        2 0.57647559E-01 0.86121806E+02</pdfrwt>
<pdfrwt beam="2">  1       -2 0.76130490E-03 0.86121806E+02</pdfrwt>
<totfact> 0.22677130E+05</totfact>
</mgrwt>
</event>
<event>
 7    1  0.3480999E-009  0.9135065E+02  0.7818608E-02  0.1299613E+00
          2   -1    0    0  501    0  0.00000000000E+00  0.00000000000E+00  0.95675158956E+02  0.95675158990E+02  0.25500000000E-02 0. -1.
         -2   -1    0    0    0  501 -0.00000000000E+00 -0.00000000000E+00 -0.21805403711E+02  0.21805403860E+02  0.25500000000E-02 0.  1.
         23    2    1    2    0    0  0.00000000000E+00  0.00000000000E+00  0.73869755245E+02  0.11748056285E+03  0.91350653569E+02 0.  0.
    9000005    2    3    3    0    0 -0.28163788072E+02  0.24138766848E+02  0.66730160714E+01  0.40725883650E+02  0.15433386927E+02 0.  0.
         22    1    3    3    0    0  0.28163788072E+02 -0.24138766848E+02  0.67196739174E+02  0.76754679200E+02  0.00000000000E+00 0. -1.
         22    1    4    4    0    0 -0.26449524808E+02  0.14464763262E+02  0.67849831246E+01  0.30900529684E+02  0.00000000000E+00 0.  1.
         22    1    4    4    0    0 -0.17142632647E+01  0.96740035861E+01 -0.11196705326E+00  0.98253539654E+01  0.00000000000E+00 0.  1.
<mgrwt>
<rscale>  0 0.91350654E+02</rscale>
<asrwt>0</asrwt>
<pdfrwt beam="1">  1        2 0.14719255E-01 0.91350654E+02</pdfrwt>
<pdfrwt beam="2">  1       -2 0.33546775E-02 0.91350654E+02</pdfrwt>
<totfact> 0.12041093E+05</totfact>
</mgrwt>
</event>
<event>
 7    1  0.3480999E-009  0.9330520E+02  0.7818608E-02  0.1295039E+00
         -2   -1    0    0    0  501 -0.00000000000E+00  0.00000000000E+00  0.16073854870E+03  0.16073854872E+03  0.25500000000E-02 0.  1.
          2   -1    0    0  501    0  0.00000000000E+00 -0.00000000000E+00 -0.13540406539E+02  0.13540406779E+02  0.25500000000E-02 0. -1.
         23    2    1    2    0    0  0.71054273576E-14  0.11102230246E-15  0.14719814216E+03  0.17427895550E+03  0.93305204967E+02 0.  0.
    9000005    2    3    3    0    0  0.36151998841E+02  0.93734673396E+00  0.12690154935E+03  0.13280851640E+03  0.15041714086E+02 0.  0.
         22    1    3    3    0    0 -0.36151998841E+02 -0.93734673396E+00  0.20296592812E+02  0.41470439097E+02  0.00000000000E+00 0. -1.
         22    1    4    4    0    0  0.19782875923E+02  0.29606745132E+01  0.44744862020E+02  0.49012554009E+02  0.00000000000E+00 0.  1.
         22    1    4    4    0    0  0.16369122918E+02 -0.20233277793E+01  0.82156687327E+02  0.83795962391E+02  0.00000000000E+00 0.  1.
<mgrwt>
<rscale>  0 0.93305205E+02</rscale>
<asrwt>0</asrwt>
<pdfrwt beam="2">  1        2 0.20831395E-02 0.93305205E+02</pdfrwt>
<pdfrwt beam="1">  1       -2 0.24729007E-01 0.93305205E+02</pdfrwt>
<totfact> 0.64210073E+04</totfact>
</mgrwt>
</event>
<event>
 7    1  0.3480999E-009  0.9090202E+02  0.7818608E-02  0.1300682E+00
          2   -1    0    0  501    0  0.00000000000E+00  0.00000000000E+00  0.14160159744E+04  0.14160159744E+04  0.25500000000E-02 0. -1.
         -2   -1    0    0    0  501 -0.00000000000E+00 -0.00000000000E+00 -0.14588767692E+01  0.14588789978E+01  0.25500000000E-02 0.  1.
         23    2    1    2    0    0  0.00000000000E+00  0.00000000000E+00  0.14145570976E+04  0.14174748534E+04  0.90902021780E+02 0.  0.
    9000005    2    3    3    0    0  0.21028974714E+02 -0.13495495510E+02  0.12961005343E+04  0.12964116320E+04  0.13497348908E+02 0.  0.
         22    1    3    3    0    0 -0.21028974714E+02  0.13495495510E+02  0.11845656332E+03  0.12106322138E+03  0.00000000000E+00 0.  1.
         22    1    4    4    0    0  0.28512888024E+01 -0.84549057623E+01  0.30062464949E+03  0.30075703676E+03  0.00000000000E+00 0. -1.
         22    1    4    4    0    0  0.18177685912E+02 -0.50405897475E+01  0.99547588480E+03  0.99565459524E+03  0.00000000000E+00 0. -1.
<mgrwt>
<rscale>  0 0.90902022E+02</rscale>
<asrwt>0</asrwt>
<pdfrwt beam="1">  1        2 0.21784932E+00 0.90902022E+02</pdfrwt>
<pdfrwt beam="2">  1       -2 0.22444202E-03 0.90902022E+02</pdfrwt>
<totfact> 0.24252148E+05</totfact>
</mgrwt>
</event>
<event>
 7    1  0.3480999E-009  0.9076226E+02  0.7818608E-02  0.1301016E+00
          2   -1    0    0  501    0  0.00000000000E+00  0.00000000000E+00  0.78669926637E+01  0.78669930770E+01  0.25500000000E-02 0. -1.
         -2   -1    0    0    0  501 -0.00000000000E+00 -0.00000000000E+00 -0.26178327825E+03  0.26178327826E+03  0.25500000000E-02 0.  1.
         23    2    1    2    0    0  0.00000000000E+00  0.00000000000E+00 -0.25391628559E+03  0.26965027134E+03  0.90762264998E+02 0.  0.
    9000005    2    3    3    0    0 -0.36330957992E+01  0.14891054233E+02 -0.25385369008E+03  0.25432229693E+03  0.17865801441E+01 0.  0.
         22    1    3    3    0    0  0.36330957992E+01 -0.14891054233E+02 -0.62595507536E-01  0.15327974408E+02  0.00000000000E+00 0. -1.
         22    1    4    4    0    0 -0.39419884909E+00  0.36496837070E+00 -0.10838797016E+02  0.10852101889E+02  0.00000000000E+00 0.  1.
         22    1    4    4    0    0 -0.32388969501E+01  0.14526085862E+02 -0.24301489306E+03  0.24347019504E+03  0.00000000000E+00 0.  1.
<mgrwt>
<rscale>  0 0.90762265E+02</rscale>
<asrwt>0</asrwt>
<pdfrwt beam="1">  1        2 0.12103068E-02 0.90762265E+02</pdfrwt>
<pdfrwt beam="2">  1       -2 0.40274344E-01 0.90762265E+02</pdfrwt>
<totfact> 0.55527203E+04</totfact>
</mgrwt>
</event>
<event>
 7    1  0.3480999E-009  0.9067040E+02  0.7818608E-02  0.1301236E+00
          2   -1    0    0  501    0  0.00000000000E+00  0.00000000000E+00  0.45011053222E+02  0.45011053294E+02  0.25500000000E-02 0. -1.
         -2   -1    0    0    0  501 -0.00000000000E+00 -0.00000000000E+00 -0.45661683611E+02  0.45661683682E+02  0.25500000000E-02 0.  1.
         23    2    1    2    0    0  0.00000000000E+00  0.35527136788E-14 -0.65063038908E+00  0.90672736976E+02  0.90670402617E+02 0.  0.
    9000005    2    3    3    0    0 -0.30903082205E+02 -0.28478327621E+02 -0.16807690438E+02  0.45649784793E+02  0.59488452642E+01 0.  0.
         22    1    3    3    0    0  0.30903082205E+02  0.28478327621E+02  0.16157060049E+02  0.45022952183E+02  0.00000000000E+00 0. -1.
         22    1    4    4    0    0 -0.22386573641E+02 -0.23976922233E+02 -0.12648867765E+02  0.35157436410E+02  0.00000000000E+00 0. -1.
         22    1    4    4    0    0 -0.85165085635E+01 -0.45014053878E+01 -0.41588226729E+01  0.10492348384E+02  0.00000000000E+00 0. -1.
<mgrwt>
<rscale>  0 0.90670403E+02</rscale>
<asrwt>0</asrwt>
<pdfrwt beam="1">  1        2 0.69247774E-02 0.90670403E+02</pdfrwt>
<pdfrwt beam="2">  1       -2 0.70248745E-02 0.90670403E+02</pdfrwt>
<totfact> 0.99933280E+04</totfact>
</mgrwt>
</event>
<event>
 7    1  0.3480999E-009  0.8953096E+02  0.7818608E-02  0.1303992E+00
         -2   -1    0    0    0  501 -0.00000000000E+00  0.00000000000E+00  0.84015626244E+02  0.84015626283E+02  0.25500000000E-02 0.  1.
          2   -1    0    0  501    0  0.00000000000E+00 -0.00000000000E+00 -0.23852088751E+02  0.23852088888E+02  0.25500000000E-02 0. -1.
         23    2    1    2    0    0  0.00000000000E+00  0.00000000000E+00  0.60163537493E+02  0.10786771517E+03  0.89530959631E+02 0.  0.
    9000005    2    3    3    0    0 -0.26914295345E+02 -0.24741217610E+02  0.22538600035E+01  0.39383863865E+02  0.14474173735E+02 0.  0.
         22    1    3    3    0    0  0.26914295345E+02  0.24741217610E+02  0.57909677489E+02  0.68483851306E+02  0.00000000000E+00 0.  1.
         22    1    4    4    0    0 -0.26095548731E+02 -0.26602134449E+02  0.24261823731E+01  0.37343507892E+02  0.00000000000E+00 0.  1.
         22    1    4    4    0    0 -0.81874661389E+00  0.18609168385E+01 -0.17232236955E+00  0.20403559730E+01  0.00000000000E+00 0.  1.
<mgrwt>
<rscale>  0 0.89530960E+02</rscale>
<asrwt>0</asrwt>
<pdfrwt beam="2">  1        2 0.36695521E-02 0.89530960E+02</pdfrwt>
<pdfrwt beam="1">  1       -2 0.12925481E-01 0.89530960E+02</pdfrwt>
<totfact> 0.87778732E+04</totfact>
</mgrwt>
</event>
<event>
 7    1  0.3480999E-009  0.9096120E+02  0.7818608E-02  0.1300541E+00
          2   -1    0    0  501    0  0.00000000000E+00  0.00000000000E+00  0.36850065244E+03  0.36850065245E+03  0.25500000000E-02 0.  1.
         -2   -1    0    0    0  501 -0.00000000000E+00 -0.00000000000E+00 -0.56132456674E+01  0.56132462466E+01  0.25500000000E-02 0. -1.
         23    2    1    2    0    0 -0.71054273576E-14  0.00000000000E+00  0.36288740677E+03  0.37411389869E+03  0.90961196138E+02 0.  0.
    9000005    2    3    3    0    0 -0.37326713650E+02 -0.21416986213E+02  0.23633261911E+03  0.24044234177E+03  0.10365423795E+02 0.  0.
         22    1    3    3    0    0  0.37326713650E+02  0.21416986213E+02  0.12655478766E+03  0.13367155693E+03  0.00000000000E+00 0. -1.
         22    1    4    4    0    0 -0.22680940588E+02 -0.71194670883E+01  0.12289865752E+03  0.12517664278E+03  0.00000000000E+00 0.  1.
         22    1    4    4    0    0 -0.14645773062E+02 -0.14297519125E+02  0.11343396158E+03  0.11526569898E+03  0.00000000000E+00 0.  1.
<mgrwt>
<rscale>  0 0.90961196E+02</rscale>
<asrwt>0</asrwt>
<pdfrwt beam="1">  1        2 0.56692419E-01 0.90961196E+02</pdfrwt>
<pdfrwt beam="2">  1       -2 0.86357613E-03 0.90961196E+02</pdfrwt>
<totfact> 0.19502358E+05</totfact>
</mgrwt>
</event>
<event>
 7    1  0.3480999E-009  0.8982808E+02  0.7818608E-02  0.1303269E+00
          2   -1    0    0  501    0  0.00000000000E+00  0.00000000000E+00  0.28698205343E+03  0.28698205345E+03  0.25500000000E-02 0.  1.
         -2   -1    0    0    0  501 -0.00000000000E+00 -0.00000000000E+00 -0.70292578794E+01  0.70292583419E+01  0.25500000000E-02 0. -1.
         23    2    1    2    0    0  0.00000000000E+00  0.00000000000E+00  0.27995279555E+03  0.29401131179E+03  0.89828078684E+02 0.  0.
    9000005    2    3    3    0    0 -0.20801718320E+02  0.22048949077E+02  0.24841629926E+03  0.25026867539E+03  0.22100911970E+01 0.  0.
         22    1    3    3    0    0  0.20801718320E+02 -0.22048949077E+02  0.31536496296E+02  0.43742636399E+02  0.00000000000E+00 0. -1.
         22    1    4    4    0    0 -0.13724581957E+02  0.13144931970E+02  0.15153422124E+03  0.15272122836E+03  0.00000000000E+00 0.  1.
         22    1    4    4    0    0 -0.70771363625E+01  0.89040171075E+01  0.96882078021E+02  0.97547447027E+02  0.00000000000E+00 0.  1.
<mgrwt>
<rscale>  0 0.89828079E+02</rscale>
<asrwt>0</asrwt>
<pdfrwt beam="1">  1        2 0.44151086E-01 0.89828079E+02</pdfrwt>
<pdfrwt beam="2">  1       -2 0.10814243E-02 0.89828079E+02</pdfrwt>
<totfact> 0.18387856E+05</totfact>
</mgrwt>
</event>
<event>
 7    1  0.3480999E-009  0.9244778E+02  0.7818608E-02  0.1297030E+00
          2   -1    0    0  501    0  0.00000000000E+00  0.00000000000E+00  0.16746666082E+01  0.16746685497E+01  0.25500000000E-02 0.  1.
         -2   -1    0    0    0  501 -0.00000000000E+00 -0.00000000000E+00 -0.12758640812E+04  0.12758640812E+04  0.25500000000E-02 0. -1.
         23    2    1    2    0    0 -0.88817841970E-15  0.00000000000E+00 -0.12741894146E+04  0.12775387497E+04  0.92447784508E+02 0.  0.
    9000005    2    3    3    0    0  0.61834410404E+01  0.16799743709E+02 -0.12256204930E+04  0.12257757661E+04  0.77569040934E+01 0.  0.
         22    1    3    3    0    0 -0.61834410404E+01 -0.16799743709E+02 -0.48568921534E+02  0.51762983596E+02  0.00000000000E+00 0.  1.
         22    1    4    4    0    0  0.59977210607E+01  0.17462989016E+02 -0.11128317854E+04  0.11129849555E+04  0.00000000000E+00 0. -1.
         22    1    4    4    0    0  0.18571997972E+00 -0.66324530752E+00 -0.11278870767E+03  0.11279081063E+03  0.00000000000E+00 0. -1.
<mgrwt>
<rscale>  0 0.92447785E+02</rscale>
<asrwt>0</asrwt>
<pdfrwt beam="1">  1        2 0.25764219E-03 0.92447785E+02</pdfrwt>
<pdfrwt beam="2">  1       -2 0.19628600E+00 0.92447785E+02</pdfrwt>
<totfact> 0.13160736E+04</totfact>
</mgrwt>
</event>
<event>
 7    1  0.3480999E-009  0.9095756E+02  0.7818608E-02  0.1300549E+00
         -2   -1    0    0    0  501 -0.00000000000E+00  0.00000000000E+00  0.45724487727E+02  0.45724487799E+02  0.25500000000E-02 0.  1.
          2   -1    0    0  501    0  0.00000000000E+00 -0.00000000000E+00 -0.45234394129E+02  0.45234394201E+02  0.25500000000E-02 0. -1.
         23    2    1    2    0    0 -0.71054273576E-14 -0.88817841970E-15  0.49009359839E+00  0.90958882000E+02  0.90957561659E+02 0.  0.
    9000005    2    3    3    0    0 -0.43149296471E+02 -0.63716964020E+01  0.72605450455E+01  0.46819338348E+02  0.15390731888E+02 0.  0.
         22    1    3    3    0    0  0.43149296471E+02  0.63716964020E+01 -0.67704514471E+01  0.44139543651E+02  0.00000000000E+00 0. -1.
         22    1    4    4    0    0 -0.40252374066E+01 -0.50756441476E+01 -0.16235101866E+01  0.66783594556E+01  0.00000000000E+00 0. -1.
         22    1    4    4    0    0 -0.39124059064E+02 -0.12960522545E+01  0.88840552321E+01  0.40140978893E+02  0.00000000000E+00 0. -1.
<mgrwt>
<rscale>  0 0.90957562E+02</rscale>
<asrwt>0</asrwt>
<pdfrwt beam="2">  1        2 0.69591375E-02 0.90957562E+02</pdfrwt>
<pdfrwt beam="1">  1       -2 0.70345366E-02 0.90957562E+02</pdfrwt>
<totfact> 0.99158421E+04</totfact>
</mgrwt>
</event>
<event>
 7    1  0.3480999E-009  0.9089224E+02  0.7818608E-02  0.1300705E+00
          2   -1    0    0  501    0  0.00000000000E+00  0.00000000000E+00  0.49261449533E+02  0.49261449599E+02  0.25500000000E-02 0. -1.
         -2   -1    0    0    0  501 -0.00000000000E+00 -0.00000000000E+00 -0.41926294164E+02  0.41926294241E+02  0.25500000000E-02 0.  1.
         23    2    1    2    0    0  0.00000000000E+00  0.00000000000E+00  0.73351553698E+01  0.91187743841E+02  0.90892244567E+02 0.  0.
    9000005    2    3    3    0    0  0.11065702921E+00  0.25645386616E+02  0.41097075809E+02  0.48790039052E+02  0.58137914502E+01 0.  0.
         22    1    3    3    0    0 -0.11065702921E+00 -0.25645386616E+02 -0.33761920439E+02  0.42397704789E+02  0.00000000000E+00 0.  1.
         22    1    4    4    0    0 -0.26473735795E+01  0.87786122432E+01  0.15591500432E+02  0.18087772265E+02  0.00000000000E+00 0. -1.
         22    1    4    4    0    0  0.27580306087E+01  0.16866774372E+02  0.25505575376E+02  0.30702266787E+02  0.00000000000E+00 0. -1.
<mgrwt>
<rscale>  0 0.90892245E+02</rscale>
<asrwt>0</asrwt>
<pdfrwt beam="1">  1        2 0.75786845E-02 0.90892245E+02</pdfrwt>
<pdfrwt beam="2">  1       -2 0.64501991E-02 0.90892245E+02</pdfrwt>
<totfact> 0.10158730E+05</totfact>
</mgrwt>
</event>
<event>
 7    1  0.3480999E-009  0.9050813E+02  0.7818608E-02  0.1301626E+00
          2   -1    0    0  501    0  0.00000000000E+00  0.00000000000E+00  0.12299001656E+04  0.12299001656E+04  0.25500000000E-02 0. -1.
         -2   -1    0    0    0  501 -0.00000000000E+00 -0.00000000000E+00 -0.16651182284E+01  0.16651201810E+01  0.25500000000E-02 0.  1.
         23    2    1    2    0    0  0.00000000000E+00  0.35527136788E-14  0.12282350474E+04  0.12315652858E+04  0.90508129775E+02 0.  0.
    9000005    2    3    3    0    0 -0.20513751535E+02 -0.24989742413E+02  0.10446082280E+04  0.10451139248E+04  0.33859316959E+01 0.  0.
         22    1    3    3    0    0  0.20513751535E+02  0.24989742413E+02  0.18362681935E+03  0.18645136098E+03  0.00000000000E+00 0.  1.
         22    1    4    4    0    0 -0.32646034478E+01 -0.24469694165E+01  0.11445924186E+03  0.11453193154E+03  0.00000000000E+00 0. -1.
         22    1    4    4    0    0 -0.17249148087E+02 -0.22542772996E+02  0.93014898614E+03  0.93058199324E+03  0.00000000000E+00 0. -1.
<mgrwt>
<rscale>  0 0.90508130E+02</rscale>
<asrwt>0</asrwt>
<pdfrwt beam="1">  1        2 0.18921614E+00 0.90508130E+02</pdfrwt>
<pdfrwt beam="2">  1       -2 0.25617120E-03 0.90508130E+02</pdfrwt>
<totfact> 0.25278802E+05</totfact>
</mgrwt>
</event>
<event>
 7    1  0.3480999E-009  0.9194591E+02  0.7818608E-02  0.1298207E+00
          2   -1    0    0  501    0  0.00000000000E+00  0.00000000000E+00  0.44236330419E+02  0.44236330493E+02  0.25500000000E-02 0. -1.
         -2   -1    0    0    0  501 -0.00000000000E+00 -0.00000000000E+00 -0.47777760565E+02  0.47777760633E+02  0.25500000000E-02 0.  1.
         23    2    1    2    0    0  0.00000000000E+00  0.00000000000E+00 -0.35414301454E+01  0.92014091125E+02  0.91945914744E+02 0.  0.
    9000005    2    3    3    0    0 -0.18698266069E+02 -0.34335257666E+02  0.19668274732E+02  0.46547339829E+02  0.15851774072E+02 0.  0.
         22    1    3    3    0    0  0.18698266069E+02  0.34335257666E+02 -0.23209704878E+02  0.45466751297E+02  0.00000000000E+00 0.  1.
         22    1    4    4    0    0 -0.19034481195E+02 -0.19623487546E+02  0.11000344534E+02  0.29468632776E+02  0.00000000000E+00 0. -1.
         22    1    4    4    0    0  0.33621512610E+00 -0.14711770120E+02  0.86679301986E+01  0.17078707053E+02  0.00000000000E+00 0. -1.
<mgrwt>
<rscale>  0 0.91945915E+02</rscale>
<asrwt>0</asrwt>
<pdfrwt beam="1">  1        2 0.68055893E-02 0.91945915E+02</pdfrwt>
<pdfrwt beam="2">  1       -2 0.73504247E-02 0.91945915E+02</pdfrwt>
<totfact> 0.95566247E+04</totfact>
</mgrwt>
</event>
<event>
 7    1  0.3480999E-009  0.9188878E+02  0.7818608E-02  0.1298341E+00
         -2   -1    0    0    0  501 -0.00000000000E+00  0.00000000000E+00  0.48798804812E+01  0.48798811474E+01  0.25500000000E-02 0.  1.
          2   -1    0    0  501    0  0.00000000000E+00 -0.00000000000E+00 -0.43256935217E+03  0.43256935217E+03  0.25500000000E-02 0. -1.
         23    2    1    2    0    0  0.00000000000E+00  0.00000000000E+00 -0.42768947168E+03  0.43744923332E+03  0.91888778112E+02 0.  0.
    9000005    2    3    3    0    0 -0.28372644712E+02  0.25159846320E+02 -0.33229886398E+03  0.33479742928E+03  0.15124774863E+02 0.  0.
         22    1    3    3    0    0  0.28372644712E+02 -0.25159846320E+02 -0.95390607708E+02  0.10265180405E+03  0.00000000000E+00 0.  1.
         22    1    4    4    0    0 -0.10753644718E+02  0.19537826793E+02 -0.18805341811E+03  0.18937121115E+03  0.00000000000E+00 0. -1.
         22    1    4    4    0    0 -0.17618999994E+02  0.56220195269E+01 -0.14424544587E+03  0.14542621813E+03  0.00000000000E+00 0. -1.
<mgrwt>
<rscale>  0 0.91888778E+02</rscale>
<asrwt>0</asrwt>
<pdfrwt beam="2">  1        2 0.66549101E-01 0.91888778E+02</pdfrwt>
<pdfrwt beam="1">  1       -2 0.75075124E-03 0.91888778E+02</pdfrwt>
<totfact> 0.20102597E+05</totfact>
</mgrwt>
</event>
<event>
 7    1  0.3480999E-009  0.9061132E+02  0.7818608E-02  0.1301378E+00
          2   -1    0    0  501    0  0.00000000000E+00  0.00000000000E+00  0.17714150622E+04  0.17714150622E+04  0.25500000000E-02 0. -1.
         -2   -1    0    0    0  501 -0.00000000000E+00 -0.00000000000E+00 -0.11587349054E+01  0.11587377113E+01  0.25500000000E-02 0.  1.
         23    2    1    2    0    0  0.00000000000E+00  0.00000000000E+00  0.17702563272E+04  0.17725737999E+04  0.90611322756E+02 0.  0.
    9000005    2    3    3    0    0 -0.11768042388E+02  0.70808781295E+01  0.17288751141E+04  0.17289729919E+04  0.12240130173E+02 0.  0.
         22    1    3    3    0    0  0.11768042388E+02 -0.70808781295E+01  0.41381213133E+02  0.43600807987E+02  0.00000000000E+00 0.  1.
         22    1    4    4    0    0 -0.85674547793E+01  0.81512352204E+00  0.47378863394E+03  0.47386679073E+03  0.00000000000E+00 0.  1.
         22    1    4    4    0    0 -0.32005876090E+01  0.62657546075E+01  0.12550864802E+04  0.12551062011E+04  0.00000000000E+00 0.  1.
<mgrwt>
<rscale>  0 0.90611323E+02</rscale>
<asrwt>0</asrwt>
<pdfrwt beam="1">  1        2 0.27252580E+00 0.90611323E+02</pdfrwt>
<pdfrwt beam="2">  1       -2 0.17826686E-03 0.90611323E+02</pdfrwt>
<totfact> 0.22025549E+05</totfact>
</mgrwt>
</event>
<event>
 7    1  0.3480999E-009  0.9322910E+02  0.7818608E-02  0.1295215E+00
         -2   -1    0    0    0  501 -0.00000000000E+00  0.00000000000E+00  0.74009763999E+01  0.74009768392E+01  0.25500000000E-02 0.  1.
          2   -1    0    0  501    0  0.00000000000E+00 -0.00000000000E+00 -0.29359859276E+03  0.29359859277E+03  0.25500000000E-02 0. -1.
         23    2    1    2    0    0  0.00000000000E+00  0.00000000000E+00 -0.28619761636E+03  0.30099956961E+03  0.93229101118E+02 0.  0.
    9000005    2    3    3    0    0  0.45373183003E+02 -0.23980781319E+01 -0.17484134399E+03  0.18073030542E+03  0.54287394141E+01 0.  0.
         22    1    3    3    0    0 -0.45373183003E+02  0.23980781319E+01 -0.11135627237E+03  0.12026926419E+03  0.00000000000E+00 0.  1.
         22    1    4    4    0    0  0.21928260487E+02  0.12417621919E+01 -0.89069329624E+02  0.91737320982E+02  0.00000000000E+00 0. -1.
         22    1    4    4    0    0  0.23444922516E+02 -0.36398403238E+01 -0.85772014369E+02  0.88992984433E+02  0.00000000000E+00 0. -1.
<mgrwt>
<rscale>  0 0.93229101E+02</rscale>
<asrwt>0</asrwt>
<pdfrwt beam="2">  1        2 0.45169005E-01 0.93229101E+02</pdfrwt>
<pdfrwt beam="1">  1       -2 0.11386120E-02 0.93229101E+02</pdfrwt>
<totfact> 0.16792285E+05</totfact>
</mgrwt>
</event>
<event>
 7    1  0.3480999E-009  0.9087907E+02  0.7818608E-02  0.1300737E+00
         -2   -1    0    0    0  501 -0.00000000000E+00  0.00000000000E+00  0.93516622050E+02  0.93516622085E+02  0.25500000000E-02 0.  1.
          2   -1    0    0  501    0  0.00000000000E+00 -0.00000000000E+00 -0.22078977742E+02  0.22078977889E+02  0.25500000000E-02 0. -1.
         23    2    1    2    0    0  0.88817841970E-15  0.00000000000E+00  0.71437644308E+02  0.11559559997E+03  0.90879071898E+02 0.  0.
    9000005    2    3    3    0    0 -0.71927754489E+01 -0.37484255347E+02  0.50204413602E+01  0.38992399877E+02  0.61965312209E+01 0.  0.
         22    1    3    3    0    0  0.71927754489E+01  0.37484255347E+02  0.66417202948E+02  0.76603200096E+02  0.00000000000E+00 0.  1.
         22    1    4    4    0    0 -0.59270447970E+00 -0.19156069433E+02  0.18280824331E+01  0.19252225329E+02  0.00000000000E+00 0. -1.
         22    1    4    4    0    0 -0.66000709692E+01 -0.18328185914E+02  0.31923589272E+01  0.19740174549E+02  0.00000000000E+00 0. -1.
<mgrwt>
<rscale>  0 0.90879072E+02</rscale>
<asrwt>0</asrwt>
<pdfrwt beam="2">  1        2 0.33967657E-02 0.90879072E+02</pdfrwt>
<pdfrwt beam="1">  1       -2 0.14387173E-01 0.90879072E+02</pdfrwt>
<totfact> 0.82060726E+04</totfact>
</mgrwt>
</event>
<event>
 7    1  0.3480999E-009  0.9006033E+02  0.7818608E-02  0.1302706E+00
         -2   -1    0    0    0  501 -0.00000000000E+00  0.00000000000E+00  0.24493000455E+03  0.24493000457E+03  0.25500000000E-02 0.  1.
          2   -1    0    0  501    0  0.00000000000E+00 -0.00000000000E+00 -0.82787562973E+01  0.82787566900E+01  0.25500000000E-02 0. -1.
         23    2    1    2    0    0  0.00000000000E+00  0.00000000000E+00  0.23665124826E+03  0.25320876126E+03  0.90060332422E+02 0.  0.
    9000005    2    3    3    0    0 -0.35141331550E+02  0.16826698368E+02  0.18148491625E+03  0.18567080787E+03  0.43385604072E+01 0.  0.
         22    1    3    3    0    0  0.35141331550E+02 -0.16826698368E+02  0.55166332003E+02  0.67537953387E+02  0.00000000000E+00 0. -1.
         22    1    4    4    0    0 -0.24953426627E+02  0.12354237677E+02  0.12008014255E+03  0.12326614021E+03  0.00000000000E+00 0.  1.
         22    1    4    4    0    0 -0.10187904923E+02  0.44724606910E+01  0.61404773708E+02  0.62404667657E+02  0.00000000000E+00 0.  1.
<mgrwt>
<rscale>  0 0.90060332E+02</rscale>
<asrwt>0</asrwt>
<pdfrwt beam="2">  1        2 0.12736551E-02 0.90060332E+02</pdfrwt>
<pdfrwt beam="1">  1       -2 0.37681531E-01 0.90060332E+02</pdfrwt>
<totfact> 0.58571438E+04</totfact>
</mgrwt>
</event>
<event>
 7    1  0.3480999E-009  0.8809676E+02  0.7818608E-02  0.1307527E+00
          2   -1    0    0  501    0  0.00000000000E+00  0.00000000000E+00  0.16098606513E+04  0.16098606513E+04  0.25500000000E-02 0.  1.
         -2   -1    0    0    0  501 -0.00000000000E+00 -0.00000000000E+00 -0.12052331469E+01  0.12052358445E+01  0.25500000000E-02 0. -1.
         23    2    1    2    0    0 -0.17763568394E-14 -0.17763568394E-14  0.16086554182E+04  0.16110658872E+04  0.88096755751E+02 0.  0.
    9000005    2    3    3    0    0  0.87119131831E+01  0.11020276826E+02  0.15663138436E+04  0.15664547577E+04  0.15623937385E+02 0.  0.
         22    1    3    3    0    0 -0.87119131831E+01 -0.11020276826E+02  0.42341574589E+02  0.44611129456E+02  0.00000000000E+00 0. -1.
         22    1    4    4    0    0  0.55728394597E+01  0.12088750501E+02  0.65684479601E+03  0.65697966519E+03  0.00000000000E+00 0.  1.
         22    1    4    4    0    0  0.31390737234E+01 -0.10684736750E+01  0.90946904760E+03  0.90947509254E+03  0.00000000000E+00 0.  1.
<mgrwt>
<rscale>  0 0.88096756E+02</rscale>
<asrwt>0</asrwt>
<pdfrwt beam="1">  1        2 0.24767221E+00 0.88096756E+02</pdfrwt>
<pdfrwt beam="2">  1       -2 0.18541969E-03 0.88096756E+02</pdfrwt>
<totfact> 0.25053878E+05</totfact>
</mgrwt>
</event>
<event>
 7    1  0.3480999E-009  0.8691237E+02  0.7818608E-02  0.1310506E+00
         -2   -1    0    0    0  501 -0.00000000000E+00  0.00000000000E+00  0.71210852127E+02  0.71210852173E+02  0.25500000000E-02 0.  1.
          2   -1    0    0  501    0  0.00000000000E+00 -0.00000000000E+00 -0.26518990944E+02  0.26518991066E+02  0.25500000000E-02 0. -1.
         23    2    1    2    0    0  0.00000000000E+00  0.00000000000E+00  0.44691861184E+02  0.97729843239E+02  0.86912368530E+02 0.  0.
    9000005    2    3    3    0    0 -0.13479189078E+02 -0.19067617217E+02 -0.17086182758E+02  0.31685999636E+02  0.12915199075E+02 0.  0.
         22    1    3    3    0    0  0.13479189078E+02  0.19067617217E+02  0.61778043942E+02  0.66043843603E+02  0.00000000000E+00 0.  1.
         22    1    4    4    0    0 -0.11713672966E+02 -0.20969358110E+02 -0.16069486783E+02  0.28899005508E+02  0.00000000000E+00 0. -1.
         22    1    4    4    0    0 -0.17655161122E+01  0.19017408925E+01 -0.10166959756E+01  0.27869941284E+01  0.00000000000E+00 0. -1.
<mgrwt>
<rscale>  0 0.86912369E+02</rscale>
<asrwt>0</asrwt>
<pdfrwt beam="2">  1        2 0.40798448E-02 0.86912369E+02</pdfrwt>
<pdfrwt beam="1">  1       -2 0.10955516E-01 0.86912369E+02</pdfrwt>
<totfact> 0.98699443E+04</totfact>
</mgrwt>
</event>
<event>
 7    1  0.3480999E-009  0.1112696E+03  0.7818608E-02  0.1258237E+00
         -2   -1    0    0    0  501 -0.00000000000E+00  0.00000000000E+00  0.21292520589E+01  0.21292535858E+01  0.25500000000E-02 0. -1.
          2   -1    0    0  501    0  0.00000000000E+00 -0.00000000000E+00 -0.14536695705E+04  0.14536695705E+04  0.25500000000E-02 0.  1.
         23    2    1    2    0    0  0.00000000000E+00 -0.71054273576E-14 -0.14515403185E+04  0.14557988241E+04  0.11126958325E+03 0.  0.
    9000005    2    3    3    0    0 -0.14522199515E+02  0.39556748568E+02 -0.11973212223E+04  0.11981110683E+04  0.10788512309E+02 0.  0.
         22    1    3    3    0    0  0.14522199515E+02 -0.39556748568E+02 -0.25421909617E+03  0.25768775581E+03  0.00000000000E+00 0. -1.
         22    1    4    4    0    0 -0.12025680390E+02  0.32423513017E+02 -0.84260568100E+03  0.84331502704E+03  0.00000000000E+00 0. -1.
         22    1    4    4    0    0 -0.24965191250E+01  0.71332355512E+01 -0.35471554129E+03  0.35479604126E+03  0.00000000000E+00 0. -1.
<mgrwt>
<rscale>  0 0.11126958E+03</rscale>
<asrwt>0</asrwt>
<pdfrwt beam="2">  1        2 0.22364068E+00 0.11126958E+03</pdfrwt>
<pdfrwt beam="1">  1       -2 0.32757852E-03 0.11126958E+03</pdfrwt>
<totfact> 0.14048738E+05</totfact>
</mgrwt>
</event>
<event>
 7    1  0.3480999E-009  0.8572548E+02  0.7818608E-02  0.1313546E+00
         -2   -1    0    0    0  501 -0.00000000000E+00  0.00000000000E+00  0.89590952397E+01  0.89590956026E+01  0.25500000000E-02 0.  1.
          2   -1    0    0  501    0  0.00000000000E+00 -0.00000000000E+00 -0.20506694383E+03  0.20506694385E+03  0.25500000000E-02 0. -1.
         23    2    1    2    0    0  0.00000000000E+00  0.00000000000E+00 -0.19610784859E+03  0.21402603945E+03  0.85725476280E+02 0.  0.
    9000005    2    3    3    0    0  0.13994207808E+02 -0.36661304836E+02 -0.63640364927E+02  0.75868436138E+02  0.12885434784E+02 0.  0.
         22    1    3    3    0    0 -0.13994207808E+02  0.36661304836E+02 -0.13246748367E+03  0.13815760331E+03  0.00000000000E+00 0. -1.
         22    1    4    4    0    0  0.14601116408E+02 -0.20747053644E+02 -0.39778908235E+02  0.47180444844E+02  0.00000000000E+00 0. -1.
         22    1    4    4    0    0 -0.60690860035E+00 -0.15914251192E+02 -0.23861456691E+02  0.28687991294E+02  0.00000000000E+00 0. -1.
<mgrwt>
<rscale>  0 0.85725476E+02</rscale>
<asrwt>0</asrwt>
<pdfrwt beam="2">  1        2 0.31548757E-01 0.85725476E+02</pdfrwt>
<pdfrwt beam="1">  1       -2 0.13783225E-02 0.85725476E+02</pdfrwt>
<totfact> 0.18412145E+05</totfact>
</mgrwt>
</event>
<event>
 7    1  0.3480999E-009  0.8990410E+02  0.7818608E-02  0.1303084E+00
          2   -1    0    0  501    0  0.00000000000E+00  0.00000000000E+00  0.71150640764E+02  0.71150640809E+02  0.25500000000E-02 0. -1.
         -2   -1    0    0    0  501 -0.00000000000E+00 -0.00000000000E+00 -0.28400122482E+02  0.28400122597E+02  0.25500000000E-02 0.  1.
         23    2    1    2    0    0 -0.44408920985E-15 -0.71054273576E-14  0.42750518282E+02  0.99550763406E+02  0.89904102695E+02 0.  0.
    9000005    2    3    3    0    0  0.32086671186E+01  0.38925323300E+02  0.45740311726E+02  0.60379151191E+02  0.52905049965E+01 0.  0.
         22    1    3    3    0    0 -0.32086671186E+01 -0.38925323300E+02 -0.29897934444E+01  0.39171612215E+02  0.00000000000E+00 0.  1.
         22    1    4    4    0    0 -0.11257668091E+01  0.33898915332E+01  0.33765015393E+01  0.49152292073E+01  0.00000000000E+00 0. -1.
         22    1    4    4    0    0  0.43344339277E+01  0.35535431767E+02  0.42363810187E+02  0.55463921984E+02  0.00000000000E+00 0. -1.
<mgrwt>
<rscale>  0 0.89904103E+02</rscale>
<asrwt>0</asrwt>
<pdfrwt beam="1">  1        2 0.10946252E-01 0.89904103E+02</pdfrwt>
<pdfrwt beam="2">  1       -2 0.43692496E-02 0.89904103E+02</pdfrwt>
<totfact> 0.11556598E+05</totfact>
</mgrwt>
</event>
<event>
 7    1  0.3480999E-009  0.9008971E+02  0.7818608E-02  0.1302635E+00
         -2   -1    0    0    0  501 -0.00000000000E+00  0.00000000000E+00  0.23948561182E+01  0.23948574758E+01  0.25500000000E-02 0.  1.
          2   -1    0    0  501    0  0.00000000000E+00 -0.00000000000E+00 -0.84724863253E+03  0.84724863253E+03  0.25500000000E-02 0. -1.
         23    2    1    2    0    0 -0.88817841970E-15 -0.35527136788E-14 -0.84485377641E+03  0.84964349001E+03  0.90089714166E+02 0.  0.
    9000005    2    3    3    0    0  0.68402027503E+01 -0.20573754699E+02 -0.79436906769E+03  0.79470012307E+03  0.74834581468E+01 0.  0.
         22    1    3    3    0    0 -0.68402027503E+01  0.20573754699E+02 -0.50484708714E+02  0.54943366934E+02  0.00000000000E+00 0.  1.
         22    1    4    4    0    0  0.60581954884E+01 -0.19887939975E+02 -0.78468272755E+03  0.78495809748E+03  0.00000000000E+00 0.  1.
         22    1    4    4    0    0  0.78200726190E+00 -0.68581472359E+00 -0.96863401473E+01  0.97420255924E+01  0.00000000000E+00 0.  1.
<mgrwt>
<rscale>  0 0.90089714E+02</rscale>
<asrwt>0</asrwt>
<pdfrwt beam="2">  1        2 0.13034570E+00 0.90089714E+02</pdfrwt>
<pdfrwt beam="1">  1       -2 0.36844018E-03 0.90089714E+02</pdfrwt>
<totfact> 0.25389862E+05</totfact>
</mgrwt>
</event>
<event>
 7    1  0.3480999E-009  0.9761395E+02  0.7818608E-02  0.1285395E+00
          2   -1    0    0  501    0  0.00000000000E+00  0.00000000000E+00  0.34739454958E+02  0.34739455052E+02  0.25500000000E-02 0. -1.
         -2   -1    0    0    0  501 -0.00000000000E+00 -0.00000000000E+00 -0.68571052000E+02  0.68571052047E+02  0.25500000000E-02 0.  1.
         23    2    1    2    0    0  0.00000000000E+00  0.00000000000E+00 -0.33831597041E+02  0.10331050710E+03  0.97613953504E+02 0.  0.
    9000005    2    3    3    0    0 -0.45895865248E+02  0.15501037254E+02 -0.17033512621E+02  0.52037821943E+02  0.84309997942E+01 0.  0.
         22    1    3    3    0    0  0.45895865248E+02 -0.15501037254E+02 -0.16798084420E+02  0.51272685155E+02  0.00000000000E+00 0.  1.
         22    1    4    4    0    0 -0.37793960041E+02  0.94309375253E+01 -0.12193615695E+02  0.40816788971E+02  0.00000000000E+00 0. -1.
         22    1    4    4    0    0 -0.81019052077E+01  0.60700997290E+01 -0.48398969265E+01  0.11221032973E+02  0.00000000000E+00 0. -1.
<mgrwt>
<rscale>  0 0.97613954E+02</rscale>
<asrwt>0</asrwt>
<pdfrwt beam="1">  1        2 0.53445315E-02 0.97613954E+02</pdfrwt>
<pdfrwt beam="2">  1       -2 0.10549393E-01 0.97613954E+02</pdfrwt>
<totfact> 0.75163935E+04</totfact>
</mgrwt>
</event>
<event>
 7    1  0.3480999E-009  0.9162790E+02  0.7818608E-02  0.1298957E+00
         -2   -1    0    0    0  501 -0.00000000000E+00  0.00000000000E+00  0.11346628437E+02  0.11346628724E+02  0.25500000000E-02 0. -1.
          2   -1    0    0  501    0  0.00000000000E+00 -0.00000000000E+00 -0.18498165938E+03  0.18498165940E+03  0.25500000000E-02 0.  1.
         23    2    1    2    0    0  0.71054273576E-14  0.55511151231E-16 -0.17363503094E+03  0.19632828812E+03  0.91627903753E+02 0.  0.
    9000005    2    3    3    0    0 -0.43534176622E+02 -0.46985291817E+00 -0.11516084513E+03  0.12342646577E+03  0.87536795198E+01 0.  0.
         22    1    3    3    0    0  0.43534176622E+02  0.46985291817E+00 -0.58474185811E+02  0.72901822351E+02  0.00000000000E+00 0. -1.
         22    1    4    4    0    0 -0.58293217462E+01 -0.96917088053E+00 -0.89913117143E+01  0.10759366643E+02  0.00000000000E+00 0.  1.
         22    1    4    4    0    0 -0.37704854875E+02  0.49931796236E+00 -0.10616953342E+03  0.11266709913E+03  0.00000000000E+00 0.  1.
<mgrwt>
<rscale>  0 0.91627904E+02</rscale>
<asrwt>0</asrwt>
<pdfrwt beam="2">  1        2 0.28458715E-01 0.91627904E+02</pdfrwt>
<pdfrwt beam="1">  1       -2 0.17456353E-02 0.91627904E+02</pdfrwt>
<totfact> 0.14840992E+05</totfact>
</mgrwt>
</event>
<event>
 7    1  0.3480999E-009  0.9155442E+02  0.7818608E-02  0.1299131E+00
          2   -1    0    0  501    0  0.00000000000E+00  0.00000000000E+00  0.24930678804E+03  0.24930678805E+03  0.25500000000E-02 0. -1.
         -2   -1    0    0    0  501 -0.00000000000E+00 -0.00000000000E+00 -0.84055183230E+01  0.84055187098E+01  0.25500000000E-02 0.  1.
         23    2    1    2    0    0  0.00000000000E+00  0.17763568394E-14  0.24090126972E+03  0.25771230676E+03  0.91554417183E+02 0.  0.
    9000005    2    3    3    0    0  0.38043281846E+02  0.12786755028E+02  0.69526168422E+02  0.81700324950E+02  0.15174406208E+02 0.  0.
         22    1    3    3    0    0 -0.38043281846E+02 -0.12786755028E+02  0.17137510130E+03  0.17601198181E+03  0.00000000000E+00 0. -1.
         22    1    4    4    0    0  0.34450612211E+02  0.16013760600E+02  0.63232166368E+02  0.73767147659E+02  0.00000000000E+00 0.  1.
         22    1    4    4    0    0  0.35926696353E+01 -0.32270055717E+01  0.62940020537E+01  0.79331772903E+01  0.00000000000E+00 0.  1.
<mgrwt>
<rscale>  0 0.91554417E+02</rscale>
<asrwt>0</asrwt>
<pdfrwt beam="1">  1        2 0.38354889E-01 0.91554417E+02</pdfrwt>
<pdfrwt beam="2">  1       -2 0.12931568E-02 0.91554417E+02</pdfrwt>
<totfact> 0.16584053E+05</totfact>
</mgrwt>
</event>
<event>
 7    1  0.3480999E-009  0.8745752E+02  0.7818608E-02  0.1309128E+00
          2   -1    0    0  501    0  0.00000000000E+00  0.00000000000E+00  0.80078690516E+03  0.80078690517E+03  0.25500000000E-02 0. -1.
         -2   -1    0    0    0  501 -0.00000000000E+00 -0.00000000000E+00 -0.23879062180E+01  0.23879075796E+01  0.25500000000E-02 0.  1.
         23    2    1    2    0    0 -0.35527136788E-14  0.00000000000E+00  0.79839899894E+03  0.80317481275E+03  0.87457522914E+02 0.  0.
    9000005    2    3    3    0    0 -0.21321444726E+02  0.17862030529E+02  0.70815923794E+03  0.70874562972E+03  0.75634142688E+01 0.  0.
         22    1    3    3    0    0  0.21321444726E+02 -0.17862030529E+02  0.90239761009E+02  0.94429183025E+02  0.00000000000E+00 0.  1.
         22    1    4    4    0    0 -0.86030980033E+01  0.28085747217E+01  0.20090737224E+03  0.20111109768E+03  0.00000000000E+00 0.  1.
         22    1    4    4    0    0 -0.12718346722E+02  0.15053455808E+02  0.50725186569E+03  0.50763453204E+03  0.00000000000E+00 0.  1.
<mgrwt>
<rscale>  0 0.87457523E+02</rscale>
<asrwt>0</asrwt>
<pdfrwt beam="1">  1        2 0.12319804E+00 0.87457523E+02</pdfrwt>
<pdfrwt beam="2">  1       -2 0.36737012E-03 0.87457523E+02</pdfrwt>
<totfact> 0.27199468E+05</totfact>
</mgrwt>
</event>
<event>
 7    1  0.3480999E-009  0.8817968E+02  0.7818608E-02  0.1307321E+00
          2   -1    0    0  501    0  0.00000000000E+00  0.00000000000E+00  0.32030994185E+02  0.32030994287E+02  0.25500000000E-02 0.  1.
         -2   -1    0    0    0  501 -0.00000000000E+00 -0.00000000000E+00 -0.60688524200E+02  0.60688524253E+02  0.25500000000E-02 0. -1.
         23    2    1    2    0    0 -0.66613381478E-15  0.00000000000E+00 -0.28657530014E+02  0.92719518540E+02  0.88179675049E+02 0.  0.
    9000005    2    3    3    0    0 -0.17601580038E+01 -0.39927377222E+02 -0.32667355791E+02  0.52552712459E+02  0.98659943452E+01 0.  0.
         22    1    3    3    0    0  0.17601580038E+01  0.39927377222E+02  0.40098257767E+01  0.40166806081E+02  0.00000000000E+00 0.  1.
         22    1    4    4    0    0 -0.43821052975E+01 -0.35379817410E+02 -0.26305414868E+02  0.44304730878E+02  0.00000000000E+00 0. -1.
         22    1    4    4    0    0  0.26219472937E+01 -0.45475598122E+01 -0.63619409234E+01  0.82479815815E+01  0.00000000000E+00 0. -1.
<mgrwt>
<rscale>  0 0.88179675E+02</rscale>
<asrwt>0</asrwt>
<pdfrwt beam="1">  1        2 0.49278453E-02 0.88179675E+02</pdfrwt>
<pdfrwt beam="2">  1       -2 0.93366960E-02 0.88179675E+02</pdfrwt>
<totfact> 0.99300437E+04</totfact>
</mgrwt>
</event>
<event>
 7    1  0.3706395E-009  0.8639380E+02  0.7818608E-02  0.1311827E+00
          2   -1    0    0  501    0  0.00000000000E+00  0.00000000000E+00  0.28617454802E+03  0.28617454803E+03  0.25500000000E-02 0. -1.
         -2   -1    0    0    0  501 -0.00000000000E+00 -0.00000000000E+00 -0.65203981003E+01  0.65203985990E+01  0.25500000000E-02 0.  1.
         23    2    1    2    0    0  0.00000000000E+00 -0.71054273576E-14  0.27965414992E+03  0.29269494663E+03  0.86393797322E+02 0.  0.
    9000005    2    3    3    0    0 -0.10472551893E+01  0.35865053800E+02  0.21848665396E+03  0.22178048133E+03  0.12757943050E+02 0.  0.
         22    1    3    3    0    0  0.10472551893E+01 -0.35865053800E+02  0.61167495958E+02  0.70914465303E+02  0.00000000000E+00 0.  1.
         22    1    4    4    0    0  0.63210386686E+00  0.35895731713E+02  0.21398332413E+03  0.21697411393E+03  0.00000000000E+00 0. -1.
         22    1    4    4    0    0 -0.16793590562E+01 -0.30677913945E-01  0.45033298379E+01  0.48063674020E+01  0.00000000000E+00 0. -1.
<mgrwt>
<rscale>  0 0.86393797E+02</rscale>
<asrwt>0</asrwt>
<pdfrwt beam="1">  1        2 0.44026855E-01 0.86393797E+02</pdfrwt>
<pdfrwt beam="2">  1       -2 0.10031382E-02 0.86393797E+02</pdfrwt>
<totfact> 0.20374689E+05</totfact>
</mgrwt>
</event>
<event>
 7    1  0.3480999E-009  0.9321150E+02  0.7818608E-02  0.1295256E+00
          2   -1    0    0  501    0  0.00000000000E+00  0.00000000000E+00  0.15907690596E+02  0.15907690801E+02  0.25500000000E-02 0. -1.
         -2   -1    0    0    0  501 -0.00000000000E+00 -0.00000000000E+00 -0.13654374953E+03  0.13654374955E+03  0.25500000000E-02 0.  1.
         23    2    1    2    0    0  0.00000000000E+00 -0.88817841970E-15 -0.12063605893E+03  0.15245144035E+03  0.93211495810E+02 0.  0.
    9000005    2    3    3    0    0  0.45012697901E+02 -0.68977069086E+01 -0.56163791328E+02  0.73518591532E+02  0.13300019233E+02 0.  0.
         22    1    3    3    0    0 -0.45012697901E+02  0.68977069086E+01 -0.64472267606E+02  0.78932848822E+02  0.00000000000E+00 0. -1.
         22    1    4    4    0    0  0.33647364832E+01  0.19385870571E+01 -0.99591483346E+01  0.10689443715E+02  0.00000000000E+00 0.  1.
         22    1    4    4    0    0  0.41647961418E+02 -0.88362939657E+01 -0.46204642993E+02  0.62829147817E+02  0.00000000000E+00 0.  1.
<mgrwt>
<rscale>  0 0.93211496E+02</rscale>
<asrwt>0</asrwt>
<pdfrwt beam="1">  1        2 0.24473371E-02 0.93211496E+02</pdfrwt>
<pdfrwt beam="2">  1       -2 0.21006730E-01 0.93211496E+02</pdfrwt>
<totfact> 0.68310557E+04</totfact>
</mgrwt>
</event>
<event>
 7    1  0.3480999E-009  0.9030167E+02  0.7818608E-02  0.1302123E+00
          2   -1    0    0  501    0  0.00000000000E+00  0.00000000000E+00  0.51250085156E+03  0.51250085157E+03  0.25500000000E-02 0. -1.
         -2   -1    0    0    0  501 -0.00000000000E+00 -0.00000000000E+00 -0.39777451280E+01  0.39777459453E+01  0.25500000000E-02 0.  1.
         23    2    1    2    0    0  0.00000000000E+00  0.35527136788E-14  0.50852310644E+03  0.51647859752E+03  0.90301671703E+02 0.  0.
    9000005    2    3    3    0    0 -0.15643741123E+02  0.26810626476E+02  0.44055188386E+03  0.44175495048E+03  0.98963412357E+01 0.  0.
         22    1    3    3    0    0  0.15643741123E+02 -0.26810626476E+02  0.67971222578E+02  0.74723647040E+02  0.00000000000E+00 0.  1.
         22    1    4    4    0    0 -0.13967304643E+02  0.15851450550E+02  0.25596602671E+03  0.25683644779E+03  0.00000000000E+00 0. -1.
         22    1    4    4    0    0 -0.16764364791E+01  0.10959175926E+02  0.18458585714E+03  0.18491850268E+03  0.00000000000E+00 0. -1.
<mgrwt>
<rscale>  0 0.90301672E+02</rscale>
<asrwt>0</asrwt>
<pdfrwt beam="1">  1        2 0.78846325E-01 0.90301672E+02</pdfrwt>
<pdfrwt beam="2">  1       -2 0.61196054E-03 0.90301672E+02</pdfrwt>
<totfact> 0.22283025E+05</totfact>
</mgrwt>
</event>
<event>
 7    1  0.3480999E-009  0.9314562E+02  0.7818608E-02  0.1295408E+00
          2   -1    0    0  501    0  0.00000000000E+00  0.00000000000E+00  0.14748181643E+03  0.14748181645E+03  0.25500000000E-02 0. -1.
         -2   -1    0    0    0  501 -0.00000000000E+00 -0.00000000000E+00 -0.14707076933E+02  0.14707077154E+02  0.25500000000E-02 0.  1.
         23    2    1    2    0    0  0.00000000000E+00  0.00000000000E+00  0.13277473950E+03  0.16218889360E+03  0.93145615894E+02 0.  0.
    9000005    2    3    3    0    0 -0.18312649870E+02  0.18458941880E+02  0.45207392129E+00  0.27335738263E+02  0.84233327705E+01 0.  0.
         22    1    3    3    0    0  0.18312649870E+02 -0.18458941880E+02  0.13232266557E+03  0.13485315534E+03  0.00000000000E+00 0. -1.
         22    1    4    4    0    0 -0.17346524438E+02  0.15833790232E+02  0.28404529618E+01  0.23657535717E+02  0.00000000000E+00 0.  1.
         22    1    4    4    0    0 -0.96612543197E+00  0.26251516484E+01 -0.23883790405E+01  0.36782025459E+01  0.00000000000E+00 0.  1.
<mgrwt>
<rscale>  0 0.93145616E+02</rscale>
<asrwt>0</asrwt>
<pdfrwt beam="1">  1        2 0.22689510E-01 0.93145616E+02</pdfrwt>
<pdfrwt beam="2">  1       -2 0.22626273E-02 0.93145616E+02</pdfrwt>
<totfact> 0.13115673E+05</totfact>
</mgrwt>
</event>
<event>
 7    1  0.3480999E-009  0.1215229E+03  0.7818608E-02  0.1240606E+00
          2   -1    0    0  501    0  0.00000000000E+00  0.00000000000E+00  0.25880296674E+02  0.25880296800E+02  0.25500000000E-02 0.  1.
         -2   -1    0    0    0  501 -0.00000000000E+00 -0.00000000000E+00 -0.14265504189E+03  0.14265504191E+03  0.25500000000E-02 0. -1.
         23    2    1    2    0    0  0.00000000000E+00  0.00000000000E+00 -0.11677474522E+03  0.16853533871E+03  0.12152291667E+03 0.  0.
    9000005    2    3    3    0    0  0.36071893601E+02  0.43464487175E+02 -0.30282393983E+02  0.65233499547E+02  0.12167289115E+02 0.  0.
         22    1    3    3    0    0 -0.36071893601E+02 -0.43464487175E+02 -0.86492351232E+02  0.10330183917E+03  0.00000000000E+00 0. -1.
         22    1    4    4    0    0  0.41596342741E+01  0.12853977626E+02 -0.82338764771E+01  0.15821631393E+02  0.00000000000E+00 0.  1.
         22    1    4    4    0    0  0.31912259327E+02  0.30610509548E+02 -0.22048517506E+02  0.49411868153E+02  0.00000000000E+00 0.  1.
<mgrwt>
<rscale>  0 0.12152292E+03</rscale>
<asrwt>0</asrwt>
<pdfrwt beam="1">  1        2 0.39815842E-02 0.12152292E+03</pdfrwt>
<pdfrwt beam="2">  1       -2 0.21946929E-01 0.12152292E+03</pdfrwt>
<totfact> 0.34433102E+04</totfact>
</mgrwt>
</event>
<event>
 7    1  0.3480999E-009  0.9160177E+02  0.7818608E-02  0.1299018E+00
          2   -1    0    0  501    0  0.00000000000E+00  0.00000000000E+00  0.36103128983E+03  0.36103128984E+03  0.25500000000E-02 0. -1.
         -2   -1    0    0    0  501 -0.00000000000E+00 -0.00000000000E+00 -0.58103580631E+01  0.58103586227E+01  0.25500000000E-02 0.  1.
         23    2    1    2    0    0  0.00000000000E+00  0.00000000000E+00  0.35522093177E+03  0.36684164847E+03  0.91601772259E+02 0.  0.
    9000005    2    3    3    0    0 -0.42615783669E+02  0.13379275198E+02  0.20573577674E+03  0.21082587491E+03  0.11190606763E+02 0.  0.
         22    1    3    3    0    0  0.42615783669E+02 -0.13379275198E+02  0.14948515503E+03  0.15601577356E+03  0.00000000000E+00 0. -1.
         22    1    4    4    0    0 -0.20284256997E+02  0.60548304521E+00  0.94326325536E+02  0.96484575870E+02  0.00000000000E+00 0.  1.
         22    1    4    4    0    0 -0.22331526671E+02  0.12773792152E+02  0.11140945120E+03  0.11434129904E+03  0.00000000000E+00 0.  1.
<mgrwt>
<rscale>  0 0.91601772E+02</rscale>
<asrwt>0</asrwt>
<pdfrwt beam="1">  1        2 0.55543265E-01 0.91601772E+02</pdfrwt>
<pdfrwt beam="2">  1       -2 0.89390146E-03 0.91601772E+02</pdfrwt>
<totfact> 0.18999766E+05</totfact>
</mgrwt>
</event>
<event>
 7    1  0.3480999E-009  0.8544605E+02  0.7818608E-02  0.1314270E+00
          2   -1    0    0  501    0  0.00000000000E+00  0.00000000000E+00  0.50037111379E+03  0.50037111380E+03  0.25500000000E-02 0. -1.
         -2   -1    0    0    0  501 -0.00000000000E+00 -0.00000000000E+00 -0.36478061069E+01  0.36478069982E+01  0.25500000000E-02 0.  1.
         23    2    1    2    0    0  0.00000000000E+00  0.00000000000E+00  0.49672330768E+03  0.50401892079E+03  0.85446053879E+02 0.  0.
    9000005    2    3    3    0    0  0.38260325464E+02 -0.22308565156E+01  0.34679116119E+03  0.34926596355E+03  0.15930304025E+02 0.  0.
         22    1    3    3    0    0 -0.38260325464E+02  0.22308565156E+01  0.14993214649E+03  0.15475295725E+03  0.00000000000E+00 0.  1.
         22    1    4    4    0    0  0.19116994564E+02  0.40329242051E+01  0.11977962019E+03  0.12136260285E+03  0.00000000000E+00 0.  1.
         22    1    4    4    0    0  0.19143330900E+02 -0.62637807207E+01  0.22701154100E+03  0.22790336069E+03  0.00000000000E+00 0.  1.
<mgrwt>
<rscale>  0 0.85446054E+02</rscale>
<asrwt>0</asrwt>
<pdfrwt beam="1">  1        2 0.76980161E-01 0.85446054E+02</pdfrwt>
<pdfrwt beam="2">  1       -2 0.56120109E-03 0.85446054E+02</pdfrwt>
<totfact> 0.25579038E+05</totfact>
</mgrwt>
</event>
<event>
 7    1  0.3480999E-009  0.9194625E+02  0.7818608E-02  0.1298206E+00
         -2   -1    0    0    0  501 -0.00000000000E+00  0.00000000000E+00  0.14220658433E+01  0.14220681295E+01  0.25500000000E-02 0. -1.
          2   -1    0    0  501    0  0.00000000000E+00 -0.00000000000E+00 -0.14862368109E+04  0.14862368109E+04  0.25500000000E-02 0.  1.
         23    2    1    2    0    0 -0.35527136788E-14  0.35527136788E-14 -0.14848147450E+04  0.14876588790E+04  0.91946251820E+02 0.  0.
    9000005    2    3    3    0    0  0.13794017789E+02 -0.20761434931E+02 -0.13670548338E+04  0.13672898265E+04  0.46085718622E+01 0.  0.
         22    1    3    3    0    0 -0.13794017789E+02  0.20761434931E+02 -0.11775991119E+03  0.12036905246E+03  0.00000000000E+00 0. -1.
         22    1    4    4    0    0  0.50132065645E+01 -0.60609545949E+01 -0.54427219604E+03  0.54432902806E+03  0.00000000000E+00 0. -1.
         22    1    4    4    0    0  0.87808112246E+01 -0.14700480336E+02 -0.82278263780E+03  0.82296079848E+03  0.00000000000E+00 0. -1.
<mgrwt>
<rscale>  0 0.91946252E+02</rscale>
<asrwt>0</asrwt>
<pdfrwt beam="2">  1        2 0.22865057E+00 0.91946252E+02</pdfrwt>
<pdfrwt beam="1">  1       -2 0.21878073E-03 0.91946252E+02</pdfrwt>
<totfact> 0.23158967E+05</totfact>
</mgrwt>
</event>
<event>
 7    1  0.3480999E-009  0.1125275E+03  0.7818608E-02  0.1255960E+00
          2   -1    0    0  501    0  0.00000000000E+00  0.00000000000E+00  0.16010861076E+02  0.16010861279E+02  0.25500000000E-02 0. -1.
         -2   -1    0    0    0  501 -0.00000000000E+00 -0.00000000000E+00 -0.19771626605E+03  0.19771626607E+03  0.25500000000E-02 0.  1.
         23    2    1    2    0    0  0.00000000000E+00  0.00000000000E+00 -0.18170540498E+03  0.21372712735E+03  0.11252746672E+03 0.  0.
    9000005    2    3    3    0    0 -0.28717683801E+02 -0.32850867587E+02 -0.26930118161E+02  0.52918936409E+02  0.13088074815E+02 0.  0.
         22    1    3    3    0    0  0.28717683801E+02  0.32850867587E+02 -0.15477528682E+03  0.16080819094E+03  0.00000000000E+00 0.  1.
         22    1    4    4    0    0 -0.25077911788E+02 -0.19930388201E+02 -0.17373395786E+02  0.36441143158E+02  0.00000000000E+00 0. -1.
         22    1    4    4    0    0 -0.36397720126E+01 -0.12920479386E+02 -0.95567223748E+01  0.16477793251E+02  0.00000000000E+00 0. -1.
<mgrwt>
<rscale>  0 0.11252747E+03</rscale>
<asrwt>0</asrwt>
<pdfrwt beam="1">  1        2 0.24632096E-02 0.11252747E+03</pdfrwt>
<pdfrwt beam="2">  1       -2 0.30417885E-01 0.11252747E+03</pdfrwt>
<totfact> 0.36558278E+04</totfact>
</mgrwt>
</event>
<event>
 7    1  0.3480999E-009  0.9010679E+02  0.7818608E-02  0.1302593E+00
          2   -1    0    0  501    0  0.00000000000E+00  0.00000000000E+00  0.59639254016E+02  0.59639254071E+02  0.25500000000E-02 0.  1.
         -2   -1    0    0    0  501 -0.00000000000E+00 -0.00000000000E+00 -0.34034773329E+02  0.34034773425E+02  0.25500000000E-02 0. -1.
         23    2    1    2    0    0  0.00000000000E+00  0.00000000000E+00  0.25604480687E+02  0.93674027495E+02  0.90106792175E+02 0.  0.
    9000005    2    3    3    0    0 -0.19646720321E+02  0.18651595313E+02  0.49827194628E+02  0.57333753724E+02  0.83984739366E+01 0.  0.
         22    1    3    3    0    0  0.19646720321E+02 -0.18651595313E+02 -0.24222713942E+02  0.36340273771E+02  0.00000000000E+00 0. -1.
         22    1    4    4    0    0 -0.83093707833E+00  0.39358894662E+01  0.11383604848E+02  0.12073447795E+02  0.00000000000E+00 0. -1.
         22    1    4    4    0    0 -0.18815783243E+02  0.14715705846E+02  0.38443589780E+02  0.45260305929E+02  0.00000000000E+00 0. -1.
<mgrwt>
<rscale>  0 0.90106792E+02</rscale>
<asrwt>0</asrwt>
<pdfrwt beam="1">  1        2 0.91752699E-02 0.90106792E+02</pdfrwt>
<pdfrwt beam="2">  1       -2 0.52361190E-02 0.90106792E+02</pdfrwt>
<totfact> 0.10947832E+05</totfact>
</mgrwt>
</event>
<event>
 7    1  0.3480999E-009  0.9222913E+02  0.7818608E-02  0.1297542E+00
         -2   -1    0    0    0  501 -0.00000000000E+00  0.00000000000E+00  0.30415907900E+01  0.30415918590E+01  0.25500000000E-02 0. -1.
          2   -1    0    0  501    0  0.00000000000E+00 -0.00000000000E+00 -0.69915810361E+03  0.69915810362E+03  0.25500000000E-02 0.  1.
         23    2    1    2    0    0  0.00000000000E+00  0.00000000000E+00 -0.69611651282E+03  0.70219969548E+03  0.92229132614E+02 0.  0.
    9000005    2    3    3    0    0  0.19682380927E+02 -0.39109822716E+02 -0.44342738455E+03  0.44574546974E+03  0.12008499961E+02 0.  0.
         22    1    3    3    0    0 -0.19682380927E+02  0.39109822716E+02 -0.25268912827E+03  0.25645422574E+03  0.00000000000E+00 0.  1.
         22    1    4    4    0    0  0.19193986931E+02 -0.31265952126E+02 -0.39308292797E+03  0.39479128304E+03  0.00000000000E+00 0.  1.
         22    1    4    4    0    0  0.48839399603E+00 -0.78438705901E+01 -0.50344456576E+02  0.50954186702E+02  0.00000000000E+00 0.  1.
<mgrwt>
<rscale>  0 0.92229133E+02</rscale>
<asrwt>0</asrwt>
<pdfrwt beam="2">  1        2 0.10756266E+00 0.92229133E+02</pdfrwt>
<pdfrwt beam="1">  1       -2 0.46793768E-03 0.92229133E+02</pdfrwt>
<totfact> 0.23000231E+05</totfact>
</mgrwt>
</event>
<event>
 7    1  0.3480999E-009  0.9610315E+02  0.7818608E-02  0.1288711E+00
         -2   -1    0    0    0  501 -0.00000000000E+00  0.00000000000E+00  0.19281554198E+01  0.19281571060E+01  0.25500000000E-02 0.  1.
          2   -1    0    0  501    0  0.00000000000E+00 -0.00000000000E+00 -0.11974930110E+04  0.11974930110E+04  0.25500000000E-02 0. -1.
         23    2    1    2    0    0  0.00000000000E+00  0.35527136788E-14 -0.11955648555E+04  0.11994211681E+04  0.96103145674E+02 0.  0.
    9000005    2    3    3    0    0  0.97525117335E+01  0.31021185942E+02 -0.10387896550E+04  0.10393090543E+04  0.46837601168E+01 0.  0.
         22    1    3    3    0    0 -0.97525117335E+01 -0.31021185942E+02 -0.15677520054E+03  0.16011211374E+03  0.00000000000E+00 0.  1.
         22    1    4    4    0    0  0.63692712082E+01  0.25268236715E+02 -0.86070102196E+03  0.86109540738E+03  0.00000000000E+00 0.  1.
         22    1    4    4    0    0  0.33832405253E+01  0.57529492276E+01 -0.17808863305E+03  0.17821364696E+03  0.00000000000E+00 0.  1.
<mgrwt>
<rscale>  0 0.96103146E+02</rscale>
<asrwt>0</asrwt>
<pdfrwt beam="2">  1        2 0.18422910E+00 0.96103146E+02</pdfrwt>
<pdfrwt beam="1">  1       -2 0.29664038E-03 0.96103146E+02</pdfrwt>
<totfact> 0.21648652E+05</totfact>
</mgrwt>
</event>
<event>
 7    1  0.3480999E-009  0.9199373E+02  0.7818608E-02  0.1298094E+00
          2   -1    0    0  501    0  0.00000000000E+00  0.00000000000E+00  0.31368796924E+03  0.31368796925E+03  0.25500000000E-02 0. -1.
         -2   -1    0    0    0  501 -0.00000000000E+00 -0.00000000000E+00 -0.67446370932E+01  0.67446375753E+01  0.25500000000E-02 0.  1.
         23    2    1    2    0    0  0.00000000000E+00  0.00000000000E+00  0.30694333215E+03  0.32043260683E+03  0.91993730046E+02 0.  0.
    9000005    2    3    3    0    0 -0.37527062333E+02 -0.23991040700E+02  0.19023428625E+03  0.19551322549E+03  0.72448072502E+01 0.  0.
         22    1    3    3    0    0  0.37527062333E+02  0.23991040700E+02  0.11670904590E+03  0.12491938134E+03  0.00000000000E+00 0.  1.
         22    1    4    4    0    0 -0.11878078396E+02 -0.80773842775E+01  0.76788400735E+02  0.78120364634E+02  0.00000000000E+00 0. -1.
         22    1    4    4    0    0 -0.25648983937E+02 -0.15913656423E+02  0.11344588552E+03  0.11739286085E+03  0.00000000000E+00 0. -1.
<mgrwt>
<rscale>  0 0.91993730E+02</rscale>
<asrwt>0</asrwt>
<pdfrwt beam="1">  1        2 0.48259692E-01 0.91993730E+02</pdfrwt>
<pdfrwt beam="2">  1       -2 0.10376364E-02 0.91993730E+02</pdfrwt>
<totfact> 0.17836836E+05</totfact>
</mgrwt>
</event>
<event>
 7    1  0.3480999E-009  0.9146845E+02  0.7818608E-02  0.1299334E+00
         -2   -1    0    0    0  501 -0.00000000000E+00  0.00000000000E+00  0.16651069793E+01  0.16651089319E+01  0.25500000000E-02 0.  1.
          2   -1    0    0  501    0  0.00000000000E+00 -0.00000000000E+00 -0.12561464813E+04  0.12561464813E+04  0.25500000000E-02 0. -1.
         23    2    1    2    0    0  0.00000000000E+00  0.35527136788E-14 -0.12544813743E+04  0.12578115902E+04  0.91468453638E+02 0.  0.
    9000005    2    3    3    0    0 -0.23076545481E+02  0.17498458276E+02 -0.11126958613E+04  0.11130985822E+04  0.75928214884E+01 0.  0.
         22    1    3    3    0    0  0.23076545481E+02 -0.17498458276E+02 -0.14178551306E+03  0.14471300808E+03  0.00000000000E+00 0.  1.
         22    1    4    4    0    0 -0.36153567762E+01  0.64542129860E+01 -0.22900787004E+03  0.22912732750E+03  0.00000000000E+00 0. -1.
         22    1    4    4    0    0 -0.19461188705E+02  0.11044245290E+02 -0.88368799124E+03  0.88397125467E+03  0.00000000000E+00 0. -1.
<mgrwt>
<rscale>  0 0.91468454E+02</rscale>
<asrwt>0</asrwt>
<pdfrwt beam="2">  1        2 0.19325255E+00 0.91468454E+02</pdfrwt>
<pdfrwt beam="1">  1       -2 0.25617146E-03 0.91468454E+02</pdfrwt>
<totfact> 0.24510666E+05</totfact>
</mgrwt>
</event>
<event>
 7    1  0.3480999E-009  0.9074099E+02  0.7818608E-02  0.1301067E+00
          2   -1    0    0  501    0  0.00000000000E+00  0.00000000000E+00  0.60614472263E+02  0.60614472317E+02  0.25500000000E-02 0. -1.
         -2   -1    0    0    0  501 -0.00000000000E+00 -0.00000000000E+00 -0.33960234617E+02  0.33960234713E+02  0.25500000000E-02 0.  1.
         23    2    1    2    0    0  0.88817841970E-15  0.00000000000E+00  0.26654237646E+02  0.94574707030E+02  0.90740987571E+02 0.  0.
    9000005    2    3    3    0    0 -0.55696737020E+01 -0.43898693547E+02  0.76051512927E+01  0.46398112597E+02  0.11697434166E+02 0.  0.
         22    1    3    3    0    0  0.55696737020E+01  0.43898693547E+02  0.19049086354E+02  0.48176594433E+02  0.00000000000E+00 0. -1.
         22    1    4    4    0    0  0.78086291742E+00 -0.30456953047E+02  0.80936700348E+01  0.31523693160E+02  0.00000000000E+00 0. -1.
         22    1    4    4    0    0 -0.63505366194E+01 -0.13441740500E+02 -0.48851874206E+00  0.14874419437E+02  0.00000000000E+00 0. -1.
<mgrwt>
<rscale>  0 0.90740988E+02</rscale>
<asrwt>0</asrwt>
<pdfrwt beam="1">  1        2 0.93253033E-02 0.90740988E+02</pdfrwt>
<pdfrwt beam="2">  1       -2 0.52246516E-02 0.90740988E+02</pdfrwt>
<totfact> 0.10780533E+05</totfact>
</mgrwt>
</event>
<event>
 7    1  0.3480999E-009  0.8607993E+02  0.7818608E-02  0.1312632E+00
          2   -1    0    0  501    0  0.00000000000E+00  0.00000000000E+00  0.95235310336E+03  0.95235310337E+03  0.25500000000E-02 0. -1.
         -2   -1    0    0    0  501 -0.00000000000E+00 -0.00000000000E+00 -0.19451166047E+01  0.19451182762E+01  0.25500000000E-02 0.  1.
         23    2    1    2    0    0  0.00000000000E+00  0.00000000000E+00  0.95040798676E+03  0.95429822164E+03  0.86079931090E+02 0.  0.
    9000005    2    3    3    0    0  0.27295409897E+02  0.11332221883E+01  0.84165474715E+03  0.84216619803E+03  0.10717654210E+02 0.  0.
         22    1    3    3    0    0 -0.27295409897E+02 -0.11332221883E+01  0.10875323961E+03  0.11213202361E+03  0.00000000000E+00 0.  1.
         22    1    4    4    0    0  0.47346337264E+00 -0.15185095117E+01  0.11628820763E+03  0.11629908544E+03  0.00000000000E+00 0.  1.
         22    1    4    4    0    0  0.26821946524E+02  0.26517317000E+01  0.72536653952E+03  0.72586711260E+03  0.00000000000E+00 0.  1.
<mgrwt>
<rscale>  0 0.86079931E+02</rscale>
<asrwt>0</asrwt>
<pdfrwt beam="1">  1        2 0.14651605E+00 0.86079931E+02</pdfrwt>
<pdfrwt beam="2">  1       -2 0.29924845E-03 0.86079931E+02</pdfrwt>
<totfact> 0.28992007E+05</totfact>
</mgrwt>
</event>
<event>
 7    1  0.3480999E-009  0.9308321E+02  0.7818608E-02  0.1295552E+00
         -2   -1    0    0    0  501 -0.00000000000E+00  0.00000000000E+00  0.35440629245E+01  0.35440638419E+01  0.25500000000E-02 0.  1.
          2   -1    0    0  501    0  0.00000000000E+00 -0.00000000000E+00 -0.61119705225E+03  0.61119705225E+03  0.25500000000E-02 0. -1.
         23    2    1    2    0    0  0.00000000000E+00  0.00000000000E+00 -0.60765298932E+03  0.61474111610E+03  0.93083212150E+02 0.  0.
    9000005    2    3    3    0    0 -0.41488212788E+02 -0.10824116473E+02 -0.41528136524E+03  0.41764906895E+03  0.11562836001E+02 0.  0.
         22    1    3    3    0    0  0.41488212788E+02  0.10824116473E+02 -0.19237162408E+03  0.19709204715E+03  0.00000000000E+00 0.  1.
         22    1    4    4    0    0 -0.32730434714E+02 -0.13046644151E+02 -0.31645611772E+03  0.31841163723E+03  0.00000000000E+00 0.  1.
         22    1    4    4    0    0 -0.87577780739E+01  0.22225276776E+01 -0.98825247525E+02  0.99237431720E+02  0.00000000000E+00 0.  1.
<mgrwt>
<rscale>  0 0.93083212E+02</rscale>
<asrwt>0</asrwt>
<pdfrwt beam="2">  1        2 0.94030232E-01 0.93083212E+02</pdfrwt>
<pdfrwt beam="1">  1       -2 0.54524101E-03 0.93083212E+02</pdfrwt>
<totfact> 0.21683916E+05</totfact>
</mgrwt>
</event>
<event>
 7    1  0.3480999E-009  0.9204134E+02  0.7818608E-02  0.1297982E+00
          2   -1    0    0  501    0  0.00000000000E+00  0.00000000000E+00  0.50782331977E+01  0.50782338380E+01  0.25500000000E-02 0.  1.
         -2   -1    0    0    0  501 -0.00000000000E+00 -0.00000000000E+00 -0.41705486398E+03  0.41705486399E+03  0.25500000000E-02 0. -1.
         23    2    1    2    0    0 -0.35527136788E-14 -0.35527136788E-14 -0.41197663078E+03  0.42213309782E+03  0.92041338371E+02 0.  0.
    9000005    2    3    3    0    0  0.18208749292E+02  0.21469707176E+02 -0.37230421626E+03  0.37348736471E+03  0.94802568425E+01 0.  0.
         22    1    3    3    0    0 -0.18208749292E+02 -0.21469707176E+02 -0.39672414516E+02  0.48645733118E+02  0.00000000000E+00 0.  1.
         22    1    4    4    0    0  0.21151626908E+01 -0.54583802517E+00 -0.17323411436E+02  0.17460596672E+02  0.00000000000E+00 0.  1.
         22    1    4    4    0    0  0.16093586602E+02  0.22015545202E+02 -0.35498080483E+03  0.35602676803E+03  0.00000000000E+00 0.  1.
<mgrwt>
<rscale>  0 0.92041338E+02</rscale>
<asrwt>0</asrwt>
<pdfrwt beam="1">  1        2 0.78126702E-03 0.92041338E+02</pdfrwt>
<pdfrwt beam="2">  1       -2 0.64162260E-01 0.92041338E+02</pdfrwt>
<totfact> 0.40486683E+04</totfact>
</mgrwt>
</event>
<event>
 7    1  0.3480999E-009  0.8973261E+02  0.7818608E-02  0.1303501E+00
         -2   -1    0    0    0  501 -0.00000000000E+00  0.00000000000E+00  0.70876774488E+01  0.70876779075E+01  0.25500000000E-02 0.  1.
          2   -1    0    0  501    0  0.00000000000E+00 -0.00000000000E+00 -0.28401197507E+03  0.28401197509E+03  0.25500000000E-02 0. -1.
         23    2    1    2    0    0  0.00000000000E+00  0.00000000000E+00 -0.27692429763E+03  0.29109965299E+03  0.89732610334E+02 0.  0.
    9000005    2    3    3    0    0 -0.38742216563E+02  0.16635367909E+02 -0.10012346016E+03  0.10934093673E+03  0.12370867418E+02 0.  0.
         22    1    3    3    0    0  0.38742216563E+02 -0.16635367909E+02 -0.17680083746E+03  0.18175871626E+03  0.00000000000E+00 0. -1.
         22    1    4    4    0    0 -0.10324926649E+02  0.45234227618E+01 -0.14843015431E+02  0.18638148268E+02  0.00000000000E+00 0. -1.
         22    1    4    4    0    0 -0.28417289913E+02  0.12111945147E+02 -0.85280444733E+02  0.90702788464E+02  0.00000000000E+00 0. -1.
<mgrwt>
<rscale>  0 0.89732610E+02</rscale>
<asrwt>0</asrwt>
<pdfrwt beam="2">  1        2 0.43694141E-01 0.89732610E+02</pdfrwt>
<pdfrwt beam="1">  1       -2 0.10904122E-02 0.89732610E+02</pdfrwt>
<totfact> 0.18368743E+05</totfact>
</mgrwt>
</event>
<event>
 7    1  0.3480999E-009  0.9592510E+02  0.7818608E-02  0.1289106E+00
          2   -1    0    0  501    0  0.00000000000E+00  0.00000000000E+00  0.57065390895E+02  0.57065390952E+02  0.25500000000E-02 0. -1.
         -2   -1    0    0    0  501 -0.00000000000E+00 -0.00000000000E+00 -0.40311753284E+02  0.40311753365E+02  0.25500000000E-02 0.  1.
         23    2    1    2    0    0  0.44408920985E-15  0.00000000000E+00  0.16753637611E+02  0.97377144316E+02  0.95925095059E+02 0.  0.
    9000005    2    3    3    0    0 -0.23286610335E+01  0.39110206605E+02  0.34279548536E+02  0.54456421156E+02  0.15980720710E+02 0.  0.
         22    1    3    3    0    0  0.23286610335E+01 -0.39110206605E+02 -0.17525910925E+02  0.42920723161E+02  0.00000000000E+00 0. -1.
         22    1    4    4    0    0 -0.49567309760E+01  0.13476324613E+02  0.44383734578E+01  0.15029293596E+02  0.00000000000E+00 0.  1.
         22    1    4    4    0    0  0.26280699425E+01  0.25633881992E+02  0.29841175078E+02  0.39427127560E+02  0.00000000000E+00 0.  1.
<mgrwt>
<rscale>  0 0.95925095E+02</rscale>
<asrwt>0</asrwt>
<pdfrwt beam="1">  1        2 0.87792909E-02 0.95925095E+02</pdfrwt>
<pdfrwt beam="2">  1       -2 0.62018082E-02 0.95925095E+02</pdfrwt>
<totfact> 0.90585159E+04</totfact>
</mgrwt>
</event>
<event>
 7    1  0.3946224E-009  0.9101369E+02  0.7818608E-02  0.1300415E+00
          2   -1    0    0  501    0  0.00000000000E+00  0.00000000000E+00  0.69766727593E+02  0.69766727639E+02  0.25500000000E-02 0. -1.
         -2   -1    0    0    0  501 -0.00000000000E+00 -0.00000000000E+00 -0.29682813051E+02  0.29682813160E+02  0.25500000000E-02 0.  1.
         23    2    1    2    0    0  0.16653345369E-15 -0.35527136788E-14  0.40083914542E+02  0.99449540800E+02  0.91013685566E+02 0.  0.
    9000005    2    3    3    0    0  0.43141938199E+00 -0.20131378470E+02 -0.22401577218E+02  0.33799748704E+02  0.15334074112E+02 0.  0.
         22    1    3    3    0    0 -0.43141938199E+00  0.20131378470E+02  0.62485491759E+02  0.65649792096E+02  0.00000000000E+00 0. -1.
         22    1    4    4    0    0  0.70727374437E+01 -0.10245575896E+02 -0.68435398039E+01  0.14206670174E+02  0.00000000000E+00 0.  1.
         22    1    4    4    0    0 -0.66413180617E+01 -0.98858025733E+01 -0.15558037414E+02  0.19593078530E+02  0.00000000000E+00 0.  1.
<mgrwt>
<rscale>  0 0.91013686E+02</rscale>
<asrwt>0</asrwt>
<pdfrwt beam="1">  1        2 0.10733343E-01 0.91013686E+02</pdfrwt>
<pdfrwt beam="2">  1       -2 0.45665867E-02 0.91013686E+02</pdfrwt>
<totfact> 0.11107290E+05</totfact>
</mgrwt>
</event>
<event>
 7    1  0.3480999E-009  0.9259870E+02  0.7818608E-02  0.1296678E+00
          2   -1    0    0  501    0  0.00000000000E+00  0.00000000000E+00  0.68216765967E+02  0.68216766015E+02  0.25500000000E-02 0. -1.
         -2   -1    0    0    0  501 -0.00000000000E+00 -0.00000000000E+00 -0.31423796346E+02  0.31423796449E+02  0.25500000000E-02 0.  1.
         23    2    1    2    0    0  0.35527136788E-14  0.00000000000E+00  0.36792969622E+02  0.99640562464E+02  0.92598699098E+02 0.  0.
    9000005    2    3    3    0    0 -0.30200528241E+02  0.33312559601E+02  0.25448796552E+02  0.53267199465E+02  0.12959736095E+02 0.  0.
         22    1    3    3    0    0  0.30200528241E+02 -0.33312559601E+02  0.11344173069E+02  0.46373362999E+02  0.00000000000E+00 0.  1.
         22    1    4    4    0    0 -0.21822802371E+02  0.20917155603E+02  0.10195818537E+02  0.31901674212E+02  0.00000000000E+00 0. -1.
         22    1    4    4    0    0 -0.83777258701E+01  0.12395403998E+02  0.15252978015E+02  0.21365525253E+02  0.00000000000E+00 0. -1.
<mgrwt>
<rscale>  0 0.92598699E+02</rscale>
<asrwt>0</asrwt>
<pdfrwt beam="1">  1        2 0.10494887E-01 0.92598699E+02</pdfrwt>
<pdfrwt beam="2">  1       -2 0.48344303E-02 0.92598699E+02</pdfrwt>
<totfact> 0.10516410E+05</totfact>
</mgrwt>
</event>
<event>
 7    1  0.3480999E-009  0.9384512E+02  0.7818608E-02  0.1293799E+00
          2   -1    0    0  501    0  0.00000000000E+00  0.00000000000E+00  0.29324443496E+03  0.29324443497E+03  0.25500000000E-02 0. -1.
         -2   -1    0    0    0  501 -0.00000000000E+00 -0.00000000000E+00 -0.75081611963E+01  0.75081616293E+01  0.25500000000E-02 0.  1.
         23    2    1    2    0    0  0.00000000000E+00  0.00000000000E+00  0.28573627376E+03  0.30075259660E+03  0.93845118240E+02 0.  0.
    9000005    2    3    3    0    0  0.34345443312E+02  0.30735080223E+02  0.14335137449E+03  0.15109393773E+03  0.12470237335E+02 0.  0.
         22    1    3    3    0    0 -0.34345443312E+02 -0.30735080223E+02  0.14238489927E+03  0.14965865887E+03  0.00000000000E+00 0.  1.
         22    1    4    4    0    0  0.18860570730E+02  0.12549840488E+02  0.86753581764E+02  0.89662721202E+02  0.00000000000E+00 0.  1.
         22    1    4    4    0    0  0.15484872582E+02  0.18185239735E+02  0.56597792726E+02  0.61431216531E+02  0.00000000000E+00 0.  1.
<mgrwt>
<rscale>  0 0.93845118E+02</rscale>
<asrwt>0</asrwt>
<pdfrwt beam="1">  1        2 0.45114521E-01 0.93845118E+02</pdfrwt>
<pdfrwt beam="2">  1       -2 0.11551020E-02 0.93845118E+02</pdfrwt>
<totfact> 0.16491228E+05</totfact>
</mgrwt>
</event>
<event>
 7    1  0.3480999E-009  0.9408208E+02  0.7818608E-02  0.1293257E+00
         -2   -1    0    0    0  501 -0.00000000000E+00  0.00000000000E+00  0.11782811471E+03  0.11782811474E+03  0.25500000000E-02 0.  1.
          2   -1    0    0  501    0  0.00000000000E+00 -0.00000000000E+00 -0.18780402534E+02  0.18780402707E+02  0.25500000000E-02 0. -1.
         23    2    1    2    0    0  0.00000000000E+00  0.35527136788E-14  0.99047712181E+02  0.13660851745E+03  0.94082079863E+02 0.  0.
    9000005    2    3    3    0    0  0.33671465066E+02  0.30072573678E+02  0.35896373928E+02  0.58979793574E+02  0.12326359625E+02 0.  0.
         22    1    3    3    0    0 -0.33671465066E+02 -0.30072573678E+02  0.63151338253E+02  0.77628723875E+02  0.00000000000E+00 0.  1.
         22    1    4    4    0    0  0.81533593346E+01  0.12175363118E+02  0.17352937484E+02  0.22712137170E+02  0.00000000000E+00 0. -1.
         22    1    4    4    0    0  0.25518105731E+02  0.17897210560E+02  0.18543436444E+02  0.36267656405E+02  0.00000000000E+00 0. -1.
<mgrwt>
<rscale>  0 0.94082080E+02</rscale>
<asrwt>0</asrwt>
<pdfrwt beam="2">  1        2 0.28892926E-02 0.94082080E+02</pdfrwt>
<pdfrwt beam="1">  1       -2 0.18127403E-01 0.94082080E+02</pdfrwt>
<totfact> 0.70119096E+04</totfact>
</mgrwt>
</event>
<event>
 7    1  0.3480999E-009  0.8667545E+02  0.7818608E-02  0.1311108E+00
          2   -1    0    0  501    0  0.00000000000E+00  0.00000000000E+00  0.64469056986E+01  0.64469062029E+01  0.25500000000E-02 0. -1.
         -2   -1    0    0    0  501 -0.00000000000E+00 -0.00000000000E+00 -0.29132709692E+03  0.29132709693E+03  0.25500000000E-02 0.  1.
         23    2    1    2    0    0  0.00000000000E+00 -0.88817841970E-15 -0.28488019122E+03  0.29777400313E+03  0.86675449765E+02 0.  0.
    9000005    2    3    3    0    0  0.18240600374E+02 -0.75549343605E+01 -0.27496492991E+03  0.27568081545E+03  0.20982828191E+01 0.  0.
         22    1    3    3    0    0 -0.18240600374E+02  0.75549343605E+01 -0.99152613100E+01  0.22093187684E+02  0.00000000000E+00 0. -1.
         22    1    4    4    0    0  0.16440028438E+02 -0.61771026932E+01 -0.23885156713E+03  0.23949635123E+03  0.00000000000E+00 0.  1.
         22    1    4    4    0    0  0.18005719357E+01 -0.13778316673E+01 -0.36113362781E+02  0.36184464218E+02  0.00000000000E+00 0.  1.
<mgrwt>
<rscale>  0 0.86675450E+02</rscale>
<asrwt>0</asrwt>
<pdfrwt beam="1">  1        2 0.99183191E-03 0.86675450E+02</pdfrwt>
<pdfrwt beam="2">  1       -2 0.44819543E-01 0.86675450E+02</pdfrwt>
<totfact> 0.59043330E+04</totfact>
</mgrwt>
</event>
<event>
 7    1  0.3480999E-009  0.9399231E+02  0.7818608E-02  0.1293462E+00
          2   -1    0    0  501    0  0.00000000000E+00  0.00000000000E+00  0.95967996540E+03  0.95967996540E+03  0.25500000000E-02 0. -1.
         -2   -1    0    0    0  501 -0.00000000000E+00 -0.00000000000E+00 -0.23014318759E+01  0.23014332886E+01  0.25500000000E-02 0.  1.
         23    2    1    2    0    0  0.00000000000E+00  0.35527136788E-14  0.95737853352E+03  0.96198139869E+03  0.93992313391E+02 0.  0.
    9000005    2    3    3    0    0  0.24265547201E+02  0.30395770520E+02  0.74155343019E+03  0.74267979159E+03  0.12612032717E+02 0.  0.
         22    1    3    3    0    0 -0.24265547201E+02 -0.30395770520E+02  0.21582510333E+03  0.21930160709E+03  0.00000000000E+00 0.  1.
         22    1    4    4    0    0  0.25666746407E+02  0.27244035129E+02  0.67475869507E+03  0.67579606087E+03  0.00000000000E+00 0. -1.
         22    1    4    4    0    0 -0.14011992064E+01  0.31517353908E+01  0.66794735120E+02  0.66883730720E+02  0.00000000000E+00 0. -1.
<mgrwt>
<rscale>  0 0.93992313E+02</rscale>
<asrwt>0</asrwt>
<pdfrwt beam="1">  1        2 0.14764304E+00 0.93992313E+02</pdfrwt>
<pdfrwt beam="2">  1       -2 0.35406662E-03 0.93992313E+02</pdfrwt>
<totfact> 0.23019484E+05</totfact>
</mgrwt>
</event>
<event>
 7    1  0.3480999E-009  0.9097283E+02  0.7818608E-02  0.1300513E+00
         -2   -1    0    0    0  501 -0.00000000000E+00  0.00000000000E+00  0.18941223468E+02  0.18941223640E+02  0.25500000000E-02 0.  1.
          2   -1    0    0  501    0  0.00000000000E+00 -0.00000000000E+00 -0.10923338292E+03  0.10923338295E+03  0.25500000000E-02 0. -1.
         23    2    1    2    0    0 -0.88817841970E-15  0.35527136788E-14 -0.90292159448E+02  0.12817460659E+03  0.90972829545E+02 0.  0.
    9000005    2    3    3    0    0 -0.76648268204E+01  0.26374470024E+02 -0.96153726681E+02  0.10009044362E+03  0.42656194629E+01 0.  0.
         22    1    3    3    0    0  0.76648268204E+01 -0.26374470024E+02  0.58615672330E+01  0.28084162969E+02  0.00000000000E+00 0.  1.
         22    1    4    4    0    0 -0.12231749787E+01  0.27899020546E+01 -0.67769851787E+01  0.74301573749E+01  0.00000000000E+00 0. -1.
         22    1    4    4    0    0 -0.64416518416E+01  0.23584567970E+02 -0.89376741502E+02  0.92660286241E+02  0.00000000000E+00 0. -1.
<mgrwt>
<rscale>  0 0.90972830E+02</rscale>
<asrwt>0</asrwt>
<pdfrwt beam="2">  1        2 0.16805135E-01 0.90972830E+02</pdfrwt>
<pdfrwt beam="1">  1       -2 0.29140345E-02 0.90972830E+02</pdfrwt>
<totfact> 0.12683966E+05</totfact>
</mgrwt>
</event>
<event>
 7    1  0.3480999E-009  0.9230856E+02  0.7818608E-02  0.1297356E+00
         -2   -1    0    0    0  501 -0.00000000000E+00  0.00000000000E+00  0.38084646075E+02  0.38084646161E+02  0.25500000000E-02 0.  1.
          2   -1    0    0  501    0  0.00000000000E+00 -0.00000000000E+00 -0.55933759557E+02  0.55933759615E+02  0.25500000000E-02 0. -1.
         23    2    1    2    0    0  0.71054273576E-14  0.88817841970E-15 -0.17849113482E+02  0.94018405776E+02  0.92308557418E+02 0.  0.
    9000005    2    3    3    0    0  0.42833203102E+02 -0.67245217641E+01  0.64693993445E+01  0.44306309189E+02  0.64259960430E+01 0.  0.
         22    1    3    3    0    0 -0.42833203102E+02  0.67245217641E+01 -0.24318512827E+02  0.49712096587E+02  0.00000000000E+00 0. -1.
         22    1    4    4    0    0  0.79151232717E+01  0.11057369916E+01  0.33452918789E+00  0.79989837153E+01  0.00000000000E+00 0.  1.
         22    1    4    4    0    0  0.34918079830E+02 -0.78302587557E+01  0.61348701566E+01  0.36307325474E+02  0.00000000000E+00 0.  1.
<mgrwt>
<rscale>  0 0.92308557E+02</rscale>
<asrwt>0</asrwt>
<pdfrwt beam="2">  1        2 0.86051938E-02 0.92308557E+02</pdfrwt>
<pdfrwt beam="1">  1       -2 0.58591763E-02 0.92308557E+02</pdfrwt>
<totfact> 0.10052180E+05</totfact>
</mgrwt>
</event>
<event>
 7    1  0.3480999E-009  0.1103691E+03  0.7818608E-02  0.1259888E+00
         -2   -1    0    0    0  501 -0.00000000000E+00  0.00000000000E+00  0.20525366971E+02  0.20525367130E+02  0.25500000000E-02 0.  1.
          2   -1    0    0  501    0  0.00000000000E+00 -0.00000000000E+00 -0.14836927976E+03  0.14836927979E+03  0.25500000000E-02 0. -1.
         23    2    1    2    0    0 -0.11102230246E-15 -0.71054273576E-14 -0.12784391279E+03  0.16889464692E+03  0.11036908860E+03 0.  0.
    9000005    2    3    3    0    0 -0.63771787016E+00  0.54083436325E+02 -0.77192060467E+02  0.94793129301E+02  0.10084562192E+02 0.  0.
         22    1    3    3    0    0  0.63771787016E+00 -0.54083436325E+02 -0.50651852325E+02  0.74101517615E+02  0.00000000000E+00 0. -1.
         22    1    4    4    0    0  0.73920062640E+00  0.43050443517E+02 -0.67390691182E+02  0.79971197081E+02  0.00000000000E+00 0. -1.
         22    1    4    4    0    0 -0.13769184966E+01  0.11032992809E+02 -0.98013692849E+01  0.14821932220E+02  0.00000000000E+00 0. -1.
<mgrwt>
<rscale>  0 0.11036909E+03</rscale>
<asrwt>0</asrwt>
<pdfrwt beam="2">  1        2 0.22826042E-01 0.11036909E+03</pdfrwt>
<pdfrwt beam="1">  1       -2 0.31577489E-02 0.11036909E+03</pdfrwt>
<totfact> 0.82356397E+04</totfact>
</mgrwt>
</event>
<event>
 7    1  0.3480999E-009  0.8872435E+02  0.7818608E-02  0.1305971E+00
         -2   -1    0    0    0  501 -0.00000000000E+00  0.00000000000E+00  0.35458717527E+02  0.35458717619E+02  0.25500000000E-02 0.  1.
          2   -1    0    0  501    0  0.00000000000E+00 -0.00000000000E+00 -0.55501232551E+02  0.55501232609E+02  0.25500000000E-02 0. -1.
         23    2    1    2    0    0  0.00000000000E+00  0.00000000000E+00 -0.20042515023E+02  0.90959950228E+02  0.88724349178E+02 0.  0.
    9000005    2    3    3    0    0  0.43290102534E+02  0.86335997908E+01 -0.11880272735E+02  0.46069035535E+02  0.57134168498E+01 0.  0.
         22    1    3    3    0    0 -0.43290102534E+02 -0.86335997908E+01 -0.81622422880E+01  0.44890914693E+02  0.00000000000E+00 0. -1.
         22    1    4    4    0    0  0.23321445030E+02  0.58595954471E+01 -0.37773522308E+01  0.24341180065E+02  0.00000000000E+00 0. -1.
         22    1    4    4    0    0  0.19968657505E+02  0.27740043437E+01 -0.81029205046E+01  0.21727855470E+02  0.00000000000E+00 0. -1.
<mgrwt>
<rscale>  0 0.88724349E+02</rscale>
<asrwt>0</asrwt>
<pdfrwt beam="2">  1        2 0.85386512E-02 0.88724349E+02</pdfrwt>
<pdfrwt beam="1">  1       -2 0.54551873E-02 0.88724349E+02</pdfrwt>
<totfact> 0.11220474E+05</totfact>
</mgrwt>
</event>
<event>
 7    1  0.3480999E-009  0.9282718E+02  0.7818608E-02  0.1296146E+00
          2   -1    0    0  501    0  0.00000000000E+00  0.00000000000E+00  0.13854260437E+04  0.13854260437E+04  0.25500000000E-02 0. -1.
         -2   -1    0    0    0  501 -0.00000000000E+00 -0.00000000000E+00 -0.15549151949E+01  0.15549172859E+01  0.25500000000E-02 0.  1.
         23    2    1    2    0    0 -0.35527136788E-14  0.00000000000E+00  0.13838711285E+04  0.13869809610E+04  0.92827182623E+02 0.  0.
    9000005    2    3    3    0    0  0.22695053479E+02  0.20657964275E+02  0.12110530200E+04  0.12114591231E+04  0.64786423302E+01 0.  0.
         22    1    3    3    0    0 -0.22695053479E+02 -0.20657964275E+02  0.17281810852E+03  0.17552183788E+03  0.00000000000E+00 0.  1.
         22    1    4    4    0    0  0.19425788622E+02  0.16671635909E+02  0.90227470031E+03  0.90263776762E+03  0.00000000000E+00 0. -1.
         22    1    4    4    0    0  0.32692648566E+01  0.39863283655E+01  0.30877831965E+03  0.30882135547E+03  0.00000000000E+00 0. -1.
<mgrwt>
<rscale>  0 0.92827183E+02</rscale>
<asrwt>0</asrwt>
<pdfrwt beam="1">  1        2 0.21314246E+00 0.92827183E+02</pdfrwt>
<pdfrwt beam="2">  1       -2 0.23921790E-03 0.92827183E+02</pdfrwt>
<totfact> 0.23091966E+05</totfact>
</mgrwt>
</event>
<event>
 7    1  0.3480999E-009  0.9118939E+02  0.7818608E-02  0.1299997E+00
          2   -1    0    0  501    0  0.00000000000E+00  0.00000000000E+00  0.17948113716E+03  0.17948113717E+03  0.25500000000E-02 0. -1.
         -2   -1    0    0    0  501 -0.00000000000E+00 -0.00000000000E+00 -0.11582699394E+02  0.11582699675E+02  0.25500000000E-02 0.  1.
         23    2    1    2    0    0  0.00000000000E+00  0.00000000000E+00  0.16789843776E+03  0.19106383685E+03  0.91189387258E+02 0.  0.
    9000005    2    3    3    0    0  0.42460371157E+02  0.74758256602E+01  0.57691599568E+02  0.72723994561E+02  0.10084028761E+02 0.  0.
         22    1    3    3    0    0 -0.42460371157E+02 -0.74758256602E+01  0.11020683819E+03  0.11833984229E+03  0.00000000000E+00 0. -1.
         22    1    4    4    0    0  0.17813712802E+02 -0.11742930974E+01  0.19316309211E+02  0.26302606898E+02  0.00000000000E+00 0.  1.
         22    1    4    4    0    0  0.24646658355E+02  0.86501187576E+01  0.38375290357E+02  0.46421387663E+02  0.00000000000E+00 0.  1.
<mgrwt>
<rscale>  0 0.91189387E+02</rscale>
<asrwt>0</asrwt>
<pdfrwt beam="1">  1        2 0.27612483E-01 0.91189387E+02</pdfrwt>
<pdfrwt beam="2">  1       -2 0.17819537E-02 0.91189387E+02</pdfrwt>
<totfact> 0.14873865E+05</totfact>
</mgrwt>
</event>
<event>
 7    1  0.3480999E-009  0.9009529E+02  0.7818608E-02  0.1302621E+00
          2   -1    0    0  501    0  0.00000000000E+00  0.00000000000E+00  0.86965640026E+01  0.86965643764E+01  0.25500000000E-02 0. -1.
         -2   -1    0    0    0  501 -0.00000000000E+00 -0.00000000000E+00 -0.23334390129E+03  0.23334390130E+03  0.25500000000E-02 0.  1.
         23    2    1    2    0    0 -0.71054273576E-14  0.00000000000E+00 -0.22464733729E+03  0.24204046568E+03  0.90095287759E+02 0.  0.
    9000005    2    3    3    0    0  0.38392232144E+02 -0.19799242327E+02 -0.14272164543E+03  0.14942409309E+03  0.95978140842E+01 0.  0.
         22    1    3    3    0    0 -0.38392232144E+02  0.19799242327E+02 -0.81925691853E+02  0.92616372588E+02  0.00000000000E+00 0. -1.
         22    1    4    4    0    0  0.25606497386E+02 -0.81320646136E+01 -0.90984198653E+02  0.94868053568E+02  0.00000000000E+00 0.  1.
         22    1    4    4    0    0  0.12785734758E+02 -0.11667177714E+02 -0.51737446779E+02  0.54556039522E+02  0.00000000000E+00 0.  1.
<mgrwt>
<rscale>  0 0.90095288E+02</rscale>
<asrwt>0</asrwt>
<pdfrwt beam="1">  1        2 0.13379331E-02 0.90095288E+02</pdfrwt>
<pdfrwt beam="2">  1       -2 0.35899057E-01 0.90095288E+02</pdfrwt>
<totfact> 0.59902546E+04</totfact>
</mgrwt>
</event>
<event>
 7    1  0.3480999E-009  0.8971838E+02  0.7818608E-02  0.1303535E+00
          2   -1    0    0  501    0  0.00000000000E+00  0.00000000000E+00  0.93430832819E+02  0.93430832854E+02  0.25500000000E-02 0. -1.
         -2   -1    0    0    0  501 -0.00000000000E+00 -0.00000000000E+00 -0.21538361141E+02  0.21538361292E+02  0.25500000000E-02 0.  1.
         23    2    1    2    0    0  0.17763568394E-14  0.00000000000E+00  0.71892471678E+02  0.11496919415E+03  0.89718382279E+02 0.  0.
    9000005    2    3    3    0    0 -0.14560130650E+02 -0.35530158900E+02  0.63905140719E+02  0.75749466306E+02  0.13406156771E+02 0.  0.
         22    1    3    3    0    0  0.14560130650E+02  0.35530158900E+02  0.79873309586E+01  0.39219727840E+02  0.00000000000E+00 0.  1.
         22    1    4    4    0    0  0.25459178133E+01 -0.60332698985E+01  0.93598020709E+01  0.11423131707E+02  0.00000000000E+00 0.  1.
         22    1    4    4    0    0 -0.17106048464E+02 -0.29496889001E+02  0.54545338648E+02  0.64326334600E+02  0.00000000000E+00 0.  1.
<mgrwt>
<rscale>  0 0.89718382E+02</rscale>
<asrwt>0</asrwt>
<pdfrwt beam="1">  1        2 0.14373974E-01 0.89718382E+02</pdfrwt>
<pdfrwt beam="2">  1       -2 0.33135940E-02 0.89718382E+02</pdfrwt>
<totfact> 0.12564743E+05</totfact>
</mgrwt>
</event>
<event>
 7    1  0.3480999E-009  0.9213338E+02  0.7818608E-02  0.1297766E+00
         -2   -1    0    0    0  501 -0.00000000000E+00  0.00000000000E+00  0.40117760632E+02  0.40117760713E+02  0.25500000000E-02 0.  1.
          2   -1    0    0  501    0  0.00000000000E+00 -0.00000000000E+00 -0.52897762411E+02  0.52897762473E+02  0.25500000000E-02 0. -1.
         23    2    1    2    0    0  0.17763568394E-14  0.00000000000E+00 -0.12780001779E+02  0.93015523186E+02  0.92133376732E+02 0.  0.
    9000005    2    3    3    0    0  0.11363021982E+02 -0.27670524337E+02  0.28216981852E+02  0.42265854689E+02  0.97687369764E+01 0.  0.
         22    1    3    3    0    0 -0.11363021982E+02  0.27670524337E+02 -0.40996983631E+02  0.50749668497E+02  0.00000000000E+00 0. -1.
         22    1    4    4    0    0  0.10824585342E+02 -0.28489752088E+02  0.27517687185E+02  0.41061669838E+02  0.00000000000E+00 0. -1.
         22    1    4    4    0    0  0.53843663985E+00  0.81922775143E+00  0.69929466719E+00  0.12041848510E+01  0.00000000000E+00 0. -1.
<mgrwt>
<rscale>  0 0.92133377E+02</rscale>
<asrwt>0</asrwt>
<pdfrwt beam="2">  1        2 0.81381173E-02 0.92133377E+02</pdfrwt>
<pdfrwt beam="1">  1       -2 0.61719632E-02 0.92133377E+02</pdfrwt>
<totfact> 0.99578005E+04</totfact>
</mgrwt>
</event>
<event>
 7    1  0.3480999E-009  0.9094303E+02  0.7818608E-02  0.1300584E+00
         -2   -1    0    0    0  501 -0.00000000000E+00  0.00000000000E+00  0.85653796248E+00  0.85654175827E+00  0.25500000000E-02 0.  1.
          2   -1    0    0  501    0  0.00000000000E+00 -0.00000000000E+00 -0.24139666365E+04  0.24139666365E+04  0.25500000000E-02 0. -1.
         23    2    1    2    0    0  0.17763568394E-14  0.00000000000E+00 -0.24131100985E+04  0.24148231783E+04  0.90943029398E+02 0.  0.
    9000005    2    3    3    0    0 -0.15076858678E+02  0.60776456752E+01 -0.23320023418E+04  0.23321024575E+04  0.14237294078E+02 0.  0.
         22    1    3    3    0    0  0.15076858678E+02 -0.60776456752E+01 -0.81107756727E+02  0.82720720777E+02  0.00000000000E+00 0.  1.
         22    1    4    4    0    0 -0.10234413688E+02 -0.52010322259E+00 -0.65511304818E+03  0.65519319259E+03  0.00000000000E+00 0.  1.
         22    1    4    4    0    0 -0.48424449904E+01  0.65977488978E+01 -0.16768892936E+04  0.16769092649E+04  0.00000000000E+00 0.  1.
<mgrwt>
<rscale>  0 0.90943029E+02</rscale>
<asrwt>0</asrwt>
<pdfrwt beam="2">  1        2 0.37137404E+00 0.90943029E+02</pdfrwt>
<pdfrwt beam="1">  1       -2 0.13177730E-03 0.90943029E+02</pdfrwt>
<totfact> 0.15804832E+05</totfact>
</mgrwt>
</event>
<event>
 7    1  0.3480999E-009  0.9961563E+02  0.7818608E-02  0.1281106E+00
          2   -1    0    0  501    0  0.00000000000E+00  0.00000000000E+00  0.50152451215E+03  0.50152451215E+03  0.25500000000E-02 0. -1.
         -2   -1    0    0    0  501 -0.00000000000E+00 -0.00000000000E+00 -0.49465542273E+01  0.49465548845E+01  0.25500000000E-02 0.  1.
         23    2    1    2    0    0  0.00000000000E+00  0.00000000000E+00  0.49657795792E+03  0.50647106704E+03  0.99615628567E+02 0.  0.
    9000005    2    3    3    0    0 -0.26771208878E+02  0.30593214658E+02  0.38944770372E+03  0.39188688936E+03  0.15911559200E+02 0.  0.
         22    1    3    3    0    0  0.26771208878E+02 -0.30593214658E+02  0.10713025420E+03  0.11458417767E+03  0.00000000000E+00 0.  1.
         22    1    4    4    0    0 -0.18230452812E+02  0.24223291091E+02  0.21663707029E+03  0.21874811419E+03  0.00000000000E+00 0. -1.
         22    1    4    4    0    0 -0.85407560662E+01  0.63699235673E+01  0.17281063343E+03  0.17313877517E+03  0.00000000000E+00 0. -1.
<mgrwt>
<rscale>  0 0.99615629E+02</rscale>
<asrwt>0</asrwt>
<pdfrwt beam="1">  1        2 0.77157637E-01 0.99615629E+02</pdfrwt>
<pdfrwt beam="2">  1       -2 0.76100820E-03 0.99615629E+02</pdfrwt>
<totfact> 0.17046287E+05</totfact>
</mgrwt>
</event>
<event>
 7    1  0.3480999E-009  0.9096201E+02  0.7818608E-02  0.1300539E+00
         -2   -1    0    0    0  501 -0.00000000000E+00  0.00000000000E+00  0.69028978471E+01  0.69028983181E+01  0.25500000000E-02 0.  1.
          2   -1    0    0  501    0  0.00000000000E+00 -0.00000000000E+00 -0.29965992537E+03  0.29965992538E+03  0.25500000000E-02 0. -1.
         23    2    1    2    0    0  0.00000000000E+00  0.00000000000E+00 -0.29275702752E+03  0.30656282370E+03  0.90962012457E+02 0.  0.
    9000005    2    3    3    0    0  0.20476736927E+02  0.24710155106E+01 -0.28276582150E+03  0.28364499503E+03  0.85188454503E+01 0.  0.
         22    1    3    3    0    0 -0.20476736927E+02 -0.24710155106E+01 -0.99912060231E+01  0.22917828663E+02  0.00000000000E+00 0.  1.
         22    1    4    4    0    0  0.17654329618E+02  0.24510609370E+01 -0.18947277579E+03  0.19030926362E+03  0.00000000000E+00 0.  1.
         22    1    4    4    0    0  0.28224073083E+01  0.19954573631E-01 -0.93293045708E+02  0.93335731415E+02  0.00000000000E+00 0.  1.
<mgrwt>
<rscale>  0 0.90962012E+02</rscale>
<asrwt>0</asrwt>
<pdfrwt beam="2">  1        2 0.46101517E-01 0.90962012E+02</pdfrwt>
<pdfrwt beam="1">  1       -2 0.10619846E-02 0.90962012E+02</pdfrwt>
<totfact> 0.18071832E+05</totfact>
</mgrwt>
</event>
<event>
 7    1  0.3480999E-009  0.9295858E+02  0.7818608E-02  0.1295841E+00
         -2   -1    0    0    0  501 -0.00000000000E+00  0.00000000000E+00  0.17313349614E+03  0.17313349616E+03  0.25500000000E-02 0.  1.
          2   -1    0    0  501    0  0.00000000000E+00 -0.00000000000E+00 -0.12477796582E+02  0.12477796843E+02  0.25500000000E-02 0. -1.
         23    2    1    2    0    0  0.00000000000E+00 -0.35527136788E-14  0.16065569956E+03  0.18561129300E+03  0.92958583730E+02 0.  0.
    9000005    2    3    3    0    0 -0.10919814425E+02  0.18260880310E+02  0.16270990280E+03  0.16423556266E+03  0.67901013411E+01 0.  0.
         22    1    3    3    0    0  0.10919814425E+02 -0.18260880310E+02 -0.20542032404E+01  0.21375730343E+02  0.00000000000E+00 0. -1.
         22    1    4    4    0    0 -0.68922105077E+00  0.28102775018E+00  0.12424061340E+01  0.14483008165E+01  0.00000000000E+00 0. -1.
         22    1    4    4    0    0 -0.10230593374E+02  0.17979852559E+02  0.16146749666E+03  0.16278726184E+03  0.00000000000E+00 0. -1.
<mgrwt>
<rscale>  0 0.92958584E+02</rscale>
<asrwt>0</asrwt>
<pdfrwt beam="2">  1        2 0.19196611E-02 0.92958584E+02</pdfrwt>
<pdfrwt beam="1">  1       -2 0.26635922E-01 0.92958584E+02</pdfrwt>
<totfact> 0.62975898E+04</totfact>
</mgrwt>
</event>
<event>
 7    1  0.3480999E-009  0.9231515E+02  0.7818608E-02  0.1297340E+00
         -2   -1    0    0    0  501 -0.00000000000E+00  0.00000000000E+00  0.63985894616E+02  0.63985894667E+02  0.25500000000E-02 0.  1.
          2   -1    0    0  501    0  0.00000000000E+00 -0.00000000000E+00 -0.33296742360E+02  0.33296742457E+02  0.25500000000E-02 0. -1.
         23    2    1    2    0    0  0.35527136788E-14  0.00000000000E+00  0.30689152256E+02  0.97282637124E+02  0.92315152709E+02 0.  0.
    9000005    2    3    3    0    0  0.27275279478E+02  0.22760406463E+02 -0.14154689620E+02  0.40072960257E+02  0.11979563120E+02 0.  0.
         22    1    3    3    0    0 -0.27275279478E+02 -0.22760406463E+02  0.44843841876E+02  0.57209676867E+02  0.00000000000E+00 0.  1.
         22    1    4    4    0    0  0.44586537900E+01  0.10889120088E+02 -0.46823196427E+01  0.12663990175E+02  0.00000000000E+00 0.  1.
         22    1    4    4    0    0  0.22816625688E+02  0.11871286375E+02 -0.94723699773E+01  0.27408970082E+02  0.00000000000E+00 0.  1.
<mgrwt>
<rscale>  0 0.92315153E+02</rscale>
<asrwt>0</asrwt>
<pdfrwt beam="2">  1        2 0.51225758E-02 0.92315153E+02</pdfrwt>
<pdfrwt beam="1">  1       -2 0.98439838E-02 0.92315153E+02</pdfrwt>
<totfact> 0.87675748E+04</totfact>
</mgrwt>
</event>
<event>
 7    1  0.3480999E-009  0.8477517E+02  0.7818608E-02  0.1316022E+00
          2   -1    0    0  501    0  0.00000000000E+00  0.00000000000E+00  0.21509131638E+03  0.21509131639E+03  0.25500000000E-02 0. -1.
         -2   -1    0    0    0  501 -0.00000000000E+00 -0.00000000000E+00 -0.83532309622E+01  0.83532313514E+01  0.25500000000E-02 0.  1.
         23    2    1    2    0    0  0.71054273576E-14 -0.22204460493E-15  0.20673808542E+03  0.22344454775E+03  0.84775172990E+02 0.  0.
    9000005    2    3    3    0    0  0.34640795044E+02 -0.11712593684E+01  0.16704249526E+03  0.17074638451E+03  0.70552160344E+01 0.  0.
         22    1    3    3    0    0 -0.34640795044E+02  0.11712593684E+01  0.39695590160E+02  0.52698163232E+02  0.00000000000E+00 0.  1.
         22    1    4    4    0    0  0.34755365846E+02 -0.69194099469E+00  0.16246154627E+03  0.16613900281E+03  0.00000000000E+00 0. -1.
         22    1    4    4    0    0 -0.11457080198E+00 -0.47931837373E+00  0.45809489890E+01  0.46073817089E+01  0.00000000000E+00 0. -1.
<mgrwt>
<rscale>  0 0.84775173E+02</rscale>
<asrwt>0</asrwt>
<pdfrwt beam="1">  1        2 0.33090973E-01 0.84775173E+02</pdfrwt>
<pdfrwt beam="2">  1       -2 0.12851124E-02 0.84775173E+02</pdfrwt>
<totfact> 0.19296137E+05</totfact>
</mgrwt>
</event>
<event>
 7    1  0.3480999E-009  0.9529901E+02  0.7818608E-02  0.1290504E+00
          2   -1    0    0  501    0  0.00000000000E+00  0.00000000000E+00  0.21198107170E+03  0.21198107172E+03  0.25500000000E-02 0.  1.
         -2   -1    0    0    0  501 -0.00000000000E+00 -0.00000000000E+00 -0.10710745124E+02  0.10710745427E+02  0.25500000000E-02 0. -1.
         23    2    1    2    0    0  0.00000000000E+00  0.00000000000E+00  0.20127032658E+03  0.22269181715E+03  0.95299008716E+02 0.  0.
    9000005    2    3    3    0    0  0.22671195118E+02  0.40108881278E+02  0.11847545165E+03  0.12794110865E+03  0.14484101423E+02 0.  0.
         22    1    3    3    0    0 -0.22671195118E+02 -0.40108881278E+02  0.82794874931E+02  0.94750708495E+02  0.00000000000E+00 0. -1.
         22    1    4    4    0    0  0.20501441751E+02  0.29651416729E+02  0.10309758436E+03  0.10921825639E+03  0.00000000000E+00 0.  1.
         22    1    4    4    0    0  0.21697533669E+01  0.10457464549E+02  0.15377867292E+02  0.18722852264E+02  0.00000000000E+00 0.  1.
<mgrwt>
<rscale>  0 0.95299009E+02</rscale>
<asrwt>0</asrwt>
<pdfrwt beam="1">  1        2 0.32612471E-01 0.95299009E+02</pdfrwt>
<pdfrwt beam="2">  1       -2 0.16478071E-02 0.95299009E+02</pdfrwt>
<totfact> 0.14021947E+05</totfact>
</mgrwt>
</event>
<event>
 7    1  0.3480999E-009  0.8921254E+02  0.7818608E-02  0.1304770E+00
          2   -1    0    0  501    0  0.00000000000E+00  0.00000000000E+00  0.14567453709E+03  0.14567453711E+03  0.25500000000E-02 0. -1.
         -2   -1    0    0    0  501 -0.00000000000E+00 -0.00000000000E+00 -0.13658661026E+02  0.13658661264E+02  0.25500000000E-02 0.  1.
         23    2    1    2    0    0  0.00000000000E+00  0.00000000000E+00  0.13201587606E+03  0.15933319837E+03  0.89212535957E+02 0.  0.
    9000005    2    3    3    0    0  0.20078147444E+02 -0.37019766661E+02  0.88990391278E+02  0.99126990478E+02  0.11544495352E+02 0.  0.
         22    1    3    3    0    0 -0.20078147444E+02  0.37019766661E+02  0.43025484783E+02  0.60206207897E+02  0.00000000000E+00 0.  1.
         22    1    4    4    0    0  0.51414916774E+01 -0.21584761365E+02  0.45354605002E+02  0.50491356238E+02  0.00000000000E+00 0. -1.
         22    1    4    4    0    0  0.14936655767E+02 -0.15435005296E+02  0.43635786276E+02  0.48635634240E+02  0.00000000000E+00 0. -1.
<mgrwt>
<rscale>  0 0.89212536E+02</rscale>
<asrwt>0</asrwt>
<pdfrwt beam="1">  1        2 0.22411467E-01 0.89212536E+02</pdfrwt>
<pdfrwt beam="2">  1       -2 0.21013325E-02 0.89212536E+02</pdfrwt>
<totfact> 0.14684881E+05</totfact>
</mgrwt>
</event>
<event>
 7    1  0.3480999E-009  0.1212994E+03  0.7818608E-02  0.1240969E+00
          2   -1    0    0  501    0  0.00000000000E+00  0.00000000000E+00  0.54422632051E+03  0.54422632051E+03  0.25500000000E-02 0.  1.
         -2   -1    0    0    0  501 -0.00000000000E+00 -0.00000000000E+00 -0.67589319494E+01  0.67589324304E+01  0.25500000000E-02 0. -1.
         23    2    1    2    0    0 -0.17763568394E-14  0.00000000000E+00  0.53746738856E+03  0.55098525295E+03  0.12129944434E+03 0.  0.
    9000005    2    3    3    0    0 -0.14699103999E+02  0.55464644404E+02  0.34763995107E+03  0.35267527724E+03  0.15294612278E+02 0.  0.
         22    1    3    3    0    0  0.14699103999E+02 -0.55464644404E+02  0.18982743749E+03  0.19830997570E+03  0.00000000000E+00 0.  1.
         22    1    4    4    0    0  0.18912909239E+01  0.20928349778E+02  0.11598599047E+03  0.11787418204E+03  0.00000000000E+00 0.  1.
         22    1    4    4    0    0 -0.16590394923E+02  0.34536294626E+02  0.23165396060E+03  0.23480109521E+03  0.00000000000E+00 0.  1.
<mgrwt>
<rscale>  0 0.12129944E+03</rscale>
<asrwt>0</asrwt>
<pdfrwt beam="1">  1        2 0.83727131E-01 0.12129944E+03</pdfrwt>
<pdfrwt beam="2">  1       -2 0.10398357E-02 0.12129944E+03</pdfrwt>
<totfact> 0.10289327E+05</totfact>
</mgrwt>
</event>
<event>
 7    1  0.3480999E-009  0.8945290E+02  0.7818608E-02  0.1304182E+00
         -2   -1    0    0    0  501 -0.00000000000E+00  0.00000000000E+00  0.12125014322E+03  0.12125014325E+03  0.25500000000E-02 0.  1.
          2   -1    0    0  501    0  0.00000000000E+00 -0.00000000000E+00 -0.16498579978E+02  0.16498580175E+02  0.25500000000E-02 0. -1.
         23    2    1    2    0    0  0.00000000000E+00  0.00000000000E+00  0.10475156324E+03  0.13774872342E+03  0.89452897117E+02 0.  0.
    9000005    2    3    3    0    0  0.36277123542E+02  0.15904822207E+02  0.81847528792E+02  0.91992982187E+02  0.13953413218E+02 0.  0.
         22    1    3    3    0    0 -0.36277123542E+02 -0.15904822207E+02  0.22904034452E+02  0.45755741236E+02  0.00000000000E+00 0.  1.
         22    1    4    4    0    0 -0.59496845259E+00  0.24238539847E+01  0.29250627436E+01  0.38451329825E+01  0.00000000000E+00 0. -1.
         22    1    4    4    0    0  0.36872091994E+02  0.13480968222E+02  0.78922466048E+02  0.88147849205E+02  0.00000000000E+00 0. -1.
<mgrwt>
<rscale>  0 0.89452897E+02</rscale>
<asrwt>0</asrwt>
<pdfrwt beam="2">  1        2 0.25382431E-02 0.89452897E+02</pdfrwt>
<pdfrwt beam="1">  1       -2 0.18653868E-01 0.89452897E+02</pdfrwt>
<totfact> 0.78850716E+04</totfact>
</mgrwt>
</event>
<event>
 7    1  0.3480999E-009  0.9146191E+02  0.7818608E-02  0.1299350E+00
         -2   -1    0    0    0  501 -0.00000000000E+00  0.00000000000E+00  0.83960132869E+01  0.83960136741E+01  0.25500000000E-02 0.  1.
          2   -1    0    0  501    0  0.00000000000E+00 -0.00000000000E+00 -0.24908488384E+03  0.24908488385E+03  0.25500000000E-02 0. -1.
         23    2    1    2    0    0  0.00000000000E+00  0.00000000000E+00 -0.24068887055E+03  0.25748089753E+03  0.91461905640E+02 0.  0.
    9000005    2    3    3    0    0  0.11769618259E+02 -0.21849589736E+01 -0.24444706383E+03  0.24493410605E+03  0.97494271978E+01 0.  0.
         22    1    3    3    0    0 -0.11769618259E+02  0.21849589736E+01  0.37581932784E+01  0.12546791478E+02  0.00000000000E+00 0.  1.
         22    1    4    4    0    0  0.87360183111E+01 -0.52782093849E+01 -0.12793010142E+03  0.12833662127E+03  0.00000000000E+00 0.  1.
         22    1    4    4    0    0  0.30335999475E+01  0.30932504113E+01 -0.11651696241E+03  0.11659748478E+03  0.00000000000E+00 0.  1.
<mgrwt>
<rscale>  0 0.91461906E+02</rscale>
<asrwt>0</asrwt>
<pdfrwt beam="2">  1        2 0.38320746E-01 0.91461906E+02</pdfrwt>
<pdfrwt beam="1">  1       -2 0.12916946E-02 0.91461906E+02</pdfrwt>
<totfact> 0.16623586E+05</totfact>
</mgrwt>
</event>
<event>
 7    1  0.3480999E-009  0.9271084E+02  0.7818608E-02  0.1296417E+00
          2   -1    0    0  501    0  0.00000000000E+00  0.00000000000E+00  0.28658952323E+03  0.28658952324E+03  0.25500000000E-02 0. -1.
         -2   -1    0    0    0  501 -0.00000000000E+00 -0.00000000000E+00 -0.74979185522E+01  0.74979189858E+01  0.25500000000E-02 0.  1.
         23    2    1    2    0    0  0.00000000000E+00  0.88817841970E-15  0.27909160467E+03  0.29408744222E+03  0.92710840110E+02 0.  0.
    9000005    2    3    3    0    0  0.22532125559E+02  0.67469765951E+01  0.26540597327E+03  0.26687503913E+03  0.15124069715E+02 0.  0.
         22    1    3    3    0    0 -0.22532125559E+02 -0.67469765951E+01  0.13685631400E+02  0.27212403095E+02  0.00000000000E+00 0.  1.
         22    1    4    4    0    0  0.22315034215E+02  0.20855306521E+01  0.23998746239E+03  0.24103172467E+03  0.00000000000E+00 0.  1.
         22    1    4    4    0    0  0.21709134432E+00  0.46614459430E+01  0.25418510880E+02  0.25843314460E+02  0.00000000000E+00 0.  1.
<mgrwt>
<rscale>  0 0.92710840E+02</rscale>
<asrwt>0</asrwt>
<pdfrwt beam="1">  1        2 0.44090692E-01 0.92710840E+02</pdfrwt>
<pdfrwt beam="2">  1       -2 0.11535261E-02 0.92710840E+02</pdfrwt>
<totfact> 0.16891461E+05</totfact>
</mgrwt>
</event>
<event>
 7    1  0.3480999E-009  0.1007142E+03  0.7818608E-02  0.1278801E+00
          2   -1    0    0  501    0  0.00000000000E+00  0.00000000000E+00  0.56796789870E+03  0.56796789871E+03  0.25500000000E-02 0. -1.
         -2   -1    0    0    0  501 -0.00000000000E+00 -0.00000000000E+00 -0.44647552678E+01  0.44647559960E+01  0.25500000000E-02 0.  1.
         23    2    1    2    0    0 -0.35527136788E-14  0.35527136788E-14  0.56350314344E+03  0.57243265471E+03  0.10071420710E+03 0.  0.
    9000005    2    3    3    0    0 -0.18829895531E+02 -0.21608519908E+02  0.51624826235E+03  0.51716497080E+03  0.11218089866E+02 0.  0.
         22    1    3    3    0    0  0.18829895531E+02  0.21608519908E+02  0.47254881086E+02  0.55267683910E+02  0.00000000000E+00 0.  1.
         22    1    4    4    0    0 -0.19837566855E+02 -0.20273774586E+02  0.50467759667E+03  0.50547406618E+03  0.00000000000E+00 0. -1.
         22    1    4    4    0    0  0.10076713240E+01 -0.13347453224E+01  0.11570665678E+02  0.11690904619E+02  0.00000000000E+00 0. -1.
<mgrwt>
<rscale>  0 0.10071421E+03</rscale>
<asrwt>0</asrwt>
<pdfrwt beam="1">  1        2 0.87379638E-01 0.10071421E+03</pdfrwt>
<pdfrwt beam="2">  1       -2 0.68688578E-03 0.10071421E+03</pdfrwt>
<totfact> 0.17215718E+05</totfact>
</mgrwt>
</event>
<event>
 7    1  0.3480999E-009  0.9530120E+02  0.7818608E-02  0.1290499E+00
          2   -1    0    0  501    0  0.00000000000E+00  0.00000000000E+00  0.49706277166E+02  0.49706277231E+02  0.25500000000E-02 0. -1.
         -2   -1    0    0    0  501 -0.00000000000E+00 -0.00000000000E+00 -0.45679938284E+02  0.45679938355E+02  0.25500000000E-02 0.  1.
         23    2    1    2    0    0  0.00000000000E+00 -0.17763568394E-14  0.40263388821E+01  0.95386215586E+02  0.95301199988E+02 0.  0.
    9000005    2    3    3    0    0 -0.11909718963E+02 -0.14708826441E+02 -0.41728747994E+02  0.45871379869E+02  0.21688939205E+01 0.  0.
         22    1    3    3    0    0  0.11909718963E+02  0.14708826441E+02  0.45755086876E+02  0.49514835717E+02  0.00000000000E+00 0. -1.
         22    1    4    4    0    0 -0.10213662315E+02 -0.12514801676E+02 -0.33572199467E+02  0.37256297936E+02  0.00000000000E+00 0. -1.
         22    1    4    4    0    0 -0.16960566482E+01 -0.21940247656E+01 -0.81565485276E+01  0.86150819328E+01  0.00000000000E+00 0. -1.
<mgrwt>
<rscale>  0 0.95301200E+02</rscale>
<asrwt>0</asrwt>
<pdfrwt beam="1">  1        2 0.76471196E-02 0.95301200E+02</pdfrwt>
<pdfrwt beam="2">  1       -2 0.70276828E-02 0.95301200E+02</pdfrwt>
<totfact> 0.88893911E+04</totfact>
</mgrwt>
</event>
<event>
 7    1  0.3480999E-009  0.8849471E+02  0.7818608E-02  0.1306538E+00
         -2   -1    0    0    0  501 -0.00000000000E+00  0.00000000000E+00  0.34393762901E+03  0.34393762902E+03  0.25500000000E-02 0.  1.
          2   -1    0    0  501    0  0.00000000000E+00 -0.00000000000E+00 -0.56923932767E+01  0.56923938479E+01  0.25500000000E-02 0. -1.
         23    2    1    2    0    0  0.00000000000E+00  0.00000000000E+00  0.33824523573E+03  0.34963002287E+03  0.88494708282E+02 0.  0.
    9000005    2    3    3    0    0  0.38650864969E+02  0.17590015343E+02  0.21459368968E+03  0.21888981160E+03  0.76811435492E+01 0.  0.
         22    1    3    3    0    0 -0.38650864969E+02 -0.17590015343E+02  0.12365154605E+03  0.13074021127E+03  0.00000000000E+00 0. -1.
         22    1    4    4    0    0  0.21827223348E+00  0.14564997248E+01  0.73344096662E+01  0.74808154213E+01  0.00000000000E+00 0. -1.
         22    1    4    4    0    0  0.38432592735E+02  0.16133515618E+02  0.20725928002E+03  0.21140899618E+03  0.00000000000E+00 0. -1.
<mgrwt>
<rscale>  0 0.88494708E+02</rscale>
<asrwt>0</asrwt>
<pdfrwt beam="2">  1        2 0.87575284E-03 0.88494708E+02</pdfrwt>
<pdfrwt beam="1">  1       -2 0.52913482E-01 0.88494708E+02</pdfrwt>
<totfact> 0.50825193E+04</totfact>
</mgrwt>
</event>
<event>
 7    1  0.3480999E-009  0.9072462E+02  0.7818608E-02  0.1301106E+00
          2   -1    0    0  501    0  0.00000000000E+00  0.00000000000E+00  0.47854398057E+03  0.47854398058E+03  0.25500000000E-02 0. -1.
         -2   -1    0    0    0  501 -0.00000000000E+00 -0.00000000000E+00 -0.42999994958E+01  0.43000002519E+01  0.25500000000E-02 0.  1.
         23    2    1    2    0    0  0.00000000000E+00  0.00000000000E+00  0.47424398108E+03  0.48284398083E+03  0.90724617593E+02 0.  0.
    9000005    2    3    3    0    0  0.32485149871E+02  0.29458762313E+02  0.29845593005E+03  0.30166853403E+03  0.22042240722E+01 0.  0.
         22    1    3    3    0    0 -0.32485149871E+02 -0.29458762313E+02  0.17578805103E+03  0.18117544680E+03  0.00000000000E+00 0.  1.
         22    1    4    4    0    0  0.10979160555E+02  0.10305416847E+02  0.10955307802E+03  0.11058309313E+03  0.00000000000E+00 0.  1.
         22    1    4    4    0    0  0.21505989316E+02  0.19153345466E+02  0.18890285203E+03  0.19108544090E+03  0.00000000000E+00 0.  1.
<mgrwt>
<rscale>  0 0.90724618E+02</rscale>
<asrwt>0</asrwt>
<pdfrwt beam="1">  1        2 0.73622180E-01 0.90724618E+02</pdfrwt>
<pdfrwt beam="2">  1       -2 0.66153818E-03 0.90724618E+02</pdfrwt>
<totfact> 0.21522377E+05</totfact>
</mgrwt>
</event>
<event>
 6    1  0.6312707E-009  0.6609754E+03  0.7818608E-02  0.9786400E-01
          2   -1    0    0  501    0  0.00000000000E+00  0.00000000000E+00  0.17149207289E+04  0.17149207289E+04  0.25500000000E-02 0. -1.
         -2   -1    0    0    0  501 -0.00000000000E+00 -0.00000000000E+00 -0.63689305917E+02  0.63689305968E+02  0.25500000000E-02 0.  1.
    9000005    2    1    2    0    0  0.16159696564E+02  0.30414404259E+03  0.11703043663E+04  0.12093512464E+04  0.12385187972E+02 0.  0.
         22    1    1    2    0    0 -0.16159696564E+02 -0.30414404259E+03  0.48092705671E+03  0.56925878852E+03  0.00000000000E+00 0.  1.
         22    1    3    3    0    0  0.15948341549E+02  0.23733659797E+03  0.92881862587E+03  0.95879458180E+03  0.00000000000E+00 0.  1.
         22    1    3    3    0    0  0.21135501545E+00  0.66807444621E+02  0.24148574045E+03  0.25055666458E+03  0.00000000000E+00 0.  1.
<mgrwt>
<rscale>  0 0.66097537E+03</rscale>
<asrwt>0</asrwt>
<pdfrwt beam="1">  1        2 0.26383394E+00 0.66097537E+03</pdfrwt>
<pdfrwt beam="2">  1       -2 0.97983555E-02 0.66097537E+03</pdfrwt>
<totfact> 0.69758311E+02</totfact>
</mgrwt>
</event>
<event>
 7    1  0.3480999E-009  0.9196979E+02  0.7818608E-02  0.1298150E+00
         -2   -1    0    0    0  501 -0.00000000000E+00  0.00000000000E+00  0.15949343525E+01  0.15949363910E+01  0.25500000000E-02 0.  1.
          2   -1    0    0  501    0  0.00000000000E+00 -0.00000000000E+00 -0.13258283509E+04  0.13258283509E+04  0.25500000000E-02 0. -1.
         23    2    1    2    0    0  0.00000000000E+00 -0.88817841970E-15 -0.13242334165E+04  0.13274232873E+04  0.91969789320E+02 0.  0.
    9000005    2    3    3    0    0  0.11760614329E+02  0.63199512277E+01 -0.12969730553E+04  0.12970690268E+04  0.84083508206E+01 0.  0.
         22    1    3    3    0    0 -0.11760614329E+02 -0.63199512277E+01 -0.27260361277E+02  0.30354260489E+02  0.00000000000E+00 0.  1.
         22    1    4    4    0    0  0.61139431665E+01 -0.13317377951E+01 -0.53896877495E+03  0.53900509663E+03  0.00000000000E+00 0. -1.
         22    1    4    4    0    0  0.56466711621E+01  0.76516890228E+01 -0.75800428031E+03  0.75806393016E+03  0.00000000000E+00 0. -1.
<mgrwt>
<rscale>  0 0.91969789E+02</rscale>
<asrwt>0</asrwt>
<pdfrwt beam="2">  1        2 0.20397271E+00 0.91969789E+02</pdfrwt>
<pdfrwt beam="1">  1       -2 0.24537573E-03 0.91969789E+02</pdfrwt>
<totfact> 0.23918491E+05</totfact>
</mgrwt>
</event>
<event>
 7    1  0.3480999E-009  0.9131906E+02  0.7818608E-02  0.1299688E+00
          2   -1    0    0  501    0  0.00000000000E+00  0.00000000000E+00  0.30253510917E+03  0.30253510918E+03  0.25500000000E-02 0. -1.
         -2   -1    0    0    0  501 -0.00000000000E+00 -0.00000000000E+00 -0.68910767663E+01  0.68910772381E+01  0.25500000000E-02 0.  1.
         23    2    1    2    0    0  0.00000000000E+00  0.00000000000E+00  0.29564403241E+03  0.30942618642E+03  0.91319061241E+02 0.  0.
    9000005    2    3    3    0    0 -0.22361209622E+02  0.33692104831E+02  0.21459072224E+03  0.21884572102E+03  0.14459941661E+02 0.  0.
         22    1    3    3    0    0  0.22361209622E+02 -0.33692104831E+02  0.81053310167E+02  0.90580465404E+02  0.00000000000E+00 0.  1.
         22    1    4    4    0    0 -0.18954274371E+02  0.15641295672E+02  0.12213857076E+03  0.12458629585E+03  0.00000000000E+00 0.  1.
         22    1    4    4    0    0 -0.34069352510E+01  0.18050809159E+02  0.92452151480E+02  0.94259425165E+02  0.00000000000E+00 0.  1.
<mgrwt>
<rscale>  0 0.91319061E+02</rscale>
<asrwt>0</asrwt>
<pdfrwt beam="1">  1        2 0.46543867E-01 0.91319061E+02</pdfrwt>
<pdfrwt beam="2">  1       -2 0.10601656E-02 0.91319061E+02</pdfrwt>
<totfact> 0.17947549E+05</totfact>
</mgrwt>
</event>
<event>
 7    1  0.3480999E-009  0.9036811E+02  0.7818608E-02  0.1301963E+00
          2   -1    0    0  501    0  0.00000000000E+00  0.00000000000E+00  0.35515385382E+03  0.35515385383E+03  0.25500000000E-02 0. -1.
         -2   -1    0    0    0  501 -0.00000000000E+00 -0.00000000000E+00 -0.57484909018E+01  0.57484914674E+01  0.25500000000E-02 0.  1.
         23    2    1    2    0    0  0.00000000000E+00  0.00000000000E+00  0.34940536292E+03  0.36090234530E+03  0.90368109444E+02 0.  0.
    9000005    2    3    3    0    0  0.32390099877E+02  0.30153798663E+02  0.14706276884E+03  0.15377703172E+03  0.78452127675E+01 0.  0.
         22    1    3    3    0    0 -0.32390099877E+02 -0.30153798663E+02  0.20234259408E+03  0.20712531358E+03  0.00000000000E+00 0. -1.
         22    1    4    4    0    0  0.11756346024E+02  0.65285658437E+01  0.49631820123E+02  0.51421312823E+02  0.00000000000E+00 0.  1.
         22    1    4    4    0    0  0.20633753853E+02  0.23625232819E+02  0.97430948713E+02  0.10235571890E+03  0.00000000000E+00 0.  1.
<mgrwt>
<rscale>  0 0.90368109E+02</rscale>
<asrwt>0</asrwt>
<pdfrwt beam="1">  1        2 0.54639049E-01 0.90368109E+02</pdfrwt>
<pdfrwt beam="2">  1       -2 0.88438335E-03 0.90368109E+02</pdfrwt>
<totfact> 0.19579741E+05</totfact>
</mgrwt>
</event>
<event>
 7    1  0.3480999E-009  0.1071350E+03  0.7818608E-02  0.1265969E+00
         -2   -1    0    0    0  501 -0.00000000000E+00  0.00000000000E+00  0.23509264549E+02  0.23509264687E+02  0.25500000000E-02 0.  1.
          2   -1    0    0  501    0  0.00000000000E+00 -0.00000000000E+00 -0.12205719211E+03  0.12205719214E+03  0.25500000000E-02 0. -1.
         23    2    1    2    0    0  0.00000000000E+00  0.00000000000E+00 -0.98547927562E+02  0.14556645683E+03  0.10713495847E+03 0.  0.
    9000005    2    3    3    0    0  0.98859680600E+01  0.37475395661E+02 -0.88783348283E+00  0.40496805545E+02  0.11707491903E+02 0.  0.
         22    1    3    3    0    0 -0.98859680600E+01 -0.37475395661E+02 -0.97660094080E+02  0.10506965128E+03  0.00000000000E+00 0. -1.
         22    1    4    4    0    0  0.26107147019E+00  0.19940801437E+02  0.28589582311E+01  0.20146398249E+02  0.00000000000E+00 0.  1.
         22    1    4    4    0    0  0.96248965898E+01  0.17534594224E+02 -0.37467917139E+01  0.20350407296E+02  0.00000000000E+00 0.  1.
<mgrwt>
<rscale>  0 0.10713496E+03</rscale>
<asrwt>0</asrwt>
<pdfrwt beam="2">  1        2 0.18778029E-01 0.10713496E+03</pdfrwt>
<pdfrwt beam="1">  1       -2 0.36168100E-02 0.10713496E+03</pdfrwt>
<totfact> 0.83593079E+04</totfact>
</mgrwt>
</event>
<event>
 7    1  0.3480999E-009  0.8958858E+02  0.7818608E-02  0.1303851E+00
         -2   -1    0    0    0  501 -0.00000000000E+00  0.00000000000E+00  0.24583072641E+02  0.24583072773E+02  0.25500000000E-02 0.  1.
          2   -1    0    0  501    0  0.00000000000E+00 -0.00000000000E+00 -0.81622357645E+02  0.81622357685E+02  0.25500000000E-02 0. -1.
         23    2    1    2    0    0  0.17763568394E-14  0.00000000000E+00 -0.57039285004E+02  0.10620543046E+03  0.89588578652E+02 0.  0.
    9000005    2    3    3    0    0 -0.12212920910E+02 -0.91019253055E+01 -0.78098199372E+02  0.80215464014E+02  0.10158318778E+02 0.  0.
         22    1    3    3    0    0  0.12212920910E+02  0.91019253055E+01  0.21058914367E+02  0.25989966444E+02  0.00000000000E+00 0.  1.
         22    1    4    4    0    0 -0.79094147339E-01 -0.26212126228E+01 -0.32033689654E+02  0.32140850710E+02  0.00000000000E+00 0.  1.
         22    1    4    4    0    0 -0.12133826763E+02 -0.64807126827E+01 -0.46064509718E+02  0.48074613304E+02  0.00000000000E+00 0.  1.
<mgrwt>
<rscale>  0 0.89588579E+02</rscale>
<asrwt>0</asrwt>
<pdfrwt beam="2">  1        2 0.12557286E-01 0.89588579E+02</pdfrwt>
<pdfrwt beam="1">  1       -2 0.37820112E-02 0.89588579E+02</pdfrwt>
<totfact> 0.12128268E+05</totfact>
</mgrwt>
</event>
<event>
 7    1  0.3480999E-009  0.9438148E+02  0.7818608E-02  0.1292575E+00
         -2   -1    0    0    0  501 -0.00000000000E+00  0.00000000000E+00  0.51298051261E+02  0.51298051324E+02  0.25500000000E-02 0. -1.
          2   -1    0    0  501    0  0.00000000000E+00 -0.00000000000E+00 -0.43412294442E+02  0.43412294516E+02  0.25500000000E-02 0.  1.
         23    2    1    2    0    0  0.00000000000E+00  0.00000000000E+00  0.78857568195E+01  0.94710345841E+02  0.94381483611E+02 0.  0.
    9000005    2    3    3    0    0 -0.20635520967E+02 -0.89502821660E+01  0.45409317313E+02  0.50961633076E+02  0.53990434812E+01 0.  0.
         22    1    3    3    0    0  0.20635520967E+02  0.89502821660E+01 -0.37523560494E+02  0.43748712765E+02  0.00000000000E+00 0.  1.
         22    1    4    4    0    0 -0.14503456313E+02 -0.51334214414E+01  0.25489826281E+02  0.29773033177E+02  0.00000000000E+00 0.  1.
         22    1    4    4    0    0 -0.61320646542E+01 -0.38168607246E+01  0.19919491032E+02  0.21188599899E+02  0.00000000000E+00 0.  1.
<mgrwt>
<rscale>  0 0.94381484E+02</rscale>
<asrwt>0</asrwt>
<pdfrwt beam="2">  1        2 0.66788145E-02 0.94381484E+02</pdfrwt>
<pdfrwt beam="1">  1       -2 0.78920079E-02 0.94381484E+02</pdfrwt>
<totfact> 0.88166574E+04</totfact>
</mgrwt>
</event>
<event>
 7    1  0.3480999E-009  0.1103559E+03  0.7818608E-02  0.1259912E+00
         -2   -1    0    0    0  501 -0.00000000000E+00  0.00000000000E+00  0.45944633375E+03  0.45944633376E+03  0.25500000000E-02 0.  1.
          2   -1    0    0  501    0  0.00000000000E+00 -0.00000000000E+00 -0.66266798518E+01  0.66266803425E+01  0.25500000000E-02 0. -1.
         23    2    1    2    0    0  0.00000000000E+00  0.00000000000E+00  0.45281965390E+03  0.46607301410E+03  0.11035585855E+03 0.  0.
    9000005    2    3    3    0    0  0.71244358213E+01 -0.53269265946E+02  0.19263078378E+03  0.20039158755E+03  0.12719953652E+02 0.  0.
         22    1    3    3    0    0 -0.71244358213E+01  0.53269265946E+02  0.26018887012E+03  0.26568142655E+03  0.00000000000E+00 0.  1.
         22    1    4    4    0    0  0.30001200070E+01 -0.49425929346E+02  0.16958861520E+03  0.17666980958E+03  0.00000000000E+00 0. -1.
         22    1    4    4    0    0  0.41243158142E+01 -0.38433365991E+01  0.23042168582E+02  0.23721777971E+02  0.00000000000E+00 0. -1.
<mgrwt>
<rscale>  0 0.11035586E+03</rscale>
<asrwt>0</asrwt>
<pdfrwt beam="2">  1        2 0.10194889E-02 0.11035586E+03</pdfrwt>
<pdfrwt beam="1">  1       -2 0.70684072E-01 0.11035586E+03</pdfrwt>
<totfact> 0.23550803E+04</totfact>
</mgrwt>
</event>
<event>
 7    1  0.3480999E-009  0.8997959E+02  0.7818608E-02  0.1302901E+00
          2   -1    0    0  501    0  0.00000000000E+00  0.00000000000E+00  0.17817429285E+03  0.17817429287E+03  0.25500000000E-02 0. -1.
         -2   -1    0    0    0  501 -0.00000000000E+00 -0.00000000000E+00 -0.11360121308E+02  0.11360121594E+02  0.25500000000E-02 0.  1.
         23    2    1    2    0    0  0.00000000000E+00  0.00000000000E+00  0.16681417154E+03  0.18953441447E+03  0.89979589011E+02 0.  0.
    9000005    2    3    3    0    0  0.18195444648E+02  0.37873802595E+02  0.11337990469E+03  0.12155853637E+03  0.12489029069E+02 0.  0.
         22    1    3    3    0    0 -0.18195444648E+02 -0.37873802595E+02  0.53434266851E+02  0.67975878096E+02  0.00000000000E+00 0.  1.
         22    1    4    4    0    0  0.20632990737E+01  0.68788864262E+01  0.91758869322E+01  0.11652175013E+02  0.00000000000E+00 0.  1.
         22    1    4    4    0    0  0.16132145575E+02  0.30994916169E+02  0.10420401776E+03  0.10990636136E+03  0.00000000000E+00 0.  1.
<mgrwt>
<rscale>  0 0.89979589E+02</rscale>
<asrwt>0</asrwt>
<pdfrwt beam="1">  1        2 0.27411428E-01 0.89979589E+02</pdfrwt>
<pdfrwt beam="2">  1       -2 0.17477111E-02 0.89979589E+02</pdfrwt>
<totfact> 0.15379409E+05</totfact>
</mgrwt>
</event>
<event>
 7    1  0.3480999E-009  0.8789048E+02  0.7818608E-02  0.1308042E+00
          2   -1    0    0  501    0  0.00000000000E+00  0.00000000000E+00  0.32692126224E+02  0.32692126323E+02  0.25500000000E-02 0. -1.
         -2   -1    0    0    0  501 -0.00000000000E+00 -0.00000000000E+00 -0.59071840131E+02  0.59071840186E+02  0.25500000000E-02 0.  1.
         23    2    1    2    0    0  0.71054273576E-14 -0.17763568394E-14 -0.26379713908E+02  0.91763966510E+02  0.87890478686E+02 0.  0.
    9000005    2    3    3    0    0  0.34855885348E+02 -0.15136344244E+02  0.71203482759E+01  0.41105346051E+02  0.13960961783E+02 0.  0.
         22    1    3    3    0    0 -0.34855885348E+02  0.15136344244E+02 -0.33500062183E+02  0.50658620459E+02  0.00000000000E+00 0.  1.
         22    1    4    4    0    0 -0.16047051230E+00 -0.32562610031E+01  0.18678805895E+01  0.37573879760E+01  0.00000000000E+00 0.  1.
         22    1    4    4    0    0  0.35016355860E+02 -0.11880083241E+02  0.52524676864E+01  0.37347958075E+02  0.00000000000E+00 0.  1.
<mgrwt>
<rscale>  0 0.87890479E+02</rscale>
<asrwt>0</asrwt>
<pdfrwt beam="1">  1        2 0.50295579E-02 0.87890479E+02</pdfrwt>
<pdfrwt beam="2">  1       -2 0.90879754E-02 0.87890479E+02</pdfrwt>
<totfact> 0.10078136E+05</totfact>
</mgrwt>
</event>
<event>
 7    1  0.3480999E-009  0.9390964E+02  0.7818608E-02  0.1293651E+00
         -2   -1    0    0    0  501 -0.00000000000E+00  0.00000000000E+00  0.69822967521E+01  0.69822972178E+01  0.25500000000E-02 0. -1.
          2   -1    0    0  501    0  0.00000000000E+00 -0.00000000000E+00 -0.31576357227E+03  0.31576357228E+03  0.25500000000E-02 0.  1.
         23    2    1    2    0    0  0.00000000000E+00  0.35527136788E-14 -0.30878127552E+03  0.32274586950E+03  0.93909638311E+02 0.  0.
    9000005    2    3    3    0    0  0.33413654548E+02  0.28293341997E+02 -0.20543505382E+03  0.21050760930E+03  0.13889086593E+02 0.  0.
         22    1    3    3    0    0 -0.33413654548E+02 -0.28293341997E+02 -0.10334622170E+03  0.11223826019E+03  0.00000000000E+00 0.  1.
         22    1    4    4    0    0  0.26943408214E+02  0.19730038528E+02 -0.17682046057E+03  0.17994637241E+03  0.00000000000E+00 0. -1.
         22    1    4    4    0    0  0.64702463336E+01  0.85633034691E+01 -0.28614593247E+02  0.30561236896E+02  0.00000000000E+00 0. -1.
<mgrwt>
<rscale>  0 0.93909638E+02</rscale>
<asrwt>0</asrwt>
<pdfrwt beam="2">  1        2 0.48579000E-01 0.93909638E+02</pdfrwt>
<pdfrwt beam="1">  1       -2 0.10741998E-02 0.93909638E+02</pdfrwt>
<totfact> 0.16922147E+05</totfact>
</mgrwt>
</event>
<event>
 7    1  0.3480999E-009  0.8968391E+02  0.7818608E-02  0.1303619E+00
          2   -1    0    0  501    0  0.00000000000E+00  0.00000000000E+00  0.45758599925E+02  0.45758599996E+02  0.25500000000E-02 0. -1.
         -2   -1    0    0    0  501 -0.00000000000E+00 -0.00000000000E+00 -0.43943669547E+02  0.43943669621E+02  0.25500000000E-02 0.  1.
         23    2    1    2    0    0  0.00000000000E+00  0.00000000000E+00  0.18149303779E+01  0.89702269616E+02  0.89683907152E+02 0.  0.
    9000005    2    3    3    0    0 -0.40186076767E+02  0.19257896458E+02  0.33368678374E+01  0.45114113840E+02  0.61936450203E+01 0.  0.
         22    1    3    3    0    0  0.40186076767E+02 -0.19257896458E+02 -0.15219374595E+01  0.44588155777E+02  0.00000000000E+00 0.  1.
         22    1    4    4    0    0 -0.13648416455E+01 -0.16064692693E+00  0.89187256326E+00  0.16383030310E+01  0.00000000000E+00 0. -1.
         22    1    4    4    0    0 -0.38821235122E+02  0.19418543385E+02  0.24449952741E+01  0.43475810809E+02  0.00000000000E+00 0. -1.
<mgrwt>
<rscale>  0 0.89683907E+02</rscale>
<asrwt>0</asrwt>
<pdfrwt beam="1">  1        2 0.70397846E-02 0.89683907E+02</pdfrwt>
<pdfrwt beam="2">  1       -2 0.67605646E-02 0.89683907E+02</pdfrwt>
<totfact> 0.10354900E+05</totfact>
</mgrwt>
</event>
<event>
 7    1  0.3480999E-009  0.9057365E+02  0.7818608E-02  0.1301468E+00
         -2   -1    0    0    0  501 -0.00000000000E+00  0.00000000000E+00  0.16602264840E+02  0.16602265036E+02  0.25500000000E-02 0.  1.
          2   -1    0    0  501    0  0.00000000000E+00 -0.00000000000E+00 -0.12353113107E+03  0.12353113110E+03  0.25500000000E-02 0. -1.
         23    2    1    2    0    0  0.00000000000E+00 -0.55511151231E-16 -0.10692886623E+03  0.14013339614E+03  0.90573651127E+02 0.  0.
    9000005    2    3    3    0    0  0.44323414973E+02  0.41032314788E+00 -0.56918768777E+02  0.73307178769E+02  0.13017785523E+02 0.  0.
         22    1    3    3    0    0 -0.44323414973E+02 -0.41032314788E+00 -0.50010097456E+02  0.66826217367E+02  0.00000000000E+00 0.  1.
         22    1    4    4    0    0  0.14254313185E+02  0.32258615378E+01 -0.10768694953E+02  0.18153688827E+02  0.00000000000E+00 0. -1.
         22    1    4    4    0    0  0.30069101788E+02 -0.28155383899E+01 -0.46150073824E+02  0.55153489941E+02  0.00000000000E+00 0. -1.
<mgrwt>
<rscale>  0 0.90573651E+02</rscale>
<asrwt>0</asrwt>
<pdfrwt beam="2">  1        2 0.19004789E-01 0.90573651E+02</pdfrwt>
<pdfrwt beam="1">  1       -2 0.25541947E-02 0.90573651E+02</pdfrwt>
<totfact> 0.13347793E+05</totfact>
</mgrwt>
</event>
<event>
 7    1  0.3480999E-009  0.9140594E+02  0.7818608E-02  0.1299482E+00
          2   -1    0    0  501    0  0.00000000000E+00  0.00000000000E+00  0.42005256145E+03  0.42005256146E+03  0.25500000000E-02 0.  1.
         -2   -1    0    0    0  501 -0.00000000000E+00 -0.00000000000E+00 -0.49726187572E+01  0.49726194111E+01  0.25500000000E-02 0. -1.
         23    2    1    2    0    0  0.71054273576E-14  0.00000000000E+00  0.41507994269E+03  0.42502518087E+03  0.91405938247E+02 0.  0.
    9000005    2    3    3    0    0  0.42153780098E+02 -0.33049421038E+01  0.27681026995E+03  0.28043484157E+03  0.15228624240E+02 0.  0.
         22    1    3    3    0    0 -0.42153780098E+02  0.33049421038E+01  0.13826967274E+03  0.14459033930E+03  0.00000000000E+00 0. -1.
         22    1    4    4    0    0  0.39609489409E+02  0.11761919137E+00  0.22590518492E+03  0.22935142916E+03  0.00000000000E+00 0. -1.
         22    1    4    4    0    0  0.25442906897E+01 -0.34225612952E+01  0.50905085035E+02  0.51083412409E+02  0.00000000000E+00 0. -1.
<mgrwt>
<rscale>  0 0.91405938E+02</rscale>
<asrwt>0</asrwt>
<pdfrwt beam="1">  1        2 0.64623472E-01 0.91405938E+02</pdfrwt>
<pdfrwt beam="2">  1       -2 0.76501831E-03 0.91405938E+02</pdfrwt>
<totfact> 0.20177129E+05</totfact>
</mgrwt>
</event>
<event>
 7    1  0.3480999E-009  0.9162567E+02  0.7818608E-02  0.1298962E+00
         -2   -1    0    0    0  501 -0.00000000000E+00  0.00000000000E+00  0.51104085570E+01  0.51104091932E+01  0.25500000000E-02 0.  1.
          2   -1    0    0  501    0  0.00000000000E+00 -0.00000000000E+00 -0.41069431161E+03  0.41069431162E+03  0.25500000000E-02 0. -1.
         23    2    1    2    0    0  0.71054273576E-14  0.00000000000E+00 -0.40558390306E+03  0.41580472081E+03  0.91625670165E+02 0.  0.
    9000005    2    3    3    0    0 -0.39557747868E+02  0.13964924515E+02 -0.28212797073E+03  0.28541606426E+03  0.10310350760E+02 0.  0.
         22    1    3    3    0    0  0.39557747868E+02 -0.13964924515E+02 -0.12345593232E+03  0.13038865656E+03  0.00000000000E+00 0.  1.
         22    1    4    4    0    0 -0.16318417374E+02  0.11156021178E+01 -0.12394773844E+03  0.12502230672E+03  0.00000000000E+00 0. -1.
         22    1    4    4    0    0 -0.23239330494E+02  0.12849322397E+02 -0.15818023229E+03  0.16039375753E+03  0.00000000000E+00 0. -1.
<mgrwt>
<rscale>  0 0.91625670E+02</rscale>
<asrwt>0</asrwt>
<pdfrwt beam="2">  1        2 0.63183714E-01 0.91625670E+02</pdfrwt>
<pdfrwt beam="1">  1       -2 0.78621707E-03 0.91625670E+02</pdfrwt>
<totfact> 0.19889827E+05</totfact>
</mgrwt>
</event>
<event>
 7    1  0.3480999E-009  0.9097897E+02  0.7818608E-02  0.1300498E+00
          2   -1    0    0  501    0  0.00000000000E+00  0.00000000000E+00  0.45527233434E+03  0.45527233434E+03  0.25500000000E-02 0. -1.
         -2   -1    0    0    0  501 -0.00000000000E+00 -0.00000000000E+00 -0.45451767917E+01  0.45451775070E+01  0.25500000000E-02 0.  1.
         23    2    1    2    0    0  0.00000000000E+00  0.00000000000E+00  0.45072715754E+03  0.45981751185E+03  0.90978973703E+02 0.  0.
    9000005    2    3    3    0    0  0.21963892267E+02 -0.36353691678E+02  0.29268114561E+03  0.29616377572E+03  0.15707501036E+02 0.  0.
         22    1    3    3    0    0 -0.21963892267E+02  0.36353691678E+02  0.15804601193E+03  0.16365373613E+03  0.00000000000E+00 0. -1.
         22    1    4    4    0    0  0.12176470687E+02 -0.13166449768E+02  0.79251242827E+02  0.81255038782E+02  0.00000000000E+00 0.  1.
         22    1    4    4    0    0  0.97874215799E+01 -0.23187241911E+02  0.21342990279E+03  0.21490873694E+03  0.00000000000E+00 0.  1.
<mgrwt>
<rscale>  0 0.90978974E+02</rscale>
<asrwt>0</asrwt>
<pdfrwt beam="1">  1        2 0.70041924E-01 0.90978974E+02</pdfrwt>
<pdfrwt beam="2">  1       -2 0.69925776E-03 0.90978974E+02</pdfrwt>
<totfact> 0.21007637E+05</totfact>
</mgrwt>
</event>
<event>
 6    1  0.7570519E-009  0.1197327E+04  0.7818608E-02  0.9115199E-01
         -2   -1    0    0    0  501 -0.00000000000E+00  0.00000000000E+00  0.33741950908E+03  0.33741950909E+03  0.25500000000E-02 0.  1.
          2   -1    0    0  501    0  0.00000000000E+00 -0.00000000000E+00 -0.10621735580E+04  0.10621735580E+04  0.25500000000E-02 0. -1.
    9000005    2    1    2    0    0 -0.27447362652E+02 -0.59350107594E+03 -0.44788264872E+03  0.74411258902E+03  0.10382352864E+02 0.  0.
         22    1    1    2    0    0  0.27447362652E+02  0.59350107594E+03 -0.27687140015E+03  0.65548047803E+03  0.00000000000E+00 0.  1.
         22    1    3    3    0    0 -0.27715544044E+02 -0.59007914922E+03 -0.44441602915E+03  0.73923417175E+03  0.00000000000E+00 0.  1.
         22    1    3    3    0    0  0.26818139114E+00 -0.34219267213E+01 -0.34666195706E+01  0.48784172630E+01  0.00000000000E+00 0.  1.
<mgrwt>
<rscale>  0 0.11973272E+04</rscale>
<asrwt>0</asrwt>
<pdfrwt beam="2">  1        2 0.16341132E+00 0.11973272E+04</pdfrwt>
<pdfrwt beam="1">  1       -2 0.51910694E-01 0.11973272E+04</pdfrwt>
<totfact> 0.79527654E+01</totfact>
</mgrwt>
</event>
<event>
 7    1  0.3480999E-009  0.8920112E+02  0.7818608E-02  0.1304798E+00
          2   -1    0    0  501    0  0.00000000000E+00  0.00000000000E+00  0.45784951853E+02  0.45784951924E+02  0.25500000000E-02 0. -1.
         -2   -1    0    0    0  501 -0.00000000000E+00 -0.00000000000E+00 -0.43446805677E+02  0.43446805752E+02  0.25500000000E-02 0.  1.
         23    2    1    2    0    0  0.00000000000E+00  0.00000000000E+00  0.23381461755E+01  0.89231757676E+02  0.89201119110E+02 0.  0.
    9000005    2    3    3    0    0  0.18926610139E+02 -0.74401879419E+01 -0.37000007839E+02  0.44947862982E+02  0.15418717151E+02 0.  0.
         22    1    3    3    0    0 -0.18926610139E+02  0.74401879419E+01  0.39338154015E+02  0.44283894694E+02  0.00000000000E+00 0. -1.
         22    1    4    4    0    0  0.44039091472E+01  0.17377064955E+01 -0.20809252742E+02  0.21341017766E+02  0.00000000000E+00 0.  1.
         22    1    4    4    0    0  0.14522700992E+02 -0.91778944374E+01 -0.16190755098E+02  0.23606845216E+02  0.00000000000E+00 0.  1.
<mgrwt>
<rscale>  0 0.89201119E+02</rscale>
<asrwt>0</asrwt>
<pdfrwt beam="1">  1        2 0.70438388E-02 0.89201119E+02</pdfrwt>
<pdfrwt beam="2">  1       -2 0.66841239E-02 0.89201119E+02</pdfrwt>
<totfact> 0.10517274E+05</totfact>
</mgrwt>
</event>
<event>
 7    1  0.3480999E-009  0.9165948E+02  0.7818608E-02  0.1298882E+00
          2   -1    0    0  501    0  0.00000000000E+00  0.00000000000E+00  0.46967789627E+03  0.46967789628E+03  0.25500000000E-02 0.  1.
         -2   -1    0    0    0  501 -0.00000000000E+00 -0.00000000000E+00 -0.44719266400E+01  0.44719273670E+01  0.25500000000E-02 0. -1.
         23    2    1    2    0    0  0.00000000000E+00  0.00000000000E+00  0.46520596964E+03  0.47414982365E+03  0.91659484409E+02 0.  0.
    9000005    2    3    3    0    0  0.20642739264E+02 -0.20285104905E+02  0.41503858182E+03  0.41623285752E+03  0.12456288200E+02 0.  0.
         22    1    3    3    0    0 -0.20642739264E+02  0.20285104905E+02  0.50167387820E+02  0.57916966133E+02  0.00000000000E+00 0. -1.
         22    1    4    4    0    0  0.96890604518E+01 -0.81858371056E+01  0.10471982055E+03  0.10548519629E+03  0.00000000000E+00 0. -1.
         22    1    4    4    0    0  0.10953678813E+02 -0.12099267799E+02  0.31031876127E+03  0.31074766122E+03  0.00000000000E+00 0. -1.
<mgrwt>
<rscale>  0 0.91659484E+02</rscale>
<asrwt>0</asrwt>
<pdfrwt beam="1">  1        2 0.72258137E-01 0.91659484E+02</pdfrwt>
<pdfrwt beam="2">  1       -2 0.68798878E-03 0.91659484E+02</pdfrwt>
<totfact> 0.20815133E+05</totfact>
</mgrwt>
</event>
<event>
 7    1  0.3480999E-009  0.9418967E+02  0.7818608E-02  0.1293012E+00
         -2   -1    0    0    0  501 -0.00000000000E+00  0.00000000000E+00  0.10794092545E+03  0.10794092548E+03  0.25500000000E-02 0.  1.
          2   -1    0    0  501    0  0.00000000000E+00 -0.00000000000E+00 -0.20547566450E+02  0.20547566608E+02  0.25500000000E-02 0. -1.
         23    2    1    2    0    0  0.00000000000E+00  0.00000000000E+00  0.87393359000E+02  0.12848849209E+03  0.94189667170E+02 0.  0.
    9000005    2    3    3    0    0  0.33985547957E+02  0.22620418485E+02  0.16344985136E+02  0.46545998648E+02  0.15253545445E+02 0.  0.
         22    1    3    3    0    0 -0.33985547957E+02 -0.22620418485E+02  0.71048373863E+02  0.81942493439E+02  0.00000000000E+00 0.  1.
         22    1    4    4    0    0  0.20840744141E+02  0.15471260422E+02  0.23563743246E+01  0.26062406170E+02  0.00000000000E+00 0.  1.
         22    1    4    4    0    0  0.13144803816E+02  0.71491580633E+01  0.13988610812E+02  0.20483592478E+02  0.00000000000E+00 0.  1.
<mgrwt>
<rscale>  0 0.94189667E+02</rscale>
<asrwt>0</asrwt>
<pdfrwt beam="2">  1        2 0.31611641E-02 0.94189667E+02</pdfrwt>
<pdfrwt beam="1">  1       -2 0.16606296E-01 0.94189667E+02</pdfrwt>
<totfact> 0.71893594E+04</totfact>
</mgrwt>
</event>
<event>
 7    1  0.3480999E-009  0.9196540E+02  0.7818608E-02  0.1298161E+00
          2   -1    0    0  501    0  0.00000000000E+00  0.00000000000E+00  0.77617588561E+02  0.77617588603E+02  0.25500000000E-02 0. -1.
         -2   -1    0    0    0  501 -0.00000000000E+00 -0.00000000000E+00 -0.27241357929E+02  0.27241358048E+02  0.25500000000E-02 0.  1.
         23    2    1    2    0    0  0.71054273576E-14  0.00000000000E+00  0.50376230631E+02  0.10485894665E+03  0.91965396102E+02 0.  0.
    9000005    2    3    3    0    0  0.42691821808E+02 -0.75080120385E+01  0.42248117899E+02  0.60756473810E+02  0.52424946091E+01 0.  0.
         22    1    3    3    0    0 -0.42691821808E+02  0.75080120385E+01  0.81281127320E+01  0.44102472841E+02  0.00000000000E+00 0. -1.
         22    1    4    4    0    0  0.39783418745E+02 -0.82756554568E+01  0.39783971833E+02  0.56868016451E+02  0.00000000000E+00 0. -1.
         22    1    4    4    0    0  0.29084030635E+01  0.76764341837E+00  0.24641460662E+01  0.38884573590E+01  0.00000000000E+00 0. -1.
<mgrwt>
<rscale>  0 0.91965396E+02</rscale>
<asrwt>0</asrwt>
<pdfrwt beam="1">  1        2 0.11941167E-01 0.91965396E+02</pdfrwt>
<pdfrwt beam="2">  1       -2 0.41909782E-02 0.91965396E+02</pdfrwt>
<totfact> 0.11116951E+05</totfact>
</mgrwt>
</event>
<event>
 7    1  0.3480999E-009  0.9361696E+02  0.7818608E-02  0.1294322E+00
         -2   -1    0    0    0  501 -0.00000000000E+00  0.00000000000E+00  0.23513987822E+01  0.23514001649E+01  0.25500000000E-02 0. -1.
          2   -1    0    0  501    0  0.00000000000E+00 -0.00000000000E+00 -0.93179984617E+03  0.93179984617E+03  0.25500000000E-02 0.  1.
         23    2    1    2    0    0  0.00000000000E+00 -0.71054273576E-14 -0.92944844739E+03  0.93415124634E+03  0.93616957245E+02 0.  0.
    9000005    2    3    3    0    0 -0.58773209786E+01 -0.38418860399E+02 -0.72420003583E+03  0.72525542976E+03  0.43811831753E+01 0.  0.
         22    1    3    3    0    0  0.58773209786E+01  0.38418860399E+02 -0.20524841155E+03  0.20889581657E+03  0.00000000000E+00 0. -1.
         22    1    4    4    0    0 -0.44787857895E+01 -0.31942071282E+02 -0.56821412173E+03  0.56912884620E+03  0.00000000000E+00 0.  1.
         22    1    4    4    0    0 -0.13985351891E+01 -0.64767891169E+01 -0.15598591410E+03  0.15612658357E+03  0.00000000000E+00 0.  1.
<mgrwt>
<rscale>  0 0.93616957E+02</rscale>
<asrwt>0</asrwt>
<pdfrwt beam="2">  1        2 0.14335353E+00 0.93616957E+02</pdfrwt>
<pdfrwt beam="1">  1       -2 0.36175451E-03 0.93616957E+02</pdfrwt>
<totfact> 0.23207961E+05</totfact>
</mgrwt>
</event>
<event>
 7    1  0.3480999E-009  0.9469458E+02  0.7818608E-02  0.1291865E+00
         -2   -1    0    0    0  501 -0.00000000000E+00  0.00000000000E+00  0.25707026524E+01  0.25707039172E+01  0.25500000000E-02 0. -1.
          2   -1    0    0  501    0  0.00000000000E+00 -0.00000000000E+00 -0.87204389297E+03  0.87204389297E+03  0.25500000000E-02 0.  1.
         23    2    1    2    0    0 -0.17763568394E-14 -0.71054273576E-14 -0.86947319032E+03  0.87461459689E+03  0.94694584922E+02 0.  0.
    9000005    2    3    3    0    0 -0.14253840213E+02 -0.35513797590E+02 -0.69010643627E+03  0.69121112300E+03  0.78435571310E+01 0.  0.
         22    1    3    3    0    0  0.14253840213E+02  0.35513797590E+02 -0.17936675404E+03  0.18340347389E+03  0.00000000000E+00 0. -1.
         22    1    4    4    0    0 -0.13104986567E+01 -0.42043298579E+00 -0.13075782207E+02  0.13148013194E+02  0.00000000000E+00 0. -1.
         22    1    4    4    0    0 -0.12943341557E+02 -0.35093364604E+02 -0.67703065407E+03  0.67806310980E+03  0.00000000000E+00 0. -1.
<mgrwt>
<rscale>  0 0.94694585E+02</rscale>
<asrwt>0</asrwt>
<pdfrwt beam="2">  1        2 0.13416036E+00 0.94694585E+02</pdfrwt>
<pdfrwt beam="1">  1       -2 0.39549351E-03 0.94694585E+02</pdfrwt>
<totfact> 0.22350587E+05</totfact>
</mgrwt>
</event>
<event>
 7    1  0.3480999E-009  0.9558187E+02  0.7818608E-02  0.1289871E+00
          2   -1    0    0  501    0  0.00000000000E+00  0.00000000000E+00  0.46309102943E+03  0.46309102943E+03  0.25500000000E-02 0. -1.
         -2   -1    0    0    0  501 -0.00000000000E+00 -0.00000000000E+00 -0.49320185342E+01  0.49320191934E+01  0.25500000000E-02 0.  1.
         23    2    1    2    0    0  0.00000000000E+00  0.00000000000E+00  0.45815901089E+03  0.46802304863E+03  0.95581874768E+02 0.  0.
    9000005    2    3    3    0    0 -0.38960595936E+02  0.90074235157E+01  0.35394920598E+03  0.35640429952E+03  0.12038379568E+02 0.  0.
         22    1    3    3    0    0  0.38960595936E+02 -0.90074235157E+01  0.10420980491E+03  0.11161874911E+03  0.00000000000E+00 0.  1.
         22    1    4    4    0    0 -0.18436310779E+02 -0.14650893751E+01  0.17616788347E+03  0.17713601330E+03  0.00000000000E+00 0. -1.
         22    1    4    4    0    0 -0.20524285157E+02  0.10472512891E+02  0.17778132252E+03  0.17926828622E+03  0.00000000000E+00 0. -1.
<mgrwt>
<rscale>  0 0.95581875E+02</rscale>
<asrwt>0</asrwt>
<pdfrwt beam="1">  1        2 0.71244785E-01 0.95581875E+02</pdfrwt>
<pdfrwt beam="2">  1       -2 0.75877201E-03 0.95581875E+02</pdfrwt>
<totfact> 0.18532984E+05</totfact>
</mgrwt>
</event>
<event>
 7    1  0.3480999E-009  0.9189223E+02  0.7818608E-02  0.1298333E+00
         -2   -1    0    0    0  501 -0.00000000000E+00  0.00000000000E+00  0.13966749972E+02  0.13966750205E+02  0.25500000000E-02 0.  1.
          2   -1    0    0  501    0  0.00000000000E+00 -0.00000000000E+00 -0.15114792520E+03  0.15114792522E+03  0.25500000000E-02 0. -1.
         23    2    1    2    0    0  0.35527136788E-14  0.00000000000E+00 -0.13718117523E+03  0.16511467542E+03  0.91892226025E+02 0.  0.
    9000005    2    3    3    0    0 -0.22918285072E+02  0.20047587275E+02 -0.10007098064E+02  0.34346179798E+02  0.12343601942E+02 0.  0.
         22    1    3    3    0    0  0.22918285072E+02 -0.20047587275E+02 -0.12717407716E+03  0.13076849563E+03  0.00000000000E+00 0. -1.
         22    1    4    4    0    0 -0.20835805449E+02  0.21294765423E+02 -0.72291339916E+01  0.30657106866E+02  0.00000000000E+00 0.  1.
         22    1    4    4    0    0 -0.20824796225E+01 -0.12471781480E+01 -0.27779640721E+01  0.36890729319E+01  0.00000000000E+00 0.  1.
<mgrwt>
<rscale>  0 0.91892226E+02</rscale>
<asrwt>0</asrwt>
<pdfrwt beam="2">  1        2 0.23253526E-01 0.91892226E+02</pdfrwt>
<pdfrwt beam="1">  1       -2 0.21487309E-02 0.91892226E+02</pdfrwt>
<totfact> 0.13722760E+05</totfact>
</mgrwt>
</event>
<event>
 7    1  0.3480999E-009  0.8764271E+02  0.7818608E-02  0.1308663E+00
         -2   -1    0    0    0  501 -0.00000000000E+00  0.00000000000E+00  0.10083647693E+02  0.10083648015E+02  0.25500000000E-02 0.  1.
          2   -1    0    0  501    0  0.00000000000E+00 -0.00000000000E+00 -0.19043815972E+03  0.19043815974E+03  0.25500000000E-02 0. -1.
         23    2    1    2    0    0 -0.35527136788E-14  0.00000000000E+00 -0.18035451203E+03  0.20052180775E+03  0.87642714332E+02 0.  0.
    9000005    2    3    3    0    0 -0.20457526305E+02  0.20367744860E+02 -0.16511544760E+03  0.16787851598E+03  0.93128769954E+01 0.  0.
         22    1    3    3    0    0  0.20457526305E+02 -0.20367744860E+02 -0.15239064429E+02  0.32643291775E+02  0.00000000000E+00 0.  1.
         22    1    4    4    0    0 -0.85215332374E+01  0.13707314962E+02 -0.73683762076E+02  0.75430788182E+02  0.00000000000E+00 0. -1.
         22    1    4    4    0    0 -0.11935993068E+02  0.66604298982E+01 -0.91431685521E+02  0.92447727793E+02  0.00000000000E+00 0. -1.
<mgrwt>
<rscale>  0 0.87642714E+02</rscale>
<asrwt>0</asrwt>
<pdfrwt beam="2">  1        2 0.29298176E-01 0.87642714E+02</pdfrwt>
<pdfrwt beam="1">  1       -2 0.15513306E-02 0.87642714E+02</pdfrwt>
<totfact> 0.16900908E+05</totfact>
</mgrwt>
</event>
<event>
 7    1  0.3480999E-009  0.9239391E+02  0.7818608E-02  0.1297156E+00
          2   -1    0    0  501    0  0.00000000000E+00  0.00000000000E+00  0.30503261030E+03  0.30503261031E+03  0.25500000000E-02 0. -1.
         -2   -1    0    0    0  501 -0.00000000000E+00 -0.00000000000E+00 -0.69964931240E+01  0.69964935887E+01  0.25500000000E-02 0.  1.
         23    2    1    2    0    0  0.00000000000E+00  0.00000000000E+00  0.29803611718E+03  0.31202910390E+03  0.92393909642E+02 0.  0.
    9000005    2    3    3    0    0  0.34670699039E+02 -0.24708056798E+02  0.20294602566E+03  0.20784335177E+03  0.14114676777E+02 0.  0.
         22    1    3    3    0    0 -0.34670699039E+02  0.24708056798E+02  0.95090091513E+02  0.10418575213E+03  0.00000000000E+00 0.  1.
         22    1    4    4    0    0  0.12960526786E+02 -0.10752145961E+02  0.11370448798E+03  0.11494474535E+03  0.00000000000E+00 0. -1.
         22    1    4    4    0    0  0.21710172252E+02 -0.13955910837E+02  0.89241537682E+02  0.92898606418E+02  0.00000000000E+00 0. -1.
<mgrwt>
<rscale>  0 0.92393910E+02</rscale>
<asrwt>0</asrwt>
<pdfrwt beam="1">  1        2 0.46928082E-01 0.92393910E+02</pdfrwt>
<pdfrwt beam="2">  1       -2 0.10763839E-02 0.92393910E+02</pdfrwt>
<totfact> 0.17448541E+05</totfact>
</mgrwt>
</event>
<event>
 7    1  0.3480999E-009  0.8916879E+02  0.7818608E-02  0.1304877E+00
          2   -1    0    0  501    0  0.00000000000E+00  0.00000000000E+00  0.28150362954E+03  0.28150362955E+03  0.25500000000E-02 0. -1.
         -2   -1    0    0    0  501 -0.00000000000E+00 -0.00000000000E+00 -0.70612522335E+01  0.70612526940E+01  0.25500000000E-02 0.  1.
         23    2    1    2    0    0  0.00000000000E+00 -0.17763568394E-14  0.27444237730E+03  0.28856488224E+03  0.89168788282E+02 0.  0.
    9000005    2    3    3    0    0  0.35055730240E+02  0.88137995507E+01  0.22105351995E+03  0.22409041152E+03  0.67280434816E+01 0.  0.
         22    1    3    3    0    0 -0.35055730240E+02 -0.88137995507E+01  0.53388857359E+02  0.64474470725E+02  0.00000000000E+00 0.  1.
         22    1    4    4    0    0  0.22052584758E+02  0.26481850637E+01  0.14431115024E+03  0.14601040190E+03  0.00000000000E+00 0. -1.
         22    1    4    4    0    0  0.13003145482E+02  0.61656144870E+01  0.76742369701E+02  0.78080009617E+02  0.00000000000E+00 0. -1.
<mgrwt>
<rscale>  0 0.89168788E+02</rscale>
<asrwt>0</asrwt>
<pdfrwt beam="1">  1        2 0.43308251E-01 0.89168788E+02</pdfrwt>
<pdfrwt beam="2">  1       -2 0.10863465E-02 0.89168788E+02</pdfrwt>
<totfact> 0.18618207E+05</totfact>
</mgrwt>
</event>
<event>
 7    1  0.3480999E-009  0.9055041E+02  0.7818608E-02  0.1301524E+00
         -2   -1    0    0    0  501 -0.00000000000E+00  0.00000000000E+00  0.40434273926E+03  0.40434273927E+03  0.25500000000E-02 0.  1.
          2   -1    0    0  501    0  0.00000000000E+00 -0.00000000000E+00 -0.50695704752E+01  0.50695711165E+01  0.25500000000E-02 0. -1.
         23    2    1    2    0    0  0.00000000000E+00  0.00000000000E+00  0.39927316878E+03  0.40941231038E+03  0.90550409071E+02 0.  0.
    9000005    2    3    3    0    0 -0.42398630405E+02  0.92608668846E+01  0.24339652756E+03  0.24760707316E+03  0.13564126654E+02 0.  0.
         22    1    3    3    0    0  0.42398630405E+02 -0.92608668846E+01  0.15587664122E+03  0.16180523723E+03  0.00000000000E+00 0. -1.
         22    1    4    4    0    0 -0.11684419528E+02  0.65272099682E+01  0.10288279346E+03  0.10374969551E+03  0.00000000000E+00 0. -1.
         22    1    4    4    0    0 -0.30714210877E+02  0.27336569164E+01  0.14051373411E+03  0.14385737764E+03  0.00000000000E+00 0. -1.
<mgrwt>
<rscale>  0 0.90550409E+02</rscale>
<asrwt>0</asrwt>
<pdfrwt beam="2">  1        2 0.77993400E-03 0.90550409E+02</pdfrwt>
<pdfrwt beam="1">  1       -2 0.62206573E-01 0.90550409E+02</pdfrwt>
<totfact> 0.43142362E+04</totfact>
</mgrwt>
</event>
<event>
 7    1  0.3480999E-009  0.8964136E+02  0.7818608E-02  0.1303723E+00
          2   -1    0    0  501    0  0.00000000000E+00  0.00000000000E+00  0.40686405600E+03  0.40686405600E+03  0.25500000000E-02 0. -1.
         -2   -1    0    0    0  501 -0.00000000000E+00 -0.00000000000E+00 -0.49375043296E+01  0.49375049881E+01  0.25500000000E-02 0.  1.
         23    2    1    2    0    0  0.11102230246E-15  0.71054273576E-14  0.40192655167E+03  0.41180156099E+03  0.89641355975E+02 0.  0.
    9000005    2    3    3    0    0  0.52673460106E+00  0.38228127601E+02  0.30642133172E+03  0.30892826890E+03  0.89986444756E+01 0.  0.
         22    1    3    3    0    0 -0.52673460106E+00 -0.38228127601E+02  0.95505219948E+02  0.10287329210E+03  0.00000000000E+00 0.  1.
         22    1    4    4    0    0  0.16584266709E+00  0.31844957346E+02  0.22300724414E+03  0.22526952691E+03  0.00000000000E+00 0. -1.
         22    1    4    4    0    0  0.36089193397E+00  0.63831702545E+01  0.83414087573E+02  0.83658741989E+02  0.00000000000E+00 0. -1.
<mgrwt>
<rscale>  0 0.89641356E+02</rscale>
<asrwt>0</asrwt>
<pdfrwt beam="1">  1        2 0.62594478E-01 0.89641356E+02</pdfrwt>
<pdfrwt beam="2">  1       -2 0.75961601E-03 0.89641356E+02</pdfrwt>
<totfact> 0.21008804E+05</totfact>
</mgrwt>
</event>
<event>
 7    1  0.3480999E-009  0.9166490E+02  0.7818608E-02  0.1298869E+00
         -2   -1    0    0    0  501 -0.00000000000E+00  0.00000000000E+00  0.19805872355E+03  0.19805872357E+03  0.25500000000E-02 0.  1.
          2   -1    0    0  501    0  0.00000000000E+00 -0.00000000000E+00 -0.10606012497E+02  0.10606012804E+02  0.25500000000E-02 0. -1.
         23    2    1    2    0    0  0.00000000000E+00  0.00000000000E+00  0.18745271105E+03  0.20866473637E+03  0.91664896899E+02 0.  0.
    9000005    2    3    3    0    0 -0.20865523251E+02 -0.27375209782E+02  0.16163162664E+03  0.16563566978E+03  0.11208041902E+02 0.  0.
         22    1    3    3    0    0  0.20865523251E+02  0.27375209782E+02  0.25821084416E+02  0.43029066590E+02  0.00000000000E+00 0. -1.
         22    1    4    4    0    0 -0.44700706048E+01 -0.91261949767E+01  0.71756313891E+02  0.72472322643E+02  0.00000000000E+00 0. -1.
         22    1    4    4    0    0 -0.16395452647E+02 -0.18249014805E+02  0.89875312746E+02  0.93163347138E+02  0.00000000000E+00 0. -1.
<mgrwt>
<rscale>  0 0.91664897E+02</rscale>
<asrwt>0</asrwt>
<pdfrwt beam="2">  1        2 0.16316943E-02 0.91664897E+02</pdfrwt>
<pdfrwt beam="1">  1       -2 0.30470571E-01 0.91664897E+02</pdfrwt>
<totfact> 0.61734196E+04</totfact>
</mgrwt>
</event>
<event>
 7    1  0.3480999E-009  0.9045062E+02  0.7818608E-02  0.1301764E+00
          2   -1    0    0  501    0  0.00000000000E+00  0.00000000000E+00  0.17840125374E+03  0.17840125376E+03  0.25500000000E-02 0. -1.
         -2   -1    0    0    0  501 -0.00000000000E+00 -0.00000000000E+00 -0.11464765089E+02  0.11464765373E+02  0.25500000000E-02 0.  1.
         23    2    1    2    0    0  0.00000000000E+00 -0.17763568394E-14  0.16693648865E+03  0.18986601913E+03  0.90450616236E+02 0.  0.
    9000005    2    3    3    0    0  0.40881582781E+02  0.12767874183E+02  0.59114266042E+02  0.73848976804E+02  0.11173741699E+02 0.  0.
         22    1    3    3    0    0 -0.40881582781E+02 -0.12767874183E+02  0.10782222261E+03  0.11601704232E+03  0.00000000000E+00 0. -1.
         22    1    4    4    0    0  0.11171304571E+02  0.70658272223E+00  0.22830989931E+02  0.25427375134E+02  0.00000000000E+00 0. -1.
         22    1    4    4    0    0  0.29710278210E+02  0.12061291460E+02  0.36283276111E+02  0.48421601670E+02  0.00000000000E+00 0. -1.
<mgrwt>
<rscale>  0 0.90450616E+02</rscale>
<asrwt>0</asrwt>
<pdfrwt beam="1">  1        2 0.27446345E-01 0.90450616E+02</pdfrwt>
<pdfrwt beam="2">  1       -2 0.17638102E-02 0.90450616E+02</pdfrwt>
<totfact> 0.15171371E+05</totfact>
</mgrwt>
</event>
<event>
 7    1  0.3480999E-009  0.9144486E+02  0.7818608E-02  0.1299390E+00
         -2   -1    0    0    0  501 -0.00000000000E+00  0.00000000000E+00  0.99405862829E+02  0.99405862861E+02  0.25500000000E-02 0.  1.
          2   -1    0    0  501    0  0.00000000000E+00 -0.00000000000E+00 -0.21030357162E+02  0.21030357316E+02  0.25500000000E-02 0. -1.
         23    2    1    2    0    0 -0.35527136788E-14  0.00000000000E+00  0.78375505667E+02  0.12043622018E+03  0.91444864493E+02 0.  0.
    9000005    2    3    3    0    0 -0.16873473938E+02 -0.17696566169E+02 -0.95058747520E+01  0.29216597282E+02  0.12859444973E+02 0.  0.
         22    1    3    3    0    0  0.16873473938E+02  0.17696566169E+02  0.87881380419E+02  0.91219622896E+02  0.00000000000E+00 0.  1.
         22    1    4    4    0    0 -0.18610089922E+01  0.10115841476E+01  0.17240573793E+01  0.27311226270E+01  0.00000000000E+00 0.  1.
         22    1    4    4    0    0 -0.15012464946E+02 -0.18708150317E+02 -0.11229932131E+02  0.26485474655E+02  0.00000000000E+00 0.  1.
<mgrwt>
<rscale>  0 0.91444864E+02</rscale>
<asrwt>0</asrwt>
<pdfrwt beam="2">  1        2 0.32354395E-02 0.91444864E+02</pdfrwt>
<pdfrwt beam="1">  1       -2 0.15293210E-01 0.91444864E+02</pdfrwt>
<totfact> 0.79365878E+04</totfact>
</mgrwt>
</event>
<event>
 7    1  0.3480999E-009  0.9018714E+02  0.7818608E-02  0.1302399E+00
         -2   -1    0    0    0  501 -0.00000000000E+00  0.00000000000E+00  0.11868989348E+02  0.11868989622E+02  0.25500000000E-02 0.  1.
          2   -1    0    0  501    0  0.00000000000E+00 -0.00000000000E+00 -0.17132293337E+03  0.17132293339E+03  0.25500000000E-02 0. -1.
         23    2    1    2    0    0  0.00000000000E+00  0.71054273576E-14 -0.15945394402E+03  0.18319192301E+03  0.90187140946E+02 0.  0.
    9000005    2    3    3    0    0  0.18766830679E+02 -0.34600331803E+02 -0.39501878078E+02  0.56946625993E+02  0.11538758415E+02 0.  0.
         22    1    3    3    0    0 -0.18766830679E+02  0.34600331803E+02 -0.11995206594E+03  0.12624529702E+03  0.00000000000E+00 0. -1.
         22    1    4    4    0    0  0.14253373263E+02 -0.14199684408E+02 -0.19830479022E+02  0.28249559021E+02  0.00000000000E+00 0. -1.
         22    1    4    4    0    0  0.45134574155E+01 -0.20400647395E+02 -0.19671399056E+02  0.28697066972E+02  0.00000000000E+00 0. -1.
<mgrwt>
<rscale>  0 0.90187141E+02</rscale>
<asrwt>0</asrwt>
<pdfrwt beam="2">  1        2 0.26357373E-01 0.90187141E+02</pdfrwt>
<pdfrwt beam="1">  1       -2 0.18259985E-02 0.90187141E+02</pdfrwt>
<totfact> 0.15075243E+05</totfact>
</mgrwt>
</event>
<event>
 7    1  0.3480999E-009  0.9389303E+02  0.7818608E-02  0.1293689E+00
          2   -1    0    0  501    0  0.00000000000E+00  0.00000000000E+00  0.20111963457E+02  0.20111963618E+02  0.25500000000E-02 0. -1.
         -2   -1    0    0    0  501 -0.00000000000E+00 -0.00000000000E+00 -0.10958527441E+03  0.10958527444E+03  0.25500000000E-02 0.  1.
         23    2    1    2    0    0  0.00000000000E+00 -0.88817841970E-15 -0.89473310955E+02  0.12969723806E+03  0.93893025231E+02 0.  0.
    9000005    2    3    3    0    0 -0.17930226373E+02 -0.41201088789E+01  0.13556959388E+02  0.25037289073E+02  0.10227726105E+02 0.  0.
         22    1    3    3    0    0  0.17930226373E+02  0.41201088789E+01 -0.10303027034E+03  0.10465994899E+03  0.00000000000E+00 0.  1.
         22    1    4    4    0    0 -0.10644596650E+02 -0.62809532501E+01  0.12106050847E+02  0.17300701682E+02  0.00000000000E+00 0. -1.
         22    1    4    4    0    0 -0.72856297230E+01  0.21608443712E+01  0.14509085410E+01  0.77365873905E+01  0.00000000000E+00 0. -1.
<mgrwt>
<rscale>  0 0.93893025E+02</rscale>
<asrwt>0</asrwt>
<pdfrwt beam="1">  1        2 0.30941483E-02 0.93893025E+02</pdfrwt>
<pdfrwt beam="2">  1       -2 0.16859273E-01 0.93893025E+02</pdfrwt>
<totfact> 0.72120866E+04</totfact>
</mgrwt>
</event>
<event>
 7    1  0.3480999E-009  0.9094431E+02  0.7818608E-02  0.1300581E+00
          2   -1    0    0  501    0  0.00000000000E+00  0.00000000000E+00  0.35137660664E+01  0.35137669917E+01  0.25500000000E-02 0. -1.
         -2   -1    0    0    0  501 -0.00000000000E+00 -0.00000000000E+00 -0.58846167626E+03  0.58846167626E+03  0.25500000000E-02 0.  1.
         23    2    1    2    0    0  0.00000000000E+00 -0.35527136788E-14 -0.58494791019E+03  0.59197544325E+03  0.90944311421E+02 0.  0.
    9000005    2    3    3    0    0  0.30448672467E+02  0.28787815087E+02 -0.39111659766E+03  0.39366649824E+03  0.15660744702E+02 0.  0.
         22    1    3    3    0    0 -0.30448672467E+02 -0.28787815087E+02 -0.19383131253E+03  0.19830894501E+03  0.00000000000E+00 0. -1.
         22    1    4    4    0    0  0.74857216803E+01  0.40153227055E+01 -0.37993912663E+02  0.38931943760E+02  0.00000000000E+00 0.  1.
         22    1    4    4    0    0  0.22962950787E+02  0.24772492381E+02 -0.35312268499E+03  0.35473455448E+03  0.00000000000E+00 0.  1.
<mgrwt>
<rscale>  0 0.90944311E+02</rscale>
<asrwt>0</asrwt>
<pdfrwt beam="1">  1        2 0.54057993E-03 0.90944311E+02</pdfrwt>
<pdfrwt beam="2">  1       -2 0.90532487E-01 0.90944311E+02</pdfrwt>
<totfact> 0.31999852E+04</totfact>
</mgrwt>
</event>
<event>
 7    1  0.3480999E-009  0.8903447E+02  0.7818608E-02  0.1305207E+00
          2   -1    0    0  501    0  0.00000000000E+00  0.00000000000E+00  0.52360267409E+02  0.52360267471E+02  0.25500000000E-02 0. -1.
         -2   -1    0    0    0  501 -0.00000000000E+00 -0.00000000000E+00 -0.37849011478E+02  0.37849011564E+02  0.25500000000E-02 0.  1.
         23    2    1    2    0    0  0.00000000000E+00  0.00000000000E+00  0.14511255931E+02  0.90209279035E+02  0.89034473521E+02 0.  0.
    9000005    2    3    3    0    0  0.27811848861E+01  0.36981468845E+02 -0.15305368816E+02  0.42623617974E+02  0.14392861678E+02 0.  0.
         22    1    3    3    0    0 -0.27811848861E+01 -0.36981468845E+02  0.29816624747E+02  0.47585661061E+02  0.00000000000E+00 0. -1.
         22    1    4    4    0    0  0.50435117331E+01  0.81811826193E+01  0.62916297549E+00  0.96314384025E+01  0.00000000000E+00 0.  1.
         22    1    4    4    0    0 -0.22623268470E+01  0.28800286226E+02 -0.15934531791E+02  0.32992179571E+02  0.00000000000E+00 0.  1.
<mgrwt>
<rscale>  0 0.89034474E+02</rscale>
<asrwt>0</asrwt>
<pdfrwt beam="1">  1        2 0.80554257E-02 0.89034474E+02</pdfrwt>
<pdfrwt beam="2">  1       -2 0.58229249E-02 0.89034474E+02</pdfrwt>
<totfact> 0.10943962E+05</totfact>
</mgrwt>
</event>
<event>
 7    1  0.3480999E-009  0.9087568E+02  0.7818608E-02  0.1300745E+00
          2   -1    0    0  501    0  0.00000000000E+00  0.00000000000E+00  0.40950063882E+03  0.40950063883E+03  0.25500000000E-02 0. -1.
         -2   -1    0    0    0  501 -0.00000000000E+00 -0.00000000000E+00 -0.50417439006E+01  0.50417445454E+01  0.25500000000E-02 0.  1.
         23    2    1    2    0    0  0.00000000000E+00  0.00000000000E+00  0.40445889492E+03  0.41454238337E+03  0.90875683950E+02 0.  0.
    9000005    2    3    3    0    0 -0.35511522005E+02  0.24308558360E+02  0.26825129229E+03  0.27169811426E+03  0.30224612777E+01 0.  0.
         22    1    3    3    0    0  0.35511522005E+02 -0.24308558360E+02  0.13620760263E+03  0.14284426911E+03  0.00000000000E+00 0.  1.
         22    1    4    4    0    0 -0.38143782070E+00  0.53498734661E+00  0.63596620672E+01  0.63935129531E+01  0.00000000000E+00 0. -1.
         22    1    4    4    0    0 -0.35130084184E+02  0.23773571014E+02  0.26189163022E+03  0.26530460130E+03  0.00000000000E+00 0. -1.
<mgrwt>
<rscale>  0 0.90875684E+02</rscale>
<asrwt>0</asrwt>
<pdfrwt beam="1">  1        2 0.63000101E-01 0.90875684E+02</pdfrwt>
<pdfrwt beam="2">  1       -2 0.77565292E-03 0.90875684E+02</pdfrwt>
<totfact> 0.20307627E+05</totfact>
</mgrwt>
</event>
<event>
 7    1  0.3480999E-009  0.9300184E+02  0.7818608E-02  0.1295741E+00
         -2   -1    0    0    0  501 -0.00000000000E+00  0.00000000000E+00  0.33446904073E+02  0.33446904171E+02  0.25500000000E-02 0.  1.
          2   -1    0    0  501    0  0.00000000000E+00 -0.00000000000E+00 -0.64649797802E+02  0.64649797852E+02  0.25500000000E-02 0. -1.
         23    2    1    2    0    0  0.00000000000E+00  0.00000000000E+00 -0.31202893729E+02  0.98096702023E+02  0.93001840685E+02 0.  0.
    9000005    2    3    3    0    0 -0.19751534669E+02  0.34334126374E+02 -0.40383744606E+02  0.57436606371E+02  0.99579901282E+01 0.  0.
         22    1    3    3    0    0  0.19751534669E+02 -0.34334126374E+02  0.91808508772E+01  0.40660095652E+02  0.00000000000E+00 0.  1.
         22    1    4    4    0    0 -0.13199463839E+02  0.24788470129E+02 -0.34387212555E+02  0.44397910810E+02  0.00000000000E+00 0.  1.
         22    1    4    4    0    0 -0.65520708299E+01  0.95456562445E+01 -0.59965320513E+01  0.13038695561E+02  0.00000000000E+00 0.  1.
<mgrwt>
<rscale>  0 0.93001841E+02</rscale>
<asrwt>0</asrwt>
<pdfrwt beam="2">  1        2 0.99461227E-02 0.93001841E+02</pdfrwt>
<pdfrwt beam="1">  1       -2 0.51456776E-02 0.93001841E+02</pdfrwt>
<totfact> 0.10235438E+05</totfact>
</mgrwt>
</event>
<event>
 7    1  0.3480999E-009  0.9143487E+02  0.7818608E-02  0.1299414E+00
          2   -1    0    0  501    0  0.00000000000E+00  0.00000000000E+00  0.41279218759E+03  0.41279218760E+03  0.25500000000E-02 0.  1.
         -2   -1    0    0    0  501 -0.00000000000E+00 -0.00000000000E+00 -0.50632829401E+01  0.50632835823E+01  0.25500000000E-02 0. -1.
         23    2    1    2    0    0  0.00000000000E+00  0.00000000000E+00  0.40772890465E+03  0.41785547118E+03  0.91434868121E+02 0.  0.
    9000005    2    3    3    0    0  0.13596738841E+02 -0.90697206810E+01  0.39897993251E+03  0.39931698004E+03  0.13902734279E+01 0.  0.
         22    1    3    3    0    0 -0.13596738841E+02  0.90697206810E+01  0.87489721398E+01  0.18538491143E+02  0.00000000000E+00 0. -1.
         22    1    4    4    0    0  0.35765898515E+01 -0.24295535631E+01  0.12113603524E+03  0.12121317486E+03  0.00000000000E+00 0.  1.
         22    1    4    4    0    0  0.10020148990E+02 -0.66401671179E+01  0.27784389727E+03  0.27810380518E+03  0.00000000000E+00 0.  1.
<mgrwt>
<rscale>  0 0.91434868E+02</rscale>
<asrwt>0</asrwt>
<pdfrwt beam="1">  1        2 0.63506505E-01 0.91434868E+02</pdfrwt>
<pdfrwt beam="2">  1       -2 0.77896648E-03 0.91434868E+02</pdfrwt>
<totfact> 0.20036428E+05</totfact>
</mgrwt>
</event>
<event>
 7    1  0.3480999E-009  0.9037904E+02  0.7818608E-02  0.1301936E+00
         -2   -1    0    0    0  501 -0.00000000000E+00  0.00000000000E+00  0.46494755953E+01  0.46494762946E+01  0.25500000000E-02 0. -1.
          2   -1    0    0  501    0  0.00000000000E+00 -0.00000000000E+00 -0.43920922811E+03  0.43920922811E+03  0.25500000000E-02 0.  1.
         23    2    1    2    0    0  0.00000000000E+00  0.17763568394E-14 -0.43455975251E+03  0.44385870441E+03  0.90379040582E+02 0.  0.
    9000005    2    3    3    0    0  0.17419249644E+02 -0.14362233818E+02 -0.40949378996E+03  0.41012435252E+03  0.26676768760E+01 0.  0.
         22    1    3    3    0    0 -0.17419249644E+02  0.14362233818E+02 -0.25065962552E+02  0.33734351884E+02  0.00000000000E+00 0. -1.
         22    1    4    4    0    0  0.13108931480E+02 -0.92784080419E+01 -0.29436312424E+03  0.29480091901E+03  0.00000000000E+00 0.  1.
         22    1    4    4    0    0  0.43103181634E+01 -0.50838257757E+01 -0.11513066572E+03  0.11532343351E+03  0.00000000000E+00 0.  1.
<mgrwt>
<rscale>  0 0.90379041E+02</rscale>
<asrwt>0</asrwt>
<pdfrwt beam="2">  1        2 0.67570618E-01 0.90379041E+02</pdfrwt>
<pdfrwt beam="1">  1       -2 0.71530434E-03 0.90379041E+02</pdfrwt>
<totfact> 0.21116736E+05</totfact>
</mgrwt>
</event>
<event>
 7    1  0.3480999E-009  0.9359064E+02  0.7818608E-02  0.1294382E+00
         -2   -1    0    0    0  501 -0.00000000000E+00  0.00000000000E+00  0.58931858771E+01  0.58931864288E+01  0.25500000000E-02 0.  1.
          2   -1    0    0  501    0  0.00000000000E+00 -0.00000000000E+00 -0.37158202662E+03  0.37158202662E+03  0.25500000000E-02 0. -1.
         23    2    1    2    0    0 -0.88817841970E-15  0.35527136788E-14 -0.36568884074E+03  0.37747521305E+03  0.93590641781E+02 0.  0.
    9000005    2    3    3    0    0  0.78704672368E+01 -0.20446724338E+02 -0.34956238716E+03  0.35027088811E+03  0.39774048523E+01 0.  0.
         22    1    3    3    0    0 -0.78704672368E+01  0.20446724338E+02 -0.16126453580E+02  0.27204324945E+02  0.00000000000E+00 0.  1.
         22    1    4    4    0    0  0.42481817711E+00 -0.47833282673E+01 -0.92022151353E+02  0.92147365885E+02  0.00000000000E+00 0. -1.
         22    1    4    4    0    0  0.74456490597E+01 -0.15663396070E+02 -0.25754023580E+03  0.25812352222E+03  0.00000000000E+00 0. -1.
<mgrwt>
<rscale>  0 0.93590642E+02</rscale>
<asrwt>0</asrwt>
<pdfrwt beam="2">  1        2 0.57166447E-01 0.93590642E+02</pdfrwt>
<pdfrwt beam="1">  1       -2 0.90664431E-03 0.93590642E+02</pdfrwt>
<totfact> 0.18131896E+05</totfact>
</mgrwt>
</event>
<event>
 7    1  0.3480999E-009  0.8908552E+02  0.7818608E-02  0.1305081E+00
         -2   -1    0    0    0  501 -0.00000000000E+00  0.00000000000E+00  0.34168032854E+02  0.34168032949E+02  0.25500000000E-02 0. -1.
          2   -1    0    0  501    0  0.00000000000E+00 -0.00000000000E+00 -0.58067658243E+02  0.58067658299E+02  0.25500000000E-02 0.  1.
         23    2    1    2    0    0  0.00000000000E+00  0.00000000000E+00 -0.23899625390E+02  0.92235691248E+02  0.89085524336E+02 0.  0.
    9000005    2    3    3    0    0  0.34493918773E+02 -0.12630086887E+02 -0.38016142612E+02  0.52883110829E+02  0.14306588512E+01 0.  0.
         22    1    3    3    0    0 -0.34493918773E+02  0.12630086887E+02  0.14116517223E+02  0.39352580419E+02  0.00000000000E+00 0. -1.
         22    1    4    4    0    0  0.89568550452E+01 -0.34387623183E+01 -0.10820149629E+02  0.14461188630E+02  0.00000000000E+00 0.  1.
         22    1    4    4    0    0  0.25537063728E+02 -0.91913245689E+01 -0.27195992983E+02  0.38421922200E+02  0.00000000000E+00 0.  1.
<mgrwt>
<rscale>  0 0.89085524E+02</rscale>
<asrwt>0</asrwt>
<pdfrwt beam="2">  1        2 0.89334859E-02 0.89085524E+02</pdfrwt>
<pdfrwt beam="1">  1       -2 0.52566204E-02 0.89085524E+02</pdfrwt>
<totfact> 0.11224856E+05</totfact>
</mgrwt>
</event>
<event>
 7    1  0.3480999E-009  0.9166997E+02  0.7818608E-02  0.1298857E+00
         -2   -1    0    0    0  501 -0.00000000000E+00  0.00000000000E+00  0.13791443431E+02  0.13791443667E+02  0.25500000000E-02 0.  1.
          2   -1    0    0  501    0  0.00000000000E+00 -0.00000000000E+00 -0.15232964856E+03  0.15232964858E+03  0.25500000000E-02 0. -1.
         23    2    1    2    0    0  0.00000000000E+00  0.00000000000E+00 -0.13853820513E+03  0.16612109225E+03  0.91669967871E+02 0.  0.
    9000005    2    3    3    0    0 -0.32434139338E+02  0.19576294883E+02 -0.11506002092E+03  0.12155170982E+03  0.10040170850E+02 0.  0.
         22    1    3    3    0    0  0.32434139338E+02 -0.19576294883E+02 -0.23478184205E+02  0.44569382423E+02  0.00000000000E+00 0.  1.
         22    1    4    4    0    0 -0.27212719161E+02  0.11762103177E+02 -0.91656619266E+02  0.96331796467E+02  0.00000000000E+00 0.  1.
         22    1    4    4    0    0 -0.52214201777E+01  0.78141917058E+01 -0.23403401655E+02  0.25219913356E+02  0.00000000000E+00 0.  1.
<mgrwt>
<rscale>  0 0.91669968E+02</rscale>
<asrwt>0</asrwt>
<pdfrwt beam="2">  1        2 0.23435329E-01 0.91669968E+02</pdfrwt>
<pdfrwt beam="1">  1       -2 0.21217607E-02 0.91669968E+02</pdfrwt>
<totfact> 0.13850175E+05</totfact>
</mgrwt>
</event>
<event>
 7    1  0.3480999E-009  0.8966779E+02  0.7818608E-02  0.1303658E+00
         -2   -1    0    0    0  501 -0.00000000000E+00  0.00000000000E+00  0.29235850582E+02  0.29235850694E+02  0.25500000000E-02 0. -1.
          2   -1    0    0  501    0  0.00000000000E+00 -0.00000000000E+00 -0.68753873190E+02  0.68753873237E+02  0.25500000000E-02 0.  1.
         23    2    1    2    0    0 -0.17763568394E-14  0.00000000000E+00 -0.39518022607E+02  0.97989723931E+02  0.89667786218E+02 0.  0.
    9000005    2    3    3    0    0  0.11428929699E+02 -0.25510719987E+02  0.18063814989E+02  0.33981245669E+02  0.68561196718E+01 0.  0.
         22    1    3    3    0    0 -0.11428929699E+02  0.25510719987E+02 -0.57581837597E+02  0.64008478261E+02  0.00000000000E+00 0.  1.
         22    1    4    4    0    0  0.12060323700E+02 -0.24811873684E+02  0.18169527160E+02  0.33033501187E+02  0.00000000000E+00 0.  1.
         22    1    4    4    0    0 -0.63139400144E+00 -0.69884630325E+00 -0.10571217079E+00  0.94774448227E+00  0.00000000000E+00 0.  1.
<mgrwt>
<rscale>  0 0.89667786E+02</rscale>
<asrwt>0</asrwt>
<pdfrwt beam="2">  1        2 0.10577519E-01 0.89667786E+02</pdfrwt>
<pdfrwt beam="1">  1       -2 0.44978232E-02 0.89667786E+02</pdfrwt>
<totfact> 0.11532586E+05</totfact>
</mgrwt>
</event>
<event>
 7    1  0.3480999E-009  0.9719465E+02  0.7818608E-02  0.1286308E+00
          2   -1    0    0  501    0  0.00000000000E+00  0.00000000000E+00  0.19475546492E+03  0.19475546493E+03  0.25500000000E-02 0. -1.
         -2   -1    0    0    0  501 -0.00000000000E+00 -0.00000000000E+00 -0.12126489965E+02  0.12126490233E+02  0.25500000000E-02 0.  1.
         23    2    1    2    0    0  0.00000000000E+00  0.00000000000E+00  0.18262897495E+03  0.20688195516E+03  0.97194654592E+02 0.  0.
    9000005    2    3    3    0    0  0.46335066466E+02  0.51928170280E+01  0.68489472547E+02  0.83586660275E+02  0.11046184549E+02 0.  0.
         22    1    3    3    0    0 -0.46335066466E+02 -0.51928170280E+01  0.11413950240E+03  0.12329529489E+03  0.00000000000E+00 0. -1.
         22    1    4    4    0    0  0.36440202369E+02  0.56966688300E+01  0.45628808895E+02  0.58671360864E+02  0.00000000000E+00 0.  1.
         22    1    4    4    0    0  0.98948640969E+01 -0.50385180204E+00  0.22860663653E+02  0.24915299412E+02  0.00000000000E+00 0.  1.
<mgrwt>
<rscale>  0 0.97194655E+02</rscale>
<asrwt>0</asrwt>
<pdfrwt beam="1">  1        2 0.29962378E-01 0.97194655E+02</pdfrwt>
<pdfrwt beam="2">  1       -2 0.18656139E-02 0.97194655E+02</pdfrwt>
<totfact> 0.12886831E+05</totfact>
</mgrwt>
</event>
<event>
 7    1  0.3480999E-009  0.9063722E+02  0.7818608E-02  0.1301316E+00
         -2   -1    0    0    0  501 -0.00000000000E+00  0.00000000000E+00  0.78763036508E+01  0.78763040636E+01  0.25500000000E-02 0.  1.
          2   -1    0    0  501    0  0.00000000000E+00 -0.00000000000E+00 -0.26075383319E+03  0.26075383321E+03  0.25500000000E-02 0. -1.
         23    2    1    2    0    0  0.00000000000E+00  0.00000000000E+00 -0.25287752954E+03  0.26863013727E+03  0.90637220290E+02 0.  0.
    9000005    2    3    3    0    0 -0.84827633340E+01 -0.36039016352E+02 -0.20196338670E+03  0.20567763204E+03  0.11971248084E+02 0.  0.
         22    1    3    3    0    0  0.84827633340E+01  0.36039016352E+02 -0.50914142846E+02  0.62952505233E+02  0.00000000000E+00 0.  1.
         22    1    4    4    0    0 -0.83179597996E+00 -0.23866573605E+01 -0.40216854352E+01  0.47499443838E+01  0.00000000000E+00 0. -1.
         22    1    4    4    0    0 -0.76509673540E+01 -0.33652358991E+02 -0.19794170126E+03  0.20092768765E+03  0.00000000000E+00 0. -1.
<mgrwt>
<rscale>  0 0.90637220E+02</rscale>
<asrwt>0</asrwt>
<pdfrwt beam="2">  1        2 0.40115968E-01 0.90637220E+02</pdfrwt>
<pdfrwt beam="1">  1       -2 0.12117393E-02 0.90637220E+02</pdfrwt>
<totfact> 0.17323367E+05</totfact>
</mgrwt>
</event>
<event>
 7    1  0.3480999E-009  0.9167458E+02  0.7818608E-02  0.1298846E+00
          2   -1    0    0  501    0  0.00000000000E+00  0.00000000000E+00  0.31866348182E+03  0.31866348183E+03  0.25500000000E-02 0. -1.
         -2   -1    0    0    0  501 -0.00000000000E+00 -0.00000000000E+00 -0.65933418348E+01  0.65933423279E+01  0.25500000000E-02 0.  1.
         23    2    1    2    0    0 -0.35527136788E-14  0.00000000000E+00  0.31207013998E+03  0.32525682415E+03  0.91674584215E+02 0.  0.
    9000005    2    3    3    0    0  0.15447637612E+02  0.31199607365E+02  0.26001448762E+03  0.26263226068E+03  0.12495021824E+02 0.  0.
         22    1    3    3    0    0 -0.15447637612E+02 -0.31199607365E+02  0.52055652363E+02  0.62624563475E+02  0.00000000000E+00 0.  1.
         22    1    4    4    0    0  0.44948940619E+01  0.23630824407E+01  0.19609135545E+02  0.20256022020E+02  0.00000000000E+00 0. -1.
         22    1    4    4    0    0  0.10952743550E+02  0.28836524924E+02  0.24040535207E+03  0.24237623866E+03  0.00000000000E+00 0. -1.
<mgrwt>
<rscale>  0 0.91674584E+02</rscale>
<asrwt>0</asrwt>
<pdfrwt beam="1">  1        2 0.49025145E-01 0.91674584E+02</pdfrwt>
<pdfrwt beam="2">  1       -2 0.10143604E-02 0.91674584E+02</pdfrwt>
<totfact> 0.18108566E+05</totfact>
</mgrwt>
</event>
<event>
 7    1  0.3480999E-009  0.9354374E+02  0.7818608E-02  0.1294490E+00
         -2   -1    0    0    0  501 -0.00000000000E+00  0.00000000000E+00  0.10805866381E+03  0.10805866384E+03  0.25500000000E-02 0. -1.
          2   -1    0    0  501    0  0.00000000000E+00 -0.00000000000E+00 -0.20244629227E+02  0.20244629387E+02  0.25500000000E-02 0.  1.
         23    2    1    2    0    0 -0.35527136788E-14  0.00000000000E+00  0.87814034585E+02  0.12830329323E+03  0.93543735136E+02 0.  0.
    9000005    2    3    3    0    0 -0.23779294425E+02 -0.10252780132E+02  0.97229866843E+02  0.10074912402E+03  0.51151383336E+01 0.  0.
         22    1    3    3    0    0  0.23779294425E+02  0.10252780132E+02 -0.94158322587E+01  0.27554169211E+02  0.00000000000E+00 0.  1.
         22    1    4    4    0    0 -0.18656970146E+02 -0.10154470121E+02  0.76327358731E+02  0.79227908525E+02  0.00000000000E+00 0. -1.
         22    1    4    4    0    0 -0.51223242790E+01 -0.98310011215E-01  0.20902508112E+02  0.21521215492E+02  0.00000000000E+00 0. -1.
<mgrwt>
<rscale>  0 0.93543735E+02</rscale>
<asrwt>0</asrwt>
<pdfrwt beam="2">  1        2 0.31145583E-02 0.93543735E+02</pdfrwt>
<pdfrwt beam="1">  1       -2 0.16624410E-01 0.93543735E+02</pdfrwt>
<totfact> 0.73115614E+04</totfact>
</mgrwt>
</event>
<event>
 7    1  0.3480999E-009  0.9200132E+02  0.7818608E-02  0.1298076E+00
          2   -1    0    0  501    0  0.00000000000E+00  0.00000000000E+00  0.65160933349E+03  0.65160933349E+03  0.25500000000E-02 0. -1.
         -2   -1    0    0    0  501 -0.00000000000E+00 -0.00000000000E+00 -0.32474371260E+01  0.32474381272E+01  0.25500000000E-02 0.  1.
         23    2    1    2    0    0 -0.35527136788E-14  0.00000000000E+00  0.64836189636E+03  0.65485677162E+03  0.92001318918E+02 0.  0.
    9000005    2    3    3    0    0  0.25000094658E+02  0.14621945623E+02  0.57596339130E+03  0.57688017537E+03  0.14768297008E+02 0.  0.
         22    1    3    3    0    0 -0.25000094658E+02 -0.14621945623E+02  0.72398505063E+02  0.77976596246E+02  0.00000000000E+00 0.  1.
         22    1    4    4    0    0  0.16964710405E+02  0.94822267895E+01  0.49073209621E+03  0.49111679291E+03  0.00000000000E+00 0.  1.
         22    1    4    4    0    0  0.80353842530E+01  0.51397188337E+01  0.85231295084E+02  0.85763382463E+02  0.00000000000E+00 0.  1.
<mgrwt>
<rscale>  0 0.92001319E+02</rscale>
<asrwt>0</asrwt>
<pdfrwt beam="1">  1        2 0.10024768E+00 0.92001319E+02</pdfrwt>
<pdfrwt beam="2">  1       -2 0.49960534E-03 0.92001319E+02</pdfrwt>
<totfact> 0.22752918E+05</totfact>
</mgrwt>
</event>
<event>
 7    1  0.3480999E-009  0.9797851E+02  0.7818608E-02  0.1284605E+00
         -2   -1    0    0    0  501 -0.00000000000E+00  0.00000000000E+00  0.61828059995E+03  0.61828059995E+03  0.25500000000E-02 0.  1.
          2   -1    0    0  501    0  0.00000000000E+00 -0.00000000000E+00 -0.38816465849E+01  0.38816474225E+01  0.25500000000E-02 0. -1.
         23    2    1    2    0    0 -0.44408920985E-15 -0.35527136788E-14  0.61439895336E+03  0.62216224737E+03  0.97978508694E+02 0.  0.
    9000005    2    3    3    0    0 -0.99298823752E+00 -0.29614927983E+02  0.55287959982E+03  0.55387856817E+03  0.15085966976E+02 0.  0.
         22    1    3    3    0    0  0.99298823752E+00  0.29614927983E+02  0.61519353546E+02  0.68283679205E+02  0.00000000000E+00 0. -1.
         22    1    4    4    0    0  0.29750055150E+01 -0.28971725732E+02  0.46992640088E+03  0.47082802996E+03  0.00000000000E+00 0.  1.
         22    1    4    4    0    0 -0.39679937526E+01 -0.64320225069E+00  0.82953198932E+02  0.83050538208E+02  0.00000000000E+00 0.  1.
<mgrwt>
<rscale>  0 0.97978509E+02</rscale>
<asrwt>0</asrwt>
<pdfrwt beam="2">  1        2 0.59717607E-03 0.97978509E+02</pdfrwt>
<pdfrwt beam="1">  1       -2 0.95120156E-01 0.97978509E+02</pdfrwt>
<totfact> 0.25257289E+04</totfact>
</mgrwt>
</event>
<event>
 7    1  0.3480999E-009  0.8941523E+02  0.7818608E-02  0.1304274E+00
         -2   -1    0    0    0  501 -0.00000000000E+00  0.00000000000E+00  0.17162252536E+01  0.17162271481E+01  0.25500000000E-02 0.  1.
          2   -1    0    0  501    0  0.00000000000E+00 -0.00000000000E+00 -0.11646314571E+04  0.11646314571E+04  0.25500000000E-02 0. -1.
         23    2    1    2    0    0  0.00000000000E+00  0.00000000000E+00 -0.11629152319E+04  0.11663476843E+04  0.89415234146E+02 0.  0.
    9000005    2    3    3    0    0  0.23616923236E+02 -0.14081571323E+02 -0.10362474426E+04  0.10367298671E+04  0.15620663836E+02 0.  0.
         22    1    3    3    0    0 -0.23616923236E+02  0.14081571323E+02 -0.12666778924E+03  0.12961781724E+03  0.00000000000E+00 0.  1.
         22    1    4    4    0    0  0.22605419934E+02 -0.81586010624E+01 -0.93169477715E+03  0.93200468108E+03  0.00000000000E+00 0.  1.
         22    1    4    4    0    0  0.10115033019E+01 -0.59229702604E+01 -0.10455266549E+03  0.10472518598E+03  0.00000000000E+00 0.  1.
<mgrwt>
<rscale>  0 0.89415234E+02</rscale>
<asrwt>0</asrwt>
<pdfrwt beam="2">  1        2 0.17917344E+00 0.89415234E+02</pdfrwt>
<pdfrwt beam="1">  1       -2 0.26403573E-03 0.89415234E+02</pdfrwt>
<totfact> 0.26252933E+05</totfact>
</mgrwt>
</event>
<event>
 7    1  0.3480999E-009  0.8893720E+02  0.7818608E-02  0.1305446E+00
         -2   -1    0    0    0  501 -0.00000000000E+00  0.00000000000E+00  0.16413493315E+01  0.16413513123E+01  0.25500000000E-02 0.  1.
          2   -1    0    0  501    0  0.00000000000E+00 -0.00000000000E+00 -0.12047740939E+04  0.12047740939E+04  0.25500000000E-02 0. -1.
         23    2    1    2    0    0 -0.35527136788E-14  0.00000000000E+00 -0.12031327446E+04  0.12064154453E+04  0.88937199195E+02 0.  0.
    9000005    2    3    3    0    0 -0.27841456692E+02 -0.12315153884E+02 -0.10411960725E+04  0.10416419780E+04  0.13925843855E+01 0.  0.
         22    1    3    3    0    0  0.27841456692E+02  0.12315153884E+02 -0.16193667212E+03  0.16477346723E+03  0.00000000000E+00 0.  1.
         22    1    4    4    0    0 -0.16752784030E+02 -0.71128778320E+01 -0.64359156225E+03  0.64384885478E+03  0.00000000000E+00 0.  1.
         22    1    4    4    0    0 -0.11088672662E+02 -0.52022760516E+01 -0.39760451024E+03  0.39779312324E+03  0.00000000000E+00 0.  1.
<mgrwt>
<rscale>  0 0.88937199E+02</rscale>
<asrwt>0</asrwt>
<pdfrwt beam="2">  1        2 0.18534915E+00 0.88937199E+02</pdfrwt>
<pdfrwt beam="1">  1       -2 0.25251640E-03 0.88937199E+02</pdfrwt>
<totfact> 0.26537614E+05</totfact>
</mgrwt>
</event>
<event>
 7    1  0.3480999E-009  0.7804717E+02  0.7818608E-02  0.1334686E+00
         -2   -1    0    0    0  501 -0.00000000000E+00  0.00000000000E+00  0.11758158521E+02  0.11758158798E+02  0.25500000000E-02 0.  1.
          2   -1    0    0  501    0  0.00000000000E+00 -0.00000000000E+00 -0.12951348216E+03  0.12951348218E+03  0.25500000000E-02 0. -1.
         23    2    1    2    0    0  0.00000000000E+00  0.00000000000E+00 -0.11775532364E+03  0.14127164098E+03  0.78047167153E+02 0.  0.
    9000005    2    3    3    0    0 -0.84186653433E+01 -0.30338166151E+02 -0.98602596968E+02  0.10441916223E+03  0.13769933167E+02 0.  0.
         22    1    3    3    0    0  0.84186653433E+01  0.30338166151E+02 -0.19152726669E+02  0.36852478756E+02  0.00000000000E+00 0.  1.
         22    1    4    4    0    0 -0.72551384903E+01 -0.47000544863E+01 -0.27488768827E+02  0.28815967073E+02  0.00000000000E+00 0. -1.
         22    1    4    4    0    0 -0.11635268531E+01 -0.25638111665E+02 -0.71113828141E+02  0.75603195153E+02  0.00000000000E+00 0. -1.
<mgrwt>
<rscale>  0 0.78047167E+02</rscale>
<asrwt>0</asrwt>
<pdfrwt beam="2">  1        2 0.19925150E-01 0.78047167E+02</pdfrwt>
<pdfrwt beam="1">  1       -2 0.18089476E-02 0.78047167E+02</pdfrwt>
<totfact> 0.20248737E+05</totfact>
</mgrwt>
</event>
<event>
 7    1  0.3480999E-009  0.9078311E+02  0.7818608E-02  0.1300966E+00
         -2   -1    0    0    0  501 -0.00000000000E+00  0.00000000000E+00  0.29742761164E+02  0.29742761273E+02  0.25500000000E-02 0.  1.
          2   -1    0    0  501    0  0.00000000000E+00 -0.00000000000E+00 -0.69273765877E+02  0.69273765924E+02  0.25500000000E-02 0. -1.
         23    2    1    2    0    0  0.00000000000E+00  0.00000000000E+00 -0.39531004713E+02  0.99016527197E+02  0.90783105942E+02 0.  0.
    9000005    2    3    3    0    0 -0.17783013281E+02  0.39811472171E+02 -0.11696175425E+02  0.47286781409E+02  0.14073034453E+02 0.  0.
         22    1    3    3    0    0  0.17783013281E+02 -0.39811472171E+02 -0.27834829288E+02  0.51729745788E+02  0.00000000000E+00 0. -1.
         22    1    4    4    0    0 -0.15550025370E+02  0.19527204986E+02 -0.31405678188E+01  0.25159057808E+02  0.00000000000E+00 0.  1.
         22    1    4    4    0    0 -0.22329879103E+01  0.20284267185E+02 -0.85556076061E+01  0.22127723601E+02  0.00000000000E+00 0.  1.
<mgrwt>
<rscale>  0 0.90783106E+02</rscale>
<asrwt>0</asrwt>
<pdfrwt beam="2">  1        2 0.10657502E-01 0.90783106E+02</pdfrwt>
<pdfrwt beam="1">  1       -2 0.45758094E-02 0.90783106E+02</pdfrwt>
<totfact> 0.11164418E+05</totfact>
</mgrwt>
</event>
<event>
 7    1  0.3480999E-009  0.9196015E+02  0.7818608E-02  0.1298173E+00
         -2   -1    0    0    0  501 -0.00000000000E+00  0.00000000000E+00  0.54536229184E+03  0.54536229185E+03  0.25500000000E-02 0.  1.
          2   -1    0    0  501    0  0.00000000000E+00 -0.00000000000E+00 -0.38766286181E+01  0.38766294568E+01  0.25500000000E-02 0. -1.
         23    2    1    2    0    0  0.33306690739E-15  0.71054273576E-14  0.54148566322E+03  0.54923892130E+03  0.91960150060E+02 0.  0.
    9000005    2    3    3    0    0 -0.77654780743E+00 -0.38072025324E+02  0.42169225150E+03  0.42353870797E+03  0.10516655319E+02 0.  0.
         22    1    3    3    0    0  0.77654780743E+00  0.38072025324E+02  0.11979341172E+03  0.12570021333E+03  0.00000000000E+00 0. -1.
         22    1    4    4    0    0 -0.21373720003E+01 -0.21254078793E+02  0.18108509803E+03  0.18234066182E+03  0.00000000000E+00 0. -1.
         22    1    4    4    0    0  0.13608241929E+01 -0.16817946531E+02  0.24060715347E+03  0.24119804615E+03  0.00000000000E+00 0. -1.
<mgrwt>
<rscale>  0 0.91960150E+02</rscale>
<asrwt>0</asrwt>
<pdfrwt beam="2">  1        2 0.59640432E-03 0.91960150E+02</pdfrwt>
<pdfrwt beam="1">  1       -2 0.83901912E-01 0.91960150E+02</pdfrwt>
<totfact> 0.33130337E+04</totfact>
</mgrwt>
</event>
<event>
 7    1  0.3480999E-009  0.9317133E+02  0.7818608E-02  0.1295349E+00
          2   -1    0    0  501    0  0.00000000000E+00  0.00000000000E+00  0.57028352891E+03  0.57028352892E+03  0.25500000000E-02 0. -1.
         -2   -1    0    0    0  501 -0.00000000000E+00 -0.00000000000E+00 -0.38055171879E+01  0.38055180423E+01  0.25500000000E-02 0.  1.
         23    2    1    2    0    0  0.00000000000E+00  0.00000000000E+00  0.56647801172E+03  0.57408904696E+03  0.93171326450E+02 0.  0.
    9000005    2    3    3    0    0 -0.44060804371E+02  0.90748196490E+01  0.34166468005E+03  0.34481902945E+03  0.11903891770E+02 0.  0.
         22    1    3    3    0    0  0.44060804371E+02 -0.90748196490E+01  0.22481333167E+03  0.22927001751E+03  0.00000000000E+00 0. -1.
         22    1    4    4    0    0 -0.10048136084E+02  0.21679031441E+01  0.46606462735E+02  0.47726588098E+02  0.00000000000E+00 0.  1.
         22    1    4    4    0    0 -0.34012668288E+02  0.69069165049E+01  0.29505821732E+03  0.29709244135E+03  0.00000000000E+00 0.  1.
<mgrwt>
<rscale>  0 0.93171326E+02</rscale>
<asrwt>0</asrwt>
<pdfrwt beam="1">  1        2 0.87735881E-01 0.93171326E+02</pdfrwt>
<pdfrwt beam="2">  1       -2 0.58546456E-03 0.93171326E+02</pdfrwt>
<totfact> 0.21201779E+05</totfact>
</mgrwt>
</event>
<event>
 7    1  0.3480999E-009  0.9316227E+02  0.7818608E-02  0.1295370E+00
         -2   -1    0    0    0  501 -0.00000000000E+00  0.00000000000E+00  0.57757625973E+01  0.57757631602E+01  0.25500000000E-02 0.  1.
          2   -1    0    0  501    0  0.00000000000E+00 -0.00000000000E+00 -0.37567368394E+03  0.37567368395E+03  0.25500000000E-02 0. -1.
         23    2    1    2    0    0  0.00000000000E+00  0.00000000000E+00 -0.36989792135E+03  0.38144944711E+03  0.93162269648E+02 0.  0.
    9000005    2    3    3    0    0  0.18117302265E+02  0.42305469657E+02 -0.16931193308E+03  0.17565166264E+03  0.83058112919E+01 0.  0.
         22    1    3    3    0    0 -0.18117302265E+02 -0.42305469657E+02 -0.20058598827E+03  0.20579778448E+03  0.00000000000E+00 0. -1.
         22    1    4    4    0    0  0.29202554939E+01  0.26824516086E+01 -0.21756264388E+02  0.22114666601E+02  0.00000000000E+00 0. -1.
         22    1    4    4    0    0  0.15197046771E+02  0.39623018049E+02 -0.14755566869E+03  0.15353699604E+03  0.00000000000E+00 0. -1.
<mgrwt>
<rscale>  0 0.93162270E+02</rscale>
<asrwt>0</asrwt>
<pdfrwt beam="2">  1        2 0.57795932E-01 0.93162270E+02</pdfrwt>
<pdfrwt beam="1">  1       -2 0.88857920E-03 0.93162270E+02</pdfrwt>
<totfact> 0.18428416E+05</totfact>
</mgrwt>
</event>
<event>
 7    1  0.3480999E-009  0.9115325E+02  0.7818608E-02  0.1300083E+00
          2   -1    0    0  501    0  0.00000000000E+00  0.00000000000E+00  0.28423718581E+03  0.28423718582E+03  0.25500000000E-02 0. -1.
         -2   -1    0    0    0  501 -0.00000000000E+00 -0.00000000000E+00 -0.73080821584E+01  0.73080826033E+01  0.25500000000E-02 0.  1.
         23    2    1    2    0    0  0.00000000000E+00  0.22204460493E-15  0.27692910365E+03  0.29154526843E+03  0.91153250582E+02 0.  0.
    9000005    2    3    3    0    0  0.43980285310E+02 -0.14485828599E+01  0.11108847391E+03  0.11996590381E+03  0.10714716662E+02 0.  0.
         22    1    3    3    0    0 -0.43980285310E+02  0.14485828599E+01  0.16584062975E+03  0.17157936462E+03  0.00000000000E+00 0. -1.
         22    1    4    4    0    0  0.34700086690E+02  0.16493335739E+01  0.76459162782E+02  0.83981068646E+02  0.00000000000E+00 0. -1.
         22    1    4    4    0    0  0.92801986207E+01 -0.30979164339E+01  0.34629311123E+02  0.35984835161E+02  0.00000000000E+00 0. -1.
<mgrwt>
<rscale>  0 0.91153251E+02</rscale>
<asrwt>0</asrwt>
<pdfrwt beam="1">  1        2 0.43728801E-01 0.91153251E+02</pdfrwt>
<pdfrwt beam="2">  1       -2 0.11243203E-02 0.91153251E+02</pdfrwt>
<totfact> 0.17620302E+05</totfact>
</mgrwt>
</event>
<event>
 7    1  0.3480999E-009  0.1042309E+03  0.7818608E-02  0.1271642E+00
         -2   -1    0    0    0  501 -0.00000000000E+00  0.00000000000E+00  0.97344017292E+01  0.97344020632E+01  0.25500000000E-02 0.  1.
          2   -1    0    0  501    0  0.00000000000E+00 -0.00000000000E+00 -0.27901273698E+03  0.27901273699E+03  0.25500000000E-02 0. -1.
         23    2    1    2    0    0  0.00000000000E+00  0.00000000000E+00 -0.26927833525E+03  0.28874713905E+03  0.10423093819E+03 0.  0.
    9000005    2    3    3    0    0 -0.19542041054E+02  0.23371915169E+02 -0.25141265250E+03  0.25342971549E+03  0.94953182686E+01 0.  0.
         22    1    3    3    0    0  0.19542041054E+02 -0.23371915169E+02 -0.17865682754E+02  0.35317423568E+02  0.00000000000E+00 0.  1.
         22    1    4    4    0    0 -0.21391803429E+01 -0.16923553513E+00 -0.32116838996E+02  0.32188446379E+02  0.00000000000E+00 0.  1.
         22    1    4    4    0    0 -0.17402860711E+02  0.23541150704E+02 -0.21929581350E+03  0.22124126911E+03  0.00000000000E+00 0.  1.
<mgrwt>
<rscale>  0 0.10423094E+03</rscale>
<asrwt>0</asrwt>
<pdfrwt beam="2">  1        2 0.42925030E-01 0.10423094E+03</pdfrwt>
<pdfrwt beam="1">  1       -2 0.14976005E-02 0.10423094E+03</pdfrwt>
<totfact> 0.12195390E+05</totfact>
</mgrwt>
</event>
<event>
 7    1  0.3480999E-009  0.8975112E+02  0.7818608E-02  0.1303456E+00
         -2   -1    0    0    0  501 -0.00000000000E+00  0.00000000000E+00  0.44658407895E+01  0.44658415175E+01  0.25500000000E-02 0.  1.
          2   -1    0    0  501    0  0.00000000000E+00 -0.00000000000E+00 -0.45093760958E+03  0.45093760959E+03  0.25500000000E-02 0. -1.
         23    2    1    2    0    0  0.00000000000E+00  0.33306690739E-15 -0.44647176879E+03  0.45540345111E+03  0.89751116713E+02 0.  0.
    9000005    2    3    3    0    0 -0.29272438737E+02  0.61710089738E+00 -0.39393964622E+03  0.39526294574E+03  0.13678264965E+02 0.  0.
         22    1    3    3    0    0  0.29272438737E+02 -0.61710089738E+00 -0.52532122575E+02  0.60140505363E+02  0.00000000000E+00 0.  1.
         22    1    4    4    0    0 -0.20934341573E+02 -0.20469407348E+01 -0.19507352103E+03  0.19620426914E+03  0.00000000000E+00 0.  1.
         22    1    4    4    0    0 -0.83380971643E+01  0.26640416322E+01 -0.19886612519E+03  0.19905867660E+03  0.00000000000E+00 0.  1.
<mgrwt>
<rscale>  0 0.89751117E+02</rscale>
<asrwt>0</asrwt>
<pdfrwt beam="2">  1        2 0.69374981E-01 0.89751117E+02</pdfrwt>
<pdfrwt beam="1">  1       -2 0.68705284E-03 0.89751117E+02</pdfrwt>
<totfact> 0.21705760E+05</totfact>
</mgrwt>
</event>
<event>
 7    1  0.3480999E-009  0.8770690E+02  0.7818608E-02  0.1308502E+00
          2   -1    0    0  501    0  0.00000000000E+00  0.00000000000E+00  0.94485318280E+02  0.94485318314E+02  0.25500000000E-02 0. -1.
         -2   -1    0    0    0  501 -0.00000000000E+00 -0.00000000000E+00 -0.20353692195E+02  0.20353692354E+02  0.25500000000E-02 0.  1.
         23    2    1    2    0    0 -0.33306690739E-15 -0.35527136788E-14  0.74131626085E+02  0.11483901067E+03  0.87706900443E+02 0.  0.
    9000005    2    3    3    0    0  0.88730154268E+00 -0.22735813542E+02 -0.85968050953E+01  0.29038673565E+02  0.15863006749E+02 0.  0.
         22    1    3    3    0    0 -0.88730154268E+00  0.22735813542E+02  0.82728431180E+02  0.85800337103E+02  0.00000000000E+00 0. -1.
         22    1    4    4    0    0 -0.52764485493E+01 -0.15178240065E+02 -0.10372276632E+02  0.19126003328E+02  0.00000000000E+00 0. -1.
         22    1    4    4    0    0  0.61637500920E+01 -0.75575734771E+01  0.17754715362E+01  0.99126702373E+01  0.00000000000E+00 0. -1.
<mgrwt>
<rscale>  0 0.87706900E+02</rscale>
<asrwt>0</asrwt>
<pdfrwt beam="1">  1        2 0.14536203E-01 0.87706900E+02</pdfrwt>
<pdfrwt beam="2">  1       -2 0.31313372E-02 0.87706900E+02</pdfrwt>
<totfact> 0.13416602E+05</totfact>
</mgrwt>
</event>
<event>
 7    1  0.3480999E-009  0.8914549E+02  0.7818608E-02  0.1304934E+00
          2   -1    0    0  501    0  0.00000000000E+00  0.00000000000E+00  0.31413966096E+02  0.31413966199E+02  0.25500000000E-02 0. -1.
         -2   -1    0    0    0  501 -0.00000000000E+00 -0.00000000000E+00 -0.63243512370E+02  0.63243512421E+02  0.25500000000E-02 0.  1.
         23    2    1    2    0    0  0.00000000000E+00  0.00000000000E+00 -0.31829546274E+02  0.94657478620E+02  0.89145489189E+02 0.  0.
    9000005    2    3    3    0    0  0.12262570722E+02  0.18759186402E+02 -0.55627126738E+02  0.61967991760E+02  0.15600546736E+02 0.  0.
         22    1    3    3    0    0 -0.12262570722E+02 -0.18759186402E+02  0.23797580464E+02  0.32689486860E+02  0.00000000000E+00 0. -1.
         22    1    4    4    0    0  0.47028034735E+01  0.19087859124E+02 -0.42232885474E+02  0.46584110401E+02  0.00000000000E+00 0. -1.
         22    1    4    4    0    0  0.75597672489E+01 -0.32867272203E+00 -0.13394241265E+02  0.15383881359E+02  0.00000000000E+00 0. -1.
<mgrwt>
<rscale>  0 0.89145489E+02</rscale>
<asrwt>0</asrwt>
<pdfrwt beam="1">  1        2 0.48329179E-02 0.89145489E+02</pdfrwt>
<pdfrwt beam="2">  1       -2 0.97297712E-02 0.89145489E+02</pdfrwt>
<totfact> 0.95700187E+04</totfact>
</mgrwt>
</event>
<event>
 7    1  0.3480999E-009  0.9129189E+02  0.7818608E-02  0.1299753E+00
          2   -1    0    0  501    0  0.00000000000E+00  0.00000000000E+00  0.13289220162E+04  0.13289220162E+04  0.25500000000E-02 0. -1.
         -2   -1    0    0    0  501 -0.00000000000E+00 -0.00000000000E+00 -0.15678504015E+01  0.15678524752E+01  0.25500000000E-02 0.  1.
         23    2    1    2    0    0  0.17763568394E-14  0.00000000000E+00  0.13273541658E+04  0.13304898687E+04  0.91291890061E+02 0.  0.
    9000005    2    3    3    0    0  0.14935655918E+02  0.50151983076E+01  0.12867295104E+04  0.12869170715E+04  0.15313060742E+02 0.  0.
         22    1    3    3    0    0 -0.14935655918E+02 -0.50151983076E+01  0.40624655396E+02  0.43572797223E+02  0.00000000000E+00 0.  1.
         22    1    4    4    0    0  0.31055916362E+00  0.60219681276E+01  0.60450886877E+03  0.60453894248E+03  0.00000000000E+00 0. -1.
         22    1    4    4    0    0  0.14625096755E+02 -0.10067698200E+01  0.68222064163E+03  0.68237812897E+03  0.00000000000E+00 0. -1.
<mgrwt>
<rscale>  0 0.91291890E+02</rscale>
<asrwt>0</asrwt>
<pdfrwt beam="1">  1        2 0.20444965E+00 0.91291890E+02</pdfrwt>
<pdfrwt beam="2">  1       -2 0.24120778E-03 0.91291890E+02</pdfrwt>
<totfact> 0.24376753E+05</totfact>
</mgrwt>
</event>
<event>
 7    1  0.3480999E-009  0.9321053E+02  0.7818608E-02  0.1295258E+00
          2   -1    0    0  501    0  0.00000000000E+00  0.00000000000E+00  0.59247883545E+02  0.59247883599E+02  0.25500000000E-02 0. -1.
         -2   -1    0    0    0  501 -0.00000000000E+00 -0.00000000000E+00 -0.36660396934E+02  0.36660397023E+02  0.25500000000E-02 0.  1.
         23    2    1    2    0    0  0.35527136788E-14  0.00000000000E+00  0.22587486611E+02  0.95908280622E+02  0.93210534493E+02 0.  0.
    9000005    2    3    3    0    0  0.31331940986E+02  0.20421669712E+02 -0.16280107830E+02  0.41969194448E+02  0.98811058038E+01 0.  0.
         22    1    3    3    0    0 -0.31331940986E+02 -0.20421669712E+02  0.38867594440E+02  0.53939086174E+02  0.00000000000E+00 0. -1.
         22    1    4    4    0    0  0.18537838086E+02  0.10580399709E+02 -0.40683301922E+01  0.21728957855E+02  0.00000000000E+00 0.  1.
         22    1    4    4    0    0  0.12794102900E+02  0.98412700026E+01 -0.12211777637E+02  0.20240236593E+02  0.00000000000E+00 0.  1.
<mgrwt>
<rscale>  0 0.93210534E+02</rscale>
<asrwt>0</asrwt>
<pdfrwt beam="1">  1        2 0.91150590E-02 0.93210534E+02</pdfrwt>
<pdfrwt beam="2">  1       -2 0.56400611E-02 0.93210534E+02</pdfrwt>
<totfact> 0.99311589E+04</totfact>
</mgrwt>
</event>
<event>
 7    1  0.3480999E-009  0.9012874E+02  0.7818608E-02  0.1302540E+00
          2   -1    0    0  501    0  0.00000000000E+00  0.00000000000E+00  0.57768774958E+03  0.57768774959E+03  0.25500000000E-02 0. -1.
         -2   -1    0    0    0  501 -0.00000000000E+00 -0.00000000000E+00 -0.35153887919E+01  0.35153897167E+01  0.25500000000E-02 0.  1.
         23    2    1    2    0    0  0.00000000000E+00  0.00000000000E+00  0.57417236079E+03  0.58120313931E+03  0.90128737049E+02 0.  0.
    9000005    2    3    3    0    0 -0.22653219116E+02 -0.10720994660E+02  0.52715066067E+03  0.52791948004E+03  0.13529608040E+02 0.  0.
         22    1    3    3    0    0  0.22653219116E+02  0.10720994660E+02  0.47021700118E+02  0.53283659267E+02  0.00000000000E+00 0.  1.
         22    1    4    4    0    0 -0.39247205176E+01  0.23251740343E+01  0.15667050791E+03  0.15673690668E+03  0.00000000000E+00 0.  1.
         22    1    4    4    0    0 -0.18728498599E+02 -0.13046168694E+02  0.37048015276E+03  0.37118257336E+03  0.00000000000E+00 0.  1.
<mgrwt>
<rscale>  0 0.90128737E+02</rscale>
<asrwt>0</asrwt>
<pdfrwt beam="1">  1        2 0.88874986E-01 0.90128737E+02</pdfrwt>
<pdfrwt beam="2">  1       -2 0.54082944E-03 0.90128737E+02</pdfrwt>
<totfact> 0.23235630E+05</totfact>
</mgrwt>
</event>
<event>
 7    1  0.3480999E-009  0.9174495E+02  0.7818608E-02  0.1298680E+00
         -2   -1    0    0    0  501 -0.00000000000E+00  0.00000000000E+00  0.89647176931E+02  0.89647176967E+02  0.25500000000E-02 0.  1.
          2   -1    0    0  501    0  0.00000000000E+00 -0.00000000000E+00 -0.23472950712E+02  0.23472950851E+02  0.25500000000E-02 0. -1.
         23    2    1    2    0    0  0.00000000000E+00 -0.71054273576E-14  0.66174226219E+02  0.11312012782E+03  0.91744945920E+02 0.  0.
    9000005    2    3    3    0    0 -0.27235905723E+02 -0.35900442652E+02  0.36161585265E+02  0.58977769538E+02  0.11835569594E+02 0.  0.
         22    1    3    3    0    0  0.27235905723E+02  0.35900442652E+02  0.30012640954E+02  0.54142358280E+02  0.00000000000E+00 0. -1.
         22    1    4    4    0    0 -0.50197073182E+01 -0.15942289808E+02  0.12321301232E+02  0.20764597996E+02  0.00000000000E+00 0.  1.
         22    1    4    4    0    0 -0.22216198405E+02 -0.19958152844E+02  0.23840284034E+02  0.38213171542E+02  0.00000000000E+00 0.  1.
<mgrwt>
<rscale>  0 0.91744946E+02</rscale>
<asrwt>0</asrwt>
<pdfrwt beam="2">  1        2 0.36112232E-02 0.91744946E+02</pdfrwt>
<pdfrwt beam="1">  1       -2 0.13791873E-01 0.91744946E+02</pdfrwt>
<totfact> 0.81139647E+04</totfact>
</mgrwt>
</event>
<event>
 7    1  0.3480999E-009  0.8898064E+02  0.7818608E-02  0.1305339E+00
         -2   -1    0    0    0  501 -0.00000000000E+00  0.00000000000E+00  0.55653063551E+01  0.55653069393E+01  0.25500000000E-02 0.  1.
          2   -1    0    0  501    0  0.00000000000E+00 -0.00000000000E+00 -0.35566567455E+03  0.35566567455E+03  0.25500000000E-02 0. -1.
         23    2    1    2    0    0  0.00000000000E+00  0.35527136788E-14 -0.35010036819E+03  0.36123098149E+03  0.88980639377E+02 0.  0.
    9000005    2    3    3    0    0 -0.35203759867E+02  0.25435433658E+02 -0.20968466379E+03  0.21425194885E+03  0.70691841044E+01 0.  0.
         22    1    3    3    0    0  0.35203759867E+02 -0.25435433658E+02 -0.14041570440E+03  0.14697903264E+03  0.00000000000E+00 0.  1.
         22    1    4    4    0    0 -0.80103100106E+01  0.96878694152E+01 -0.58073007617E+02  0.59417961039E+02  0.00000000000E+00 0. -1.
         22    1    4    4    0    0 -0.27193449857E+02  0.15747564243E+02 -0.15161165617E+03  0.15483398781E+03  0.00000000000E+00 0. -1.
<mgrwt>
<rscale>  0 0.88980639E+02</rscale>
<asrwt>0</asrwt>
<pdfrwt beam="2">  1        2 0.54717778E-01 0.88980639E+02</pdfrwt>
<pdfrwt beam="1">  1       -2 0.85620130E-03 0.88980639E+02</pdfrwt>
<totfact> 0.20411089E+05</totfact>
</mgrwt>
</event>
<event>
 7    1  0.3480999E-009  0.9097273E+02  0.7818608E-02  0.1300513E+00
         -2   -1    0    0    0  501 -0.00000000000E+00  0.00000000000E+00  0.62902192699E+01  0.62902197867E+01  0.25500000000E-02 0. -1.
          2   -1    0    0  501    0  0.00000000000E+00 -0.00000000000E+00 -0.32892485926E+03  0.32892485927E+03  0.25500000000E-02 0.  1.
         23    2    1    2    0    0  0.00000000000E+00  0.00000000000E+00 -0.32263463999E+03  0.33521507906E+03  0.90972733857E+02 0.  0.
    9000005    2    3    3    0    0 -0.32815087459E+02  0.25174343065E+02 -0.22601336209E+03  0.23011394273E+03  0.12641569625E+02 0.  0.
         22    1    3    3    0    0  0.32815087459E+02 -0.25174343065E+02 -0.96621277898E+02  0.10510113632E+03  0.00000000000E+00 0.  1.
         22    1    4    4    0    0 -0.24269192339E+01 -0.11225989486E+01 -0.23509502881E+02  0.23661083895E+02  0.00000000000E+00 0.  1.
         22    1    4    4    0    0 -0.30388168225E+02  0.26296942014E+02 -0.20250385921E+03  0.20645285884E+03  0.00000000000E+00 0.  1.
<mgrwt>
<rscale>  0 0.90972734E+02</rscale>
<asrwt>0</asrwt>
<pdfrwt beam="2">  1        2 0.50603811E-01 0.90972734E+02</pdfrwt>
<pdfrwt beam="1">  1       -2 0.96772634E-03 0.90972734E+02</pdfrwt>
<totfact> 0.18701555E+05</totfact>
</mgrwt>
</event>
<event>
 7    1  0.3480999E-009  0.9008953E+02  0.7818608E-02  0.1302635E+00
         -2   -1    0    0    0  501 -0.00000000000E+00  0.00000000000E+00  0.13934479103E+01  0.13934502436E+01  0.25500000000E-02 0. -1.
          2   -1    0    0  501    0  0.00000000000E+00 -0.00000000000E+00 -0.14561212498E+04  0.14561212498E+04  0.25500000000E-02 0.  1.
         23    2    1    2    0    0  0.00000000000E+00  0.00000000000E+00 -0.14547278019E+04  0.14575147000E+04  0.90089529130E+02 0.  0.
    9000005    2    3    3    0    0 -0.25401498471E+01  0.19039614195E+02 -0.13852994376E+04  0.13854782021E+04  0.11240879887E+02 0.  0.
         22    1    3    3    0    0  0.25401498471E+01 -0.19039614195E+02 -0.69428364308E+02  0.72036497974E+02  0.00000000000E+00 0. -1.
         22    1    4    4    0    0  0.41450523612E+01  0.59251547443E+01 -0.35522092524E+03  0.35529451818E+03  0.00000000000E+00 0. -1.
         22    1    4    4    0    0 -0.66852022083E+01  0.13114459451E+02 -0.10300785123E+04  0.10301836839E+04  0.00000000000E+00 0. -1.
<mgrwt>
<rscale>  0 0.90089529E+02</rscale>
<asrwt>0</asrwt>
<pdfrwt beam="2">  1        2 0.22401744E+00 0.90089529E+02</pdfrwt>
<pdfrwt beam="1">  1       -2 0.21437795E-03 0.90089529E+02</pdfrwt>
<totfact> 0.24613568E+05</totfact>
</mgrwt>
</event>
<event>
 7    1  0.3480999E-009  0.8907154E+02  0.7818608E-02  0.1305116E+00
          2   -1    0    0  501    0  0.00000000000E+00  0.00000000000E+00  0.38697838082E+03  0.38697838083E+03  0.25500000000E-02 0.  1.
         -2   -1    0    0    0  501 -0.00000000000E+00 -0.00000000000E+00 -0.51254407287E+01  0.51254413630E+01  0.25500000000E-02 0. -1.
         23    2    1    2    0    0  0.00000000000E+00  0.71054273576E-14  0.38185294009E+03  0.39210382219E+03  0.89071541588E+02 0.  0.
    9000005    2    3    3    0    0  0.25384750594E+02  0.32891686802E+02  0.13507027499E+03  0.14184808816E+03  0.12274050028E+02 0.  0.
         22    1    3    3    0    0 -0.25384750594E+02 -0.32891686802E+02  0.24678266510E+03  0.25025573403E+03  0.00000000000E+00 0. -1.
         22    1    4    4    0    0  0.19956425791E+02  0.23784631222E+02  0.11538637292E+03  0.11949051288E+03  0.00000000000E+00 0.  1.
         22    1    4    4    0    0  0.54283248033E+01  0.91070555798E+01  0.19683902073E+02  0.22357575279E+02  0.00000000000E+00 0.  1.
<mgrwt>
<rscale>  0 0.89071542E+02</rscale>
<asrwt>0</asrwt>
<pdfrwt beam="1">  1        2 0.59535140E-01 0.89071542E+02</pdfrwt>
<pdfrwt beam="2">  1       -2 0.78852934E-03 0.89071542E+02</pdfrwt>
<totfact> 0.20987248E+05</totfact>
</mgrwt>
</event>
<event>
 7    1  0.3480999E-009  0.8951437E+02  0.7818608E-02  0.1304032E+00
          2   -1    0    0  501    0  0.00000000000E+00  0.00000000000E+00  0.72685143601E+03  0.72685143601E+03  0.25500000000E-02 0. -1.
         -2   -1    0    0    0  501 -0.00000000000E+00 -0.00000000000E+00 -0.27560038383E+01  0.27560050180E+01  0.25500000000E-02 0.  1.
         23    2    1    2    0    0 -0.22204460493E-15  0.00000000000E+00  0.72409543217E+03  0.72960744103E+03  0.89514373806E+02 0.  0.
    9000005    2    3    3    0    0  0.19701356657E+01  0.23846179274E+02  0.66977758950E+03  0.67025299947E+03  0.80338162140E+01 0.  0.
         22    1    3    3    0    0 -0.19701356657E+01 -0.23846179274E+02  0.54317842667E+02  0.59354441557E+02  0.00000000000E+00 0.  1.
         22    1    4    4    0    0  0.37438032499E+01  0.13983886850E+02  0.31280872742E+03  0.31314352157E+03  0.00000000000E+00 0.  1.
         22    1    4    4    0    0 -0.17736675842E+01  0.98622924244E+01  0.35696886208E+03  0.35710947790E+03  0.00000000000E+00 0.  1.
<mgrwt>
<rscale>  0 0.89514374E+02</rscale>
<asrwt>0</asrwt>
<pdfrwt beam="1">  1        2 0.11182334E+00 0.89514374E+02</pdfrwt>
<pdfrwt beam="2">  1       -2 0.42400053E-03 0.89514374E+02</pdfrwt>
<totfact> 0.25104356E+05</totfact>
</mgrwt>
</event>
<event>
 7    1  0.3480999E-009  0.9023387E+02  0.7818608E-02  0.1302286E+00
         -2   -1    0    0    0  501 -0.00000000000E+00  0.00000000000E+00  0.28626147628E+02  0.28626147741E+02  0.25500000000E-02 0.  1.
          2   -1    0    0  501    0  0.00000000000E+00 -0.00000000000E+00 -0.71107636794E+02  0.71107636840E+02  0.25500000000E-02 0. -1.
         23    2    1    2    0    0  0.00000000000E+00  0.00000000000E+00 -0.42481489166E+02  0.99733784581E+02  0.90233867617E+02 0.  0.
    9000005    2    3    3    0    0  0.21346840215E+02  0.12560445702E+02 -0.62127260544E+02  0.68120358376E+02  0.12928044677E+02 0.  0.
         22    1    3    3    0    0 -0.21346840215E+02 -0.12560445702E+02  0.19645771378E+02  0.31613426205E+02  0.00000000000E+00 0.  1.
         22    1    4    4    0    0  0.20899389435E+02  0.11716245926E+02 -0.62618700676E+02  0.67045928823E+02  0.00000000000E+00 0.  1.
         22    1    4    4    0    0  0.44745078027E+00  0.84419977577E+00  0.49144013187E+00  0.10744295535E+01  0.00000000000E+00 0.  1.
<mgrwt>
<rscale>  0 0.90233868E+02</rscale>
<asrwt>0</asrwt>
<pdfrwt beam="2">  1        2 0.10939636E-01 0.90233868E+02</pdfrwt>
<pdfrwt beam="1">  1       -2 0.44040227E-02 0.90233868E+02</pdfrwt>
<totfact> 0.11437362E+05</totfact>
</mgrwt>
</event>
<event>
 7    1  0.3480999E-009  0.8776044E+02  0.7818608E-02  0.1308368E+00
          2   -1    0    0  501    0  0.00000000000E+00  0.00000000000E+00  0.59242141838E+03  0.59242141838E+03  0.25500000000E-02 0.  1.
         -2   -1    0    0    0  501 -0.00000000000E+00 -0.00000000000E+00 -0.32501752682E+01  0.32501762685E+01  0.25500000000E-02 0. -1.
         23    2    1    2    0    0  0.00000000000E+00  0.00000000000E+00  0.58917124311E+03  0.59567159465E+03  0.87760440790E+02 0.  0.
    9000005    2    3    3    0    0  0.87421942744E+01  0.88855642628E+01  0.58004271538E+03  0.58022137680E+03  0.72052219652E+01 0.  0.
         22    1    3    3    0    0 -0.87421942744E+01 -0.88855642628E+01  0.91285277304E+01  0.15450217847E+02  0.00000000000E+00 0. -1.
         22    1    4    4    0    0  0.88147608422E+01  0.81790316035E+01  0.57531083883E+03  0.57543649331E+03  0.00000000000E+00 0. -1.
         22    1    4    4    0    0 -0.72566567825E-01  0.70653265934E+00  0.47318765542E+01  0.47848834918E+01  0.00000000000E+00 0. -1.
<mgrwt>
<rscale>  0 0.87760441E+02</rscale>
<asrwt>0</asrwt>
<pdfrwt beam="1">  1        2 0.91141664E-01 0.87760441E+02</pdfrwt>
<pdfrwt beam="2">  1       -2 0.50002755E-03 0.87760441E+02</pdfrwt>
<totfact> 0.25106691E+05</totfact>
</mgrwt>
</event>
<event>
 7    1  0.3480999E-009  0.9128208E+02  0.7818608E-02  0.1299776E+00
          2   -1    0    0  501    0  0.00000000000E+00  0.00000000000E+00  0.98110571415E+02  0.98110571448E+02  0.25500000000E-02 0. -1.
         -2   -1    0    0    0  501 -0.00000000000E+00 -0.00000000000E+00 -0.21232214096E+02  0.21232214249E+02  0.25500000000E-02 0.  1.
         23    2    1    2    0    0  0.00000000000E+00  0.00000000000E+00  0.76878357319E+02  0.11934278570E+03  0.91282082983E+02 0.  0.
    9000005    2    3    3    0    0 -0.26711639990E+02 -0.20516925182E+02 -0.14629042428E+01  0.34067882044E+02  0.49014863350E+01 0.  0.
         22    1    3    3    0    0  0.26711639990E+02  0.20516925182E+02  0.78341261562E+02  0.85274903653E+02  0.00000000000E+00 0. -1.
         22    1    4    4    0    0 -0.29971220616E+01 -0.29615258935E+01  0.13604854338E+01  0.44276739814E+01  0.00000000000E+00 0. -1.
         22    1    4    4    0    0 -0.23714517928E+02 -0.17555399288E+02 -0.28233896766E+01  0.29640208063E+02  0.00000000000E+00 0. -1.
<mgrwt>
<rscale>  0 0.91282083E+02</rscale>
<asrwt>0</asrwt>
<pdfrwt beam="1">  1        2 0.15093934E-01 0.91282083E+02</pdfrwt>
<pdfrwt beam="2">  1       -2 0.32664944E-02 0.91282083E+02</pdfrwt>
<totfact> 0.12158014E+05</totfact>
</mgrwt>
</event>
<event>
 7    1  0.3480999E-009  0.5648787E+02  0.7818608E-02  0.1413191E+00
         -2   -1    0    0    0  501 -0.00000000000E+00  0.00000000000E+00  0.93510457151E+02  0.93510457185E+02  0.25500000000E-02 0.  1.
          2   -1    0    0  501    0  0.00000000000E+00 -0.00000000000E+00 -0.85308103853E+01  0.85308107664E+01  0.25500000000E-02 0. -1.
         23    2    1    2    0    0  0.00000000000E+00  0.16653345369E-15  0.84979646765E+02  0.10204126795E+03  0.56487874813E+02 0.  0.
    9000005    2    3    3    0    0 -0.16978531864E+02  0.22649653837E+00  0.44385716968E+01  0.19729746169E+02  0.90133301426E+01 0.  0.
         22    1    3    3    0    0  0.16978531864E+02 -0.22649653837E+00  0.80541075069E+02  0.82311521782E+02  0.00000000000E+00 0.  1.
         22    1    4    4    0    0 -0.17506218758E+02  0.17673597804E+01  0.40472721375E+01  0.18054685474E+02  0.00000000000E+00 0.  1.
         22    1    4    4    0    0  0.52768689408E+00 -0.15408632421E+01  0.39129955930E+00  0.16750606956E+01  0.00000000000E+00 0.  1.
<mgrwt>
<rscale>  0 0.56487875E+02</rscale>
<asrwt>0</asrwt>
<pdfrwt beam="2">  1        2 0.13124323E-02 0.56487875E+02</pdfrwt>
<pdfrwt beam="1">  1       -2 0.14386225E-01 0.56487875E+02</pdfrwt>
<totfact> 0.26624665E+05</totfact>
</mgrwt>
</event>
<event>
 7    1  0.3480999E-009  0.9028647E+02  0.7818608E-02  0.1302159E+00
          2   -1    0    0  501    0  0.00000000000E+00  0.00000000000E+00  0.99365938697E+02  0.99365938729E+02  0.25500000000E-02 0. -1.
         -2   -1    0    0    0  501 -0.00000000000E+00 -0.00000000000E+00 -0.20509156177E+02  0.20509156336E+02  0.25500000000E-02 0.  1.
         23    2    1    2    0    0  0.00000000000E+00  0.00000000000E+00  0.78856782519E+02  0.11987509507E+03  0.90286467799E+02 0.  0.
    9000005    2    3    3    0    0  0.37894233740E+02  0.13408966716E+02  0.64488284312E+02  0.77187543251E+02  0.13542698416E+02 0.  0.
         22    1    3    3    0    0 -0.37894233740E+02 -0.13408966716E+02  0.14368498208E+02  0.42687551815E+02  0.00000000000E+00 0. -1.
         22    1    4    4    0    0  0.38857017592E+02  0.13981510724E+02  0.62714730111E+02  0.75089865036E+02  0.00000000000E+00 0.  1.
         22    1    4    4    0    0 -0.96278385196E+00 -0.57254400752E+00  0.17735542013E+01  0.20976782144E+01  0.00000000000E+00 0.  1.
<mgrwt>
<rscale>  0 0.90286468E+02</rscale>
<asrwt>0</asrwt>
<pdfrwt beam="1">  1        2 0.15287068E-01 0.90286468E+02</pdfrwt>
<pdfrwt beam="2">  1       -2 0.31552548E-02 0.90286468E+02</pdfrwt>
<totfact> 0.12578813E+05</totfact>
</mgrwt>
</event>
<event>
 7    1  0.3480999E-009  0.9342297E+02  0.7818608E-02  0.1294768E+00
          2   -1    0    0  501    0  0.00000000000E+00  0.00000000000E+00  0.69431431316E+02  0.69431431363E+02  0.25500000000E-02 0. -1.
         -2   -1    0    0    0  501 -0.00000000000E+00 -0.00000000000E+00 -0.31426156761E+02  0.31426156864E+02  0.25500000000E-02 0.  1.
         23    2    1    2    0    0  0.00000000000E+00 -0.35527136788E-14  0.38005274556E+02  0.10085758823E+03  0.93422974739E+02 0.  0.
    9000005    2    3    3    0    0  0.32196666754E+02 -0.28238237788E+02  0.38023051061E+02  0.58032084851E+02  0.93780081435E+01 0.  0.
         22    1    3    3    0    0 -0.32196666754E+02  0.28238237788E+02 -0.17776505557E-01  0.42825503376E+02  0.00000000000E+00 0.  1.
         22    1    4    4    0    0  0.29186064935E+02 -0.20947574438E+02  0.31947857300E+02  0.48075907139E+02  0.00000000000E+00 0.  1.
         22    1    4    4    0    0  0.30106018197E+01 -0.72906633499E+01  0.60751937610E+01  0.99561777119E+01  0.00000000000E+00 0.  1.
<mgrwt>
<rscale>  0 0.93422975E+02</rscale>
<asrwt>0</asrwt>
<pdfrwt beam="1">  1        2 0.10681759E-01 0.93422975E+02</pdfrwt>
<pdfrwt beam="2">  1       -2 0.48347934E-02 0.93422975E+02</pdfrwt>
<totfact> 0.10308181E+05</totfact>
</mgrwt>
</event>
<event>
 7    1  0.3480999E-009  0.9177717E+02  0.7818608E-02  0.1298604E+00
         -2   -1    0    0    0  501 -0.00000000000E+00  0.00000000000E+00  0.12689731417E+02  0.12689731673E+02  0.25500000000E-02 0.  1.
          2   -1    0    0  501    0  0.00000000000E+00 -0.00000000000E+00 -0.16594221661E+03  0.16594221663E+03  0.25500000000E-02 0. -1.
         23    2    1    2    0    0  0.71054273576E-14 -0.88817841970E-15 -0.15325248519E+03  0.17863194830E+03  0.91777168929E+02 0.  0.
    9000005    2    3    3    0    0 -0.36239160005E+02 -0.63307335255E+01 -0.30217586363E+02  0.50214888552E+02  0.15971149046E+02 0.  0.
         22    1    3    3    0    0  0.36239160005E+02  0.63307335255E+01 -0.12303489883E+03  0.12841705975E+03  0.00000000000E+00 0. -1.
         22    1    4    4    0    0  0.90443188713E+00 -0.20383263981E+01 -0.15115934642E+00  0.22350885198E+01  0.00000000000E+00 0.  1.
         22    1    4    4    0    0 -0.37143591893E+02 -0.42924071274E+01 -0.30066427017E+02  0.47979800033E+02  0.00000000000E+00 0.  1.
<mgrwt>
<rscale>  0 0.91777169E+02</rscale>
<asrwt>0</asrwt>
<pdfrwt beam="2">  1        2 0.25529570E-01 0.91777169E+02</pdfrwt>
<pdfrwt beam="1">  1       -2 0.19522665E-02 0.91777169E+02</pdfrwt>
<totfact> 0.14220285E+05</totfact>
</mgrwt>
</event>
<event>
 7    1  0.3480999E-009  0.9324969E+02  0.7818608E-02  0.1295168E+00
          2   -1    0    0  501    0  0.00000000000E+00  0.00000000000E+00  0.35307185789E+03  0.35307185790E+03  0.25500000000E-02 0. -1.
         -2   -1    0    0    0  501 -0.00000000000E+00 -0.00000000000E+00 -0.61570362401E+01  0.61570367682E+01  0.25500000000E-02 0.  1.
         23    2    1    2    0    0  0.35527136788E-14  0.00000000000E+00  0.34691482165E+03  0.35922889467E+03  0.93249693209E+02 0.  0.
    9000005    2    3    3    0    0 -0.30726646869E+02 -0.34307083649E+02  0.18771135686E+03  0.19349764832E+03  0.92023688810E+01 0.  0.
         22    1    3    3    0    0  0.30726646869E+02  0.34307083649E+02  0.15920346479E+03  0.16573124636E+03  0.00000000000E+00 0. -1.
         22    1    4    4    0    0 -0.88224177410E+01 -0.80006375691E+01  0.34155075882E+02  0.36172012175E+02  0.00000000000E+00 0.  1.
         22    1    4    4    0    0 -0.21904229128E+02 -0.26306446080E+02  0.15355628098E+03  0.15732563614E+03  0.00000000000E+00 0.  1.
<mgrwt>
<rscale>  0 0.93249693E+02</rscale>
<asrwt>0</asrwt>
<pdfrwt beam="1">  1        2 0.54318764E-01 0.93249693E+02</pdfrwt>
<pdfrwt beam="2">  1       -2 0.94723610E-03 0.93249693E+02</pdfrwt>
<totfact> 0.17971099E+05</totfact>
</mgrwt>
</event>
<event>
 7    1  0.3480999E-009  0.9034358E+02  0.7818608E-02  0.1302022E+00
         -2   -1    0    0    0  501 -0.00000000000E+00  0.00000000000E+00  0.91531822097E+01  0.91531825649E+01  0.25500000000E-02 0.  1.
          2   -1    0    0  501    0  0.00000000000E+00 -0.00000000000E+00 -0.22292692372E+03  0.22292692373E+03  0.25500000000E-02 0. -1.
         23    2    1    2    0    0  0.00000000000E+00 -0.35527136788E-14 -0.21377374151E+03  0.23208010630E+03  0.90343584058E+02 0.  0.
    9000005    2    3    3    0    0  0.36665398883E+02 -0.24492539374E+02 -0.11541311784E+03  0.12428841715E+03  0.13534655836E+02 0.  0.
         22    1    3    3    0    0 -0.36665398883E+02  0.24492539374E+02 -0.98360623666E+02  0.10779168914E+03  0.00000000000E+00 0.  1.
         22    1    4    4    0    0  0.26595101428E+01 -0.70562549152E+01 -0.25483138374E+02  0.26575441088E+02  0.00000000000E+00 0.  1.
         22    1    4    4    0    0  0.34005888740E+02 -0.17436284459E+02 -0.89929979467E+02  0.97712976066E+02  0.00000000000E+00 0.  1.
<mgrwt>
<rscale>  0 0.90343584E+02</rscale>
<asrwt>0</asrwt>
<pdfrwt beam="2">  1        2 0.34296446E-01 0.90343584E+02</pdfrwt>
<pdfrwt beam="1">  1       -2 0.14081821E-02 0.90343584E+02</pdfrwt>
<totfact> 0.16492994E+05</totfact>
</mgrwt>
</event>
<event>
 7    1  0.3480999E-009  0.1092273E+03  0.7818608E-02  0.1262007E+00
          2   -1    0    0  501    0  0.00000000000E+00  0.00000000000E+00  0.14596208881E+02  0.14596209104E+02  0.25500000000E-02 0. -1.
         -2   -1    0    0    0  501 -0.00000000000E+00 -0.00000000000E+00 -0.20434434460E+03  0.20434434462E+03  0.25500000000E-02 0.  1.
         23    2    1    2    0    0  0.00000000000E+00  0.00000000000E+00 -0.18974813572E+03  0.21894055372E+03  0.10922733657E+03 0.  0.
    9000005    2    3    3    0    0 -0.20443100809E+02 -0.32332249125E+01 -0.19582012912E+03  0.19737105633E+03  0.13469847593E+02 0.  0.
         22    1    3    3    0    0  0.20443100809E+02  0.32332249125E+01  0.60719933970E+01  0.21569497394E+02  0.00000000000E+00 0. -1.
         22    1    4    4    0    0 -0.18990339316E+02  0.21554145328E+01 -0.15231745483E+03  0.15351184269E+03  0.00000000000E+00 0. -1.
         22    1    4    4    0    0 -0.14527614936E+01 -0.53886394453E+01 -0.43502674287E+02  0.43859213640E+02  0.00000000000E+00 0. -1.
<mgrwt>
<rscale>  0 0.10922734E+03</rscale>
<asrwt>0</asrwt>
<pdfrwt beam="1">  1        2 0.22455708E-02 0.10922734E+03</pdfrwt>
<pdfrwt beam="2">  1       -2 0.31437589E-01 0.10922734E+03</pdfrwt>
<totfact> 0.38876248E+04</totfact>
</mgrwt>
</event>
<event>
 7    1  0.3480999E-009  0.9156620E+02  0.7818608E-02  0.1299103E+00
         -2   -1    0    0    0  501 -0.00000000000E+00  0.00000000000E+00  0.33719885161E+01  0.33719894803E+01  0.25500000000E-02 0.  1.
          2   -1    0    0  501    0  0.00000000000E+00 -0.00000000000E+00 -0.62161888701E+03  0.62161888702E+03  0.25500000000E-02 0. -1.
         23    2    1    2    0    0  0.35527136788E-14  0.35527136788E-14 -0.61824689849E+03  0.62499087650E+03  0.91566195757E+02 0.  0.
    9000005    2    3    3    0    0 -0.23838719573E+02 -0.24143977343E+02 -0.51755479999E+03  0.51873592417E+03  0.85306411311E+01 0.  0.
         22    1    3    3    0    0  0.23838719573E+02  0.24143977343E+02 -0.10069209851E+03  0.10625495233E+03  0.00000000000E+00 0.  1.
         22    1    4    4    0    0 -0.65357442298E+01 -0.22409559035E+01 -0.84127103500E+02  0.84410351138E+02  0.00000000000E+00 0.  1.
         22    1    4    4    0    0 -0.17302975343E+02 -0.21903021439E+02 -0.43342769649E+03  0.43432557303E+03  0.00000000000E+00 0.  1.
<mgrwt>
<rscale>  0 0.91566196E+02</rscale>
<asrwt>0</asrwt>
<pdfrwt beam="2">  1        2 0.95633584E-01 0.91566196E+02</pdfrwt>
<pdfrwt beam="1">  1       -2 0.51876803E-03 0.91566196E+02</pdfrwt>
<totfact> 0.22752928E+05</totfact>
</mgrwt>
</event>
<event>
 7    1  0.3480999E-009  0.9205779E+02  0.7818608E-02  0.1297944E+00
          2   -1    0    0  501    0  0.00000000000E+00  0.00000000000E+00  0.78380419608E+02  0.78380419650E+02  0.25500000000E-02 0. -1.
         -2   -1    0    0    0  501 -0.00000000000E+00 -0.00000000000E+00 -0.27030465030E+02  0.27030465151E+02  0.25500000000E-02 0.  1.
         23    2    1    2    0    0  0.35527136788E-14  0.00000000000E+00  0.51349954578E+02  0.10541088480E+03  0.92057790541E+02 0.  0.
    9000005    2    3    3    0    0 -0.17240501744E+02  0.15548755334E+02 -0.19725262946E+02  0.30639999833E+02  0.32748891057E+01 0.  0.
         22    1    3    3    0    0  0.17240501744E+02 -0.15548755334E+02  0.71075217524E+02  0.74770884968E+02  0.00000000000E+00 0. -1.
         22    1    4    4    0    0 -0.15935833371E+02  0.12976953268E+02 -0.17601786672E+02  0.27058732332E+02  0.00000000000E+00 0.  1.
         22    1    4    4    0    0 -0.13046683730E+01  0.25718020658E+01 -0.21234762738E+01  0.35812675011E+01  0.00000000000E+00 0.  1.
<mgrwt>
<rscale>  0 0.92057791E+02</rscale>
<asrwt>0</asrwt>
<pdfrwt beam="1">  1        2 0.12058526E-01 0.92057791E+02</pdfrwt>
<pdfrwt beam="2">  1       -2 0.41585331E-02 0.92057791E+02</pdfrwt>
<totfact> 0.11116842E+05</totfact>
</mgrwt>
</event>
<event>
 7    1  0.3480999E-009  0.1015912E+03  0.7818608E-02  0.1276985E+00
         -2   -1    0    0    0  501 -0.00000000000E+00  0.00000000000E+00  0.10271059827E+03  0.10271059830E+03  0.25500000000E-02 0.  1.
          2   -1    0    0  501    0  0.00000000000E+00 -0.00000000000E+00 -0.25120998010E+02  0.25120998140E+02  0.25500000000E-02 0. -1.
         23    2    1    2    0    0  0.00000000000E+00 -0.88817841970E-15  0.77589600255E+02  0.12783159644E+03  0.10159119539E+03 0.  0.
    9000005    2    3    3    0    0 -0.43161563234E+02 -0.76491757055E+01  0.70619893794E+02  0.83446832859E+02  0.74009516251E+01 0.  0.
         22    1    3    3    0    0  0.43161563234E+02  0.76491757055E+01  0.69697064611E+01  0.44384763578E+02  0.00000000000E+00 0. -1.
         22    1    4    4    0    0 -0.69329800736E+01  0.35390725401E+00  0.74193216131E+01  0.10160600191E+02  0.00000000000E+00 0. -1.
         22    1    4    4    0    0 -0.36228583160E+02 -0.80030829595E+01  0.63200572181E+02  0.73286232668E+02  0.00000000000E+00 0. -1.
<mgrwt>
<rscale>  0 0.10159120E+03</rscale>
<asrwt>0</asrwt>
<pdfrwt beam="2">  1        2 0.38647689E-02 0.10159120E+03</pdfrwt>
<pdfrwt beam="1">  1       -2 0.15801631E-01 0.10159120E+03</pdfrwt>
<totfact> 0.60479446E+04</totfact>
</mgrwt>
</event>
<event>
 7    1  0.3480999E-009  0.1009504E+03  0.7818608E-02  0.1278310E+00
          2   -1    0    0  501    0  0.00000000000E+00  0.00000000000E+00  0.37266808901E+02  0.37266808989E+02  0.25500000000E-02 0. -1.
         -2   -1    0    0    0  501 -0.00000000000E+00 -0.00000000000E+00 -0.68364972496E+02  0.68364972544E+02  0.25500000000E-02 0.  1.
         23    2    1    2    0    0  0.00000000000E+00  0.00000000000E+00 -0.31098163595E+02  0.10563178153E+03  0.10095037142E+03 0.  0.
    9000005    2    3    3    0    0 -0.29363558022E+02 -0.40222927081E+02 -0.10815479690E+02  0.51859207956E+02  0.96073121215E+01 0.  0.
         22    1    3    3    0    0  0.29363558022E+02  0.40222927081E+02 -0.20282683905E+02  0.53772573577E+02  0.00000000000E+00 0.  1.
         22    1    4    4    0    0 -0.23365822532E+02 -0.35373521983E+02 -0.61306329402E+01  0.42834943449E+02  0.00000000000E+00 0. -1.
         22    1    4    4    0    0 -0.59977354900E+01 -0.48494050985E+01 -0.46848467497E+01  0.90242645066E+01  0.00000000000E+00 0. -1.
<mgrwt>
<rscale>  0 0.10095037E+03</rscale>
<asrwt>0</asrwt>
<pdfrwt beam="1">  1        2 0.57333553E-02 0.10095037E+03</pdfrwt>
<pdfrwt beam="2">  1       -2 0.10517688E-01 0.10095037E+03</pdfrwt>
<totfact> 0.69356046E+04</totfact>
</mgrwt>
</event>
<event>
 7    1  0.3480999E-009  0.9541210E+02  0.7818608E-02  0.1290251E+00
         -2   -1    0    0    0  501 -0.00000000000E+00  0.00000000000E+00  0.93694401089E+01  0.93694404559E+01  0.25500000000E-02 0.  1.
          2   -1    0    0  501    0  0.00000000000E+00 -0.00000000000E+00 -0.24290319813E+03  0.24290319814E+03  0.25500000000E-02 0. -1.
         23    2    1    2    0    0  0.00000000000E+00  0.17763568394E-14 -0.23353375802E+03  0.25227263860E+03  0.95412095933E+02 0.  0.
    9000005    2    3    3    0    0  0.37348001726E+01 -0.10413623590E+02 -0.23934999239E+03  0.23977380382E+03  0.89814169058E+01 0.  0.
         22    1    3    3    0    0 -0.37348001726E+01  0.10413623590E+02  0.58162343733E+01  0.12498834781E+02  0.00000000000E+00 0.  1.
         22    1    4    4    0    0  0.44683146706E+01 -0.23072180034E+01 -0.50824450452E+02  0.51072633128E+02  0.00000000000E+00 0. -1.
         22    1    4    4    0    0 -0.73351449801E+00 -0.81064055866E+01 -0.18852554194E+03  0.18870117069E+03  0.00000000000E+00 0. -1.
<mgrwt>
<rscale>  0 0.95412096E+02</rscale>
<asrwt>0</asrwt>
<pdfrwt beam="2">  1        2 0.37369718E-01 0.95412096E+02</pdfrwt>
<pdfrwt beam="1">  1       -2 0.14414525E-02 0.95412096E+02</pdfrwt>
<totfact> 0.14699693E+05</totfact>
</mgrwt>
</event>
<event>
 7    1  0.3480999E-009  0.8971363E+02  0.7818608E-02  0.1303547E+00
          2   -1    0    0  501    0  0.00000000000E+00  0.00000000000E+00  0.64198425416E+02  0.64198425466E+02  0.25500000000E-02 0. -1.
         -2   -1    0    0    0  501 -0.00000000000E+00 -0.00000000000E+00 -0.31342415910E+02  0.31342416013E+02  0.25500000000E-02 0.  1.
         23    2    1    2    0    0  0.35527136788E-14  0.00000000000E+00  0.32856009506E+02  0.95540841480E+02  0.89713627894E+02 0.  0.
    9000005    2    3    3    0    0 -0.30900811134E+02 -0.29217778493E+02  0.31561257170E+02  0.52994218907E+02  0.19327634735E+01 0.  0.
         22    1    3    3    0    0  0.30900811134E+02  0.29217778493E+02  0.12947523365E+01  0.42546622573E+02  0.00000000000E+00 0.  1.
         22    1    4    4    0    0 -0.10029670138E+02 -0.85680417285E+01  0.10533098182E+02  0.16880514786E+02  0.00000000000E+00 0. -1.
         22    1    4    4    0    0 -0.20871140996E+02 -0.20649736764E+02  0.21028158987E+02  0.36113704120E+02  0.00000000000E+00 0. -1.
<mgrwt>
<rscale>  0 0.89713628E+02</rscale>
<asrwt>0</asrwt>
<pdfrwt beam="1">  1        2 0.98766807E-02 0.89713628E+02</pdfrwt>
<pdfrwt beam="2">  1       -2 0.48219102E-02 0.89713628E+02</pdfrwt>
<totfact> 0.11303782E+05</totfact>
</mgrwt>
</event>
<event>
 7    1  0.3480999E-009  0.8850481E+02  0.7818608E-02  0.1306513E+00
         -2   -1    0    0    0  501 -0.00000000000E+00  0.00000000000E+00  0.18911414904E+02  0.18911415076E+02  0.25500000000E-02 0. -1.
          2   -1    0    0  501    0  0.00000000000E+00 -0.00000000000E+00 -0.10354990663E+03  0.10354990666E+03  0.25500000000E-02 0.  1.
         23    2    1    2    0    0  0.22204460493E-15 -0.35527136788E-14 -0.84638491722E+02  0.12246132173E+03  0.88504808004E+02 0.  0.
    9000005    2    3    3    0    0  0.95551888673E+00  0.24041993318E+02  0.65788065335E+01  0.28124022854E+02  0.12990362082E+02 0.  0.
         22    1    3    3    0    0 -0.95551888673E+00 -0.24041993318E+02 -0.91217298256E+02  0.94337298881E+02  0.00000000000E+00 0.  1.
         22    1    4    4    0    0 -0.27289223944E+01  0.16986253396E+01 -0.21365343477E+01  0.38596793258E+01  0.00000000000E+00 0.  1.
         22    1    4    4    0    0  0.36844412811E+01  0.22343367978E+02  0.87153408812E+01  0.24264343528E+02  0.00000000000E+00 0.  1.
<mgrwt>
<rscale>  0 0.88504808E+02</rscale>
<asrwt>0</asrwt>
<pdfrwt beam="2">  1        2 0.15930755E-01 0.88504808E+02</pdfrwt>
<pdfrwt beam="1">  1       -2 0.29094485E-02 0.88504808E+02</pdfrwt>
<totfact> 0.13452571E+05</totfact>
</mgrwt>
</event>
<event>
 7    1  0.3480999E-009  0.9149302E+02  0.7818608E-02  0.1299276E+00
         -2   -1    0    0    0  501 -0.00000000000E+00  0.00000000000E+00  0.41846218608E+01  0.41846226378E+01  0.25500000000E-02 0.  1.
          2   -1    0    0  501    0  0.00000000000E+00 -0.00000000000E+00 -0.50010323937E+03  0.50010323937E+03  0.25500000000E-02 0. -1.
         23    2    1    2    0    0  0.00000000000E+00  0.00000000000E+00 -0.49591861751E+03  0.50428786201E+03  0.91493019311E+02 0.  0.
    9000005    2    3    3    0    0 -0.49652318558E+01 -0.21581619344E+02 -0.46767021893E+03  0.46839368640E+03  0.13667185602E+02 0.  0.
         22    1    3    3    0    0  0.49652318558E+01  0.21581619344E+02 -0.28248398578E+02  0.35894175615E+02  0.00000000000E+00 0.  1.
         22    1    4    4    0    0 -0.49919935069E+01 -0.14281818449E+01 -0.14634220347E+03  0.14643428635E+03  0.00000000000E+00 0. -1.
         22    1    4    4    0    0  0.26761651099E-01 -0.20153437499E+02 -0.32132801546E+03  0.32195940005E+03  0.00000000000E+00 0. -1.
<mgrwt>
<rscale>  0 0.91493019E+02</rscale>
<asrwt>0</asrwt>
<pdfrwt beam="2">  1        2 0.76938913E-01 0.91493019E+02</pdfrwt>
<pdfrwt beam="1">  1       -2 0.64378843E-03 0.91493019E+02</pdfrwt>
<totfact> 0.21354461E+05</totfact>
</mgrwt>
</event>
<event>
 7    1  0.3480999E-009  0.9372891E+02  0.7818608E-02  0.1294065E+00
          2   -1    0    0  501    0  0.00000000000E+00  0.00000000000E+00  0.81310665032E+02  0.81310665072E+02  0.25500000000E-02 0.  1.
         -2   -1    0    0    0  501 -0.00000000000E+00 -0.00000000000E+00 -0.27010936169E+02  0.27010936290E+02  0.25500000000E-02 0. -1.
         23    2    1    2    0    0  0.00000000000E+00 -0.88817841970E-15  0.54299728863E+02  0.10832160136E+03  0.93728911052E+02 0.  0.
    9000005    2    3    3    0    0  0.45826769600E+02  0.44985581698E+01  0.19473313992E+02  0.50587651121E+02  0.77182025464E+01 0.  0.
         22    1    3    3    0    0 -0.45826769600E+02 -0.44985581698E+01  0.34826414871E+02  0.57733950240E+02  0.00000000000E+00 0. -1.
         22    1    4    4    0    0  0.15073230268E+02  0.43218808245E+01  0.41129236639E+01  0.16211016798E+02  0.00000000000E+00 0. -1.
         22    1    4    4    0    0  0.30753539332E+02  0.17667734528E+00  0.15360390328E+02  0.34376634323E+02  0.00000000000E+00 0. -1.
<mgrwt>
<rscale>  0 0.93728911E+02</rscale>
<asrwt>0</asrwt>
<pdfrwt beam="1">  1        2 0.12509333E-01 0.93728911E+02</pdfrwt>
<pdfrwt beam="2">  1       -2 0.41555287E-02 0.93728911E+02</pdfrwt>
<totfact> 0.10685058E+05</totfact>
</mgrwt>
</event>
<event>
 7    1  0.3480999E-009  0.9175143E+02  0.7818608E-02  0.1298665E+00
         -2   -1    0    0    0  501 -0.00000000000E+00  0.00000000000E+00  0.27861393385E+01  0.27861405054E+01  0.25500000000E-02 0.  1.
          2   -1    0    0  501    0  0.00000000000E+00 -0.00000000000E+00 -0.75537534810E+03  0.75537534811E+03  0.25500000000E-02 0. -1.
         23    2    1    2    0    0  0.35527136788E-14 -0.17763568394E-14 -0.75258920877E+03  0.75816148861E+03  0.91751434139E+02 0.  0.
    9000005    2    3    3    0    0  0.25129802175E+02 -0.13928736859E+02 -0.66951615823E+03  0.67026013258E+03  0.13085966640E+02 0.  0.
         22    1    3    3    0    0 -0.25129802175E+02  0.13928736859E+02 -0.83073050537E+02  0.87901356038E+02  0.00000000000E+00 0.  1.
         22    1    4    4    0    0 -0.94194707414E+00 -0.84051909133E+00 -0.91127982008E+02  0.91136726085E+02  0.00000000000E+00 0.  1.
         22    1    4    4    0    0  0.26071749249E+02 -0.13088217768E+02 -0.57838817622E+03  0.57912340649E+03  0.00000000000E+00 0.  1.
<mgrwt>
<rscale>  0 0.91751434E+02</rscale>
<asrwt>0</asrwt>
<pdfrwt beam="2">  1        2 0.11621143E+00 0.91751434E+02</pdfrwt>
<pdfrwt beam="1">  1       -2 0.42863751E-03 0.91751434E+02</pdfrwt>
<totfact> 0.23714668E+05</totfact>
</mgrwt>
</event>
<event>
 7    1  0.3480999E-009  0.9130850E+02  0.7818608E-02  0.1299714E+00
         -2   -1    0    0    0  501 -0.00000000000E+00  0.00000000000E+00  0.16320150819E+02  0.16320151018E+02  0.25500000000E-02 0.  1.
          2   -1    0    0  501    0  0.00000000000E+00 -0.00000000000E+00 -0.12771391412E+03  0.12771391415E+03  0.25500000000E-02 0. -1.
         23    2    1    2    0    0  0.00000000000E+00  0.00000000000E+00 -0.11139376330E+03  0.14403406517E+03  0.91308495909E+02 0.  0.
    9000005    2    3    3    0    0 -0.48038054790E+01 -0.37831376420E+02 -0.94108617430E+02  0.10216443588E+03  0.11262792486E+02 0.  0.
         22    1    3    3    0    0  0.48038054790E+01  0.37831376420E+02 -0.17285145875E+02  0.41869629290E+02  0.00000000000E+00 0. -1.
         22    1    4    4    0    0  0.41445969149E+00 -0.23086206070E+02 -0.66999248810E+02  0.70866381512E+02  0.00000000000E+00 0.  1.
         22    1    4    4    0    0 -0.52182651705E+01 -0.14745170350E+02 -0.27109368620E+02  0.31298054364E+02  0.00000000000E+00 0.  1.
<mgrwt>
<rscale>  0 0.91308496E+02</rscale>
<asrwt>0</asrwt>
<pdfrwt beam="2">  1        2 0.19648294E-01 0.91308496E+02</pdfrwt>
<pdfrwt beam="1">  1       -2 0.25107925E-02 0.91308496E+02</pdfrwt>
<totfact> 0.13198773E+05</totfact>
</mgrwt>
</event>
<event>
 7    1  0.3480999E-009  0.8768617E+02  0.7818608E-02  0.1308554E+00
          2   -1    0    0  501    0  0.00000000000E+00  0.00000000000E+00  0.32933239271E+03  0.32933239272E+03  0.25500000000E-02 0.  1.
         -2   -1    0    0    0  501 -0.00000000000E+00 -0.00000000000E+00 -0.58367043028E+01  0.58367048598E+01  0.25500000000E-02 0. -1.
         23    2    1    2    0    0  0.00000000000E+00  0.00000000000E+00  0.32349568841E+03  0.33516909758E+03  0.87686165126E+02 0.  0.
    9000005    2    3    3    0    0  0.17594284792E+02 -0.38345487879E+02  0.20319159028E+03  0.20768179890E+03  0.80605171489E+01 0.  0.
         22    1    3    3    0    0 -0.17594284792E+02  0.38345487879E+02  0.12030409813E+03  0.12748729868E+03  0.00000000000E+00 0. -1.
         22    1    4    4    0    0  0.39162184477E+01 -0.66342760934E+01  0.53899205241E+02  0.54446989924E+02  0.00000000000E+00 0. -1.
         22    1    4    4    0    0  0.13678066344E+02 -0.31711211785E+02  0.14929238504E+03  0.15323480898E+03  0.00000000000E+00 0. -1.
<mgrwt>
<rscale>  0 0.87686165E+02</rscale>
<asrwt>0</asrwt>
<pdfrwt beam="1">  1        2 0.50666544E-01 0.87686165E+02</pdfrwt>
<pdfrwt beam="2">  1       -2 0.89795417E-03 0.87686165E+02</pdfrwt>
<totfact> 0.20630913E+05</totfact>
</mgrwt>
</event>
<event>
 7    1  0.3480999E-009  0.9295703E+02  0.7818608E-02  0.1295845E+00
          2   -1    0    0  501    0  0.00000000000E+00  0.00000000000E+00  0.18306429231E+03  0.18306429233E+03  0.25500000000E-02 0. -1.
         -2   -1    0    0    0  501 -0.00000000000E+00 -0.00000000000E+00 -0.11800512511E+02  0.11800512786E+02  0.25500000000E-02 0.  1.
         23    2    1    2    0    0  0.35527136788E-14 -0.35527136788E-14  0.17126377980E+03  0.19486480512E+03  0.92957033092E+02 0.  0.
    9000005    2    3    3    0    0 -0.29597362308E+02  0.25033778129E+02  0.13925435402E+03  0.14459257380E+03  0.35416635653E+01 0.  0.
         22    1    3    3    0    0  0.29597362308E+02 -0.25033778129E+02  0.32009425782E+02  0.50272231320E+02  0.00000000000E+00 0.  1.
         22    1    4    4    0    0 -0.17618012699E+02  0.14984611354E+02  0.76522860317E+02  0.79941735658E+02  0.00000000000E+00 0. -1.
         22    1    4    4    0    0 -0.11979349609E+02  0.10049166774E+02  0.62731493705E+02  0.64650838141E+02  0.00000000000E+00 0. -1.
<mgrwt>
<rscale>  0 0.92957033E+02</rscale>
<asrwt>0</asrwt>
<pdfrwt beam="1">  1        2 0.28163734E-01 0.92957033E+02</pdfrwt>
<pdfrwt beam="2">  1       -2 0.18154637E-02 0.92957033E+02</pdfrwt>
<totfact> 0.14221061E+05</totfact>
</mgrwt>
</event>
<event>
 7    1  0.3480999E-009  0.9215744E+02  0.7818608E-02  0.1297710E+00
          2   -1    0    0  501    0  0.00000000000E+00  0.00000000000E+00  0.29446840181E+02  0.29446840291E+02  0.25500000000E-02 0.  1.
         -2   -1    0    0    0  501 -0.00000000000E+00 -0.00000000000E+00 -0.72104459167E+02  0.72104459212E+02  0.25500000000E-02 0. -1.
         23    2    1    2    0    0  0.00000000000E+00  0.00000000000E+00 -0.42657618987E+02  0.10155129950E+03  0.92157441226E+02 0.  0.
    9000005    2    3    3    0    0  0.35633293358E+02  0.17178062866E+02 -0.46466310191E+02  0.61810595332E+02  0.98292559800E+01 0.  0.
         22    1    3    3    0    0 -0.35633293358E+02 -0.17178062866E+02  0.38086912043E+01  0.39740704172E+02  0.00000000000E+00 0.  1.
         22    1    4    4    0    0  0.14180296867E+02  0.10394906919E+02 -0.14901954221E+02  0.23047844773E+02  0.00000000000E+00 0.  1.
         22    1    4    4    0    0  0.21452996491E+02  0.67831559469E+01 -0.31564355970E+02  0.38762750559E+02  0.00000000000E+00 0.  1.
<mgrwt>
<rscale>  0 0.92157441E+02</rscale>
<asrwt>0</asrwt>
<pdfrwt beam="1">  1        2 0.45302831E-02 0.92157441E+02</pdfrwt>
<pdfrwt beam="2">  1       -2 0.11092994E-01 0.92157441E+02</pdfrwt>
<totfact> 0.85265174E+04</totfact>
</mgrwt>
</event>
<event>
 7    1  0.3480999E-009  0.9410657E+02  0.7818608E-02  0.1293201E+00
          2   -1    0    0  501    0  0.00000000000E+00  0.00000000000E+00  0.28349089683E+02  0.28349089797E+02  0.25500000000E-02 0. -1.
         -2   -1    0    0    0  501 -0.00000000000E+00 -0.00000000000E+00 -0.78098154098E+02  0.78098154140E+02  0.25500000000E-02 0.  1.
         23    2    1    2    0    0  0.44408920985E-15  0.00000000000E+00 -0.49749064415E+02  0.10644724394E+03  0.94106569014E+02 0.  0.
    9000005    2    3    3    0    0  0.26986402276E+01  0.23131469765E+02  0.18901486294E+02  0.33954170714E+02  0.15914520796E+02 0.  0.
         22    1    3    3    0    0 -0.26986402276E+01 -0.23131469765E+02 -0.68650550710E+02  0.72493073223E+02  0.00000000000E+00 0.  1.
         22    1    4    4    0    0  0.23173413188E+01  0.97294327532E+00 -0.22096753746E+01  0.33465436895E+01  0.00000000000E+00 0.  1.
         22    1    4    4    0    0  0.38129890880E+00  0.22158526489E+02  0.21111161669E+02  0.30607627024E+02  0.00000000000E+00 0.  1.
<mgrwt>
<rscale>  0 0.94106569E+02</rscale>
<asrwt>0</asrwt>
<pdfrwt beam="1">  1        2 0.43613985E-02 0.94106569E+02</pdfrwt>
<pdfrwt beam="2">  1       -2 0.12015101E-01 0.94106569E+02</pdfrwt>
<totfact> 0.79248871E+04</totfact>
</mgrwt>
</event>
<event>
 7    1  0.3480999E-009  0.8721817E+02  0.7818608E-02  0.1309732E+00
         -2   -1    0    0    0  501 -0.00000000000E+00  0.00000000000E+00  0.23124143235E+02  0.23124143375E+02  0.25500000000E-02 0.  1.
          2   -1    0    0  501    0  0.00000000000E+00 -0.00000000000E+00 -0.82240991943E+02  0.82240991982E+02  0.25500000000E-02 0. -1.
         23    2    1    2    0    0  0.00000000000E+00  0.71054273576E-14 -0.59116848708E+02  0.10536513536E+03  0.87218174412E+02 0.  0.
    9000005    2    3    3    0    0 -0.21616068911E+02  0.36664696132E+02 -0.29060812955E+02  0.53260244389E+02  0.13437574378E+02 0.  0.
         22    1    3    3    0    0  0.21616068911E+02 -0.36664696132E+02 -0.30056035753E+02  0.52104890968E+02  0.00000000000E+00 0. -1.
         22    1    4    4    0    0 -0.21312807814E+02  0.24601270792E+02 -0.20549772770E+02  0.38493524941E+02  0.00000000000E+00 0.  1.
         22    1    4    4    0    0 -0.30326109722E+00  0.12063425340E+02 -0.85110401854E+01  0.14766719449E+02  0.00000000000E+00 0.  1.
<mgrwt>
<rscale>  0 0.87218174E+02</rscale>
<asrwt>0</asrwt>
<pdfrwt beam="2">  1        2 0.12652460E-01 0.87218174E+02</pdfrwt>
<pdfrwt beam="1">  1       -2 0.35575605E-02 0.87218174E+02</pdfrwt>
<totfact> 0.13088150E+05</totfact>
</mgrwt>
</event>
<event>
 7    1  0.3480999E-009  0.9102927E+02  0.7818608E-02  0.1300378E+00
          2   -1    0    0  501    0  0.00000000000E+00  0.00000000000E+00  0.82674267139E+02  0.82674267178E+02  0.25500000000E-02 0. -1.
         -2   -1    0    0    0  501 -0.00000000000E+00 -0.00000000000E+00 -0.25057157070E+02  0.25057157200E+02  0.25500000000E-02 0.  1.
         23    2    1    2    0    0  0.00000000000E+00  0.22204460493E-15  0.57617110069E+02  0.10773142438E+03  0.91029272357E+02 0.  0.
    9000005    2    3    3    0    0  0.23886323665E+02  0.81260839895E+00 -0.15608675350E+02  0.30703945899E+02  0.11308614280E+02 0.  0.
         22    1    3    3    0    0 -0.23886323665E+02 -0.81260839895E+00  0.73225785419E+02  0.77027478479E+02  0.00000000000E+00 0. -1.
         22    1    4    4    0    0  0.71843185708E+01 -0.24092547799E+01  0.59224604677E-01  0.75777601885E+01  0.00000000000E+00 0. -1.
         22    1    4    4    0    0  0.16702005094E+02  0.32218631789E+01 -0.15667899955E+02  0.23126185710E+02  0.00000000000E+00 0. -1.
<mgrwt>
<rscale>  0 0.91029272E+02</rscale>
<asrwt>0</asrwt>
<pdfrwt beam="1">  1        2 0.12719118E-01 0.91029272E+02</pdfrwt>
<pdfrwt beam="2">  1       -2 0.38549473E-02 0.91029272E+02</pdfrwt>
<totfact> 0.11646860E+05</totfact>
</mgrwt>
</event>
<event>
 7    1  0.3480999E-009  0.8431320E+02  0.7818608E-02  0.1317238E+00
          2   -1    0    0  501    0  0.00000000000E+00  0.00000000000E+00  0.99886660622E+02  0.99886660655E+02  0.25500000000E-02 0. -1.
         -2   -1    0    0    0  501 -0.00000000000E+00 -0.00000000000E+00 -0.17791956293E+02  0.17791956476E+02  0.25500000000E-02 0.  1.
         23    2    1    2    0    0  0.00000000000E+00  0.71054273576E-14  0.82094704329E+02  0.11767861713E+03  0.84313204487E+02 0.  0.
    9000005    2    3    3    0    0 -0.13687701750E+02  0.36930116868E+02  0.60850613219E+02  0.72929336487E+02  0.80438970808E+01 0.  0.
         22    1    3    3    0    0  0.13687701750E+02 -0.36930116868E+02  0.21244091110E+02  0.44749280644E+02  0.00000000000E+00 0. -1.
         22    1    4    4    0    0 -0.11796449142E+02  0.28721549863E+02  0.41544051021E+02  0.51865131004E+02  0.00000000000E+00 0. -1.
         22    1    4    4    0    0 -0.18912526078E+01  0.82085670049E+01  0.19306562198E+02  0.21064205483E+02  0.00000000000E+00 0. -1.
<mgrwt>
<rscale>  0 0.84313204E+02</rscale>
<asrwt>0</asrwt>
<pdfrwt beam="1">  1        2 0.15367178E-01 0.84313204E+02</pdfrwt>
<pdfrwt beam="2">  1       -2 0.27372241E-02 0.84313204E+02</pdfrwt>
<totfact> 0.15190905E+05</totfact>
</mgrwt>
</event>
<event>
 7    1  0.3480999E-009  0.9532125E+02  0.7818608E-02  0.1290454E+00
          2   -1    0    0  501    0  0.00000000000E+00  0.00000000000E+00  0.11317974159E+03  0.11317974162E+03  0.25500000000E-02 0. -1.
         -2   -1    0    0    0  501 -0.00000000000E+00 -0.00000000000E+00 -0.20070158592E+02  0.20070158754E+02  0.25500000000E-02 0.  1.
         23    2    1    2    0    0  0.00000000000E+00  0.00000000000E+00  0.93109582999E+02  0.13324990037E+03  0.95321254205E+02 0.  0.
    9000005    2    3    3    0    0  0.13189629303E+02  0.43406674858E+02  0.61085275276E+02  0.77719169886E+02  0.15835175050E+02 0.  0.
         22    1    3    3    0    0 -0.13189629303E+02 -0.43406674858E+02  0.32024307723E+02  0.55530730487E+02  0.00000000000E+00 0.  1.
         22    1    4    4    0    0  0.14834315781E+02  0.21873951295E+02  0.34872824625E+02  0.43756605984E+02  0.00000000000E+00 0.  1.
         22    1    4    4    0    0 -0.16446864780E+01  0.21532723563E+02  0.26212450651E+02  0.33962563902E+02  0.00000000000E+00 0.  1.
<mgrwt>
<rscale>  0 0.95321254E+02</rscale>
<asrwt>0</asrwt>
<pdfrwt beam="1">  1        2 0.17412268E-01 0.95321254E+02</pdfrwt>
<pdfrwt beam="2">  1       -2 0.30877167E-02 0.95321254E+02</pdfrwt>
<totfact> 0.11280105E+05</totfact>
</mgrwt>
</event>
<event>
 7    1  0.3480999E-009  0.1051694E+03  0.7818608E-02  0.1269786E+00
         -2   -1    0    0    0  501 -0.00000000000E+00  0.00000000000E+00  0.12921101165E+03  0.12921101168E+03  0.25500000000E-02 0.  1.
          2   -1    0    0  501    0  0.00000000000E+00 -0.00000000000E+00 -0.21400275205E+02  0.21400275357E+02  0.25500000000E-02 0. -1.
         23    2    1    2    0    0  0.00000000000E+00  0.44408920985E-15  0.10781073645E+03  0.15061128703E+03  0.10516941042E+03 0.  0.
    9000005    2    3    3    0    0  0.39996778862E+02  0.33241928858E+01  0.69237404638E+01  0.42034224372E+02  0.10399291268E+02 0.  0.
         22    1    3    3    0    0 -0.39996778862E+02 -0.33241928858E+01  0.10088699598E+03  0.10857706266E+03  0.00000000000E+00 0.  1.
         22    1    4    4    0    0  0.81403553059E+00 -0.17625753259E+01  0.16143912823E+00  0.19481756124E+01  0.00000000000E+00 0.  1.
         22    1    4    4    0    0  0.39182743332E+02  0.50867682117E+01  0.67623013356E+01  0.40086048760E+02  0.00000000000E+00 0.  1.
<mgrwt>
<rscale>  0 0.10516941E+03</rscale>
<asrwt>0</asrwt>
<pdfrwt beam="2">  1        2 0.32923501E-02 0.10516941E+03</pdfrwt>
<pdfrwt beam="1">  1       -2 0.19878617E-01 0.10516941E+03</pdfrwt>
<totfact> 0.51380370E+04</totfact>
</mgrwt>
</event>
<event>
 7    1  0.3480999E-009  0.9416719E+02  0.7818608E-02  0.1293063E+00
          2   -1    0    0  501    0  0.00000000000E+00  0.00000000000E+00  0.13597735099E+03  0.13597735101E+03  0.25500000000E-02 0. -1.
         -2   -1    0    0    0  501 -0.00000000000E+00 -0.00000000000E+00 -0.16303193877E+02  0.16303194076E+02  0.25500000000E-02 0.  1.
         23    2    1    2    0    0  0.00000000000E+00  0.71054273576E-14  0.11967415711E+03  0.15228054509E+03  0.94167194564E+02 0.  0.
    9000005    2    3    3    0    0  0.22202983000E+02  0.40051731797E+02  0.47935953032E+02  0.67171887488E+02  0.10820961213E+02 0.  0.
         22    1    3    3    0    0 -0.22202983000E+02 -0.40051731797E+02  0.71738204078E+02  0.85108657599E+02  0.00000000000E+00 0. -1.
         22    1    4    4    0    0  0.89916051598E+01  0.69305767920E+01  0.12841310563E+02  0.17140044195E+02  0.00000000000E+00 0.  1.
         22    1    4    4    0    0  0.13211377840E+02  0.33121155005E+02  0.35094642469E+02  0.50031843293E+02  0.00000000000E+00 0.  1.
<mgrwt>
<rscale>  0 0.94167195E+02</rscale>
<asrwt>0</asrwt>
<pdfrwt beam="1">  1        2 0.20919592E-01 0.94167195E+02</pdfrwt>
<pdfrwt beam="2">  1       -2 0.25081837E-02 0.94167195E+02</pdfrwt>
<totfact> 0.12386294E+05</totfact>
</mgrwt>
</event>
<event>
 7    1  0.3480999E-009  0.8988207E+02  0.7818608E-02  0.1303138E+00
          2   -1    0    0  501    0  0.00000000000E+00  0.00000000000E+00  0.21203519618E+03  0.21203519619E+03  0.25500000000E-02 0. -1.
         -2   -1    0    0    0  501 -0.00000000000E+00 -0.00000000000E+00 -0.95252887897E+01  0.95252891310E+01  0.25500000000E-02 0.  1.
         23    2    1    2    0    0  0.00000000000E+00  0.35527136788E-14  0.20250990739E+03  0.22156048533E+03  0.89882067548E+02 0.  0.
    9000005    2    3    3    0    0  0.29329333286E+02  0.28330745469E+02  0.55162783639E+02  0.68674855499E+02  0.32345245677E+01 0.  0.
         22    1    3    3    0    0 -0.29329333286E+02 -0.28330745469E+02  0.14734712375E+03  0.15288562983E+03  0.00000000000E+00 0. -1.
         22    1    4    4    0    0  0.64683961806E+01  0.79943843240E+01  0.14941306475E+02  0.18138163332E+02  0.00000000000E+00 0. -1.
         22    1    4    4    0    0  0.22860937105E+02  0.20336361145E+02  0.40221477164E+02  0.50536692167E+02  0.00000000000E+00 0. -1.
<mgrwt>
<rscale>  0 0.89882068E+02</rscale>
<asrwt>0</asrwt>
<pdfrwt beam="1">  1        2 0.32620798E-01 0.89882068E+02</pdfrwt>
<pdfrwt beam="2">  1       -2 0.14654291E-02 0.89882068E+02</pdfrwt>
<totfact> 0.16418146E+05</totfact>
</mgrwt>
</event>
<event>
 7    1  0.3480999E-009  0.9123924E+02  0.7818608E-02  0.1299878E+00
         -2   -1    0    0    0  501 -0.00000000000E+00  0.00000000000E+00  0.55575635563E+01  0.55575641413E+01  0.25500000000E-02 0.  1.
          2   -1    0    0  501    0  0.00000000000E+00 -0.00000000000E+00 -0.37447159189E+03  0.37447159190E+03  0.25500000000E-02 0. -1.
         23    2    1    2    0    0  0.00000000000E+00 -0.88817841970E-15 -0.36891402833E+03  0.38002915604E+03  0.91239241223E+02 0.  0.
    9000005    2    3    3    0    0 -0.31537529980E+02  0.46965747999E+01 -0.31917132479E+03  0.32094438501E+03  0.10876124648E+02 0.  0.
         22    1    3    3    0    0  0.31537529980E+02 -0.46965747999E+01 -0.49742703540E+02  0.59084771029E+02  0.00000000000E+00 0.  1.
         22    1    4    4    0    0 -0.21399208740E+02  0.30579051532E+01 -0.25922290762E+03  0.26012264944E+03  0.00000000000E+00 0. -1.
         22    1    4    4    0    0 -0.10138321240E+02  0.16386696468E+01 -0.59948417169E+02  0.60821735563E+02  0.00000000000E+00 0. -1.
<mgrwt>
<rscale>  0 0.91239241E+02</rscale>
<asrwt>0</asrwt>
<pdfrwt beam="2">  1        2 0.57610994E-01 0.91239241E+02</pdfrwt>
<pdfrwt beam="1">  1       -2 0.85501012E-03 0.91239241E+02</pdfrwt>
<totfact> 0.19457893E+05</totfact>
</mgrwt>
</event>
<event>
 7    1  0.3480999E-009  0.9119066E+02  0.7818608E-02  0.1299994E+00
         -2   -1    0    0    0  501 -0.00000000000E+00  0.00000000000E+00  0.17362222041E+02  0.17362222228E+02  0.25500000000E-02 0.  1.
          2   -1    0    0  501    0  0.00000000000E+00 -0.00000000000E+00 -0.11973895141E+03  0.11973895144E+03  0.25500000000E-02 0. -1.
         23    2    1    2    0    0  0.00000000000E+00  0.00000000000E+00 -0.10237672937E+03  0.13710117366E+03  0.91190663469E+02 0.  0.
    9000005    2    3    3    0    0  0.33783730186E+02 -0.19201247109E+02 -0.86759856326E+02  0.95221404808E+02  0.54603065924E+01 0.  0.
         22    1    3    3    0    0 -0.33783730186E+02  0.19201247109E+02 -0.15616873043E+02  0.41879768857E+02  0.00000000000E+00 0.  1.
         22    1    4    4    0    0  0.10643117004E+02 -0.86602097318E+01 -0.33563433958E+02  0.36259885151E+02  0.00000000000E+00 0.  1.
         22    1    4    4    0    0  0.23140613183E+02 -0.10541037377E+02 -0.53196422368E+02  0.58961519656E+02  0.00000000000E+00 0.  1.
<mgrwt>
<rscale>  0 0.91190663E+02</rscale>
<asrwt>0</asrwt>
<pdfrwt beam="2">  1        2 0.18421377E-01 0.91190663E+02</pdfrwt>
<pdfrwt beam="1">  1       -2 0.26711112E-02 0.91190663E+02</pdfrwt>
<totfact> 0.12971979E+05</totfact>
</mgrwt>
</event>
<event>
 7    1  0.3480999E-009  0.9619952E+02  0.7818608E-02  0.1288497E+00
          2   -1    0    0  501    0  0.00000000000E+00  0.00000000000E+00  0.23385735715E+02  0.23385735854E+02  0.25500000000E-02 0. -1.
         -2   -1    0    0    0  501 -0.00000000000E+00 -0.00000000000E+00 -0.98931549251E+02  0.98931549284E+02  0.25500000000E-02 0.  1.
         23    2    1    2    0    0  0.00000000000E+00 -0.17763568394E-14 -0.75545813536E+02  0.12231728514E+03  0.96199523391E+02 0.  0.
    9000005    2    3    3    0    0 -0.33029834532E+02 -0.14120702771E+02 -0.77734029330E+02  0.86329057836E+02  0.10943614350E+02 0.  0.
         22    1    3    3    0    0  0.33029834532E+02  0.14120702771E+02  0.21882157941E+01  0.35988227301E+02  0.00000000000E+00 0. -1.
         22    1    4    4    0    0 -0.61078345664E+01 -0.75872975386E+01 -0.23200536957E+02  0.25162226493E+02  0.00000000000E+00 0. -1.
         22    1    4    4    0    0 -0.26921999965E+02 -0.65334052329E+01 -0.54533492374E+02  0.61166831343E+02  0.00000000000E+00 0. -1.
<mgrwt>
<rscale>  0 0.96199523E+02</rscale>
<asrwt>0</asrwt>
<pdfrwt beam="1">  1        2 0.35978056E-02 0.96199523E+02</pdfrwt>
<pdfrwt beam="2">  1       -2 0.15220238E-01 0.96199523E+02</pdfrwt>
<totfact> 0.70064784E+04</totfact>
</mgrwt>
</event>
<event>
 7    1  0.3480999E-009  0.9134010E+02  0.7818608E-02  0.1299639E+00
         -2   -1    0    0    0  501 -0.00000000000E+00  0.00000000000E+00  0.45373784329E+03  0.45373784330E+03  0.25500000000E-02 0. -1.
          2   -1    0    0  501    0  0.00000000000E+00 -0.00000000000E+00 -0.45968250813E+01  0.45968257885E+01  0.25500000000E-02 0.  1.
         23    2    1    2    0    0  0.00000000000E+00  0.00000000000E+00  0.44914101821E+03  0.45833466908E+03  0.91340104271E+02 0.  0.
    9000005    2    3    3    0    0  0.19954371096E+02  0.40513420260E+02  0.24285581042E+03  0.24716388252E+03  0.84573057100E+01 0.  0.
         22    1    3    3    0    0 -0.19954371096E+02 -0.40513420260E+02  0.20628520778E+03  0.21117078656E+03  0.00000000000E+00 0.  1.
         22    1    4    4    0    0  0.82509249966E+01  0.23824228717E+02  0.11895791840E+03  0.12160040290E+03  0.00000000000E+00 0. -1.
         22    1    4    4    0    0  0.11703446099E+02  0.16689191543E+02  0.12389789203E+03  0.12556347962E+03  0.00000000000E+00 0. -1.
<mgrwt>
<rscale>  0 0.91340104E+02</rscale>
<asrwt>0</asrwt>
<pdfrwt beam="2">  1        2 0.70720377E-03 0.91340104E+02</pdfrwt>
<pdfrwt beam="1">  1       -2 0.69805836E-01 0.91340104E+02</pdfrwt>
<totfact> 0.38885401E+04</totfact>
</mgrwt>
</event>
<event>
 7    1  0.3480999E-009  0.9494702E+02  0.7818608E-02  0.1291295E+00
          2   -1    0    0  501    0  0.00000000000E+00  0.00000000000E+00  0.18878862159E+03  0.18878862161E+03  0.25500000000E-02 0. -1.
         -2   -1    0    0    0  501 -0.00000000000E+00 -0.00000000000E+00 -0.11937870271E+02  0.11937870544E+02  0.25500000000E-02 0.  1.
         23    2    1    2    0    0  0.00000000000E+00  0.00000000000E+00  0.17685075132E+03  0.20072649215E+03  0.94947018959E+02 0.  0.
    9000005    2    3    3    0    0  0.39280685874E+02  0.95888458190E+01  0.37374635102E+02  0.55507673668E+02  0.70228370435E+01 0.  0.
         22    1    3    3    0    0 -0.39280685874E+02 -0.95888458190E+01  0.13947611621E+03  0.14521881848E+03  0.00000000000E+00 0. -1.
         22    1    4    4    0    0  0.21555922659E+02  0.63747916347E+01  0.25182307551E+02  0.33755657062E+02  0.00000000000E+00 0.  1.
         22    1    4    4    0    0  0.17724763215E+02  0.32140541843E+01  0.12192327551E+02  0.21752016606E+02  0.00000000000E+00 0.  1.
<mgrwt>
<rscale>  0 0.94947019E+02</rscale>
<asrwt>0</asrwt>
<pdfrwt beam="1">  1        2 0.29044401E-01 0.94947019E+02</pdfrwt>
<pdfrwt beam="2">  1       -2 0.18365956E-02 0.94947019E+02</pdfrwt>
<totfact> 0.13577413E+05</totfact>
</mgrwt>
</event>
<event>
 7    1  0.3480999E-009  0.9020493E+02  0.7818608E-02  0.1302356E+00
          2   -1    0    0  501    0  0.00000000000E+00  0.00000000000E+00  0.16138436652E+03  0.16138436654E+03  0.25500000000E-02 0. -1.
         -2   -1    0    0    0  501 -0.00000000000E+00 -0.00000000000E+00 -0.12604891626E+02  0.12604891884E+02  0.25500000000E-02 0.  1.
         23    2    1    2    0    0  0.00000000000E+00  0.00000000000E+00  0.14877947489E+03  0.17398925842E+03  0.90204932776E+02 0.  0.
    9000005    2    3    3    0    0 -0.33734719755E+02  0.87046040475E+01  0.21620503315E+02  0.42143873591E+02  0.97395312580E+01 0.  0.
         22    1    3    3    0    0  0.33734719755E+02 -0.87046040475E+01  0.12715897158E+03  0.13184538483E+03  0.00000000000E+00 0. -1.
         22    1    4    4    0    0 -0.20398055093E+02  0.45825152497E+01  0.72969068870E+01  0.22143282225E+02  0.00000000000E+00 0. -1.
         22    1    4    4    0    0 -0.13336664662E+02  0.41220887978E+01  0.14323596428E+02  0.20000591366E+02  0.00000000000E+00 0. -1.
<mgrwt>
<rscale>  0 0.90204933E+02</rscale>
<asrwt>0</asrwt>
<pdfrwt beam="1">  1        2 0.24828362E-01 0.90204933E+02</pdfrwt>
<pdfrwt beam="2">  1       -2 0.19392142E-02 0.90204933E+02</pdfrwt>
<totfact> 0.14757828E+05</totfact>
</mgrwt>
</event>
<event>
 7    1  0.3480999E-009  0.9431691E+02  0.7818608E-02  0.1292722E+00
         -2   -1    0    0    0  501 -0.00000000000E+00  0.00000000000E+00  0.15896550726E+02  0.15896550930E+02  0.25500000000E-02 0.  1.
          2   -1    0    0  501    0  0.00000000000E+00 -0.00000000000E+00 -0.13989951048E+03  0.13989951050E+03  0.25500000000E-02 0. -1.
         23    2    1    2    0    0  0.00000000000E+00  0.00000000000E+00 -0.12400295975E+03  0.15579606143E+03  0.94316905857E+02 0.  0.
    9000005    2    3    3    0    0  0.16833933514E+02 -0.36979761895E+02 -0.99765968544E+02  0.10848521859E+03  0.12841731440E+02 0.  0.
         22    1    3    3    0    0 -0.16833933514E+02  0.36979761895E+02 -0.24236991210E+02  0.47310842840E+02  0.00000000000E+00 0.  1.
         22    1    4    4    0    0  0.12943960287E+02 -0.15709313894E+02 -0.39103701201E+02  0.44084329399E+02  0.00000000000E+00 0.  1.
         22    1    4    4    0    0  0.38899732270E+01 -0.21270448001E+02 -0.60662267342E+02  0.64400889194E+02  0.00000000000E+00 0.  1.
<mgrwt>
<rscale>  0 0.94316906E+02</rscale>
<asrwt>0</asrwt>
<pdfrwt beam="2">  1        2 0.21523001E-01 0.94316906E+02</pdfrwt>
<pdfrwt beam="1">  1       -2 0.24456233E-02 0.94316906E+02</pdfrwt>
<totfact> 0.12451041E+05</totfact>
</mgrwt>
</event>
<event>
 7    1  0.5310972E-009  0.9699850E+02  0.7818608E-02  0.1286737E+00
          2   -1    0    0  501    0  0.00000000000E+00  0.00000000000E+00  0.77510209109E+03  0.77510209109E+03  0.25500000000E-02 0.  1.
         -2   -1    0    0    0  501 -0.00000000000E+00 -0.00000000000E+00 -0.30346672123E+01  0.30346682837E+01  0.25500000000E-02 0. -1.
         23    2    1    2    0    0  0.00000000000E+00 -0.35527136788E-14  0.77206742387E+03  0.77813675937E+03  0.96998501442E+02 0.  0.
    9000005    2    3    3    0    0 -0.58174265268E+01 -0.27391672467E+02  0.70136706847E+03  0.70209278245E+03  0.15308960275E+02 0.  0.
         22    1    3    3    0    0  0.58174265268E+01  0.27391672467E+02  0.70700355407E+02  0.76043976925E+02  0.00000000000E+00 0. -1.
         22    1    4    4    0    0 -0.21030516122E+01 -0.28060948801E+02  0.61747774784E+03  0.61811860412E+03  0.00000000000E+00 0. -1.
         22    1    4    4    0    0 -0.37143749146E+01  0.66927633390E+00  0.83889320624E+02  0.83974178332E+02  0.00000000000E+00 0. -1.
<mgrwt>
<rscale>  0 0.96998501E+02</rscale>
<asrwt>0</asrwt>
<pdfrwt beam="1">  1        2 0.11924624E+00 0.96998501E+02</pdfrwt>
<pdfrwt beam="2">  1       -2 0.46687287E-03 0.96998501E+02</pdfrwt>
<totfact> 0.20574478E+05</totfact>
</mgrwt>
</event>
<event>
 7    1  0.3480999E-009  0.9153375E+02  0.7818608E-02  0.1299179E+00
          2   -1    0    0  501    0  0.00000000000E+00  0.00000000000E+00  0.59945023192E+02  0.59945023247E+02  0.25500000000E-02 0. -1.
         -2   -1    0    0    0  501 -0.00000000000E+00 -0.00000000000E+00 -0.34942132877E+02  0.34942132970E+02  0.25500000000E-02 0.  1.
         23    2    1    2    0    0  0.17763568394E-14  0.00000000000E+00  0.25002890315E+02  0.94887156217E+02  0.91533752741E+02 0.  0.
    9000005    2    3    3    0    0 -0.89864495372E+01  0.21324060296E+02 -0.27128966138E+02  0.37850306023E+02  0.12696182084E+02 0.  0.
         22    1    3    3    0    0  0.89864495372E+01 -0.21324060296E+02  0.52131856453E+02  0.57036850194E+02  0.00000000000E+00 0. -1.
         22    1    4    4    0    0  0.13968068987E+01 -0.10047576664E+01 -0.23871501651E+01  0.29426337508E+01  0.00000000000E+00 0.  1.
         22    1    4    4    0    0 -0.10383256436E+02  0.22328817963E+02 -0.24741815973E+02  0.34907672272E+02  0.00000000000E+00 0.  1.
<mgrwt>
<rscale>  0 0.91533753E+02</rscale>
<asrwt>0</asrwt>
<pdfrwt beam="1">  1        2 0.92223111E-02 0.91533753E+02</pdfrwt>
<pdfrwt beam="2">  1       -2 0.53757129E-02 0.91533753E+02</pdfrwt>
<totfact> 0.10487946E+05</totfact>
</mgrwt>
</event>
<event>
 7    1  0.3480999E-009  0.1208544E+03  0.7818608E-02  0.1241694E+00
         -2   -1    0    0    0  501 -0.00000000000E+00  0.00000000000E+00  0.10569564013E+02  0.10569564320E+02  0.25500000000E-02 0.  1.
          2   -1    0    0  501    0  0.00000000000E+00 -0.00000000000E+00 -0.34546784504E+03  0.34546784505E+03  0.25500000000E-02 0. -1.
         23    2    1    2    0    0  0.00000000000E+00 -0.71054273576E-14 -0.33489828103E+03  0.35603740937E+03  0.12085436788E+03 0.  0.
    9000005    2    3    3    0    0 -0.60990228315E+01 -0.58984971216E+02 -0.19120910662E+03  0.20059287344E+03  0.12655177247E+02 0.  0.
         22    1    3    3    0    0  0.60990228315E+01  0.58984971216E+02 -0.14368917441E+03  0.15544453593E+03  0.00000000000E+00 0. -1.
         22    1    4    4    0    0 -0.15185129633E+01 -0.52735797008E+02 -0.16203940074E+03  0.17041167084E+03  0.00000000000E+00 0. -1.
         22    1    4    4    0    0 -0.45805098681E+01 -0.62491742085E+01 -0.29169705884E+02  0.30181202599E+02  0.00000000000E+00 0. -1.
<mgrwt>
<rscale>  0 0.12085437E+03</rscale>
<asrwt>0</asrwt>
<pdfrwt beam="2">  1        2 0.53148891E-01 0.12085437E+03</pdfrwt>
<pdfrwt beam="1">  1       -2 0.16260871E-02 0.12085437E+03</pdfrwt>
<totfact> 0.88355699E+04</totfact>
</mgrwt>
</event>
<event>
 7    1  0.3480999E-009  0.6693648E+02  0.7818608E-02  0.1370832E+00
          2   -1    0    0  501    0  0.00000000000E+00  0.00000000000E+00  0.54440475434E+03  0.54440475435E+03  0.25500000000E-02 0. -1.
         -2   -1    0    0    0  501 -0.00000000000E+00 -0.00000000000E+00 -0.20575182122E+01  0.20575197924E+01  0.25500000000E-02 0.  1.
         23    2    1    2    0    0 -0.88817841970E-15  0.00000000000E+00  0.54234723613E+03  0.54646227414E+03  0.66936481241E+02 0.  0.
    9000005    2    3    3    0    0 -0.45851183234E+01  0.15341167019E+02  0.50963019506E+03  0.51003728969E+03  0.12598668430E+02 0.  0.
         22    1    3    3    0    0  0.45851183234E+01 -0.15341167019E+02  0.32717041071E+02  0.36424984447E+02  0.00000000000E+00 0.  1.
         22    1    4    4    0    0 -0.76676718188E+01  0.15486244933E+02  0.42730615201E+03  0.42765542732E+03  0.00000000000E+00 0. -1.
         22    1    4    4    0    0  0.30825534953E+01 -0.14507791395E+00  0.82324043051E+02  0.82381862372E+02  0.00000000000E+00 0. -1.
<mgrwt>
<rscale>  0 0.66936481E+02</rscale>
<asrwt>0</asrwt>
<pdfrwt beam="1">  1        2 0.83754676E-01 0.66936481E+02</pdfrwt>
<pdfrwt beam="2">  1       -2 0.31654101E-03 0.66936481E+02</pdfrwt>
<totfact> 0.49462226E+05</totfact>
</mgrwt>
</event>
<event>
 7    1  0.3480999E-009  0.9394469E+02  0.7818608E-02  0.1293571E+00
         -2   -1    0    0    0  501 -0.00000000000E+00  0.00000000000E+00  0.44507300426E+01  0.44507307731E+01  0.25500000000E-02 0.  1.
          2   -1    0    0  501    0  0.00000000000E+00 -0.00000000000E+00 -0.49573907158E+03  0.49573907159E+03  0.25500000000E-02 0. -1.
         23    2    1    2    0    0  0.00000000000E+00  0.00000000000E+00 -0.49128834154E+03  0.50018980236E+03  0.93944685076E+02 0.  0.
    9000005    2    3    3    0    0 -0.18417264495E+02 -0.59781370658E+01 -0.47292356670E+03  0.47350275102E+03  0.13161365131E+02 0.  0.
         22    1    3    3    0    0  0.18417264495E+02  0.59781370658E+01 -0.18364774841E+02  0.26687051340E+02  0.00000000000E+00 0.  1.
         22    1    4    4    0    0 -0.53742855548E+01  0.36350248340E+01 -0.19444191540E+03  0.19455013445E+03  0.00000000000E+00 0. -1.
         22    1    4    4    0    0 -0.13042978940E+02 -0.96131618998E+01 -0.27848165130E+03  0.27895261657E+03  0.00000000000E+00 0. -1.
<mgrwt>
<rscale>  0 0.93944685E+02</rscale>
<asrwt>0</asrwt>
<pdfrwt beam="2">  1        2 0.76267506E-01 0.93944685E+02</pdfrwt>
<pdfrwt beam="1">  1       -2 0.68472815E-03 0.93944685E+02</pdfrwt>
<totfact> 0.19851114E+05</totfact>
</mgrwt>
</event>
<event>
 7    1  0.3480999E-009  0.7337537E+02  0.7818608E-02  0.1348977E+00
         -2   -1    0    0    0  501 -0.00000000000E+00  0.00000000000E+00  0.64531385674E+01  0.64531390712E+01  0.25500000000E-02 0.  1.
          2   -1    0    0  501    0  0.00000000000E+00 -0.00000000000E+00 -0.20857852514E+03  0.20857852516E+03  0.25500000000E-02 0. -1.
         23    2    1    2    0    0  0.15330618719E-15  0.00000000000E+00 -0.20212538658E+03  0.21503166423E+03  0.73375368641E+02 0.  0.
    9000005    2    3    3    0    0  0.16557783316E-02 -0.34759380477E+02 -0.13111992400E+03  0.13597478440E+03  0.94070711286E+01 0.  0.
         22    1    3    3    0    0 -0.16557783316E-02  0.34759380477E+02 -0.71005462574E+02  0.79056879835E+02  0.00000000000E+00 0.  1.
         22    1    4    4    0    0 -0.22913908475E+01 -0.33067801406E+02 -0.12169680636E+03  0.12613026061E+03  0.00000000000E+00 0. -1.
         22    1    4    4    0    0  0.22930466259E+01 -0.16915790705E+01 -0.94231176384E+01  0.98445237877E+01  0.00000000000E+00 0. -1.
<mgrwt>
<rscale>  0 0.73375369E+02</rscale>
<asrwt>0</asrwt>
<pdfrwt beam="2">  1        2 0.32088999E-01 0.73375369E+02</pdfrwt>
<pdfrwt beam="1">  1       -2 0.99279075E-03 0.73375369E+02</pdfrwt>
<totfact> 0.27953743E+05</totfact>
</mgrwt>
</event>
<event>
 7    1  0.3480999E-009  0.8791296E+02  0.7818608E-02  0.1307986E+00
         -2   -1    0    0    0  501 -0.00000000000E+00  0.00000000000E+00  0.25692106588E+01  0.25692119243E+01  0.25500000000E-02 0.  1.
          2   -1    0    0  501    0  0.00000000000E+00 -0.00000000000E+00 -0.75204875348E+03  0.75204875349E+03  0.25500000000E-02 0. -1.
         23    2    1    2    0    0  0.00000000000E+00  0.00000000000E+00 -0.74947954282E+03  0.75461796541E+03  0.87912960422E+02 0.  0.
    9000005    2    3    3    0    0 -0.20511591223E+02 -0.16518627752E+02 -0.67351182745E+03  0.67421470543E+03  0.15927864217E+02 0.  0.
         22    1    3    3    0    0  0.20511591223E+02  0.16518627752E+02 -0.75967715371E+02  0.80403259983E+02  0.00000000000E+00 0.  1.
         22    1    4    4    0    0 -0.16096139111E+02 -0.12949037301E+02 -0.32461102530E+03  0.32526770668E+03  0.00000000000E+00 0.  1.
         22    1    4    4    0    0 -0.44154521122E+01 -0.35695904519E+01 -0.34890080215E+03  0.34894699875E+03  0.00000000000E+00 0.  1.
<mgrwt>
<rscale>  0 0.87912960E+02</rscale>
<asrwt>0</asrwt>
<pdfrwt beam="2">  1        2 0.11569963E+00 0.87912960E+02</pdfrwt>
<pdfrwt beam="1">  1       -2 0.39526387E-03 0.87912960E+02</pdfrwt>
<totfact> 0.26514124E+05</totfact>
</mgrwt>
</event>
<event>
 7    1  0.3480999E-009  0.8948254E+02  0.7818608E-02  0.1304110E+00
         -2   -1    0    0    0  501 -0.00000000000E+00  0.00000000000E+00  0.29922814180E+01  0.29922825046E+01  0.25500000000E-02 0.  1.
          2   -1    0    0  501    0  0.00000000000E+00 -0.00000000000E+00 -0.66898143580E+03  0.66898143580E+03  0.25500000000E-02 0. -1.
         23    2    1    2    0    0  0.35527136788E-14  0.00000000000E+00 -0.66598915438E+03  0.67197371831E+03  0.89482536532E+02 0.  0.
    9000005    2    3    3    0    0 -0.27247290823E+02  0.19031748105E+02 -0.55355649588E+03  0.55473155443E+03  0.14059909558E+02 0.  0.
         22    1    3    3    0    0  0.27247290823E+02 -0.19031748105E+02 -0.11243265849E+03  0.11724216387E+03  0.00000000000E+00 0.  1.
         22    1    4    4    0    0 -0.46943578858E+01  0.13189936585E+01 -0.30302243488E+02  0.30692062502E+02  0.00000000000E+00 0. -1.
         22    1    4    4    0    0 -0.22552932937E+02  0.17712754447E+02 -0.52325425240E+03  0.52403949193E+03  0.00000000000E+00 0. -1.
<mgrwt>
<rscale>  0 0.89482537E+02</rscale>
<asrwt>0</asrwt>
<pdfrwt beam="2">  1        2 0.10292010E+00 0.89482537E+02</pdfrwt>
<pdfrwt beam="1">  1       -2 0.46035160E-03 0.89482537E+02</pdfrwt>
<totfact> 0.24645222E+05</totfact>
</mgrwt>
</event>
<event>
 7    1  0.3480999E-009  0.8964973E+02  0.7818608E-02  0.1303702E+00
          2   -1    0    0  501    0  0.00000000000E+00  0.00000000000E+00  0.81354758784E+02  0.81354758824E+02  0.25500000000E-02 0. -1.
         -2   -1    0    0    0  501 -0.00000000000E+00 -0.00000000000E+00 -0.24697613940E+02  0.24697614072E+02  0.25500000000E-02 0.  1.
         23    2    1    2    0    0  0.00000000000E+00  0.00000000000E+00  0.56657144844E+02  0.10605237290E+03  0.89649728025E+02 0.  0.
    9000005    2    3    3    0    0  0.41039183544E+01 -0.24963533797E+02  0.71335584391E+02  0.76803838693E+02  0.13040087118E+02 0.  0.
         22    1    3    3    0    0 -0.41039183544E+01  0.24963533797E+02 -0.14678439547E+02  0.29248534203E+02  0.00000000000E+00 0.  1.
         22    1    4    4    0    0 -0.23702887709E+01 -0.10460655269E+00  0.10543929126E+02  0.10807573863E+02  0.00000000000E+00 0. -1.
         22    1    4    4    0    0  0.64742071253E+01 -0.24858927244E+02  0.60791655265E+02  0.65996264830E+02  0.00000000000E+00 0. -1.
<mgrwt>
<rscale>  0 0.89649728E+02</rscale>
<asrwt>0</asrwt>
<pdfrwt beam="1">  1        2 0.12516117E-01 0.89649728E+02</pdfrwt>
<pdfrwt beam="2">  1       -2 0.37996330E-02 0.89649728E+02</pdfrwt>
<totfact> 0.12094057E+05</totfact>
</mgrwt>
</event>
<event>
 7    1  0.3480999E-009  0.9089991E+02  0.7818608E-02  0.1300687E+00
          2   -1    0    0  501    0  0.00000000000E+00  0.00000000000E+00  0.29059246719E+03  0.29059246721E+03  0.25500000000E-02 0.  1.
         -2   -1    0    0    0  501 -0.00000000000E+00 -0.00000000000E+00 -0.71085756115E+01  0.71085760688E+01  0.25500000000E-02 0. -1.
         23    2    1    2    0    0  0.00000000000E+00  0.00000000000E+00  0.28348389158E+03  0.29770104327E+03  0.90899914080E+02 0.  0.
    9000005    2    3    3    0    0 -0.14239162258E+02 -0.36117916035E+02  0.66495909432E+02  0.77267284520E+02  0.64241486166E+01 0.  0.
         22    1    3    3    0    0  0.14239162258E+02  0.36117916035E+02  0.21698798215E+03  0.22043375875E+03  0.00000000000E+00 0.  1.
         22    1    4    4    0    0 -0.12340493117E+02 -0.25187772654E+02  0.51086253627E+02  0.58279644570E+02  0.00000000000E+00 0. -1.
         22    1    4    4    0    0 -0.18986691409E+01 -0.10930143380E+02  0.15409655805E+02  0.18987639950E+02  0.00000000000E+00 0. -1.
<mgrwt>
<rscale>  0 0.90899914E+02</rscale>
<asrwt>0</asrwt>
<pdfrwt beam="1">  1        2 0.44706528E-01 0.90899914E+02</pdfrwt>
<pdfrwt beam="2">  1       -2 0.10936272E-02 0.90899914E+02</pdfrwt>
<totfact> 0.17898713E+05</totfact>
</mgrwt>
</event>
<event>
 7    1  0.3480999E-009  0.9224463E+02  0.7818608E-02  0.1297505E+00
         -2   -1    0    0    0  501 -0.00000000000E+00  0.00000000000E+00  0.26462656028E+01  0.26462668314E+01  0.25500000000E-02 0.  1.
          2   -1    0    0  501    0  0.00000000000E+00 -0.00000000000E+00 -0.80387517263E+03  0.80387517263E+03  0.25500000000E-02 0. -1.
         23    2    1    2    0    0  0.00000000000E+00  0.00000000000E+00 -0.80122890703E+03  0.80652143947E+03  0.92244625109E+02 0.  0.
    9000005    2    3    3    0    0  0.25459506482E+02  0.10243965073E+02 -0.72354205637E+03  0.72412986189E+03  0.98906142413E+01 0.  0.
         22    1    3    3    0    0 -0.25459506482E+02 -0.10243965073E+02 -0.77686850654E+02  0.82391577575E+02  0.00000000000E+00 0.  1.
         22    1    4    4    0    0  0.16372972435E+00  0.47470779208E+00 -0.15615984843E+01  0.16403489680E+01  0.00000000000E+00 0. -1.
         22    1    4    4    0    0  0.25295776758E+02  0.97692572812E+01 -0.72198045789E+03  0.72248951292E+03  0.00000000000E+00 0. -1.
<mgrwt>
<rscale>  0 0.92244625E+02</rscale>
<asrwt>0</asrwt>
<pdfrwt beam="2">  1        2 0.12367291E+00 0.92244625E+02</pdfrwt>
<pdfrwt beam="1">  1       -2 0.40711852E-03 0.92244625E+02</pdfrwt>
<totfact> 0.23656849E+05</totfact>
</mgrwt>
</event>
<event>
 7    1  0.3480999E-009  0.8877823E+02  0.7818608E-02  0.1305838E+00
          2   -1    0    0  501    0  0.00000000000E+00  0.00000000000E+00  0.92471934086E+02  0.92471934121E+02  0.25500000000E-02 0. -1.
         -2   -1    0    0    0  501 -0.00000000000E+00 -0.00000000000E+00 -0.21308015742E+02  0.21308015894E+02  0.25500000000E-02 0.  1.
         23    2    1    2    0    0 -0.35527136788E-14  0.00000000000E+00  0.71163918345E+02  0.11377995002E+03  0.88778227913E+02 0.  0.
    9000005    2    3    3    0    0 -0.28016339660E+02 -0.28293637525E+01  0.78688581271E+02  0.84633060999E+02  0.13339475422E+02 0.  0.
         22    1    3    3    0    0  0.28016339660E+02  0.28293637525E+01 -0.75246629260E+01  0.29146889016E+02  0.00000000000E+00 0.  1.
         22    1    4    4    0    0 -0.28008346107E+02  0.23991494974E+00  0.68938952502E+02  0.74411720736E+02  0.00000000000E+00 0. -1.
         22    1    4    4    0    0 -0.79935527680E-02 -0.30692787022E+01  0.97496287690E+01  0.10221340263E+02  0.00000000000E+00 0. -1.
<mgrwt>
<rscale>  0 0.88778228E+02</rscale>
<asrwt>0</asrwt>
<pdfrwt beam="1">  1        2 0.14226451E-01 0.88778228E+02</pdfrwt>
<pdfrwt beam="2">  1       -2 0.32781563E-02 0.88778228E+02</pdfrwt>
<totfact> 0.12894614E+05</totfact>
</mgrwt>
</event>
<event>
 7    1  0.4910412E-009  0.8537809E+02  0.7818608E-02  0.1314447E+00
         -2   -1    0    0    0  501 -0.00000000000E+00  0.00000000000E+00  0.14083522829E+02  0.14083523060E+02  0.25500000000E-02 0.  1.
          2   -1    0    0  501    0  0.00000000000E+00 -0.00000000000E+00 -0.12939620833E+03  0.12939620836E+03  0.25500000000E-02 0. -1.
         23    2    1    2    0    0  0.00000000000E+00  0.00000000000E+00 -0.11531268550E+03  0.14347973142E+03  0.85378087877E+02 0.  0.
    9000005    2    3    3    0    0 -0.13349352299E+02  0.24203152105E+02 -0.76432375375E+01  0.32319001824E+02  0.14903054056E+02 0.  0.
         22    1    3    3    0    0  0.13349352299E+02 -0.24203152105E+02 -0.10766944796E+03  0.11116072959E+03  0.00000000000E+00 0. -1.
         22    1    4    4    0    0 -0.46383650559E+01  0.55162005496E+01 -0.91487368129E+01  0.11646556751E+02  0.00000000000E+00 0. -1.
         22    1    4    4    0    0 -0.87109872428E+01  0.18686951556E+02  0.15054992754E+01  0.20672445072E+02  0.00000000000E+00 0. -1.
<mgrwt>
<rscale>  0 0.85378088E+02</rscale>
<asrwt>0</asrwt>
<pdfrwt beam="2">  1        2 0.19907108E-01 0.85378088E+02</pdfrwt>
<pdfrwt beam="1">  1       -2 0.21666959E-02 0.85378088E+02</pdfrwt>
<totfact> 0.15904888E+05</totfact>
</mgrwt>
</event>
<event>
 7    1  0.3480999E-009  0.9069930E+02  0.7818608E-02  0.1301167E+00
         -2   -1    0    0    0  501 -0.00000000000E+00  0.00000000000E+00  0.83173313954E+01  0.83173317863E+01  0.25500000000E-02 0.  1.
          2   -1    0    0  501    0  0.00000000000E+00 -0.00000000000E+00 -0.24726568982E+03  0.24726568983E+03  0.25500000000E-02 0. -1.
         23    2    1    2    0    0 -0.88817841970E-15 -0.71054273576E-14 -0.23894835843E+03  0.25558302162E+03  0.90699299591E+02 0.  0.
    9000005    2    3    3    0    0 -0.67185140943E+01 -0.42074265479E+02 -0.16100374270E+03  0.16675315407E+03  0.83082479499E+01 0.  0.
         22    1    3    3    0    0  0.67185140943E+01  0.42074265479E+02 -0.77944615729E+02  0.88829867547E+02  0.00000000000E+00 0.  1.
         22    1    4    4    0    0 -0.27471566212E+01 -0.99863051981E+01 -0.53463850154E+02  0.54457840889E+02  0.00000000000E+00 0. -1.
         22    1    4    4    0    0 -0.39713574731E+01 -0.32087960281E+02 -0.10753989254E+03  0.11229531318E+03  0.00000000000E+00 0. -1.
<mgrwt>
<rscale>  0 0.90699300E+02</rscale>
<asrwt>0</asrwt>
<pdfrwt beam="2">  1        2 0.38040870E-01 0.90699300E+02</pdfrwt>
<pdfrwt beam="1">  1       -2 0.12795897E-02 0.90699300E+02</pdfrwt>
<totfact> 0.16954568E+05</totfact>
</mgrwt>
</event>
<event>
 7    1  0.3480999E-009  0.9011432E+02  0.7818608E-02  0.1302575E+00
          2   -1    0    0  501    0  0.00000000000E+00  0.00000000000E+00  0.82196508026E+02  0.82196508065E+02  0.25500000000E-02 0. -1.
         -2   -1    0    0    0  501 -0.00000000000E+00 -0.00000000000E+00 -0.24698708495E+02  0.24698708627E+02  0.25500000000E-02 0.  1.
         23    2    1    2    0    0  0.00000000000E+00  0.00000000000E+00  0.57497799530E+02  0.10689521669E+03  0.90114318511E+02 0.  0.
    9000005    2    3    3    0    0 -0.20257675106E+02  0.38023024155E+02  0.40948008976E+02  0.60743084195E+02  0.12524339180E+02 0.  0.
         22    1    3    3    0    0  0.20257675106E+02 -0.38023024155E+02  0.16549790555E+02  0.46152132496E+02  0.00000000000E+00 0.  1.
         22    1    4    4    0    0 -0.12312657064E+02  0.12579203815E+02  0.21281914851E+02  0.27618070032E+02  0.00000000000E+00 0.  1.
         22    1    4    4    0    0 -0.79450180422E+01  0.25443820340E+02  0.19666094125E+02  0.33125014163E+02  0.00000000000E+00 0.  1.
<mgrwt>
<rscale>  0 0.90114319E+02</rscale>
<asrwt>0</asrwt>
<pdfrwt beam="1">  1        2 0.12645617E-01 0.90114319E+02</pdfrwt>
<pdfrwt beam="2">  1       -2 0.37998013E-02 0.90114319E+02</pdfrwt>
<totfact> 0.11957416E+05</totfact>
</mgrwt>
</event>
<event>
 7    1  0.3480999E-009  0.9162680E+02  0.7818608E-02  0.1298959E+00
          2   -1    0    0  501    0  0.00000000000E+00  0.00000000000E+00  0.34750236428E+03  0.34750236429E+03  0.25500000000E-02 0. -1.
         -2   -1    0    0    0  501 -0.00000000000E+00 -0.00000000000E+00 -0.60398656487E+01  0.60398661870E+01  0.25500000000E-02 0.  1.
         23    2    1    2    0    0  0.00000000000E+00 -0.71054273576E-14  0.34146249863E+03  0.35354223047E+03  0.91626801529E+02 0.  0.
    9000005    2    3    3    0    0 -0.21271128883E+02 -0.37669234081E+02  0.13197924805E+03  0.13963883079E+03  0.14458527945E+02 0.  0.
         22    1    3    3    0    0  0.21271128883E+02  0.37669234081E+02  0.20948325058E+03  0.21390339968E+03  0.00000000000E+00 0. -1.
         22    1    4    4    0    0  0.10303672762E+01 -0.98408099857E+01  0.25910092312E+02  0.27735105580E+02  0.00000000000E+00 0.  1.
         22    1    4    4    0    0 -0.22301496159E+02 -0.27828424095E+02  0.10606915573E+03  0.11190372521E+03  0.00000000000E+00 0.  1.
<mgrwt>
<rscale>  0 0.91626802E+02</rscale>
<asrwt>0</asrwt>
<pdfrwt beam="1">  1        2 0.53461890E-01 0.91626802E+02</pdfrwt>
<pdfrwt beam="2">  1       -2 0.92921035E-03 0.91626802E+02</pdfrwt>
<totfact> 0.18722785E+05</totfact>
</mgrwt>
</event>
<event>
 7    1  0.3480999E-009  0.9203057E+02  0.7818608E-02  0.1298008E+00
          2   -1    0    0  501    0  0.00000000000E+00  0.00000000000E+00  0.94696950107E+02  0.94696950142E+02  0.25500000000E-02 0.  1.
         -2   -1    0    0    0  501 -0.00000000000E+00 -0.00000000000E+00 -0.22359818141E+02  0.22359818286E+02  0.25500000000E-02 0. -1.
         23    2    1    2    0    0  0.00000000000E+00  0.00000000000E+00  0.72337131966E+02  0.11705676843E+03  0.92030573038E+02 0.  0.
    9000005    2    3    3    0    0 -0.32307169830E+02 -0.32108213539E+02  0.44048337887E+02  0.63438241131E+02  0.30763237964E+01 0.  0.
         22    1    3    3    0    0  0.32307169830E+02  0.32108213539E+02  0.28288794079E+02  0.53618527297E+02  0.00000000000E+00 0. -1.
         22    1    4    4    0    0 -0.23425265613E+02 -0.21821080756E+02  0.32226512352E+02  0.45425221329E+02  0.00000000000E+00 0. -1.
         22    1    4    4    0    0 -0.88819042173E+01 -0.10287132783E+02  0.11821825535E+02  0.18013019802E+02  0.00000000000E+00 0. -1.
<mgrwt>
<rscale>  0 0.92030573E+02</rscale>
<asrwt>0</asrwt>
<pdfrwt beam="1">  1        2 0.14568762E-01 0.92030573E+02</pdfrwt>
<pdfrwt beam="2">  1       -2 0.34399720E-02 0.92030573E+02</pdfrwt>
<totfact> 0.11760437E+05</totfact>
</mgrwt>
</event>
<event>
 7    1  0.3480999E-009  0.1072617E+03  0.7818608E-02  0.1265726E+00
          2   -1    0    0  501    0  0.00000000000E+00  0.00000000000E+00  0.29996173214E+02  0.29996173323E+02  0.25500000000E-02 0.  1.
         -2   -1    0    0    0  501 -0.00000000000E+00 -0.00000000000E+00 -0.95887829182E+02  0.95887829216E+02  0.25500000000E-02 0. -1.
         23    2    1    2    0    0 -0.71054273576E-14  0.00000000000E+00 -0.65891655968E+02  0.12588400254E+03  0.10726169759E+03 0.  0.
    9000005    2    3    3    0    0 -0.43346100149E+02  0.14715600396E+02 -0.64859022428E+02  0.80096453739E+02  0.10644990281E+02 0.  0.
         22    1    3    3    0    0  0.43346100149E+02 -0.14715600396E+02 -0.10326335404E+01  0.45787548800E+02  0.00000000000E+00 0.  1.
         22    1    4    4    0    0 -0.23717985304E+00  0.38297802651E+00 -0.46484391647E+01  0.46702155324E+01  0.00000000000E+00 0. -1.
         22    1    4    4    0    0 -0.43108920296E+02  0.14332622370E+02 -0.60210583263E+02  0.75426238206E+02  0.00000000000E+00 0. -1.
<mgrwt>
<rscale>  0 0.10726170E+03</rscale>
<asrwt>0</asrwt>
<pdfrwt beam="1">  1        2 0.46147959E-02 0.10726170E+03</pdfrwt>
<pdfrwt beam="2">  1       -2 0.14751974E-01 0.10726170E+03</pdfrwt>
<totfact> 0.54037803E+04</totfact>
</mgrwt>
</event>
<event>
 7    1  0.3480999E-009  0.9123329E+02  0.7818608E-02  0.1299892E+00
         -2   -1    0    0    0  501 -0.00000000000E+00  0.00000000000E+00  0.13220711258E+02  0.13220711504E+02  0.25500000000E-02 0.  1.
          2   -1    0    0  501    0  0.00000000000E+00 -0.00000000000E+00 -0.15739534685E+03  0.15739534687E+03  0.25500000000E-02 0. -1.
         23    2    1    2    0    0  0.00000000000E+00  0.00000000000E+00 -0.14417463559E+03  0.17061605838E+03  0.91233293416E+02 0.  0.
    9000005    2    3    3    0    0  0.23435422387E+02 -0.66151200012E+01 -0.14365855837E+03  0.14625943360E+03  0.12691008107E+02 0.  0.
         22    1    3    3    0    0 -0.23435422387E+02  0.66151200012E+01 -0.51607722167E+00  0.24356624782E+02  0.00000000000E+00 0.  1.
         22    1    4    4    0    0  0.16976301035E+02 -0.64759436148E+01 -0.12854710561E+03  0.12982484740E+03  0.00000000000E+00 0. -1.
         22    1    4    4    0    0  0.64591213519E+01 -0.13917638644E+00 -0.15111452763E+02  0.16434586192E+02  0.00000000000E+00 0. -1.
<mgrwt>
<rscale>  0 0.91233293E+02</rscale>
<asrwt>0</asrwt>
<pdfrwt beam="2">  1        2 0.24214667E-01 0.91233293E+02</pdfrwt>
<pdfrwt beam="1">  1       -2 0.20339557E-02 0.91233293E+02</pdfrwt>
<totfact> 0.14189187E+05</totfact>
</mgrwt>
</event>
<event>
 7    1  0.3480999E-009  0.9562640E+02  0.7818608E-02  0.1289771E+00
          2   -1    0    0  501    0  0.00000000000E+00  0.00000000000E+00  0.64493566990E+03  0.64493566991E+03  0.25500000000E-02 0. -1.
         -2   -1    0    0    0  501 -0.00000000000E+00 -0.00000000000E+00 -0.35446973607E+01  0.35446982780E+01  0.25500000000E-02 0.  1.
         23    2    1    2    0    0  0.35527136788E-14 -0.62450045135E-16  0.64139097254E+03  0.64848036819E+03  0.95626399409E+02 0.  0.
    9000005    2    3    3    0    0  0.21350618802E+02 -0.31942329910E-01  0.61068025769E+03  0.61107718717E+03  0.53945900539E+01 0.  0.
         22    1    3    3    0    0 -0.21350618802E+02  0.31942329910E-01  0.30710714854E+02  0.37403181020E+02  0.00000000000E+00 0.  1.
         22    1    4    4    0    0  0.16314334343E+02  0.96461613369E+00  0.51505212692E+03  0.51531134417E+03  0.00000000000E+00 0.  1.
         22    1    4    4    0    0  0.50362844587E+01 -0.99655846360E+00  0.95628130767E+02  0.95765842992E+02  0.00000000000E+00 0.  1.
<mgrwt>
<rscale>  0 0.95626399E+02</rscale>
<asrwt>0</asrwt>
<pdfrwt beam="1">  1        2 0.99220883E-01 0.95626399E+02</pdfrwt>
<pdfrwt beam="2">  1       -2 0.54533807E-03 0.95626399E+02</pdfrwt>
<totfact> 0.20484955E+05</totfact>
</mgrwt>
</event>
<event>
 7    1  0.3480999E-009  0.9010412E+02  0.7818608E-02  0.1302600E+00
          2   -1    0    0  501    0  0.00000000000E+00  0.00000000000E+00  0.80537624792E+02  0.80537624832E+02  0.25500000000E-02 0. -1.
         -2   -1    0    0    0  501 -0.00000000000E+00 -0.00000000000E+00 -0.25201737602E+02  0.25201737731E+02  0.25500000000E-02 0.  1.
         23    2    1    2    0    0  0.00000000000E+00  0.71054273576E-14  0.55335887189E+02  0.10573936256E+03  0.90104119686E+02 0.  0.
    9000005    2    3    3    0    0  0.71737027377E+01  0.37287065781E+02  0.54472936071E+02  0.67758683657E+02  0.13496338808E+02 0.  0.
         22    1    3    3    0    0 -0.71737027377E+01 -0.37287065781E+02  0.86295111831E+00  0.37980678906E+02  0.00000000000E+00 0.  1.
         22    1    4    4    0    0  0.44517590139E+01  0.32439842066E+02  0.36928653037E+02  0.49354705213E+02  0.00000000000E+00 0. -1.
         22    1    4    4    0    0  0.27219437237E+01  0.48472237154E+01  0.17544283034E+02  0.18403978444E+02  0.00000000000E+00 0. -1.
<mgrwt>
<rscale>  0 0.90104120E+02</rscale>
<asrwt>0</asrwt>
<pdfrwt beam="1">  1        2 0.12390404E-01 0.90104120E+02</pdfrwt>
<pdfrwt beam="2">  1       -2 0.38771905E-02 0.90104120E+02</pdfrwt>
<totfact> 0.11891658E+05</totfact>
</mgrwt>
</event>
<event>
 7    1  0.3480999E-009  0.8071553E+02  0.7818608E-02  0.1327033E+00
         -2   -1    0    0    0  501 -0.00000000000E+00  0.00000000000E+00  0.60320082888E+01  0.60320088278E+01  0.25500000000E-02 0. -1.
          2   -1    0    0  501    0  0.00000000000E+00 -0.00000000000E+00 -0.27001773094E+03  0.27001773095E+03  0.25500000000E-02 0.  1.
         23    2    1    2    0    0  0.00000000000E+00  0.00000000000E+00 -0.26398572265E+03  0.27604973978E+03  0.80715531769E+02 0.  0.
    9000005    2    3    3    0    0  0.28807699270E+02  0.25337430697E+02 -0.15742928830E+03  0.16279717851E+03  0.15718510933E+02 0.  0.
         22    1    3    3    0    0 -0.28807699270E+02 -0.25337430697E+02 -0.10655643435E+03  0.11325256126E+03  0.00000000000E+00 0.  1.
         22    1    4    4    0    0 -0.14231354387E+01  0.43656222898E+01 -0.20781561380E+02  0.21282792718E+02  0.00000000000E+00 0. -1.
         22    1    4    4    0    0  0.30230834709E+02  0.20971808407E+02 -0.13664772692E+03  0.14151438580E+03  0.00000000000E+00 0. -1.
<mgrwt>
<rscale>  0 0.80715532E+02</rscale>
<asrwt>0</asrwt>
<pdfrwt beam="2">  1        2 0.41541180E-01 0.80715532E+02</pdfrwt>
<pdfrwt beam="1">  1       -2 0.92800153E-03 0.80715532E+02</pdfrwt>
<totfact> 0.23871999E+05</totfact>
</mgrwt>
</event>
<event>
 7    1  0.3480999E-009  0.9104449E+02  0.7818608E-02  0.1300342E+00
          2   -1    0    0  501    0  0.00000000000E+00  0.00000000000E+00  0.28800293752E+02  0.28800293865E+02  0.25500000000E-02 0. -1.
         -2   -1    0    0    0  501 -0.00000000000E+00 -0.00000000000E+00 -0.71953243933E+02  0.71953243978E+02  0.25500000000E-02 0.  1.
         23    2    1    2    0    0  0.00000000000E+00  0.00000000000E+00 -0.43152950181E+02  0.10075353784E+03  0.91044485163E+02 0.  0.
    9000005    2    3    3    0    0 -0.37627215253E+02 -0.11834798798E+02  0.32472689891E+01  0.39853208375E+02  0.46758605162E+01 0.  0.
         22    1    3    3    0    0  0.37627215253E+02  0.11834798798E+02 -0.46400219170E+02  0.60900329468E+02  0.00000000000E+00 0.  1.
         22    1    4    4    0    0 -0.15510572874E+02 -0.42460279204E+01 -0.89771654817E+00  0.16106288182E+02  0.00000000000E+00 0. -1.
         22    1    4    4    0    0 -0.22116642379E+02 -0.75887708778E+01  0.41449855372E+01  0.23746920193E+02  0.00000000000E+00 0. -1.
<mgrwt>
<rscale>  0 0.91044485E+02</rscale>
<asrwt>0</asrwt>
<pdfrwt beam="1">  1        2 0.44308145E-02 0.91044485E+02</pdfrwt>
<pdfrwt beam="2">  1       -2 0.11069730E-01 0.91044485E+02</pdfrwt>
<totfact> 0.87883189E+04</totfact>
</mgrwt>
</event>
<event>
 7    1  0.3480999E-009  0.9026560E+02  0.7818608E-02  0.1302210E+00
          2   -1    0    0  501    0  0.00000000000E+00  0.00000000000E+00  0.39109798958E+03  0.39109798959E+03  0.25500000000E-02 0. -1.
         -2   -1    0    0    0  501 -0.00000000000E+00 -0.00000000000E+00 -0.52083351466E+01  0.52083357709E+01  0.25500000000E-02 0.  1.
         23    2    1    2    0    0 -0.71054273576E-14  0.00000000000E+00  0.38588965444E+03  0.39630632536E+03  0.90265597661E+02 0.  0.
    9000005    2    3    3    0    0  0.43057304049E+02 -0.74449969190E+01  0.18850008941E+03  0.19413807911E+03  0.15746448555E+02 0.  0.
         22    1    3    3    0    0 -0.43057304049E+02  0.74449969190E+01  0.19738956502E+03  0.20216824625E+03  0.00000000000E+00 0. -1.
         22    1    4    4    0    0  0.43702808845E+02 -0.51515967717E+01  0.18077367414E+03  0.18605266919E+03  0.00000000000E+00 0. -1.
         22    1    4    4    0    0 -0.64550479612E+00 -0.22934001473E+01  0.77264152736E+01  0.80854099251E+01  0.00000000000E+00 0. -1.
<mgrwt>
<rscale>  0 0.90265598E+02</rscale>
<asrwt>0</asrwt>
<pdfrwt beam="1">  1        2 0.60168948E-01 0.90265598E+02</pdfrwt>
<pdfrwt beam="2">  1       -2 0.80128203E-03 0.90265598E+02</pdfrwt>
<totfact> 0.20336865E+05</totfact>
</mgrwt>
</event>
<event>
 7    1  0.3480999E-009  0.9066453E+02  0.7818608E-02  0.1301250E+00
         -2   -1    0    0    0  501 -0.00000000000E+00  0.00000000000E+00  0.31203732648E+01  0.31203743067E+01  0.25500000000E-02 0. -1.
          2   -1    0    0  501    0  0.00000000000E+00 -0.00000000000E+00 -0.65857952889E+03  0.65857952889E+03  0.25500000000E-02 0.  1.
         23    2    1    2    0    0  0.17763568394E-14  0.00000000000E+00 -0.65545915562E+03  0.66169990320E+03  0.90664531125E+02 0.  0.
    9000005    2    3    3    0    0  0.13237104052E+02  0.39861599349E+02 -0.45154701216E+03  0.45350689112E+03  0.31029144307E+01 0.  0.
         22    1    3    3    0    0 -0.13237104052E+02 -0.39861599349E+02 -0.20391214347E+03  0.20819301208E+03  0.00000000000E+00 0. -1.
         22    1    4    4    0    0  0.63248993524E+01  0.23245654539E+02 -0.26679713597E+03  0.26788257982E+03  0.00000000000E+00 0.  1.
         22    1    4    4    0    0  0.69122046999E+01  0.16615944810E+02 -0.18474987619E+03  0.18562431130E+03  0.00000000000E+00 0.  1.
<mgrwt>
<rscale>  0 0.90664531E+02</rscale>
<asrwt>0</asrwt>
<pdfrwt beam="2">  1        2 0.10131982E+00 0.90664531E+02</pdfrwt>
<pdfrwt beam="1">  1       -2 0.48005803E-03 0.90664531E+02</pdfrwt>
<totfact> 0.23713910E+05</totfact>
</mgrwt>
</event>
<event>
 6    1  0.3480999E-009  0.3046822E+03  0.7818608E-02  0.1082923E+00
         -2   -1    0    0    0  501 -0.00000000000E+00  0.00000000000E+00  0.40430917064E+02  0.40430917144E+02  0.25500000000E-02 0.  1.
          2   -1    0    0  501    0  0.00000000000E+00 -0.00000000000E+00 -0.57401165388E+03  0.57401165389E+03  0.25500000000E-02 0. -1.
    9000005    2    1    2    0    0  0.14890651078E+03  0.28013509091E+02 -0.29833889510E+03  0.33462722167E+03  0.33727592994E+01 0.  0.
         22    1    1    2    0    0 -0.14890651078E+03 -0.28013509091E+02 -0.23524184172E+03  0.27981534937E+03  0.00000000000E+00 0. -1.
         22    1    3    3    0    0  0.13528279895E+02  0.35367613238E+01 -0.27429513943E+02  0.30788005338E+02  0.00000000000E+00 0.  1.
         22    1    3    3    0    0  0.13537823089E+03  0.24476747767E+02 -0.27090938116E+03  0.30383921633E+03  0.00000000000E+00 0.  1.
<mgrwt>
<rscale>  0 0.30468224E+03</rscale>
<asrwt>0</asrwt>
<pdfrwt beam="2">  1        2 0.88309479E-01 0.30468224E+03</pdfrwt>
<pdfrwt beam="1">  1       -2 0.62201415E-02 0.30468224E+03</pdfrwt>
<totfact> 0.74361667E+03</totfact>
</mgrwt>
</event>
<event>
 7    1  0.3480999E-009  0.9103781E+02  0.7818608E-02  0.1300358E+00
          2   -1    0    0  501    0  0.00000000000E+00  0.00000000000E+00  0.35962268814E+03  0.35962268815E+03  0.25500000000E-02 0. -1.
         -2   -1    0    0    0  501 -0.00000000000E+00 -0.00000000000E+00 -0.57615122628E+01  0.57615128271E+01  0.25500000000E-02 0.  1.
         23    2    1    2    0    0  0.00000000000E+00  0.00000000000E+00  0.35386117588E+03  0.36538420098E+03  0.91037808244E+02 0.  0.
    9000005    2    3    3    0    0  0.39819529335E+02  0.16003307705E+02  0.22598162292E+03  0.23049579955E+03  0.14795909580E+02 0.  0.
         22    1    3    3    0    0 -0.39819529335E+02 -0.16003307705E+02  0.12787955296E+03  0.13488840143E+03  0.00000000000E+00 0.  1.
         22    1    4    4    0    0  0.18503908731E+01  0.55720862689E+01  0.23615193789E+02  0.24334121506E+02  0.00000000000E+00 0. -1.
         22    1    4    4    0    0  0.37969138462E+02  0.10431221436E+02  0.20236642913E+03  0.20616167805E+03  0.00000000000E+00 0. -1.
<mgrwt>
<rscale>  0 0.91037808E+02</rscale>
<asrwt>0</asrwt>
<pdfrwt beam="1">  1        2 0.55326572E-01 0.91037808E+02</pdfrwt>
<pdfrwt beam="2">  1       -2 0.88638648E-03 0.91037808E+02</pdfrwt>
<totfact> 0.19287135E+05</totfact>
</mgrwt>
</event>
<event>
 7    1  0.3480999E-009  0.9103469E+02  0.7818608E-02  0.1300365E+00
         -2   -1    0    0    0  501 -0.00000000000E+00  0.00000000000E+00  0.11348450952E+02  0.11348451238E+02  0.25500000000E-02 0.  1.
          2   -1    0    0  501    0  0.00000000000E+00 -0.00000000000E+00 -0.18256489595E+03  0.18256489597E+03  0.25500000000E-02 0. -1.
         23    2    1    2    0    0  0.00000000000E+00  0.00000000000E+00 -0.17121644500E+03  0.19391334721E+03  0.91034692217E+02 0.  0.
    9000005    2    3    3    0    0  0.21514213436E+02  0.18766240598E+02 -0.11348185927E+02  0.31516015257E+02  0.70316945262E+01 0.  0.
         22    1    3    3    0    0 -0.21514213436E+02 -0.18766240598E+02 -0.15986825907E+03  0.16239733195E+03  0.00000000000E+00 0. -1.
         22    1    4    4    0    0  0.32726496289E+01  0.66733335568E+01 -0.39261783464E+01  0.84058606199E+01  0.00000000000E+00 0.  1.
         22    1    4    4    0    0  0.18241563807E+02  0.12092907041E+02 -0.74220075811E+01  0.23110154637E+02  0.00000000000E+00 0.  1.
<mgrwt>
<rscale>  0 0.91034692E+02</rscale>
<asrwt>0</asrwt>
<pdfrwt beam="2">  1        2 0.28086905E-01 0.91034692E+02</pdfrwt>
<pdfrwt beam="1">  1       -2 0.17459157E-02 0.91034692E+02</pdfrwt>
<totfact> 0.15032985E+05</totfact>
</mgrwt>
</event>
<event>
 7    1  0.3480999E-009  0.9517137E+02  0.7818608E-02  0.1290791E+00
          2   -1    0    0  501    0  0.00000000000E+00  0.00000000000E+00  0.42702629900E+02  0.42702629976E+02  0.25500000000E-02 0.  1.
         -2   -1    0    0    0  501 -0.00000000000E+00 -0.00000000000E+00 -0.53027123591E+02  0.53027123653E+02  0.25500000000E-02 0. -1.
         23    2    1    2    0    0  0.00000000000E+00  0.00000000000E+00 -0.10324493692E+02  0.95729753628E+02  0.95171374687E+02 0.  0.
    9000005    2    3    3    0    0 -0.14844646767E+02  0.38222077559E+02  0.18916789517E+02  0.45367631014E+02  0.43687833117E+01 0.  0.
         22    1    3    3    0    0  0.14844646767E+02 -0.38222077559E+02 -0.29241283208E+02  0.50362122615E+02  0.00000000000E+00 0.  1.
         22    1    4    4    0    0 -0.59453442384E+01  0.15321491172E+02  0.52470261007E+01  0.17251854762E+02  0.00000000000E+00 0. -1.
         22    1    4    4    0    0 -0.88993025285E+01  0.22900586387E+02  0.13669763416E+02  0.28115776252E+02  0.00000000000E+00 0. -1.
<mgrwt>
<rscale>  0 0.95171375E+02</rscale>
<asrwt>0</asrwt>
<pdfrwt beam="1">  1        2 0.65696354E-02 0.95171375E+02</pdfrwt>
<pdfrwt beam="2">  1       -2 0.81580190E-02 0.95171375E+02</pdfrwt>
<totfact> 0.85678032E+04</totfact>
</mgrwt>
</event>
<event>
 7    1  0.3480999E-009  0.9009595E+02  0.7818608E-02  0.1302620E+00
          2   -1    0    0  501    0  0.00000000000E+00  0.00000000000E+00  0.11811294688E+04  0.11811294688E+04  0.25500000000E-02 0. -1.
         -2   -1    0    0    0  501 -0.00000000000E+00 -0.00000000000E+00 -0.17181170953E+01  0.17181189876E+01  0.25500000000E-02 0.  1.
         23    2    1    2    0    0  0.00000000000E+00  0.00000000000E+00  0.11794113517E+04  0.11828475878E+04  0.90095945589E+02 0.  0.
    9000005    2    3    3    0    0 -0.11796056337E+02  0.27174856973E+02  0.10315309389E+04  0.10320290336E+04  0.12256773261E+02 0.  0.
         22    1    3    3    0    0  0.11796056337E+02 -0.27174856973E+02  0.14788041282E+03  0.15081855421E+03  0.00000000000E+00 0.  1.
         22    1    4    4    0    0 -0.49548270773E+01  0.36212076991E+01  0.35616650440E+03  0.35621937386E+03  0.00000000000E+00 0. -1.
         22    1    4    4    0    0 -0.68412292600E+01  0.23553649274E+02  0.67536443448E+03  0.67580965972E+03  0.00000000000E+00 0. -1.
<mgrwt>
<rscale>  0 0.90095946E+02</rscale>
<asrwt>0</asrwt>
<pdfrwt beam="1">  1        2 0.18171176E+00 0.90095946E+02</pdfrwt>
<pdfrwt beam="2">  1       -2 0.26432653E-03 0.90095946E+02</pdfrwt>
<totfact> 0.25702880E+05</totfact>
</mgrwt>
</event>
<event>
 7    1  0.3480999E-009  0.9070120E+02  0.7818608E-02  0.1301162E+00
         -2   -1    0    0    0  501 -0.00000000000E+00  0.00000000000E+00  0.64511792701E+01  0.64511797740E+01  0.25500000000E-02 0.  1.
          2   -1    0    0  501    0  0.00000000000E+00 -0.00000000000E+00 -0.31880633952E+03  0.31880633953E+03  0.25500000000E-02 0. -1.
         23    2    1    2    0    0  0.00000000000E+00  0.00000000000E+00 -0.31235516025E+03  0.32525751930E+03  0.90701200263E+02 0.  0.
    9000005    2    3    3    0    0 -0.26926972447E+02 -0.33167874249E+02 -0.20681942329E+03  0.21140251721E+03  0.95697807338E+01 0.  0.
         22    1    3    3    0    0  0.26926972447E+02  0.33167874249E+02 -0.10553573696E+03  0.11385500210E+03  0.00000000000E+00 0.  1.
         22    1    4    4    0    0 -0.26382297333E+02 -0.27580562052E+02 -0.18030972691E+03  0.18430493926E+03  0.00000000000E+00 0.  1.
         22    1    4    4    0    0 -0.54467511352E+00 -0.55873121963E+01 -0.26509696378E+02  0.27097577947E+02  0.00000000000E+00 0.  1.
<mgrwt>
<rscale>  0 0.90701200E+02</rscale>
<asrwt>0</asrwt>
<pdfrwt beam="2">  1        2 0.49047117E-01 0.90701200E+02</pdfrwt>
<pdfrwt beam="1">  1       -2 0.99248940E-03 0.90701200E+02</pdfrwt>
<totfact> 0.18634351E+05</totfact>
</mgrwt>
</event>
<event>
 7    1  0.3480999E-009  0.9256193E+02  0.7818608E-02  0.1296764E+00
          2   -1    0    0  501    0  0.00000000000E+00  0.00000000000E+00  0.10666777176E+02  0.10666777481E+02  0.25500000000E-02 0. -1.
         -2   -1    0    0    0  501 -0.00000000000E+00 -0.00000000000E+00 -0.20080363606E+03  0.20080363608E+03  0.25500000000E-02 0.  1.
         23    2    1    2    0    0  0.00000000000E+00  0.00000000000E+00 -0.19013685889E+03  0.21147041356E+03  0.92561929020E+02 0.  0.
    9000005    2    3    3    0    0 -0.43307365397E+02  0.70235466118E+01 -0.65521907380E+02  0.79357794012E+02  0.89264225294E+01 0.  0.
         22    1    3    3    0    0  0.43307365397E+02 -0.70235466118E+01 -0.12461495151E+03  0.13211261955E+03  0.00000000000E+00 0.  1.
         22    1    4    4    0    0 -0.13772699379E+02  0.64226893609E+01 -0.23751626345E+02  0.28197126464E+02  0.00000000000E+00 0. -1.
         22    1    4    4    0    0 -0.29534666018E+02  0.60085725095E+00 -0.41770281035E+02  0.51160667548E+02  0.00000000000E+00 0. -1.
<mgrwt>
<rscale>  0 0.92561929E+02</rscale>
<asrwt>0</asrwt>
<pdfrwt beam="1">  1        2 0.16410428E-02 0.92561929E+02</pdfrwt>
<pdfrwt beam="2">  1       -2 0.30892864E-01 0.92561929E+02</pdfrwt>
<totfact> 0.59858617E+04</totfact>
</mgrwt>
</event>
<event>
 7    1  0.3480999E-009  0.8980368E+02  0.7818608E-02  0.1303328E+00
         -2   -1    0    0    0  501 -0.00000000000E+00  0.00000000000E+00  0.19487033888E+02  0.19487034055E+02  0.25500000000E-02 0.  1.
          2   -1    0    0  501    0  0.00000000000E+00 -0.00000000000E+00 -0.10346239640E+03  0.10346239643E+03  0.25500000000E-02 0. -1.
         23    2    1    2    0    0  0.71054273576E-14  0.00000000000E+00 -0.83975362512E+02  0.12294943049E+03  0.89803680036E+02 0.  0.
    9000005    2    3    3    0    0 -0.40499943420E+02  0.16877747098E+02 -0.43129027364E+02  0.63003397598E+02  0.13572447952E+02 0.  0.
         22    1    3    3    0    0  0.40499943420E+02 -0.16877747098E+02 -0.40846335148E+02  0.59946032889E+02  0.00000000000E+00 0. -1.
         22    1    4    4    0    0 -0.78942841356E+01  0.64175735327E+01 -0.17460752298E+02  0.20208484428E+02  0.00000000000E+00 0.  1.
         22    1    4    4    0    0 -0.32605659284E+02  0.10460173565E+02 -0.25668275066E+02  0.42794913170E+02  0.00000000000E+00 0.  1.
<mgrwt>
<rscale>  0 0.89803680E+02</rscale>
<asrwt>0</asrwt>
<pdfrwt beam="2">  1        2 0.15917291E-01 0.89803680E+02</pdfrwt>
<pdfrwt beam="1">  1       -2 0.29980053E-02 0.89803680E+02</pdfrwt>
<totfact> 0.12923172E+05</totfact>
</mgrwt>
</event>
<event>
 7    1  0.3480999E-009  0.9161171E+02  0.7818608E-02  0.1298995E+00
          2   -1    0    0  501    0  0.00000000000E+00  0.00000000000E+00  0.10552699540E+03  0.10552699544E+03  0.25500000000E-02 0. -1.
         -2   -1    0    0    0  501 -0.00000000000E+00 -0.00000000000E+00 -0.19882841555E+02  0.19882841718E+02  0.25500000000E-02 0.  1.
         23    2    1    2    0    0  0.00000000000E+00  0.00000000000E+00  0.85644153850E+02  0.12540983715E+03  0.91611714132E+02 0.  0.
    9000005    2    3    3    0    0 -0.20825690523E+01 -0.12461961372E+02  0.10277428293E+03  0.10412418712E+03  0.10938717370E+02 0.  0.
         22    1    3    3    0    0  0.20825690523E+01  0.12461961372E+02 -0.17130129077E+02  0.21285650032E+02  0.00000000000E+00 0.  1.
         22    1    4    4    0    0 -0.16983101358E+01 -0.19143765339E+01  0.37558926931E+01  0.45448679577E+01  0.00000000000E+00 0.  1.
         22    1    4    4    0    0 -0.38425891644E+00 -0.10547584838E+02  0.99018390233E+02  0.99579319164E+02  0.00000000000E+00 0.  1.
<mgrwt>
<rscale>  0 0.91611714E+02</rscale>
<asrwt>0</asrwt>
<pdfrwt beam="1">  1        2 0.16234923E-01 0.91611714E+02</pdfrwt>
<pdfrwt beam="2">  1       -2 0.30588987E-02 0.91611714E+02</pdfrwt>
<totfact> 0.12309607E+05</totfact>
</mgrwt>
</event>
<event>
 7    1  0.3480999E-009  0.9242959E+02  0.7818608E-02  0.1297073E+00
         -2   -1    0    0    0  501 -0.00000000000E+00  0.00000000000E+00  0.48496318967E+02  0.48496319034E+02  0.25500000000E-02 0.  1.
          2   -1    0    0  501    0  0.00000000000E+00 -0.00000000000E+00 -0.44040609071E+02  0.44040609145E+02  0.25500000000E-02 0. -1.
         23    2    1    2    0    0  0.00000000000E+00  0.00000000000E+00  0.44557098959E+01  0.92536928180E+02  0.92429593347E+02 0.  0.
    9000005    2    3    3    0    0  0.12808999614E+02 -0.92563958719E+01 -0.40598039009E+02  0.44791859052E+02  0.10409540352E+02 0.  0.
         22    1    3    3    0    0 -0.12808999614E+02  0.92563958719E+01  0.45053748905E+02  0.47745069128E+02  0.00000000000E+00 0.  1.
         22    1    4    4    0    0  0.69234334551E+01 -0.75835623289E+01 -0.13226090746E+02  0.16744366958E+02  0.00000000000E+00 0.  1.
         22    1    4    4    0    0  0.58855661587E+01 -0.16728335430E+01 -0.27371948262E+02  0.28047492094E+02  0.00000000000E+00 0.  1.
<mgrwt>
<rscale>  0 0.92429593E+02</rscale>
<asrwt>0</asrwt>
<pdfrwt beam="2">  1        2 0.67754783E-02 0.92429593E+02</pdfrwt>
<pdfrwt beam="1">  1       -2 0.74609721E-02 0.92429593E+02</pdfrwt>
<totfact> 0.94021349E+04</totfact>
</mgrwt>
</event>
<event>
 7    1  0.3480999E-009  0.9186300E+02  0.7818608E-02  0.1298402E+00
          2   -1    0    0  501    0  0.00000000000E+00  0.00000000000E+00  0.43836516107E+02  0.43836516181E+02  0.25500000000E-02 0. -1.
         -2   -1    0    0    0  501 -0.00000000000E+00 -0.00000000000E+00 -0.48126600510E+02  0.48126600578E+02  0.25500000000E-02 0.  1.
         23    2    1    2    0    0 -0.35527136788E-14  0.71054273576E-14 -0.42900844035E+01  0.91963116758E+02  0.91862995922E+02 0.  0.
    9000005    2    3    3    0    0  0.30905185018E+02 -0.26741202446E+02  0.16549058622E+02  0.46088371514E+02  0.13418057916E+02 0.  0.
         22    1    3    3    0    0 -0.30905185018E+02  0.26741202446E+02 -0.20839143025E+02  0.45874745245E+02  0.00000000000E+00 0.  1.
         22    1    4    4    0    0  0.22934258620E+02 -0.22333430931E+02  0.18211228071E+02  0.36829487961E+02  0.00000000000E+00 0. -1.
         22    1    4    4    0    0  0.79709263979E+01 -0.44077715149E+01 -0.16621694488E+01  0.92588835528E+01  0.00000000000E+00 0. -1.
<mgrwt>
<rscale>  0 0.91862996E+02</rscale>
<asrwt>0</asrwt>
<pdfrwt beam="1">  1        2 0.67440794E-02 0.91862996E+02</pdfrwt>
<pdfrwt beam="2">  1       -2 0.74040924E-02 0.91862996E+02</pdfrwt>
<totfact> 0.95588682E+04</totfact>
</mgrwt>
</event>
<event>
 7    1  0.3480999E-009  0.1194946E+03  0.7818608E-02  0.1243933E+00
         -2   -1    0    0    0  501 -0.00000000000E+00  0.00000000000E+00  0.95894095286E+02  0.95894095320E+02  0.25500000000E-02 0. -1.
          2   -1    0    0  501    0  0.00000000000E+00 -0.00000000000E+00 -0.37225828524E+02  0.37225828611E+02  0.25500000000E-02 0.  1.
         23    2    1    2    0    0  0.00000000000E+00  0.00000000000E+00  0.58668266762E+02  0.13311992393E+03  0.11949455478E+03 0.  0.
    9000005    2    3    3    0    0 -0.81775505237E+01  0.41682316106E+02 -0.16678493905E+02  0.46624709315E+02  0.95605204481E+01 0.  0.
         22    1    3    3    0    0  0.81775505237E+01 -0.41682316106E+02  0.75346760667E+02  0.86495214616E+02  0.00000000000E+00 0. -1.
         22    1    4    4    0    0 -0.29045840517E+01  0.33994559714E+02 -0.14367862977E+02  0.37020294234E+02  0.00000000000E+00 0.  1.
         22    1    4    4    0    0 -0.52729664721E+01  0.76877563917E+01 -0.23106309282E+01  0.96044150806E+01  0.00000000000E+00 0.  1.
<mgrwt>
<rscale>  0 0.11949455E+03</rscale>
<asrwt>0</asrwt>
<pdfrwt beam="2">  1        2 0.57270506E-02 0.11949455E+03</pdfrwt>
<pdfrwt beam="1">  1       -2 0.14752938E-01 0.11949455E+03</pdfrwt>
<totfact> 0.41435472E+04</totfact>
</mgrwt>
</event>
<event>
 7    1  0.3480999E-009  0.9091431E+02  0.7818608E-02  0.1300653E+00
         -2   -1    0    0    0  501 -0.00000000000E+00  0.00000000000E+00  0.58774099820E+02  0.58774099876E+02  0.25500000000E-02 0.  1.
          2   -1    0    0  501    0  0.00000000000E+00 -0.00000000000E+00 -0.35157546491E+02  0.35157546583E+02  0.25500000000E-02 0. -1.
         23    2    1    2    0    0 -0.88817841970E-15  0.00000000000E+00  0.23616553329E+02  0.93931646459E+02  0.90914314689E+02 0.  0.
    9000005    2    3    3    0    0  0.59374955223E+01 -0.39255318429E+02  0.33038535465E+02  0.53127141494E+02  0.12438426732E+02 0.  0.
         22    1    3    3    0    0 -0.59374955223E+01  0.39255318429E+02 -0.94219821357E+01  0.40804504965E+02  0.00000000000E+00 0. -1.
         22    1    4    4    0    0  0.80676462547E+01 -0.36226900976E+02  0.32599957537E+02  0.49398709516E+02  0.00000000000E+00 0. -1.
         22    1    4    4    0    0 -0.21301507324E+01 -0.30284174539E+01  0.43857792775E+00  0.37284319783E+01  0.00000000000E+00 0. -1.
<mgrwt>
<rscale>  0 0.90914315E+02</rscale>
<asrwt>0</asrwt>
<pdfrwt beam="2">  1        2 0.54088534E-02 0.90914315E+02</pdfrwt>
<pdfrwt beam="1">  1       -2 0.90421691E-02 0.90914315E+02</pdfrwt>
<totfact> 0.93027506E+04</totfact>
</mgrwt>
</event>
<event>
 7    1  0.3480999E-009  0.9179991E+02  0.7818608E-02  0.1298551E+00
          2   -1    0    0  501    0  0.00000000000E+00  0.00000000000E+00  0.13870275966E+03  0.13870275968E+03  0.25500000000E-02 0. -1.
         -2   -1    0    0    0  501 -0.00000000000E+00 -0.00000000000E+00 -0.15189356235E+02  0.15189356449E+02  0.25500000000E-02 0.  1.
         23    2    1    2    0    0  0.55511151231E-16  0.00000000000E+00  0.12351340343E+03  0.15389211613E+03  0.91799905133E+02 0.  0.
    9000005    2    3    3    0    0  0.15432664542E+00 -0.21458233801E+02  0.12936141502E+03  0.13165073906E+03  0.11707338972E+02 0.  0.
         22    1    3    3    0    0 -0.15432664542E+00  0.21458233801E+02 -0.58480115900E+01  0.22241377073E+02  0.00000000000E+00 0.  1.
         22    1    4    4    0    0 -0.40423481512E+01 -0.71734318852E+01  0.27476499202E+02  0.28683736019E+02  0.00000000000E+00 0.  1.
         22    1    4    4    0    0  0.41966747966E+01 -0.14284801915E+02  0.10188491581E+03  0.10296700304E+03  0.00000000000E+00 0.  1.
<mgrwt>
<rscale>  0 0.91799905E+02</rscale>
<asrwt>0</asrwt>
<pdfrwt beam="1">  1        2 0.21338885E-01 0.91799905E+02</pdfrwt>
<pdfrwt beam="2">  1       -2 0.23368241E-02 0.91799905E+02</pdfrwt>
<totfact> 0.13366609E+05</totfact>
</mgrwt>
</event>
<event>
 7    1  0.3480999E-009  0.9147056E+02  0.7818608E-02  0.1299329E+00
          2   -1    0    0  501    0  0.00000000000E+00  0.00000000000E+00  0.21184522031E+02  0.21184522184E+02  0.25500000000E-02 0. -1.
         -2   -1    0    0    0  501 -0.00000000000E+00 -0.00000000000E+00 -0.98737933323E+02  0.98737933356E+02  0.25500000000E-02 0.  1.
         23    2    1    2    0    0 -0.17763568394E-14  0.00000000000E+00 -0.77553411293E+02  0.11992245554E+03  0.91470562148E+02 0.  0.
    9000005    2    3    3    0    0 -0.11519079079E+02 -0.39828992467E+02 -0.61826407054E+02  0.75578611705E+02  0.13060785366E+02 0.  0.
         22    1    3    3    0    0  0.11519079079E+02  0.39828992467E+02 -0.15727004239E+02  0.44343843835E+02  0.00000000000E+00 0. -1.
         22    1    4    4    0    0 -0.13728016190E+02 -0.31605131695E+02 -0.44581090652E+02  0.56345509330E+02  0.00000000000E+00 0. -1.
         22    1    4    4    0    0  0.22089371119E+01 -0.82238607717E+01 -0.17245316402E+02  0.19233102375E+02  0.00000000000E+00 0. -1.
<mgrwt>
<rscale>  0 0.91470562E+02</rscale>
<asrwt>0</asrwt>
<pdfrwt beam="1">  1        2 0.32591573E-02 0.91470562E+02</pdfrwt>
<pdfrwt beam="2">  1       -2 0.15190451E-01 0.91470562E+02</pdfrwt>
<totfact> 0.79469716E+04</totfact>
</mgrwt>
</event>
<event>
 7    1  0.3480999E-009  0.8913272E+02  0.7818608E-02  0.1304966E+00
         -2   -1    0    0    0  501 -0.00000000000E+00  0.00000000000E+00  0.11987074489E+02  0.11987074760E+02  0.25500000000E-02 0.  1.
          2   -1    0    0  501    0  0.00000000000E+00 -0.00000000000E+00 -0.16569182991E+03  0.16569182993E+03  0.25500000000E-02 0. -1.
         23    2    1    2    0    0  0.00000000000E+00  0.00000000000E+00 -0.15370475542E+03  0.17767890469E+03  0.89132717519E+02 0.  0.
    9000005    2    3    3    0    0  0.36180118517E+02 -0.14162349193E+02 -0.38754007201E+02  0.56339514437E+02  0.12755183348E+02 0.  0.
         22    1    3    3    0    0 -0.36180118517E+02  0.14162349193E+02 -0.11495074822E+03  0.12133939025E+03  0.00000000000E+00 0. -1.
         22    1    4    4    0    0  0.13209815307E+02  0.65958952166E+00 -0.16095983613E+02  0.20833025878E+02  0.00000000000E+00 0.  1.
         22    1    4    4    0    0  0.22970303209E+02 -0.14821938715E+02 -0.22658023589E+02  0.35506488558E+02  0.00000000000E+00 0.  1.
<mgrwt>
<rscale>  0 0.89132718E+02</rscale>
<asrwt>0</asrwt>
<pdfrwt beam="2">  1        2 0.25491049E-01 0.89132718E+02</pdfrwt>
<pdfrwt beam="1">  1       -2 0.18441655E-02 0.89132718E+02</pdfrwt>
<totfact> 0.15381239E+05</totfact>
</mgrwt>
</event>
<event>
 7    1  0.3480999E-009  0.9559321E+02  0.7818608E-02  0.1289846E+00
         -2   -1    0    0    0  501 -0.00000000000E+00  0.00000000000E+00  0.35710238805E+01  0.35710247910E+01  0.25500000000E-02 0. -1.
          2   -1    0    0  501    0  0.00000000000E+00 -0.00000000000E+00 -0.63973672881E+03  0.63973672882E+03  0.25500000000E-02 0.  1.
         23    2    1    2    0    0  0.00000000000E+00  0.00000000000E+00 -0.63616570493E+03  0.64330775361E+03  0.95593209598E+02 0.  0.
    9000005    2    3    3    0    0  0.12693362021E+02 -0.43404197894E+02 -0.41361879833E+03  0.41621268217E+03  0.10365357284E+02 0.  0.
         22    1    3    3    0    0 -0.12693362021E+02  0.43404197894E+02 -0.22254690660E+03  0.22709507144E+03  0.00000000000E+00 0.  1.
         22    1    4    4    0    0  0.45311260660E+01 -0.28458768155E+02 -0.22787264961E+03  0.22968756394E+03  0.00000000000E+00 0. -1.
         22    1    4    4    0    0  0.81622359547E+01 -0.14945429740E+02 -0.18574614873E+03  0.18652511824E+03  0.00000000000E+00 0. -1.
<mgrwt>
<rscale>  0 0.95593210E+02</rscale>
<asrwt>0</asrwt>
<pdfrwt beam="2">  1        2 0.98420944E-01 0.95593210E+02</pdfrwt>
<pdfrwt beam="1">  1       -2 0.54938887E-03 0.95593210E+02</pdfrwt>
<totfact> 0.20460061E+05</totfact>
</mgrwt>
</event>
<event>
 7    1  0.3480999E-009  0.9274618E+02  0.7818608E-02  0.1296334E+00
         -2   -1    0    0    0  501 -0.00000000000E+00  0.00000000000E+00  0.19983902390E+03  0.19983902392E+03  0.25500000000E-02 0.  1.
          2   -1    0    0  501    0  0.00000000000E+00 -0.00000000000E+00 -0.10760979555E+02  0.10760979857E+02  0.25500000000E-02 0. -1.
         23    2    1    2    0    0  0.00000000000E+00  0.00000000000E+00  0.18907804435E+03  0.21060000378E+03  0.92746184484E+02 0.  0.
    9000005    2    3    3    0    0  0.17755913964E+02  0.33411690828E+02  0.15278348104E+03  0.15816996572E+03  0.15599115778E+02 0.  0.
         22    1    3    3    0    0 -0.17755913964E+02 -0.33411690828E+02  0.36294563307E+02  0.52430038054E+02  0.00000000000E+00 0. -1.
         22    1    4    4    0    0  0.68219109355E+01  0.19857027386E+02  0.55474474390E+02  0.59314899598E+02  0.00000000000E+00 0. -1.
         22    1    4    4    0    0  0.10934003028E+02  0.13554663443E+02  0.97309006649E+02  0.98855066123E+02  0.00000000000E+00 0. -1.
<mgrwt>
<rscale>  0 0.92746184E+02</rscale>
<asrwt>0</asrwt>
<pdfrwt beam="2">  1        2 0.16555355E-02 0.92746184E+02</pdfrwt>
<pdfrwt beam="1">  1       -2 0.30744463E-01 0.92746184E+02</pdfrwt>
<totfact> 0.59679762E+04</totfact>
</mgrwt>
</event>
<event>
 7    1  0.4830803E-009  0.9067241E+02  0.7818608E-02  0.1301231E+00
         -2   -1    0    0    0  501 -0.00000000000E+00  0.00000000000E+00  0.14791523942E+02  0.14791524162E+02  0.25500000000E-02 0.  1.
          2   -1    0    0  501    0  0.00000000000E+00 -0.00000000000E+00 -0.13895601884E+03  0.13895601886E+03  0.25500000000E-02 0. -1.
         23    2    1    2    0    0  0.00000000000E+00  0.00000000000E+00 -0.12416449490E+03  0.15374754302E+03  0.90672405908E+02 0.  0.
    9000005    2    3    3    0    0  0.27452958103E+02  0.13632103176E+02 -0.10601338933E+02  0.36120634802E+02  0.15900085714E+02 0.  0.
         22    1    3    3    0    0 -0.27452958103E+02 -0.13632103176E+02 -0.11356315596E+03  0.11762690822E+03  0.00000000000E+00 0. -1.
         22    1    4    4    0    0  0.13056978065E+02  0.59558495266E+01  0.32551066992E+01  0.14715724223E+02  0.00000000000E+00 0.  1.
         22    1    4    4    0    0  0.14395980038E+02  0.76762536497E+01 -0.13856445632E+02  0.21404910579E+02  0.00000000000E+00 0.  1.
<mgrwt>
<rscale>  0 0.90672406E+02</rscale>
<asrwt>0</asrwt>
<pdfrwt beam="2">  1        2 0.21377848E-01 0.90672406E+02</pdfrwt>
<pdfrwt beam="1">  1       -2 0.22756192E-02 0.90672406E+02</pdfrwt>
<totfact> 0.13832280E+05</totfact>
</mgrwt>
</event>
<event>
 7    1  0.3480999E-009  0.9144297E+02  0.7818608E-02  0.1299394E+00
         -2   -1    0    0    0  501 -0.00000000000E+00  0.00000000000E+00  0.43317510242E+01  0.43317517747E+01  0.25500000000E-02 0.  1.
          2   -1    0    0  501    0  0.00000000000E+00 -0.00000000000E+00 -0.48258873092E+03  0.48258873093E+03  0.25500000000E-02 0. -1.
         23    2    1    2    0    0  0.00000000000E+00  0.00000000000E+00 -0.47825697990E+03  0.48692048270E+03  0.91442974881E+02 0.  0.
    9000005    2    3    3    0    0 -0.23897587131E+02 -0.36161977870E+02 -0.30840844554E+03  0.31162841803E+03  0.10849807780E+02 0.  0.
         22    1    3    3    0    0  0.23897587131E+02  0.36161977870E+02 -0.16984853435E+03  0.17529206467E+03  0.00000000000E+00 0.  1.
         22    1    4    4    0    0 -0.71003932113E+01 -0.44847976704E+01 -0.77348584181E+02  0.77803164902E+02  0.00000000000E+00 0. -1.
         22    1    4    4    0    0 -0.16797193920E+02 -0.31677180200E+02 -0.23105986136E+03  0.23382525313E+03  0.00000000000E+00 0. -1.
<mgrwt>
<rscale>  0 0.91442975E+02</rscale>
<asrwt>0</asrwt>
<pdfrwt beam="2">  1        2 0.74244378E-01 0.91442975E+02</pdfrwt>
<pdfrwt beam="1">  1       -2 0.66642368E-03 0.91442975E+02</pdfrwt>
<totfact> 0.21136575E+05</totfact>
</mgrwt>
</event>
<event>
 7    1  0.3480999E-009  0.9231909E+02  0.7818608E-02  0.1297331E+00
          2   -1    0    0  501    0  0.00000000000E+00  0.00000000000E+00  0.95827322112E+01  0.95827325505E+01  0.25500000000E-02 0. -1.
         -2   -1    0    0    0  501 -0.00000000000E+00 -0.00000000000E+00 -0.22234822861E+03  0.22234822862E+03  0.25500000000E-02 0.  1.
         23    2    1    2    0    0 -0.35527136788E-14  0.00000000000E+00 -0.21276549640E+03  0.23193096117E+03  0.92319089541E+02 0.  0.
    9000005    2    3    3    0    0  0.24164418286E+02 -0.20472190043E+02 -0.18996232579E+03  0.19290514579E+03  0.11121168027E+02 0.  0.
         22    1    3    3    0    0 -0.24164418286E+02  0.20472190043E+02 -0.22803170608E+02  0.39025815380E+02  0.00000000000E+00 0. -1.
         22    1    4    4    0    0  0.38841501096E+01 -0.30898217383E+01 -0.61240544289E+02  0.61441336942E+02  0.00000000000E+00 0. -1.
         22    1    4    4    0    0  0.20280268177E+02 -0.17382368305E+02 -0.12872178150E+03  0.13146380885E+03  0.00000000000E+00 0. -1.
<mgrwt>
<rscale>  0 0.92319090E+02</rscale>
<asrwt>0</asrwt>
<pdfrwt beam="1">  1        2 0.14742667E-02 0.92319090E+02</pdfrwt>
<pdfrwt beam="2">  1       -2 0.34207416E-01 0.92319090E+02</pdfrwt>
<totfact> 0.57566477E+04</totfact>
</mgrwt>
</event>
<event>
 7    1  0.3480999E-009  0.9214702E+02  0.7818608E-02  0.1297734E+00
         -2   -1    0    0    0  501 -0.00000000000E+00  0.00000000000E+00  0.30902957166E+01  0.30902967687E+01  0.25500000000E-02 0. -1.
          2   -1    0    0  501    0  0.00000000000E+00 -0.00000000000E+00 -0.68691413409E+03  0.68691413410E+03  0.25500000000E-02 0.  1.
         23    2    1    2    0    0  0.00000000000E+00  0.00000000000E+00 -0.68382383837E+03  0.69000443086E+03  0.92147016682E+02 0.  0.
    9000005    2    3    3    0    0  0.40391111242E+02  0.10859499897E+02 -0.47255314507E+03  0.47463341040E+03  0.14867035675E+02 0.  0.
         22    1    3    3    0    0 -0.40391111242E+02 -0.10859499897E+02 -0.21127069330E+03  0.21537102046E+03  0.00000000000E+00 0. -1.
         22    1    4    4    0    0  0.15911273742E+02  0.59596865435E+01 -0.11992677338E+03  0.12112438842E+03  0.00000000000E+00 0. -1.
         22    1    4    4    0    0  0.24479837500E+02  0.48998133530E+01 -0.35262637169E+03  0.35350902199E+03  0.00000000000E+00 0. -1.
<mgrwt>
<rscale>  0 0.92147017E+02</rscale>
<asrwt>0</asrwt>
<pdfrwt beam="2">  1        2 0.10567898E+00 0.92147017E+02</pdfrwt>
<pdfrwt beam="1">  1       -2 0.47543074E-03 0.92147017E+02</pdfrwt>
<totfact> 0.22958122E+05</totfact>
</mgrwt>
</event>
<event>
 7    1  0.3480999E-009  0.1040298E+03  0.7818608E-02  0.1272043E+00
          2   -1    0    0  501    0  0.00000000000E+00  0.00000000000E+00  0.42551256894E+02  0.42551256970E+02  0.25500000000E-02 0. -1.
         -2   -1    0    0    0  501 -0.00000000000E+00 -0.00000000000E+00 -0.63583268658E+02  0.63583268709E+02  0.25500000000E-02 0.  1.
         23    2    1    2    0    0 -0.35527136788E-14 -0.17763568394E-14 -0.21032011764E+02  0.10613452568E+03  0.10402976508E+03 0.  0.
    9000005    2    3    3    0    0 -0.20818312361E+02  0.14746577869E+02 -0.56506381153E+02  0.62439050262E+02  0.74027156001E+01 0.  0.
         22    1    3    3    0    0  0.20818312361E+02 -0.14746577869E+02  0.35474369388E+02  0.43695475417E+02  0.00000000000E+00 0. -1.
         22    1    4    4    0    0 -0.20642987138E+02  0.14905706827E+02 -0.56685972253E+02  0.62141873678E+02  0.00000000000E+00 0.  1.
         22    1    4    4    0    0 -0.17532522257E+00 -0.15912895803E+00  0.17959109983E+00  0.29717658403E+00  0.00000000000E+00 0.  1.
<mgrwt>
<rscale>  0 0.10402977E+03</rscale>
<asrwt>0</asrwt>
<pdfrwt beam="1">  1        2 0.65463472E-02 0.10402977E+03</pdfrwt>
<pdfrwt beam="2">  1       -2 0.97820414E-02 0.10402977E+03</pdfrwt>
<totfact> 0.65883712E+04</totfact>
</mgrwt>
</event>
<event>
 7    1  0.3480999E-009  0.8974843E+02  0.7818608E-02  0.1303462E+00
          2   -1    0    0  501    0  0.00000000000E+00  0.00000000000E+00  0.12014538924E+03  0.12014538927E+03  0.25500000000E-02 0. -1.
         -2   -1    0    0    0  501 -0.00000000000E+00 -0.00000000000E+00 -0.16760488128E+02  0.16760488322E+02  0.25500000000E-02 0.  1.
         23    2    1    2    0    0  0.00000000000E+00  0.00000000000E+00  0.10338490112E+03  0.13690587759E+03  0.89748434754E+02 0.  0.
    9000005    2    3    3    0    0  0.27264452497E+02 -0.34252889028E+02  0.61764941080E+02  0.76500316176E+02  0.10989979602E+02 0.  0.
         22    1    3    3    0    0 -0.27264452497E+02  0.34252889028E+02  0.41619960036E+02  0.60405561417E+02  0.00000000000E+00 0.  1.
         22    1    4    4    0    0  0.13556761688E+02 -0.20484387633E+02  0.42811001012E+02  0.49357651198E+02  0.00000000000E+00 0.  1.
         22    1    4    4    0    0  0.13707690809E+02 -0.13768501395E+02  0.18953940068E+02  0.27142664978E+02  0.00000000000E+00 0.  1.
<mgrwt>
<rscale>  0 0.89748435E+02</rscale>
<asrwt>0</asrwt>
<pdfrwt beam="1">  1        2 0.18483906E-01 0.89748435E+02</pdfrwt>
<pdfrwt beam="2">  1       -2 0.25785367E-02 0.89748435E+02</pdfrwt>
<totfact> 0.13563492E+05</totfact>
</mgrwt>
</event>
<event>
 7    1  0.3480999E-009  0.9321125E+02  0.7818608E-02  0.1295256E+00
          2   -1    0    0  501    0  0.00000000000E+00  0.00000000000E+00  0.19631386129E+02  0.19631386295E+02  0.25500000000E-02 0. -1.
         -2   -1    0    0    0  501 -0.00000000000E+00 -0.00000000000E+00 -0.11064344082E+03  0.11064344085E+03  0.25500000000E-02 0.  1.
         23    2    1    2    0    0  0.00000000000E+00  0.00000000000E+00 -0.91012054691E+02  0.13027482714E+03  0.93211246577E+02 0.  0.
    9000005    2    3    3    0    0 -0.20120058408E+02  0.40425480829E+02 -0.38427276363E+02  0.60962525477E+02  0.14168193016E+02 0.  0.
         22    1    3    3    0    0  0.20120058408E+02 -0.40425480829E+02 -0.52584778328E+02  0.69312301667E+02  0.00000000000E+00 0. -1.
         22    1    4    4    0    0 -0.10667592252E+02  0.10641882450E+02 -0.68973907951E+01  0.16571698354E+02  0.00000000000E+00 0. -1.
         22    1    4    4    0    0 -0.94524661554E+01  0.29783598378E+02 -0.31529885568E+02  0.44390827123E+02  0.00000000000E+00 0. -1.
<mgrwt>
<rscale>  0 0.93211247E+02</rscale>
<asrwt>0</asrwt>
<pdfrwt beam="1">  1        2 0.30202133E-02 0.93211247E+02</pdfrwt>
<pdfrwt beam="2">  1       -2 0.17022067E-01 0.93211247E+02</pdfrwt>
<totfact> 0.73226525E+04</totfact>
</mgrwt>
</event>
<event>
 7    1  0.3480999E-009  0.9086533E+02  0.7818608E-02  0.1300770E+00
         -2   -1    0    0    0  501 -0.00000000000E+00  0.00000000000E+00  0.13235351471E+03  0.13235351473E+03  0.25500000000E-02 0.  1.
          2   -1    0    0  501    0  0.00000000000E+00 -0.00000000000E+00 -0.15595558026E+02  0.15595558235E+02  0.25500000000E-02 0. -1.
         23    2    1    2    0    0  0.00000000000E+00  0.00000000000E+00  0.11675795668E+03  0.14794907297E+03  0.90865327510E+02 0.  0.
    9000005    2    3    3    0    0 -0.57789987238E+01 -0.36291655769E+02  0.10172279886E+03  0.10824344269E+03  0.43167087077E+01 0.  0.
         22    1    3    3    0    0  0.57789987238E+01  0.36291655769E+02  0.15035157825E+02  0.39705630274E+02  0.00000000000E+00 0. -1.
         22    1    4    4    0    0 -0.45875389853E+01 -0.27670986942E+02  0.71917618428E+02  0.77193735968E+02  0.00000000000E+00 0. -1.
         22    1    4    4    0    0 -0.11914597385E+01 -0.86206688263E+01  0.29805180430E+02  0.31049706726E+02  0.00000000000E+00 0. -1.
<mgrwt>
<rscale>  0 0.90865328E+02</rscale>
<asrwt>0</asrwt>
<pdfrwt beam="2">  1        2 0.23993167E-02 0.90865328E+02</pdfrwt>
<pdfrwt beam="1">  1       -2 0.20362079E-01 0.90865328E+02</pdfrwt>
<totfact> 0.73634917E+04</totfact>
</mgrwt>
</event>
<event>
 7    1  0.3480999E-009  0.9164217E+02  0.7818608E-02  0.1298923E+00
         -2   -1    0    0    0  501 -0.00000000000E+00  0.00000000000E+00  0.70864332667E+02  0.70864332713E+02  0.25500000000E-02 0.  1.
          2   -1    0    0  501    0  0.00000000000E+00 -0.00000000000E+00 -0.29628045498E+02  0.29628045608E+02  0.25500000000E-02 0. -1.
         23    2    1    2    0    0  0.00000000000E+00  0.00000000000E+00  0.41236287169E+02  0.10049237832E+03  0.91642166721E+02 0.  0.
    9000005    2    3    3    0    0 -0.35178245809E+02  0.24625192595E+02  0.35104311462E+02  0.57115999789E+02  0.13638755814E+02 0.  0.
         22    1    3    3    0    0  0.35178245809E+02 -0.24625192595E+02  0.61319757070E+01  0.43376378533E+02  0.00000000000E+00 0.  1.
         22    1    4    4    0    0 -0.90863070194E+01  0.22988504409E+01  0.23567500504E+01  0.96643654422E+01  0.00000000000E+00 0. -1.
         22    1    4    4    0    0 -0.26091938789E+02  0.22326342154E+02  0.32747561412E+02  0.47451634347E+02  0.00000000000E+00 0. -1.
<mgrwt>
<rscale>  0 0.91642167E+02</rscale>
<asrwt>0</asrwt>
<pdfrwt beam="2">  1        2 0.45581608E-02 0.91642167E+02</pdfrwt>
<pdfrwt beam="1">  1       -2 0.10902205E-01 0.91642167E+02</pdfrwt>
<totfact> 0.86845840E+04</totfact>
</mgrwt>
</event>
<event>
 7    1  0.3480999E-009  0.8905116E+02  0.7818608E-02  0.1305166E+00
         -2   -1    0    0    0  501 -0.00000000000E+00  0.00000000000E+00  0.67879131673E+02  0.67879131721E+02  0.25500000000E-02 0.  1.
          2   -1    0    0  501    0  0.00000000000E+00 -0.00000000000E+00 -0.29206725070E+02  0.29206725182E+02  0.25500000000E-02 0. -1.
         23    2    1    2    0    0  0.00000000000E+00  0.00000000000E+00  0.38672406603E+02  0.97085856903E+02  0.89051157085E+02 0.  0.
    9000005    2    3    3    0    0  0.27741947723E+02  0.25481884822E+02  0.43885331778E+02  0.59058015701E+02  0.11957623330E+02 0.  0.
         22    1    3    3    0    0 -0.27741947723E+02 -0.25481884822E+02 -0.52129251751E+01  0.38027841202E+02  0.00000000000E+00 0. -1.
         22    1    4    4    0    0  0.20180576340E+02  0.21638469840E+02  0.39932865786E+02  0.49700229460E+02  0.00000000000E+00 0. -1.
         22    1    4    4    0    0  0.75613713837E+01  0.38434149820E+01  0.39524659914E+01  0.93577862413E+01  0.00000000000E+00 0. -1.
<mgrwt>
<rscale>  0 0.89051157E+02</rscale>
<asrwt>0</asrwt>
<pdfrwt beam="2">  1        2 0.44933424E-02 0.89051157E+02</pdfrwt>
<pdfrwt beam="1">  1       -2 0.10442943E-01 0.89051157E+02</pdfrwt>
<totfact> 0.94194713E+04</totfact>
</mgrwt>
</event>
<event>
 7    1  0.3480999E-009  0.9327760E+02  0.7818608E-02  0.1295103E+00
          2   -1    0    0  501    0  0.00000000000E+00  0.00000000000E+00  0.13850629311E+02  0.13850629546E+02  0.25500000000E-02 0. -1.
         -2   -1    0    0    0  501 -0.00000000000E+00 -0.00000000000E+00 -0.15704540367E+03  0.15704540369E+03  0.25500000000E-02 0.  1.
         23    2    1    2    0    0  0.00000000000E+00  0.00000000000E+00 -0.14319477436E+03  0.17089603324E+03  0.93277600594E+02 0.  0.
    9000005    2    3    3    0    0 -0.42735324756E+02 -0.26710011545E+01 -0.42566272983E+02  0.61536362799E+02  0.11890926023E+02 0.  0.
         22    1    3    3    0    0  0.42735324756E+02  0.26710011545E+01 -0.10062850138E+03  0.10935967044E+03  0.00000000000E+00 0.  1.
         22    1    4    4    0    0 -0.19385348828E+02 -0.65957614863E+01 -0.16290654120E+02  0.26166414168E+02  0.00000000000E+00 0.  1.
         22    1    4    4    0    0 -0.23349975928E+02  0.39247603319E+01 -0.26275618863E+02  0.35369948631E+02  0.00000000000E+00 0.  1.
<mgrwt>
<rscale>  0 0.93277601E+02</rscale>
<asrwt>0</asrwt>
<pdfrwt beam="1">  1        2 0.21308662E-02 0.93277601E+02</pdfrwt>
<pdfrwt beam="2">  1       -2 0.24160830E-01 0.93277601E+02</pdfrwt>
<totfact> 0.64825434E+04</totfact>
</mgrwt>
</event>
<event>
 7    1  0.3480999E-009  0.9202906E+02  0.7818608E-02  0.1298011E+00
         -2   -1    0    0    0  501 -0.00000000000E+00  0.00000000000E+00  0.16299632388E+03  0.16299632390E+03  0.25500000000E-02 0. -1.
          2   -1    0    0  501    0  0.00000000000E+00 -0.00000000000E+00 -0.12990090518E+02  0.12990090769E+02  0.25500000000E-02 0.  1.
         23    2    1    2    0    0  0.00000000000E+00  0.00000000000E+00  0.15000623336E+03  0.17598641467E+03  0.92029061174E+02 0.  0.
    9000005    2    3    3    0    0 -0.60284174380E+01  0.43202503404E+02  0.55548052898E+02  0.71942452933E+02  0.13686936692E+02 0.  0.
         22    1    3    3    0    0  0.60284174380E+01 -0.43202503404E+02  0.94458180462E+02  0.10404396173E+03  0.00000000000E+00 0. -1.
         22    1    4    4    0    0  0.41613329082E+01  0.16614214225E+02  0.18412166116E+02  0.25146702904E+02  0.00000000000E+00 0.  1.
         22    1    4    4    0    0 -0.10189750346E+02  0.26588289179E+02  0.37135886783E+02  0.46795750028E+02  0.00000000000E+00 0.  1.
<mgrwt>
<rscale>  0 0.92029061E+02</rscale>
<asrwt>0</asrwt>
<pdfrwt beam="2">  1        2 0.19984754E-02 0.92029061E+02</pdfrwt>
<pdfrwt beam="1">  1       -2 0.25076359E-01 0.92029061E+02</pdfrwt>
<totfact> 0.66143785E+04</totfact>
</mgrwt>
</event>
<event>
 7    1  0.3480999E-009  0.1150813E+03  0.7818608E-02  0.1251439E+00
          2   -1    0    0  501    0  0.00000000000E+00  0.00000000000E+00  0.44721876117E+03  0.44721876118E+03  0.25500000000E-02 0. -1.
         -2   -1    0    0    0  501 -0.00000000000E+00 -0.00000000000E+00 -0.74033736816E+01  0.74033741208E+01  0.25500000000E-02 0.  1.
         23    2    1    2    0    0  0.00000000000E+00 -0.71054273576E-14  0.43981538749E+03  0.45462213530E+03  0.11508132269E+03 0.  0.
    9000005    2    3    3    0    0  0.36500521876E+02  0.44112819118E+02  0.23579898835E+03  0.24272376337E+03  0.59526036842E+01 0.  0.
         22    1    3    3    0    0 -0.36500521876E+02 -0.44112819118E+02  0.20401639914E+03  0.21189837193E+03  0.00000000000E+00 0.  1.
         22    1    4    4    0    0  0.23586248452E+02  0.24038023968E+02  0.13503248788E+03  0.13916864049E+03  0.00000000000E+00 0. -1.
         22    1    4    4    0    0  0.12914273424E+02  0.20074795150E+02  0.10076650047E+03  0.10355512288E+03  0.00000000000E+00 0. -1.
<mgrwt>
<rscale>  0 0.11508132E+03</rscale>
<asrwt>0</asrwt>
<pdfrwt beam="1">  1        2 0.68802906E-01 0.11508132E+03</pdfrwt>
<pdfrwt beam="2">  1       -2 0.11389803E-02 0.11508132E+03</pdfrwt>
<totfact> 0.11112877E+05</totfact>
</mgrwt>
</event>
<event>
 7    1  0.3480999E-009  0.9086848E+02  0.7818608E-02  0.1300762E+00
          2   -1    0    0  501    0  0.00000000000E+00  0.00000000000E+00  0.10166511726E+03  0.10166511729E+03  0.25500000000E-02 0. -1.
         -2   -1    0    0    0  501 -0.00000000000E+00 -0.00000000000E+00 -0.20304606148E+02  0.20304606308E+02  0.25500000000E-02 0.  1.
         23    2    1    2    0    0  0.71054273576E-14 -0.35527136788E-14  0.81360511113E+02  0.12196972360E+03  0.90868480271E+02 0.  0.
    9000005    2    3    3    0    0 -0.38045301399E+02  0.14949673180E+02  0.18625226364E+02  0.47092132566E+02  0.14136201956E+02 0.  0.
         22    1    3    3    0    0  0.38045301399E+02 -0.14949673180E+02  0.62735284749E+02  0.74877591035E+02  0.00000000000E+00 0. -1.
         22    1    4    4    0    0 -0.19724924837E+02  0.15215700989E+02  0.11410234356E+02  0.27400431830E+02  0.00000000000E+00 0. -1.
         22    1    4    4    0    0 -0.18320376563E+02 -0.26602780976E+00  0.72149920089E+01  0.19691700736E+02  0.00000000000E+00 0. -1.
<mgrwt>
<rscale>  0 0.90868480E+02</rscale>
<asrwt>0</asrwt>
<pdfrwt beam="1">  1        2 0.15640788E-01 0.90868480E+02</pdfrwt>
<pdfrwt beam="2">  1       -2 0.31237855E-02 0.90868480E+02</pdfrwt>
<totfact> 0.12445025E+05</totfact>
</mgrwt>
</event>
<event>
 7    1  0.3480999E-009  0.9103407E+02  0.7818608E-02  0.1300367E+00
         -2   -1    0    0    0  501 -0.00000000000E+00  0.00000000000E+00  0.94191680162E+02  0.94191680197E+02  0.25500000000E-02 0.  1.
          2   -1    0    0  501    0  0.00000000000E+00 -0.00000000000E+00 -0.21995577719E+02  0.21995577867E+02  0.25500000000E-02 0. -1.
         23    2    1    2    0    0  0.00000000000E+00 -0.71054273576E-14  0.72196102443E+02  0.11618725806E+03  0.91034069052E+02 0.  0.
    9000005    2    3    3    0    0 -0.36365053407E+01 -0.36144282879E+02  0.14067119676E+01  0.36621114762E+02  0.44151842385E+01 0.  0.
         22    1    3    3    0    0  0.36365053407E+01  0.36144282879E+02  0.70789390476E+02  0.79566143302E+02  0.00000000000E+00 0.  1.
         22    1    4    4    0    0 -0.41151080955E+01 -0.30277867736E+02  0.24067018705E+01  0.30650866271E+02  0.00000000000E+00 0.  1.
         22    1    4    4    0    0  0.47860275478E+00 -0.58664151431E+01 -0.99998990291E+00  0.59702484902E+01  0.00000000000E+00 0.  1.
<mgrwt>
<rscale>  0 0.91034069E+02</rscale>
<asrwt>0</asrwt>
<pdfrwt beam="2">  1        2 0.33839351E-02 0.91034069E+02</pdfrwt>
<pdfrwt beam="1">  1       -2 0.14491028E-01 0.91034069E+02</pdfrwt>
<totfact> 0.81544166E+04</totfact>
</mgrwt>
</event>
<event>
 7    1  0.3480999E-009  0.1032801E+03  0.7818608E-02  0.1273546E+00
         -2   -1    0    0    0  501 -0.00000000000E+00  0.00000000000E+00  0.37424095459E+02  0.37424095546E+02  0.25500000000E-02 0.  1.
          2   -1    0    0  501    0  0.00000000000E+00 -0.00000000000E+00 -0.71256071983E+02  0.71256072029E+02  0.25500000000E-02 0. -1.
         23    2    1    2    0    0  0.00000000000E+00  0.00000000000E+00 -0.33831976524E+02  0.10868016757E+03  0.10328008612E+03 0.  0.
    9000005    2    3    3    0    0 -0.16184668197E+02  0.35305684825E+02  0.17345694699E+02  0.44433853304E+02  0.12847541759E+02 0.  0.
         22    1    3    3    0    0  0.16184668197E+02 -0.35305684825E+02 -0.51177671223E+02  0.64246314271E+02  0.00000000000E+00 0. -1.
         22    1    4    4    0    0 -0.10616846717E+02  0.23516744752E+02  0.46151717098E+01  0.26211725008E+02  0.00000000000E+00 0.  1.
         22    1    4    4    0    0 -0.55678214794E+01  0.11788940072E+02  0.12730522989E+02  0.18222128296E+02  0.00000000000E+00 0.  1.
<mgrwt>
<rscale>  0 0.10328009E+03</rscale>
<asrwt>0</asrwt>
<pdfrwt beam="2">  1        2 0.10962473E-01 0.10328009E+03</pdfrwt>
<pdfrwt beam="1">  1       -2 0.57575532E-02 0.10328009E+03</pdfrwt>
<totfact> 0.78152668E+04</totfact>
</mgrwt>
</event>
<event>
 7    1  0.3480999E-009  0.8647841E+02  0.7818608E-02  0.1311611E+00
          2   -1    0    0  501    0  0.00000000000E+00  0.00000000000E+00  0.12224474632E+03  0.12224474635E+03  0.25500000000E-02 0. -1.
         -2   -1    0    0    0  501 -0.00000000000E+00 -0.00000000000E+00 -0.15294143394E+02  0.15294143607E+02  0.25500000000E-02 0.  1.
         23    2    1    2    0    0  0.00000000000E+00  0.35527136788E-14  0.10695060293E+03  0.13753888996E+03  0.86478406458E+02 0.  0.
    9000005    2    3    3    0    0 -0.16098762295E+01  0.23700673099E+02  0.11042281979E+03  0.11353118501E+03  0.11481168663E+02 0.  0.
         22    1    3    3    0    0  0.16098762295E+01 -0.23700673099E+02 -0.34722168572E+01  0.24007704945E+02  0.00000000000E+00 0.  1.
         22    1    4    4    0    0 -0.31044573796E+01  0.71504931525E+01  0.58420664260E+02  0.58938452818E+02  0.00000000000E+00 0. -1.
         22    1    4    4    0    0  0.14945811501E+01  0.16550179946E+02  0.52002155525E+02  0.54592732193E+02  0.00000000000E+00 0. -1.
<mgrwt>
<rscale>  0 0.86478406E+02</rscale>
<asrwt>0</asrwt>
<pdfrwt beam="1">  1        2 0.18806885E-01 0.86478406E+02</pdfrwt>
<pdfrwt beam="2">  1       -2 0.23529450E-02 0.86478406E+02</pdfrwt>
<totfact> 0.15086202E+05</totfact>
</mgrwt>
</event>
<event>
 7    1  0.3480999E-009  0.9011441E+02  0.7818608E-02  0.1302575E+00
         -2   -1    0    0    0  501 -0.00000000000E+00  0.00000000000E+00  0.25893273157E+02  0.25893273283E+02  0.25500000000E-02 0.  1.
          2   -1    0    0  501    0  0.00000000000E+00 -0.00000000000E+00 -0.78404597082E+02  0.78404597123E+02  0.25500000000E-02 0. -1.
         23    2    1    2    0    0  0.00000000000E+00  0.88817841970E-15 -0.52511323925E+02  0.10429787041E+03  0.90114408564E+02 0.  0.
    9000005    2    3    3    0    0  0.32099017718E+02  0.72444669963E+01 -0.61496063876E+02  0.70186951443E+02  0.78493974332E+01 0.  0.
         22    1    3    3    0    0 -0.32099017718E+02 -0.72444669963E+01  0.89847399512E+01  0.34110918963E+02  0.00000000000E+00 0.  1.
         22    1    4    4    0    0  0.97876852292E+00 -0.72151676782E+00 -0.64313060110E+00  0.13755694231E+01  0.00000000000E+00 0. -1.
         22    1    4    4    0    0  0.31120249195E+02  0.79659837641E+01 -0.60852933275E+02  0.68811382020E+02  0.00000000000E+00 0. -1.
<mgrwt>
<rscale>  0 0.90114409E+02</rscale>
<asrwt>0</asrwt>
<pdfrwt beam="2">  1        2 0.12062246E-01 0.90114409E+02</pdfrwt>
<pdfrwt beam="1">  1       -2 0.39835805E-02 0.90114409E+02</pdfrwt>
<totfact> 0.11797601E+05</totfact>
</mgrwt>
</event>
<event>
 7    1  0.3480999E-009  0.9282816E+02  0.7818608E-02  0.1296144E+00
         -2   -1    0    0    0  501 -0.00000000000E+00  0.00000000000E+00  0.59507169705E+02  0.59507169760E+02  0.25500000000E-02 0.  1.
          2   -1    0    0  501    0  0.00000000000E+00 -0.00000000000E+00 -0.36201806081E+02  0.36201806171E+02  0.25500000000E-02 0. -1.
         23    2    1    2    0    0  0.00000000000E+00  0.00000000000E+00  0.23305363624E+02  0.95708975931E+02  0.92828164369E+02 0.  0.
    9000005    2    3    3    0    0  0.32154233894E+02  0.32432632022E+02  0.18025941551E+02  0.49734606173E+02  0.79262920215E+01 0.  0.
         22    1    3    3    0    0 -0.32154233894E+02 -0.32432632022E+02  0.52794220727E+01  0.45974369758E+02  0.00000000000E+00 0.  1.
         22    1    4    4    0    0 -0.44847878937E+00  0.75701143010E+00  0.16554923546E+00  0.89532456639E+00  0.00000000000E+00 0.  1.
         22    1    4    4    0    0  0.32602712683E+02  0.31675620592E+02  0.17860392316E+02  0.48839281607E+02  0.00000000000E+00 0.  1.
<mgrwt>
<rscale>  0 0.92828164E+02</rscale>
<asrwt>0</asrwt>
<pdfrwt beam="2">  1        2 0.55695087E-02 0.92828164E+02</pdfrwt>
<pdfrwt beam="1">  1       -2 0.91549491E-02 0.92828164E+02</pdfrwt>
<totfact> 0.88192363E+04</totfact>
</mgrwt>
</event>
<event>
 7    1  0.3480999E-009  0.8889684E+02  0.7818608E-02  0.1305545E+00
          2   -1    0    0  501    0  0.00000000000E+00  0.00000000000E+00  0.76931819533E+02  0.76931819575E+02  0.25500000000E-02 0.  1.
         -2   -1    0    0    0  501 -0.00000000000E+00 -0.00000000000E+00 -0.25680687724E+02  0.25680687850E+02  0.25500000000E-02 0. -1.
         23    2    1    2    0    0  0.00000000000E+00  0.00000000000E+00  0.51251131809E+02  0.10261250743E+03  0.88896840036E+02 0.  0.
    9000005    2    3    3    0    0 -0.61029115617E+01  0.15705958142E+02  0.72368681739E+02  0.75596335125E+02  0.13916074770E+02 0.  0.
         22    1    3    3    0    0  0.61029115617E+01 -0.15705958142E+02 -0.21117549930E+02  0.27016172300E+02  0.00000000000E+00 0. -1.
         22    1    4    4    0    0 -0.20655447845E+01  0.12702313105E+02  0.26575367750E+02  0.29527367044E+02  0.00000000000E+00 0. -1.
         22    1    4    4    0    0 -0.40373667772E+01  0.30036450369E+01  0.45793313989E+02  0.46068968082E+02  0.00000000000E+00 0. -1.
<mgrwt>
<rscale>  0 0.88896840E+02</rscale>
<asrwt>0</asrwt>
<pdfrwt beam="1">  1        2 0.11835665E-01 0.88896840E+02</pdfrwt>
<pdfrwt beam="2">  1       -2 0.39508750E-02 0.88896840E+02</pdfrwt>
<totfact> 0.12185795E+05</totfact>
</mgrwt>
</event>
<event>
 7    1  0.3480999E-009  0.9083348E+02  0.7818608E-02  0.1300846E+00
         -2   -1    0    0    0  501 -0.00000000000E+00  0.00000000000E+00  0.98900596018E+01  0.98900599305E+01  0.25500000000E-02 0. -1.
          2   -1    0    0  501    0  0.00000000000E+00 -0.00000000000E+00 -0.20856094672E+03  0.20856094674E+03  0.25500000000E-02 0.  1.
         23    2    1    2    0    0  0.00000000000E+00  0.00000000000E+00 -0.19867088712E+03  0.21845100667E+03  0.90833479099E+02 0.  0.
    9000005    2    3    3    0    0  0.12990549492E+02 -0.34497516467E+02 -0.42226569473E+02  0.57722485420E+02  0.13782929118E+02 0.  0.
         22    1    3    3    0    0 -0.12990549492E+02  0.34497516467E+02 -0.15644431765E+03  0.16072852125E+03  0.00000000000E+00 0.  1.
         22    1    4    4    0    0 -0.17494234564E+01 -0.50303677773E+01 -0.11486118502E+02  0.12660805687E+02  0.00000000000E+00 0.  1.
         22    1    4    4    0    0  0.14739972949E+02 -0.29467148690E+02 -0.30740450971E+02  0.45061679733E+02  0.00000000000E+00 0.  1.
<mgrwt>
<rscale>  0 0.90833479E+02</rscale>
<asrwt>0</asrwt>
<pdfrwt beam="2">  1        2 0.32086296E-01 0.90833479E+02</pdfrwt>
<pdfrwt beam="1">  1       -2 0.15215478E-02 0.90833479E+02</pdfrwt>
<totfact> 0.15865044E+05</totfact>
</mgrwt>
</event>
<event>
 7    1  0.3480999E-009  0.8853091E+02  0.7818608E-02  0.1306449E+00
         -2   -1    0    0    0  501 -0.00000000000E+00  0.00000000000E+00  0.23756232534E+02  0.23756232671E+02  0.25500000000E-02 0. -1.
          2   -1    0    0  501    0  0.00000000000E+00 -0.00000000000E+00 -0.82480697865E+02  0.82480697905E+02  0.25500000000E-02 0.  1.
         23    2    1    2    0    0 -0.17763568394E-14 -0.17763568394E-14 -0.58724465331E+02  0.10623693058E+03  0.88530913187E+02 0.  0.
    9000005    2    3    3    0    0  0.12574458731E+02  0.12549059734E+02  0.17011869151E+02  0.28444975507E+02  0.14286953034E+02 0.  0.
         22    1    3    3    0    0 -0.12574458731E+02 -0.12549059734E+02 -0.75736334482E+02  0.77791955068E+02  0.00000000000E+00 0.  1.
         22    1    4    4    0    0  0.29596229435E+01  0.11427191327E+02  0.45166600923E+01  0.12638840453E+02  0.00000000000E+00 0. -1.
         22    1    4    4    0    0  0.96148357876E+01  0.11218684067E+01  0.12495209058E+02  0.15806135054E+02  0.00000000000E+00 0. -1.
<mgrwt>
<rscale>  0 0.88530913E+02</rscale>
<asrwt>0</asrwt>
<pdfrwt beam="2">  1        2 0.12689338E-01 0.88530913E+02</pdfrwt>
<pdfrwt beam="1">  1       -2 0.36548051E-02 0.88530913E+02</pdfrwt>
<totfact> 0.12570333E+05</totfact>
</mgrwt>
</event>
<event>
 7    1  0.3480999E-009  0.8993526E+02  0.7818608E-02  0.1303009E+00
         -2   -1    0    0    0  501 -0.00000000000E+00  0.00000000000E+00  0.67060694788E+02  0.67060694837E+02  0.25500000000E-02 0.  1.
          2   -1    0    0  501    0  0.00000000000E+00 -0.00000000000E+00 -0.30153096029E+02  0.30153096137E+02  0.25500000000E-02 0. -1.
         23    2    1    2    0    0  0.00000000000E+00  0.00000000000E+00  0.36907598759E+02  0.97213790974E+02  0.89935256209E+02 0.  0.
    9000005    2    3    3    0    0 -0.32190837294E+01  0.37094058002E+02  0.45499881486E+02  0.59001764574E+02  0.49636043775E+01 0.  0.
         22    1    3    3    0    0  0.32190837294E+01 -0.37094058002E+02 -0.85922827274E+01  0.38212026400E+02  0.00000000000E+00 0. -1.
         22    1    4    4    0    0 -0.34206151340E+01  0.28845348683E+02  0.38165461642E+02  0.47962039270E+02  0.00000000000E+00 0.  1.
         22    1    4    4    0    0  0.20153140461E+00  0.82487093192E+01  0.73344198440E+01  0.11039725304E+02  0.00000000000E+00 0.  1.
<mgrwt>
<rscale>  0 0.89935256E+02</rscale>
<asrwt>0</asrwt>
<pdfrwt beam="2">  1        2 0.46389379E-02 0.89935256E+02</pdfrwt>
<pdfrwt beam="1">  1       -2 0.10317030E-01 0.89935256E+02</pdfrwt>
<totfact> 0.92254397E+04</totfact>
</mgrwt>
</event>
<event>
 7    1  0.3480999E-009  0.9260478E+02  0.7818608E-02  0.1296664E+00
         -2   -1    0    0    0  501 -0.00000000000E+00  0.00000000000E+00  0.39301828884E+01  0.39301837157E+01  0.25500000000E-02 0.  1.
          2   -1    0    0  501    0  0.00000000000E+00 -0.00000000000E+00 -0.54549908552E+03  0.54549908552E+03  0.25500000000E-02 0. -1.
         23    2    1    2    0    0  0.71054273576E-14 -0.35527136788E-14 -0.54156890263E+03  0.54942926924E+03  0.92604781744E+02 0.  0.
    9000005    2    3    3    0    0  0.33615709774E+02 -0.28812089832E+02 -0.33938794840E+03  0.34245755446E+03  0.11525824310E+02 0.  0.
         22    1    3    3    0    0 -0.33615709774E+02  0.28812089832E+02 -0.20218095423E+03  0.20697171478E+03  0.00000000000E+00 0. -1.
         22    1    4    4    0    0  0.27729841797E+02 -0.25654627280E+02 -0.31142865759E+03  0.31371151206E+03  0.00000000000E+00 0.  1.
         22    1    4    4    0    0  0.58858679771E+01 -0.31574625526E+01 -0.27959290804E+02  0.28746042404E+02  0.00000000000E+00 0.  1.
<mgrwt>
<rscale>  0 0.92604782E+02</rscale>
<asrwt>0</asrwt>
<pdfrwt beam="2">  1        2 0.83922877E-01 0.92604782E+02</pdfrwt>
<pdfrwt beam="1">  1       -2 0.60464402E-03 0.92604782E+02</pdfrwt>
<totfact> 0.21258897E+05</totfact>
</mgrwt>
</event>
<event>
 7    1  0.3480999E-009  0.9153916E+02  0.7818608E-02  0.1299167E+00
          2   -1    0    0  501    0  0.00000000000E+00  0.00000000000E+00  0.18281835409E+03  0.18281835411E+03  0.25500000000E-02 0. -1.
         -2   -1    0    0    0  501 -0.00000000000E+00 -0.00000000000E+00 -0.11458666604E+02  0.11458666888E+02  0.25500000000E-02 0.  1.
         23    2    1    2    0    0  0.00000000000E+00  0.44408920985E-15  0.17135968749E+03  0.19427702100E+03  0.91539163159E+02 0.  0.
    9000005    2    3    3    0    0 -0.44284768098E+02 -0.36958410279E+01  0.92029324905E+02  0.10334789280E+03  0.15381494670E+02 0.  0.
         22    1    3    3    0    0  0.44284768098E+02  0.36958410279E+01  0.79330362581E+02  0.90929128192E+02  0.00000000000E+00 0. -1.
         22    1    4    4    0    0 -0.23133007710E+02 -0.73630493384E+01  0.60648725934E+02  0.65327012014E+02  0.00000000000E+00 0.  1.
         22    1    4    4    0    0 -0.21151760388E+02  0.36672083105E+01  0.31380598971E+02  0.38020880791E+02  0.00000000000E+00 0.  1.
<mgrwt>
<rscale>  0 0.91539163E+02</rscale>
<asrwt>0</asrwt>
<pdfrwt beam="1">  1        2 0.28125897E-01 0.91539163E+02</pdfrwt>
<pdfrwt beam="2">  1       -2 0.17628720E-02 0.91539163E+02</pdfrwt>
<totfact> 0.14817562E+05</totfact>
</mgrwt>
</event>
<event>
 7    1  0.3480999E-009  0.8604687E+02  0.7818608E-02  0.1312717E+00
         -2   -1    0    0    0  501 -0.00000000000E+00  0.00000000000E+00  0.23999410364E+02  0.23999410500E+02  0.25500000000E-02 0.  1.
          2   -1    0    0  501    0  0.00000000000E+00 -0.00000000000E+00 -0.77127555816E+02  0.77127555858E+02  0.25500000000E-02 0. -1.
         23    2    1    2    0    0 -0.35527136788E-14  0.00000000000E+00 -0.53128145452E+02  0.10112696636E+03  0.86046867959E+02 0.  0.
    9000005    2    3    3    0    0 -0.31076719725E+02  0.24519881427E+02 -0.43557204827E+02  0.60401176021E+02  0.13567788264E+02 0.  0.
         22    1    3    3    0    0  0.31076719725E+02 -0.24519881427E+02 -0.95709406246E+01  0.40725790336E+02  0.00000000000E+00 0.  1.
         22    1    4    4    0    0 -0.61310210362E+01  0.79057669983E+01 -0.40067594405E+01  0.10777044678E+02  0.00000000000E+00 0. -1.
         22    1    4    4    0    0 -0.24945698689E+02  0.16614114428E+02 -0.39550445386E+02  0.49624131343E+02  0.00000000000E+00 0. -1.
<mgrwt>
<rscale>  0 0.86046868E+02</rscale>
<asrwt>0</asrwt>
<pdfrwt beam="2">  1        2 0.11865778E-01 0.86046868E+02</pdfrwt>
<pdfrwt beam="1">  1       -2 0.36922170E-02 0.86046868E+02</pdfrwt>
<totfact> 0.13343454E+05</totfact>
</mgrwt>
</event>
<event>
 7    1  0.3480999E-009  0.9428136E+02  0.7818608E-02  0.1292803E+00
         -2   -1    0    0    0  501 -0.00000000000E+00  0.00000000000E+00  0.48942579942E+02  0.48942580008E+02  0.25500000000E-02 0.  1.
          2   -1    0    0  501    0  0.00000000000E+00 -0.00000000000E+00 -0.45405122208E+02  0.45405122279E+02  0.25500000000E-02 0. -1.
         23    2    1    2    0    0  0.00000000000E+00  0.00000000000E+00  0.35374577341E+01  0.94347702288E+02  0.94281362526E+02 0.  0.
    9000005    2    3    3    0    0  0.20486907634E+02  0.28370934198E+01 -0.40080262089E+02  0.46074853127E+02  0.94181844366E+01 0.  0.
         22    1    3    3    0    0 -0.20486907634E+02 -0.28370934198E+01  0.43617719823E+02  0.48272849160E+02  0.00000000000E+00 0.  1.
         22    1    4    4    0    0  0.31370002728E+01  0.33731234586E+01 -0.42777206307E+01  0.62863046675E+01  0.00000000000E+00 0.  1.
         22    1    4    4    0    0  0.17349907361E+02 -0.53603003879E+00 -0.35802541459E+02  0.39788548460E+02  0.00000000000E+00 0.  1.
<mgrwt>
<rscale>  0 0.94281363E+02</rscale>
<asrwt>0</asrwt>
<pdfrwt beam="2">  1        2 0.69854034E-02 0.94281363E+02</pdfrwt>
<pdfrwt beam="1">  1       -2 0.75296277E-02 0.94281363E+02</pdfrwt>
<totfact> 0.89501173E+04</totfact>
</mgrwt>
</event>
<event>
 7    1  0.3480999E-009  0.9171231E+02  0.7818608E-02  0.1298757E+00
         -2   -1    0    0    0  501 -0.00000000000E+00  0.00000000000E+00  0.20466354647E+03  0.20466354649E+03  0.25500000000E-02 0.  1.
          2   -1    0    0  501    0  0.00000000000E+00 -0.00000000000E+00 -0.10274359246E+02  0.10274359563E+02  0.25500000000E-02 0. -1.
         23    2    1    2    0    0  0.00000000000E+00  0.00000000000E+00  0.19438918723E+03  0.21493790605E+03  0.91712307502E+02 0.  0.
    9000005    2    3    3    0    0 -0.52597486046E+01  0.38840156035E+02  0.50586749453E+02  0.65889713222E+02  0.15691157129E+02 0.  0.
         22    1    3    3    0    0  0.52597486046E+01 -0.38840156035E+02  0.14380243777E+03  0.14904819283E+03  0.00000000000E+00 0.  1.
         22    1    4    4    0    0 -0.75637634290E+01  0.79725266081E+01  0.16723669453E+02  0.20011317240E+02  0.00000000000E+00 0.  1.
         22    1    4    4    0    0  0.23040148244E+01  0.30867629427E+02  0.33863080000E+02  0.45878395981E+02  0.00000000000E+00 0.  1.
<mgrwt>
<rscale>  0 0.91712308E+02</rscale>
<asrwt>0</asrwt>
<pdfrwt beam="2">  1        2 0.15806706E-02 0.91712308E+02</pdfrwt>
<pdfrwt beam="1">  1       -2 0.31486700E-01 0.91712308E+02</pdfrwt>
<totfact> 0.60778796E+04</totfact>
</mgrwt>
</event>
<event>
 7    1  0.3480999E-009  0.8429953E+02  0.7818608E-02  0.1317275E+00
          2   -1    0    0  501    0  0.00000000000E+00  0.00000000000E+00  0.26129551601E+03  0.26129551602E+03  0.25500000000E-02 0. -1.
         -2   -1    0    0    0  501 -0.00000000000E+00 -0.00000000000E+00 -0.67992079659E+01  0.67992084440E+01  0.25500000000E-02 0.  1.
         23    2    1    2    0    0  0.00000000000E+00  0.00000000000E+00  0.25449630804E+03  0.26809472446E+03  0.84299528341E+02 0.  0.
    9000005    2    3    3    0    0  0.23342369769E+01 -0.17533168687E+02  0.24850444782E+03  0.24941952553E+03  0.11948994078E+02 0.  0.
         22    1    3    3    0    0 -0.23342369769E+01  0.17533168687E+02  0.59918602179E+01  0.18675198937E+02  0.00000000000E+00 0.  1.
         22    1    4    4    0    0  0.63649083620E+01 -0.15637697762E+02  0.19938116712E+03  0.20009472620E+03  0.00000000000E+00 0.  1.
         22    1    4    4    0    0 -0.40306713851E+01 -0.18954709251E+01  0.49123280700E+02  0.49324799326E+02  0.00000000000E+00 0.  1.
<mgrwt>
<rscale>  0 0.84299528E+02</rscale>
<asrwt>0</asrwt>
<pdfrwt beam="1">  1        2 0.40199318E-01 0.84299528E+02</pdfrwt>
<pdfrwt beam="2">  1       -2 0.10460318E-02 0.84299528E+02</pdfrwt>
<totfact> 0.21025881E+05</totfact>
</mgrwt>
</event>
<event>
 7    1  0.3480999E-009  0.9237904E+02  0.7818608E-02  0.1297191E+00
          2   -1    0    0  501    0  0.00000000000E+00  0.00000000000E+00  0.15668366390E+03  0.15668366392E+03  0.25500000000E-02 0. -1.
         -2   -1    0    0    0  501 -0.00000000000E+00 -0.00000000000E+00 -0.13616427757E+02  0.13616427996E+02  0.25500000000E-02 0.  1.
         23    2    1    2    0    0  0.00000000000E+00  0.00000000000E+00  0.14306723614E+03  0.17030009192E+03  0.92379041179E+02 0.  0.
    9000005    2    3    3    0    0 -0.13060439145E+02 -0.42809181965E+02  0.56409050794E+02  0.72766291524E+02  0.10476213033E+02 0.  0.
         22    1    3    3    0    0  0.13060439145E+02  0.42809181965E+02  0.86658185347E+02  0.97533800391E+02  0.00000000000E+00 0.  1.
         22    1    4    4    0    0 -0.45131250986E+01 -0.31105727135E+02  0.40052833055E+02  0.50913298798E+02  0.00000000000E+00 0. -1.
         22    1    4    4    0    0 -0.85473140459E+01 -0.11703454830E+02  0.16356217739E+02  0.21852992726E+02  0.00000000000E+00 0. -1.
<mgrwt>
<rscale>  0 0.92379041E+02</rscale>
<asrwt>0</asrwt>
<pdfrwt beam="1">  1        2 0.24105180E-01 0.92379041E+02</pdfrwt>
<pdfrwt beam="2">  1       -2 0.20948350E-02 0.92379041E+02</pdfrwt>
<totfact> 0.13695056E+05</totfact>
</mgrwt>
</event>
<event>
 7    1  0.3480999E-009  0.1044506E+03  0.7818608E-02  0.1271206E+00
         -2   -1    0    0    0  501 -0.00000000000E+00  0.00000000000E+00  0.10650062906E+02  0.10650063211E+02  0.25500000000E-02 0.  1.
          2   -1    0    0  501    0  0.00000000000E+00 -0.00000000000E+00 -0.25609984484E+03  0.25609984486E+03  0.25500000000E-02 0. -1.
         23    2    1    2    0    0 -0.35527136788E-14 -0.35527136788E-14 -0.24544978194E+03  0.26674990807E+03  0.10445055290E+03 0.  0.
    9000005    2    3    3    0    0  0.26084308743E+02  0.31667066436E+02 -0.20471160273E+03  0.20893301171E+03  0.79352901975E+01 0.  0.
         22    1    3    3    0    0 -0.26084308743E+02 -0.31667066436E+02 -0.40738179205E+02  0.57816896355E+02  0.00000000000E+00 0.  1.
         22    1    4    4    0    0  0.20459865958E+02  0.22893580159E+02 -0.13505854872E+03  0.13850463425E+03  0.00000000000E+00 0.  1.
         22    1    4    4    0    0  0.56244427854E+01  0.87734862767E+01 -0.69653054014E+02  0.70428377459E+02  0.00000000000E+00 0.  1.
<mgrwt>
<rscale>  0 0.10445055E+03</rscale>
<asrwt>0</asrwt>
<pdfrwt beam="2">  1        2 0.39399972E-01 0.10445055E+03</pdfrwt>
<pdfrwt beam="1">  1       -2 0.16384714E-02 0.10445055E+03</pdfrwt>
<totfact> 0.11736066E+05</totfact>
</mgrwt>
</event>
<event>
 7    1  0.3480999E-009  0.9353257E+02  0.7818608E-02  0.1294516E+00
          2   -1    0    0  501    0  0.00000000000E+00  0.00000000000E+00  0.11599139538E+02  0.11599139818E+02  0.25500000000E-02 0.  1.
         -2   -1    0    0    0  501 -0.00000000000E+00 -0.00000000000E+00 -0.18855584390E+03  0.18855584392E+03  0.25500000000E-02 0. -1.
         23    2    1    2    0    0  0.00000000000E+00  0.00000000000E+00 -0.17695670437E+03  0.20015498374E+03  0.93532573446E+02 0.  0.
    9000005    2    3    3    0    0 -0.18013538343E+02  0.42726724722E+02 -0.82703475407E+02  0.95113412262E+02  0.75256746318E+01 0.  0.
         22    1    3    3    0    0  0.18013538343E+02 -0.42726724722E+02 -0.94253228960E+02  0.10504157148E+03  0.00000000000E+00 0.  1.
         22    1    4    4    0    0 -0.22903367069E+01  0.11829310142E+02 -0.17183490542E+02  0.20986914206E+02  0.00000000000E+00 0. -1.
         22    1    4    4    0    0 -0.15723201636E+02  0.30897414579E+02 -0.65519984865E+02  0.74126498057E+02  0.00000000000E+00 0. -1.
<mgrwt>
<rscale>  0 0.93532573E+02</rscale>
<asrwt>0</asrwt>
<pdfrwt beam="1">  1        2 0.17844832E-02 0.93532573E+02</pdfrwt>
<pdfrwt beam="2">  1       -2 0.29008589E-01 0.93532573E+02</pdfrwt>
<totfact> 0.59872278E+04</totfact>
</mgrwt>
</event>
<event>
 7    1  0.3480999E-009  0.9265510E+02  0.7818608E-02  0.1296546E+00
         -2   -1    0    0    0  501 -0.00000000000E+00  0.00000000000E+00  0.19587820617E+01  0.19587837215E+01  0.25500000000E-02 0.  1.
          2   -1    0    0  501    0  0.00000000000E+00 -0.00000000000E+00 -0.10957017661E+04  0.10957017661E+04  0.25500000000E-02 0. -1.
         23    2    1    2    0    0 -0.17763568394E-14  0.00000000000E+00 -0.10937429840E+04  0.10976605498E+04  0.92655099740E+02 0.  0.
    9000005    2    3    3    0    0 -0.11092022841E+02  0.23769911425E+02 -0.99723261467E+03  0.99764908520E+03  0.11948547421E+02 0.  0.
         22    1    3    3    0    0  0.11092022841E+02 -0.23769911425E+02 -0.96510369334E+02  0.10001146459E+03  0.00000000000E+00 0.  1.
         22    1    4    4    0    0 -0.10983318142E+02  0.95750718222E+01 -0.47362337971E+03  0.47384746605E+03  0.00000000000E+00 0. -1.
         22    1    4    4    0    0 -0.10870469913E+00  0.14194839603E+02 -0.52360923496E+03  0.52380161915E+03  0.00000000000E+00 0. -1.
<mgrwt>
<rscale>  0 0.92655100E+02</rscale>
<asrwt>0</asrwt>
<pdfrwt beam="2">  1        2 0.16856901E+00 0.92655100E+02</pdfrwt>
<pdfrwt beam="1">  1       -2 0.30135209E-03 0.92655100E+02</pdfrwt>
<totfact> 0.23983759E+05</totfact>
</mgrwt>
</event>
<event>
 7    1  0.3480999E-009  0.9125294E+02  0.7818608E-02  0.1299846E+00
          2   -1    0    0  501    0  0.00000000000E+00  0.00000000000E+00  0.59561301126E+03  0.59561301127E+03  0.25500000000E-02 0. -1.
         -2   -1    0    0    0  501 -0.00000000000E+00 -0.00000000000E+00 -0.34951797821E+01  0.34951807123E+01  0.25500000000E-02 0.  1.
         23    2    1    2    0    0  0.00000000000E+00  0.00000000000E+00  0.59211783148E+03  0.59910819198E+03  0.91252941546E+02 0.  0.
    9000005    2    3    3    0    0  0.28412637378E+02  0.34305259132E+02  0.34473010686E+03  0.34774229322E+03  0.10085987851E+02 0.  0.
         22    1    3    3    0    0 -0.28412637378E+02 -0.34305259132E+02  0.24738772462E+03  0.25136589876E+03  0.00000000000E+00 0.  1.
         22    1    4    4    0    0  0.68925746633E+01  0.12406920749E+02  0.14086503264E+03  0.14157823522E+03  0.00000000000E+00 0. -1.
         22    1    4    4    0    0  0.21520062715E+02  0.21898338383E+02  0.20386507423E+03  0.20616405800E+03  0.00000000000E+00 0. -1.
<mgrwt>
<rscale>  0 0.91252942E+02</rscale>
<asrwt>0</asrwt>
<pdfrwt beam="1">  1        2 0.91632737E-01 0.91252942E+02</pdfrwt>
<pdfrwt beam="2">  1       -2 0.53772024E-03 0.91252942E+02</pdfrwt>
<totfact> 0.22687393E+05</totfact>
</mgrwt>
</event>
<event>
 7    1  0.3480999E-009  0.9038524E+02  0.7818608E-02  0.1301921E+00
          2   -1    0    0  501    0  0.00000000000E+00  0.00000000000E+00  0.36096654701E+03  0.36096654702E+03  0.25500000000E-02 0.  1.
         -2   -1    0    0    0  501 -0.00000000000E+00 -0.00000000000E+00 -0.56580663941E+01  0.56580669687E+01  0.25500000000E-02 0. -1.
         23    2    1    2    0    0  0.00000000000E+00  0.00000000000E+00  0.35530848062E+03  0.36662461399E+03  0.90385237645E+02 0.  0.
    9000005    2    3    3    0    0 -0.15606697176E+02  0.23166460871E+02  0.32125212273E+03  0.32257816783E+03  0.85728701138E+01 0.  0.
         22    1    3    3    0    0  0.15606697176E+02 -0.23166460871E+02  0.34056357895E+02  0.44046446158E+02  0.00000000000E+00 0. -1.
         22    1    4    4    0    0 -0.53183781122E+01  0.14316577713E+02  0.14412792839E+03  0.14493484496E+03  0.00000000000E+00 0.  1.
         22    1    4    4    0    0 -0.10288319064E+02  0.88498831576E+01  0.17712419434E+03  0.17764332287E+03  0.00000000000E+00 0.  1.
<mgrwt>
<rscale>  0 0.90385238E+02</rscale>
<asrwt>0</asrwt>
<pdfrwt beam="1">  1        2 0.55533320E-01 0.90385238E+02</pdfrwt>
<pdfrwt beam="2">  1       -2 0.87047171E-03 0.90385238E+02</pdfrwt>
<totfact> 0.19685929E+05</totfact>
</mgrwt>
</event>
<event>
 7    1  0.5181859E-009  0.9087822E+02  0.7818608E-02  0.1300739E+00
          2   -1    0    0  501    0  0.00000000000E+00  0.00000000000E+00  0.52339434412E+03  0.52339434412E+03  0.25500000000E-02 0. -1.
         -2   -1    0    0    0  501 -0.00000000000E+00 -0.00000000000E+00 -0.39448504492E+01  0.39448512734E+01  0.25500000000E-02 0.  1.
         23    2    1    2    0    0  0.00000000000E+00  0.00000000000E+00  0.51944949367E+03  0.52733919540E+03  0.90878218126E+02 0.  0.
    9000005    2    3    3    0    0 -0.11833475907E+02  0.15620000328E+01  0.51376516816E+03  0.51411866013E+03  0.14861954384E+02 0.  0.
         22    1    3    3    0    0  0.11833475907E+02 -0.15620000328E+01  0.56843255080E+01  0.13220535262E+02  0.00000000000E+00 0.  1.
         22    1    4    4    0    0 -0.24931593846E+01  0.26436953986E+01  0.38245807084E+03  0.38247533374E+03  0.00000000000E+00 0. -1.
         22    1    4    4    0    0 -0.93403165220E+01 -0.10816953658E+01  0.13130709732E+03  0.13164332640E+03  0.00000000000E+00 0. -1.
<mgrwt>
<rscale>  0 0.90878218E+02</rscale>
<asrwt>0</asrwt>
<pdfrwt beam="1">  1        2 0.80522153E-01 0.90878218E+02</pdfrwt>
<pdfrwt beam="2">  1       -2 0.60690054E-03 0.90878218E+02</pdfrwt>
<totfact> 0.22058359E+05</totfact>
</mgrwt>
</event>
<event>
 7    1  0.3480999E-009  0.9078795E+02  0.7818608E-02  0.1300955E+00
         -2   -1    0    0    0  501 -0.00000000000E+00  0.00000000000E+00  0.31113216005E+01  0.31113226454E+01  0.25500000000E-02 0. -1.
          2   -1    0    0  501    0  0.00000000000E+00 -0.00000000000E+00 -0.66229493204E+03  0.66229493204E+03  0.25500000000E-02 0.  1.
         23    2    1    2    0    0  0.00000000000E+00 -0.17763568394E-14 -0.65918361044E+03  0.66540625469E+03  0.90787948038E+02 0.  0.
    9000005    2    3    3    0    0  0.23084337563E+02 -0.11735160484E+02 -0.60256244735E+03  0.60314425391E+03  0.55576458643E+01 0.  0.
         22    1    3    3    0    0 -0.23084337563E+02  0.11735160484E+02 -0.56621163082E+02  0.62262000779E+02  0.00000000000E+00 0. -1.
         22    1    4    4    0    0  0.17307527010E+02 -0.11189652987E+02 -0.48785627169E+03  0.48829140956E+03  0.00000000000E+00 0.  1.
         22    1    4    4    0    0  0.57768105535E+01 -0.54550749666E+00 -0.11470617567E+03  0.11485284435E+03  0.00000000000E+00 0.  1.
<mgrwt>
<rscale>  0 0.90787948E+02</rscale>
<asrwt>0</asrwt>
<pdfrwt beam="2">  1        2 0.10189142E+00 0.90787948E+02</pdfrwt>
<pdfrwt beam="1">  1       -2 0.47866547E-03 0.90787948E+02</pdfrwt>
<totfact> 0.23662731E+05</totfact>
</mgrwt>
</event>
<event>
 6    1  0.3480999E-009  0.1333149E+03  0.7818608E-02  0.1222618E+00
          2   -1    0    0  501    0  0.00000000000E+00  0.00000000000E+00  0.66540209999E+03  0.66540209999E+03  0.25500000000E-02 0. -1.
         -2   -1    0    0    0  501 -0.00000000000E+00 -0.00000000000E+00 -0.66774867495E+01  0.66774872364E+01  0.25500000000E-02 0.  1.
    9000005    2    1    2    0    0 -0.34604932335E+02 -0.56198608507E+02  0.33211510567E+03  0.33886860996E+03  0.13255431360E+02 0.  0.
         22    1    1    2    0    0  0.34604932335E+02  0.56198608507E+02  0.32660950757E+03  0.33321097727E+03  0.00000000000E+00 0.  1.
         22    1    3    3    0    0 -0.29946546357E+02 -0.45872196259E+02  0.29571387021E+03  0.30074531927E+03  0.00000000000E+00 0.  1.
         22    1    3    3    0    0 -0.46583859774E+01 -0.10326412249E+02  0.36401235459E+02  0.38123290686E+02  0.00000000000E+00 0.  1.
<mgrwt>
<rscale>  0 0.13331487E+03</rscale>
<asrwt>0</asrwt>
<pdfrwt beam="1">  1        2 0.10236956E+00 0.13331487E+03</pdfrwt>
<pdfrwt beam="2">  1       -2 0.10273056E-02 0.13331487E+03</pdfrwt>
<totfact> 0.84301834E+04</totfact>
</mgrwt>
</event>
<event>
 7    1  0.3480999E-009  0.9486125E+02  0.7818608E-02  0.1291489E+00
          2   -1    0    0  501    0  0.00000000000E+00  0.00000000000E+00  0.22448902199E+03  0.22448902200E+03  0.25500000000E-02 0. -1.
         -2   -1    0    0    0  501 -0.00000000000E+00 -0.00000000000E+00 -0.10021265172E+02  0.10021265496E+02  0.25500000000E-02 0.  1.
         23    2    1    2    0    0 -0.35527136788E-14 -0.17763568394E-14  0.21446775681E+03  0.23451028750E+03  0.94861247245E+02 0.  0.
    9000005    2    3    3    0    0 -0.22125919765E+02 -0.10512236920E+02  0.20744441711E+03  0.20902714108E+03  0.76873967910E+01 0.  0.
         22    1    3    3    0    0  0.22125919765E+02  0.10512236920E+02  0.70233397053E+01  0.25483146413E+02  0.00000000000E+00 0.  1.
         22    1    4    4    0    0 -0.93297155250E+01 -0.39519111531E+00  0.79876723281E+02  0.80420710578E+02  0.00000000000E+00 0.  1.
         22    1    4    4    0    0 -0.12796204240E+02 -0.10117045805E+02  0.12756769383E+03  0.12860643051E+03  0.00000000000E+00 0.  1.
<mgrwt>
<rscale>  0 0.94861247E+02</rscale>
<asrwt>0</asrwt>
<pdfrwt beam="1">  1        2 0.34536775E-01 0.94861247E+02</pdfrwt>
<pdfrwt beam="2">  1       -2 0.15417330E-02 0.94861247E+02</pdfrwt>
<totfact> 0.14500645E+05</totfact>
</mgrwt>
</event>
<event>
 7    1  0.3480999E-009  0.8246367E+02  0.7818608E-02  0.1322202E+00
         -2   -1    0    0    0  501 -0.00000000000E+00  0.00000000000E+00  0.17893091081E+03  0.17893091083E+03  0.25500000000E-02 0.  1.
          2   -1    0    0  501    0  0.00000000000E+00 -0.00000000000E+00 -0.95012324265E+01  0.95012327687E+01  0.25500000000E-02 0. -1.
         23    2    1    2    0    0 -0.17763568394E-14  0.00000000000E+00  0.16942967838E+03  0.18843214360E+03  0.82463669718E+02 0.  0.
    9000005    2    3    3    0    0  0.11414422308E+02  0.30447199634E+02  0.14180871036E+03  0.14576788599E+03  0.90136147800E+01 0.  0.
         22    1    3    3    0    0 -0.11414422308E+02 -0.30447199634E+02  0.27620968025E+02  0.42664257603E+02  0.00000000000E+00 0. -1.
         22    1    4    4    0    0  0.16994134432E+01  0.11342212203E+01  0.20061654581E+02  0.20165427056E+02  0.00000000000E+00 0.  1.
         22    1    4    4    0    0  0.97150088644E+01  0.29312978414E+02  0.12174705578E+03  0.12560245894E+03  0.00000000000E+00 0.  1.
<mgrwt>
<rscale>  0 0.82463670E+02</rscale>
<asrwt>0</asrwt>
<pdfrwt beam="2">  1        2 0.14617282E-02 0.82463670E+02</pdfrwt>
<pdfrwt beam="1">  1       -2 0.27527831E-01 0.82463670E+02</pdfrwt>
<totfact> 0.84273707E+04</totfact>
</mgrwt>
</event>
<event>
 7    1  0.3480999E-009  0.9412410E+02  0.7818608E-02  0.1293161E+00
         -2   -1    0    0    0  501 -0.00000000000E+00  0.00000000000E+00  0.14430463122E+03  0.14430463125E+03  0.25500000000E-02 0.  1.
          2   -1    0    0  501    0  0.00000000000E+00 -0.00000000000E+00 -0.15348341145E+02  0.15348341357E+02  0.25500000000E-02 0. -1.
         23    2    1    2    0    0 -0.17763568394E-14  0.00000000000E+00  0.12895629008E+03  0.15965297260E+03  0.94124103767E+02 0.  0.
    9000005    2    3    3    0    0  0.15363409728E+02  0.30077147027E+02  0.99728457077E+01  0.35968983476E+02  0.73240008925E+01 0.  0.
         22    1    3    3    0    0 -0.15363409728E+02 -0.30077147027E+02  0.11898344437E+03  0.12368398913E+03  0.00000000000E+00 0.  1.
         22    1    4    4    0    0  0.46222865288E+01  0.17017353140E+02  0.56274424607E+01  0.18510103978E+02  0.00000000000E+00 0.  1.
         22    1    4    4    0    0  0.10741123199E+02  0.13059793887E+02  0.43454032470E+01  0.17458879498E+02  0.00000000000E+00 0.  1.
<mgrwt>
<rscale>  0 0.94124104E+02</rscale>
<asrwt>0</asrwt>
<pdfrwt beam="2">  1        2 0.23612833E-02 0.94124104E+02</pdfrwt>
<pdfrwt beam="1">  1       -2 0.22200713E-01 0.94124104E+02</pdfrwt>
<totfact> 0.65357967E+04</totfact>
</mgrwt>
</event>
<event>
 7    1  0.3480999E-009  0.8961929E+02  0.7818608E-02  0.1303776E+00
          2   -1    0    0  501    0  0.00000000000E+00  0.00000000000E+00  0.11766792608E+03  0.11766792611E+03  0.25500000000E-02 0. -1.
         -2   -1    0    0    0  501 -0.00000000000E+00 -0.00000000000E+00 -0.17064159488E+02  0.17064159679E+02  0.25500000000E-02 0.  1.
         23    2    1    2    0    0  0.00000000000E+00 -0.11102230246E-15  0.10060376659E+03  0.13473208578E+03  0.89619289707E+02 0.  0.
    9000005    2    3    3    0    0  0.39368904942E+02 -0.88605837355E+00  0.82005163760E+02  0.91182070824E+02  0.62150929862E+01 0.  0.
         22    1    3    3    0    0 -0.39368904942E+02  0.88605837355E+00  0.18598602830E+02  0.43550014960E+02  0.00000000000E+00 0.  1.
         22    1    4    4    0    0  0.18196631094E+02  0.26248382221E+01  0.39277816687E+02  0.43367661253E+02  0.00000000000E+00 0. -1.
         22    1    4    4    0    0  0.21172273848E+02 -0.35108965956E+01  0.42727347073E+02  0.47814409572E+02  0.00000000000E+00 0. -1.
<mgrwt>
<rscale>  0 0.89619290E+02</rscale>
<asrwt>0</asrwt>
<pdfrwt beam="1">  1        2 0.18102758E-01 0.89619290E+02</pdfrwt>
<pdfrwt beam="2">  1       -2 0.26252553E-02 0.89619290E+02</pdfrwt>
<totfact> 0.13526963E+05</totfact>
</mgrwt>
</event>
<event>
 7    1  0.3480999E-009  0.9195262E+02  0.7818608E-02  0.1298191E+00
         -2   -1    0    0    0  501 -0.00000000000E+00  0.00000000000E+00  0.71418668131E+01  0.71418672683E+01  0.25500000000E-02 0.  1.
          2   -1    0    0  501    0  0.00000000000E+00 -0.00000000000E+00 -0.29597600546E+03  0.29597600547E+03  0.25500000000E-02 0. -1.
         23    2    1    2    0    0 -0.44408920985E-15  0.00000000000E+00 -0.28883413864E+03  0.30311787274E+03  0.91952624356E+02 0.  0.
    9000005    2    3    3    0    0  0.36848484867E+01 -0.33847428014E+02 -0.24575706411E+03  0.24821012427E+03  0.72460152745E+01 0.  0.
         22    1    3    3    0    0 -0.36848484867E+01  0.33847428014E+02 -0.43077074533E+02  0.54907748468E+02  0.00000000000E+00 0.  1.
         22    1    4    4    0    0  0.56911083364E+01 -0.29049858301E+02 -0.21085745096E+03  0.21292521600E+03  0.00000000000E+00 0.  1.
         22    1    4    4    0    0 -0.20062598496E+01 -0.47975697129E+01 -0.34899613146E+02  0.35284908268E+02  0.00000000000E+00 0.  1.
<mgrwt>
<rscale>  0 0.91952624E+02</rscale>
<asrwt>0</asrwt>
<pdfrwt beam="2">  1        2 0.45534761E-01 0.91952624E+02</pdfrwt>
<pdfrwt beam="1">  1       -2 0.10987490E-02 0.91952624E+02</pdfrwt>
<totfact> 0.17475745E+05</totfact>
</mgrwt>
</event>
<event>
 7    1  0.3480999E-009  0.9002250E+02  0.7818608E-02  0.1302797E+00
          2   -1    0    0  501    0  0.00000000000E+00  0.00000000000E+00  0.16443349293E+03  0.16443349295E+03  0.25500000000E-02 0.  1.
         -2   -1    0    0    0  501 -0.00000000000E+00 -0.00000000000E+00 -0.12321167687E+02  0.12321167950E+02  0.25500000000E-02 0. -1.
         23    2    1    2    0    0  0.00000000000E+00  0.00000000000E+00  0.15211232524E+03  0.17675466090E+03  0.90022500848E+02 0.  0.
    9000005    2    3    3    0    0  0.37410945912E+02 -0.13741363928E+02  0.38273044690E+02  0.56140458778E+02  0.99257848750E+01 0.  0.
         22    1    3    3    0    0 -0.37410945912E+02  0.13741363928E+02  0.11383928055E+03  0.12061420212E+03  0.00000000000E+00 0.  1.
         22    1    4    4    0    0  0.20774856876E+02 -0.76524240941E+01  0.27880813648E+02  0.35601882568E+02  0.00000000000E+00 0.  1.
         22    1    4    4    0    0  0.16636089035E+02 -0.60889398340E+01  0.10392231042E+02  0.20538576210E+02  0.00000000000E+00 0.  1.
<mgrwt>
<rscale>  0 0.90022501E+02</rscale>
<asrwt>0</asrwt>
<pdfrwt beam="1">  1        2 0.25297459E-01 0.90022501E+02</pdfrwt>
<pdfrwt beam="2">  1       -2 0.18955644E-02 0.90022501E+02</pdfrwt>
<totfact> 0.14935031E+05</totfact>
</mgrwt>
</event>
<event>
 7    1  0.3480999E-009  0.8843819E+02  0.7818608E-02  0.1306679E+00
          2   -1    0    0  501    0  0.00000000000E+00  0.00000000000E+00  0.17078356068E+02  0.17078356259E+02  0.25500000000E-02 0.  1.
         -2   -1    0    0    0  501 -0.00000000000E+00 -0.00000000000E+00 -0.11449160987E+03  0.11449160990E+03  0.25500000000E-02 0. -1.
         23    2    1    2    0    0  0.00000000000E+00  0.35527136788E-14 -0.97413253804E+02  0.13156996616E+03  0.88438192985E+02 0.  0.
    9000005    2    3    3    0    0 -0.35265176797E+02 -0.24246215229E+02 -0.32745268137E+02  0.54023463867E+02  0.38432298194E+01 0.  0.
         22    1    3    3    0    0  0.35265176797E+02  0.24246215229E+02 -0.64667985667E+02  0.77546502292E+02  0.00000000000E+00 0. -1.
         22    1    4    4    0    0 -0.77653461123E+01 -0.52754764614E+01 -0.92585984565E+01  0.13185328874E+02  0.00000000000E+00 0.  1.
         22    1    4    4    0    0 -0.27499830684E+02 -0.18970738768E+02 -0.23486669680E+02  0.40838134993E+02  0.00000000000E+00 0.  1.
<mgrwt>
<rscale>  0 0.88438193E+02</rscale>
<asrwt>0</asrwt>
<pdfrwt beam="1">  1        2 0.26274395E-02 0.88438193E+02</pdfrwt>
<pdfrwt beam="2">  1       -2 0.17614093E-01 0.88438193E+02</pdfrwt>
<totfact> 0.82629839E+04</totfact>
</mgrwt>
</event>
<event>
 7    1  0.6589217E-009  0.8984754E+02  0.7818608E-02  0.1303221E+00
         -2   -1    0    0    0  501 -0.00000000000E+00  0.00000000000E+00  0.14234798876E+02  0.14234799104E+02  0.25500000000E-02 0.  1.
          2   -1    0    0  501    0  0.00000000000E+00 -0.00000000000E+00 -0.14177546362E+03  0.14177546364E+03  0.25500000000E-02 0. -1.
         23    2    1    2    0    0  0.00000000000E+00  0.00000000000E+00 -0.12754066474E+03  0.15601026275E+03  0.89847542642E+02 0.  0.
    9000005    2    3    3    0    0  0.30226864864E+02  0.86259713917E+01 -0.13572638484E+02  0.37786822805E+02  0.15986141509E+02 0.  0.
         22    1    3    3    0    0 -0.30226864864E+02 -0.86259713917E+01 -0.11396802626E+03  0.11822343994E+03  0.00000000000E+00 0. -1.
         22    1    4    4    0    0  0.27961625162E+02  0.10081578885E+02 -0.67899832758E+01  0.30489253638E+02  0.00000000000E+00 0. -1.
         22    1    4    4    0    0  0.22652397023E+01 -0.14556074931E+01 -0.67826552083E+01  0.72975691677E+01  0.00000000000E+00 0. -1.
<mgrwt>
<rscale>  0 0.89847543E+02</rscale>
<asrwt>0</asrwt>
<pdfrwt beam="2">  1        2 0.21811609E-01 0.89847543E+02</pdfrwt>
<pdfrwt beam="1">  1       -2 0.21899692E-02 0.89847543E+02</pdfrwt>
<totfact> 0.14275023E+05</totfact>
</mgrwt>
</event>
<event>
 7    1  0.3480999E-009  0.9186244E+02  0.7818608E-02  0.1298403E+00
          2   -1    0    0  501    0  0.00000000000E+00  0.00000000000E+00  0.20963959026E+03  0.20963959027E+03  0.25500000000E-02 0. -1.
         -2   -1    0    0    0  501 -0.00000000000E+00 -0.00000000000E+00 -0.10063351054E+02  0.10063351377E+02  0.25500000000E-02 0.  1.
         23    2    1    2    0    0  0.00000000000E+00  0.35527136788E-14  0.19957623920E+03  0.21970294165E+03  0.91862436909E+02 0.  0.
    9000005    2    3    3    0    0  0.16571136301E+02 -0.29608862998E+02  0.17225442653E+03  0.17613955365E+03  0.14222080497E+02 0.  0.
         22    1    3    3    0    0 -0.16571136301E+02  0.29608862998E+02  0.27321812671E+02  0.43563387999E+02  0.00000000000E+00 0.  1.
         22    1    4    4    0    0  0.95117900997E+01 -0.23737712527E+02  0.14824250436E+03  0.15043202201E+03  0.00000000000E+00 0. -1.
         22    1    4    4    0    0  0.70593462018E+01 -0.58711504711E+01  0.24011922176E+02  0.25707531645E+02  0.00000000000E+00 0. -1.
<mgrwt>
<rscale>  0 0.91862437E+02</rscale>
<asrwt>0</asrwt>
<pdfrwt beam="1">  1        2 0.32252243E-01 0.91862437E+02</pdfrwt>
<pdfrwt beam="2">  1       -2 0.15482079E-02 0.91862437E+02</pdfrwt>
<totfact> 0.15420241E+05</totfact>
</mgrwt>
</event>
<event>
 7    1  0.3480999E-009  0.9223863E+02  0.7818608E-02  0.1297519E+00
         -2   -1    0    0    0  501 -0.00000000000E+00  0.00000000000E+00  0.18460904256E+02  0.18460904432E+02  0.25500000000E-02 0.  1.
          2   -1    0    0  501    0  0.00000000000E+00 -0.00000000000E+00 -0.11521597476E+03  0.11521597479E+03  0.25500000000E-02 0. -1.
         23    2    1    2    0    0  0.00000000000E+00  0.00000000000E+00 -0.96755070508E+02  0.13367687922E+03  0.92238627321E+02 0.  0.
    9000005    2    3    3    0    0 -0.17483757755E+01 -0.45525276271E+02 -0.42263790600E+02  0.62649369178E+02  0.79440458916E+01 0.  0.
         22    1    3    3    0    0  0.17483757755E+01  0.45525276271E+02 -0.54491279908E+02  0.71027510046E+02  0.00000000000E+00 0.  1.
         22    1    4    4    0    0 -0.36103818919E+01 -0.12642495757E+02 -0.97478228617E+01  0.16367272434E+02  0.00000000000E+00 0.  1.
         22    1    4    4    0    0  0.18620061164E+01 -0.32882780513E+02 -0.32515967739E+02  0.46282096744E+02  0.00000000000E+00 0.  1.
<mgrwt>
<rscale>  0 0.92238627E+02</rscale>
<asrwt>0</asrwt>
<pdfrwt beam="2">  1        2 0.17725534E-01 0.92238627E+02</pdfrwt>
<pdfrwt beam="1">  1       -2 0.28401392E-02 0.92238627E+02</pdfrwt>
<totfact> 0.12418606E+05</totfact>
</mgrwt>
</event>
<event>
 7    1  0.3480999E-009  0.9050013E+02  0.7818608E-02  0.1301645E+00
         -2   -1    0    0    0  501 -0.00000000000E+00  0.00000000000E+00  0.17390981339E+02  0.17390981526E+02  0.25500000000E-02 0.  1.
          2   -1    0    0  501    0  0.00000000000E+00 -0.00000000000E+00 -0.11773736743E+03  0.11773736746E+03  0.25500000000E-02 0. -1.
         23    2    1    2    0    0  0.00000000000E+00  0.17763568394E-14 -0.10034638609E+03  0.13512834899E+03  0.90500129820E+02 0.  0.
    9000005    2    3    3    0    0  0.23357437746E+02  0.93813188507E+01 -0.10581330933E+03  0.10937050957E+03  0.11483592272E+02 0.  0.
         22    1    3    3    0    0 -0.23357437746E+02 -0.93813188507E+01  0.54669232377E+01  0.25757839411E+02  0.00000000000E+00 0.  1.
         22    1    4    4    0    0  0.19989212708E+02  0.95868466471E+01 -0.70672908952E+02  0.74068456937E+02  0.00000000000E+00 0.  1.
         22    1    4    4    0    0  0.33682250384E+01 -0.20552779639E+00 -0.35140400379E+02  0.35302052637E+02  0.00000000000E+00 0.  1.
<mgrwt>
<rscale>  0 0.90500130E+02</rscale>
<asrwt>0</asrwt>
<pdfrwt beam="2">  1        2 0.18113441E-01 0.90500130E+02</pdfrwt>
<pdfrwt beam="1">  1       -2 0.26755357E-02 0.90500130E+02</pdfrwt>
<totfact> 0.13173187E+05</totfact>
</mgrwt>
</event>
<event>
 7    1  0.3480999E-009  0.9113377E+02  0.7818608E-02  0.1300129E+00
         -2   -1    0    0    0  501 -0.00000000000E+00  0.00000000000E+00  0.45560905370E+01  0.45560912506E+01  0.25500000000E-02 0.  1.
          2   -1    0    0  501    0  0.00000000000E+00 -0.00000000000E+00 -0.45572865572E+03  0.45572865573E+03  0.25500000000E-02 0. -1.
         23    2    1    2    0    0  0.00000000000E+00  0.00000000000E+00 -0.45117256519E+03  0.46028474698E+03  0.91133773798E+02 0.  0.
    9000005    2    3    3    0    0 -0.38216197628E+02 -0.14591053542E+02 -0.32348168424E+03  0.32620142333E+03  0.96742926846E+01 0.  0.
         22    1    3    3    0    0  0.38216197628E+02  0.14591053542E+02 -0.12769088095E+03  0.13408332365E+03  0.00000000000E+00 0.  1.
         22    1    4    4    0    0 -0.57963737280E+01 -0.61138230161E+01 -0.74506248051E+02  0.74981049466E+02  0.00000000000E+00 0.  1.
         22    1    4    4    0    0 -0.32419823900E+02 -0.84772305256E+01 -0.24897543619E+03  0.25122037387E+03  0.00000000000E+00 0.  1.
<mgrwt>
<rscale>  0 0.91133774E+02</rscale>
<asrwt>0</asrwt>
<pdfrwt beam="2">  1        2 0.70112065E-01 0.91133774E+02</pdfrwt>
<pdfrwt beam="1">  1       -2 0.70093742E-03 0.91133774E+02</pdfrwt>
<totfact> 0.20920345E+05</totfact>
</mgrwt>
</event>
<event>
 7    1  0.3480999E-009  0.9471590E+02  0.7818608E-02  0.1291817E+00
         -2   -1    0    0    0  501 -0.00000000000E+00  0.00000000000E+00  0.26562068729E+02  0.26562068851E+02  0.25500000000E-02 0.  1.
          2   -1    0    0  501    0  0.00000000000E+00 -0.00000000000E+00 -0.84435274673E+02  0.84435274711E+02  0.25500000000E-02 0. -1.
         23    2    1    2    0    0 -0.71054273576E-14  0.00000000000E+00 -0.57873205944E+02  0.11099734356E+03  0.94715903161E+02 0.  0.
    9000005    2    3    3    0    0 -0.32478564127E+02  0.18653530131E+02  0.38748740605E+01  0.38777978442E+02  0.92685300330E+01 0.  0.
         22    1    3    3    0    0  0.32478564127E+02 -0.18653530131E+02 -0.61748080005E+02  0.72219365120E+02  0.00000000000E+00 0.  1.
         22    1    4    4    0    0  0.19371403409E+00 -0.61947127350E+00  0.11162815487E+00  0.65858228844E+00  0.00000000000E+00 0. -1.
         22    1    4    4    0    0 -0.32672278161E+02  0.19273001405E+02  0.37632459056E+01  0.38119396154E+02  0.00000000000E+00 0. -1.
<mgrwt>
<rscale>  0 0.94715903E+02</rscale>
<asrwt>0</asrwt>
<pdfrwt beam="2">  1        2 0.12990042E-01 0.94715903E+02</pdfrwt>
<pdfrwt beam="1">  1       -2 0.40864721E-02 0.94715903E+02</pdfrwt>
<totfact> 0.10492411E+05</totfact>
</mgrwt>
</event>
<event>
 7    1  0.3480999E-009  0.9001088E+02  0.7818608E-02  0.1302825E+00
          2   -1    0    0  501    0  0.00000000000E+00  0.00000000000E+00  0.77326345309E+02  0.77326345351E+02  0.25500000000E-02 0. -1.
         -2   -1    0    0    0  501 -0.00000000000E+00 -0.00000000000E+00 -0.26194045051E+02  0.26194045175E+02  0.25500000000E-02 0.  1.
         23    2    1    2    0    0  0.44408920985E-15  0.17763568394E-14  0.51132300258E+02  0.10352039053E+03  0.90010883370E+02 0.  0.
    9000005    2    3    3    0    0  0.22344885177E+01 -0.15425646459E+02  0.73955733467E+02  0.75882506906E+02  0.67646754523E+01 0.  0.
         22    1    3    3    0    0 -0.22344885177E+01  0.15425646459E+02 -0.22823433209E+02  0.27637883621E+02  0.00000000000E+00 0.  1.
         22    1    4    4    0    0  0.34528527829E+01 -0.68018466022E+01  0.45117509639E+02  0.45757807919E+02  0.00000000000E+00 0.  1.
         22    1    4    4    0    0 -0.12183642652E+01 -0.86237998567E+01  0.28838223829E+02  0.30124698987E+02  0.00000000000E+00 0.  1.
<mgrwt>
<rscale>  0 0.90010883E+02</rscale>
<asrwt>0</asrwt>
<pdfrwt beam="1">  1        2 0.11896360E-01 0.90010883E+02</pdfrwt>
<pdfrwt beam="2">  1       -2 0.40298532E-02 0.90010883E+02</pdfrwt>
<totfact> 0.11789084E+05</totfact>
</mgrwt>
</event>
<event>
 7    1  0.3480999E-009  0.8586554E+02  0.7818608E-02  0.1313184E+00
          2   -1    0    0  501    0  0.00000000000E+00  0.00000000000E+00  0.57429131390E+03  0.57429131390E+03  0.25500000000E-02 0. -1.
         -2   -1    0    0    0  501 -0.00000000000E+00 -0.00000000000E+00 -0.32095598204E+01  0.32095608334E+01  0.25500000000E-02 0.  1.
         23    2    1    2    0    0  0.00000000000E+00  0.00000000000E+00  0.57108175408E+03  0.57750087474E+03  0.85865537218E+02 0.  0.
    9000005    2    3    3    0    0 -0.18623375481E+02  0.35307014899E+02  0.37646529193E+03  0.37883285327E+03  0.13957050988E+02 0.  0.
         22    1    3    3    0    0  0.18623375481E+02 -0.35307014899E+02  0.19461646215E+03  0.19866802147E+03  0.00000000000E+00 0.  1.
         22    1    4    4    0    0 -0.56711991278E+01  0.19278424415E+02  0.13467821228E+03  0.13616916321E+03  0.00000000000E+00 0.  1.
         22    1    4    4    0    0 -0.12952176353E+02  0.16028590484E+02  0.24178707965E+03  0.24266369006E+03  0.00000000000E+00 0.  1.
<mgrwt>
<rscale>  0 0.85865537E+02</rscale>
<asrwt>0</asrwt>
<pdfrwt beam="1">  1        2 0.88352420E-01 0.85865537E+02</pdfrwt>
<pdfrwt beam="2">  1       -2 0.49377901E-03 0.85865537E+02</pdfrwt>
<totfact> 0.26350635E+05</totfact>
</mgrwt>
</event>
<event>
 7    1  0.4002792E-009  0.9077528E+02  0.7818608E-02  0.1300985E+00
         -2   -1    0    0    0  501 -0.00000000000E+00  0.00000000000E+00  0.26615135591E+02  0.26615135713E+02  0.25500000000E-02 0.  1.
          2   -1    0    0  501    0  0.00000000000E+00 -0.00000000000E+00 -0.77400992777E+02  0.77400992819E+02  0.25500000000E-02 0. -1.
         23    2    1    2    0    0 -0.71054273576E-14  0.00000000000E+00 -0.50785857186E+02  0.10401612853E+03  0.90775281353E+02 0.  0.
    9000005    2    3    3    0    0 -0.37013727103E+02  0.55150837082E+01  0.14302207003E+01  0.39774779448E+02  0.13399828602E+02 0.  0.
         22    1    3    3    0    0  0.37013727103E+02 -0.55150837082E+01 -0.52216077887E+02  0.64241349084E+02  0.00000000000E+00 0. -1.
         22    1    4    4    0    0 -0.26861857855E+02  0.91771833771E+01  0.40378820016E+01  0.28672017599E+02  0.00000000000E+00 0.  1.
         22    1    4    4    0    0 -0.10151869248E+02 -0.36620996689E+01 -0.26076613014E+01  0.11102761849E+02  0.00000000000E+00 0.  1.
<mgrwt>
<rscale>  0 0.90775281E+02</rscale>
<asrwt>0</asrwt>
<pdfrwt beam="2">  1        2 0.11907845E-01 0.90775281E+02</pdfrwt>
<pdfrwt beam="1">  1       -2 0.40946363E-02 0.90775281E+02</pdfrwt>
<totfact> 0.11518599E+05</totfact>
</mgrwt>
</event>
<event>
 7    1  0.3480999E-009  0.9011909E+02  0.7818608E-02  0.1302564E+00
         -2   -1    0    0    0  501 -0.00000000000E+00  0.00000000000E+00  0.15705951814E+02  0.15705952021E+02  0.25500000000E-02 0.  1.
          2   -1    0    0  501    0  0.00000000000E+00 -0.00000000000E+00 -0.12927346404E+03  0.12927346406E+03  0.25500000000E-02 0. -1.
         23    2    1    2    0    0  0.00000000000E+00  0.00000000000E+00 -0.11356751222E+03  0.14497941608E+03  0.90119094841E+02 0.  0.
    9000005    2    3    3    0    0  0.41120953152E+02  0.16827047621E+02 -0.54976651774E+02  0.71447305764E+02  0.10402064259E+02 0.  0.
         22    1    3    3    0    0 -0.41120953152E+02 -0.16827047621E+02 -0.58590860447E+02  0.73532110317E+02  0.00000000000E+00 0.  1.
         22    1    4    4    0    0  0.98180338891E+01  0.44849109899E+01 -0.70649027511E+01  0.12900428943E+02  0.00000000000E+00 0.  1.
         22    1    4    4    0    0  0.31302919263E+02  0.12342136631E+02 -0.47911749023E+02  0.58546876821E+02  0.00000000000E+00 0.  1.
<mgrwt>
<rscale>  0 0.90119095E+02</rscale>
<asrwt>0</asrwt>
<pdfrwt beam="2">  1        2 0.19888225E-01 0.90119095E+02</pdfrwt>
<pdfrwt beam="1">  1       -2 0.24163004E-02 0.90119095E+02</pdfrwt>
<totfact> 0.13733110E+05</totfact>
</mgrwt>
</event>
<event>
 7    1  0.3480999E-009  0.9105762E+02  0.7818608E-02  0.1300311E+00
          2   -1    0    0  501    0  0.00000000000E+00  0.00000000000E+00  0.33603263042E+02  0.33603263139E+02  0.25500000000E-02 0. -1.
         -2   -1    0    0    0  501 -0.00000000000E+00 -0.00000000000E+00 -0.61686645001E+02  0.61686645053E+02  0.25500000000E-02 0.  1.
         23    2    1    2    0    0  0.00000000000E+00  0.00000000000E+00 -0.28083381959E+02  0.95289908192E+02  0.91057620554E+02 0.  0.
    9000005    2    3    3    0    0  0.39880752996E+02  0.58996194279E+01 -0.33336900643E+02  0.54634288317E+02  0.15756793661E+02 0.  0.
         22    1    3    3    0    0 -0.39880752996E+02 -0.58996194279E+01  0.52535186845E+01  0.40655619875E+02  0.00000000000E+00 0. -1.
         22    1    4    4    0    0  0.27475903623E+02  0.67194788680E+00 -0.30157384125E+02  0.40802507412E+02  0.00000000000E+00 0. -1.
         22    1    4    4    0    0  0.12404849372E+02  0.52276715411E+01 -0.31795165182E+01  0.13831780904E+02  0.00000000000E+00 0. -1.
<mgrwt>
<rscale>  0 0.91057621E+02</rscale>
<asrwt>0</asrwt>
<pdfrwt beam="1">  1        2 0.51697328E-02 0.91057621E+02</pdfrwt>
<pdfrwt beam="2">  1       -2 0.94902531E-02 0.91057621E+02</pdfrwt>
<totfact> 0.91512015E+04</totfact>
</mgrwt>
</event>
<event>
 7    1  0.3480999E-009  0.9083267E+02  0.7818608E-02  0.1300848E+00
         -2   -1    0    0    0  501 -0.00000000000E+00  0.00000000000E+00  0.62898351920E+01  0.62898357089E+01  0.25500000000E-02 0.  1.
          2   -1    0    0  501    0  0.00000000000E+00 -0.00000000000E+00 -0.32793283888E+03  0.32793283889E+03  0.25500000000E-02 0. -1.
         23    2    1    2    0    0  0.00000000000E+00  0.00000000000E+00 -0.32164300368E+03  0.33422267459E+03  0.90832672505E+02 0.  0.
    9000005    2    3    3    0    0 -0.71561057807E+01 -0.35078696681E+02 -0.26282130092E+03  0.26536254443E+03  0.77793930393E+01 0.  0.
         22    1    3    3    0    0  0.71561057807E+01  0.35078696681E+02 -0.58821702759E+02  0.68860130164E+02  0.00000000000E+00 0.  1.
         22    1    4    4    0    0 -0.40048837848E+01 -0.17518612285E+02 -0.15987296693E+03  0.16087978875E+03  0.00000000000E+00 0. -1.
         22    1    4    4    0    0 -0.31512219959E+01 -0.17560084395E+02 -0.10294833399E+03  0.10448275568E+03  0.00000000000E+00 0. -1.
<mgrwt>
<rscale>  0 0.90832673E+02</rscale>
<asrwt>0</asrwt>
<pdfrwt beam="2">  1        2 0.50451193E-01 0.90832673E+02</pdfrwt>
<pdfrwt beam="1">  1       -2 0.96766725E-03 0.90832673E+02</pdfrwt>
<totfact> 0.18757457E+05</totfact>
</mgrwt>
</event>
<event>
 7    1  0.3480999E-009  0.9099047E+02  0.7818608E-02  0.1300471E+00
         -2   -1    0    0    0  501 -0.00000000000E+00  0.00000000000E+00  0.19479412623E+02  0.19479412790E+02  0.25500000000E-02 0.  1.
          2   -1    0    0  501    0  0.00000000000E+00 -0.00000000000E+00 -0.10625661873E+03  0.10625661876E+03  0.25500000000E-02 0. -1.
         23    2    1    2    0    0  0.00000000000E+00  0.00000000000E+00 -0.86777206102E+02  0.12573603155E+03  0.90990472743E+02 0.  0.
    9000005    2    3    3    0    0 -0.24421941467E+02 -0.36474982775E+02 -0.29431686363E+02  0.53518552861E+02  0.84353864549E+01 0.  0.
         22    1    3    3    0    0  0.24421941467E+02  0.36474982775E+02 -0.57345519739E+02  0.72217478685E+02  0.00000000000E+00 0. -1.
         22    1    4    4    0    0 -0.23561194596E+02 -0.33535101307E+02 -0.24608874859E+02  0.47805121402E+02  0.00000000000E+00 0.  1.
         22    1    4    4    0    0 -0.86074687072E+00 -0.29398814688E+01 -0.48228115045E+01  0.57134314588E+01  0.00000000000E+00 0.  1.
<mgrwt>
<rscale>  0 0.90990473E+02</rscale>
<asrwt>0</asrwt>
<pdfrwt beam="2">  1        2 0.16347172E-01 0.90990473E+02</pdfrwt>
<pdfrwt beam="1">  1       -2 0.29968328E-02 0.90990473E+02</pdfrwt>
<totfact> 0.12568862E+05</totfact>
</mgrwt>
</event>
<event>
 7    1  0.3480999E-009  0.9073574E+02  0.7818608E-02  0.1301080E+00
         -2   -1    0    0    0  501 -0.00000000000E+00  0.00000000000E+00  0.48498480142E+01  0.48498486845E+01  0.25500000000E-02 0.  1.
          2   -1    0    0  501    0  0.00000000000E+00 -0.00000000000E+00 -0.42439335650E+03  0.42439335651E+03  0.25500000000E-02 0. -1.
         23    2    1    2    0    0 -0.88817841970E-15  0.00000000000E+00 -0.41954350849E+03  0.42924320520E+03  0.90735735469E+02 0.  0.
    9000005    2    3    3    0    0  0.59865614141E+01 -0.32214314188E+02 -0.35637481649E+03  0.35808222849E+03  0.12094278786E+02 0.  0.
         22    1    3    3    0    0 -0.59865614141E+01  0.32214314188E+02 -0.63168692002E+02  0.71160976703E+02  0.00000000000E+00 0.  1.
         22    1    4    4    0    0  0.28436174786E+01 -0.11013549301E+02 -0.71170350881E+02  0.72073596227E+02  0.00000000000E+00 0. -1.
         22    1    4    4    0    0  0.31429439354E+01 -0.21200764887E+02 -0.28520446561E+03  0.28600863227E+03  0.00000000000E+00 0. -1.
<mgrwt>
<rscale>  0 0.90735735E+02</rscale>
<asrwt>0</asrwt>
<pdfrwt beam="2">  1        2 0.65291256E-01 0.90735735E+02</pdfrwt>
<pdfrwt beam="1">  1       -2 0.74613085E-03 0.90735735E+02</pdfrwt>
<totfact> 0.20649318E+05</totfact>
</mgrwt>
</event>
<event>
 7    1  0.3480999E-009  0.9131011E+02  0.7818608E-02  0.1299710E+00
          2   -1    0    0  501    0  0.00000000000E+00  0.00000000000E+00  0.51331954664E+02  0.51331954727E+02  0.25500000000E-02 0. -1.
         -2   -1    0    0    0  501 -0.00000000000E+00 -0.00000000000E+00 -0.40605977651E+02  0.40605977731E+02  0.25500000000E-02 0.  1.
         23    2    1    2    0    0  0.17763568394E-14  0.00000000000E+00  0.10725977013E+02  0.91937932458E+02  0.91310113579E+02 0.  0.
    9000005    2    3    3    0    0 -0.13337476173E+02 -0.35665775080E+02 -0.19876414009E+02  0.43086708124E+02  0.33847895592E+01 0.  0.
         22    1    3    3    0    0  0.13337476173E+02  0.35665775080E+02  0.30602391022E+02  0.48851224335E+02  0.00000000000E+00 0. -1.
         22    1    4    4    0    0 -0.21375932716E+01 -0.71342454321E+01 -0.25181897517E+01  0.78618091115E+01  0.00000000000E+00 0.  1.
         22    1    4    4    0    0 -0.11199882902E+02 -0.28531529648E+02 -0.17358224257E+02  0.35224899012E+02  0.00000000000E+00 0.  1.
<mgrwt>
<rscale>  0 0.91310114E+02</rscale>
<asrwt>0</asrwt>
<pdfrwt beam="1">  1        2 0.78972237E-02 0.91310114E+02</pdfrwt>
<pdfrwt beam="2">  1       -2 0.62470735E-02 0.91310114E+02</pdfrwt>
<totfact> 0.10135247E+05</totfact>
</mgrwt>
</event>
<event>
 7    1  0.3480999E-009  0.9035985E+02  0.7818608E-02  0.1301983E+00
         -2   -1    0    0    0  501 -0.00000000000E+00  0.00000000000E+00  0.59744627656E+01  0.59744633097E+01  0.25500000000E-02 0.  1.
          2   -1    0    0  501    0  0.00000000000E+00 -0.00000000000E+00 -0.34165843494E+03  0.34165843495E+03  0.25500000000E-02 0. -1.
         23    2    1    2    0    0 -0.35527136788E-14  0.00000000000E+00 -0.33568397217E+03  0.34763289826E+03  0.90359851579E+02 0.  0.
    9000005    2    3    3    0    0  0.24976700137E+02 -0.36415216154E+02 -0.15253644574E+03  0.15923725086E+03  0.11799629967E+02 0.  0.
         22    1    3    3    0    0 -0.24976700137E+02  0.36415216154E+02 -0.18314752644E+03  0.18839564740E+03  0.00000000000E+00 0. -1.
         22    1    4    4    0    0  0.55295691982E+01 -0.32037190290E+01 -0.12930315866E+02  0.14423349802E+02  0.00000000000E+00 0. -1.
         22    1    4    4    0    0  0.19447130939E+02 -0.33211497125E+02 -0.13960612987E+03  0.14481390106E+03  0.00000000000E+00 0. -1.
<mgrwt>
<rscale>  0 0.90359852E+02</rscale>
<asrwt>0</asrwt>
<pdfrwt beam="2">  1        2 0.52562821E-01 0.90359852E+02</pdfrwt>
<pdfrwt beam="1">  1       -2 0.91914842E-03 0.90359852E+02</pdfrwt>
<totfact> 0.19308873E+05</totfact>
</mgrwt>
</event>
<event>
 7    1  0.3480999E-009  0.8226977E+02  0.7818608E-02  0.1322731E+00
         -2   -1    0    0    0  501 -0.00000000000E+00  0.00000000000E+00  0.24564331140E+01  0.24564344375E+01  0.25500000000E-02 0.  1.
          2   -1    0    0  501    0  0.00000000000E+00 -0.00000000000E+00 -0.68883542656E+03  0.68883542656E+03  0.25500000000E-02 0. -1.
         23    2    1    2    0    0 -0.71054273576E-14  0.44408920985E-15 -0.68637899344E+03  0.69129186100E+03  0.82269766281E+02 0.  0.
    9000005    2    3    3    0    0 -0.33265094248E+02  0.36207960776E+01 -0.53715521540E+03  0.53836242435E+03  0.13367792042E+02 0.  0.
         22    1    3    3    0    0  0.33265094248E+02 -0.36207960776E+01 -0.14922377805E+03  0.15292943665E+03  0.00000000000E+00 0.  1.
         22    1    4    4    0    0 -0.99976519188E+01 -0.88825607518E-01 -0.26522763284E+03  0.26541600961E+03  0.00000000000E+00 0.  1.
         22    1    4    4    0    0 -0.23267442329E+02  0.37096216851E+01 -0.27192758255E+03  0.27294641474E+03  0.00000000000E+00 0.  1.
<mgrwt>
<rscale>  0 0.82269766E+02</rscale>
<asrwt>0</asrwt>
<pdfrwt beam="2">  1        2 0.10597453E+00 0.82269766E+02</pdfrwt>
<pdfrwt beam="1">  1       -2 0.37791344E-03 0.82269766E+02</pdfrwt>
<totfact> 0.30938850E+05</totfact>
</mgrwt>
</event>
<event>
 7    1  0.3480999E-009  0.9101347E+02  0.7818608E-02  0.1300416E+00
         -2   -1    0    0    0  501 -0.00000000000E+00  0.00000000000E+00  0.54276344873E+01  0.54276350863E+01  0.25500000000E-02 0.  1.
          2   -1    0    0  501    0  0.00000000000E+00 -0.00000000000E+00 -0.38154060571E+03  0.38154060572E+03  0.25500000000E-02 0. -1.
         23    2    1    2    0    0  0.00000000000E+00  0.00000000000E+00 -0.37611297122E+03  0.38696824080E+03  0.91013473011E+02 0.  0.
    9000005    2    3    3    0    0  0.42860116825E+02  0.90637784170E+01 -0.23592609796E+03  0.24009584337E+03  0.81085517056E+01 0.  0.
         22    1    3    3    0    0 -0.42860116825E+02 -0.90637784170E+01 -0.14018687326E+03  0.14687239743E+03  0.00000000000E+00 0.  1.
         22    1    4    4    0    0  0.15793512632E+02  0.12608951118E+00 -0.72233084456E+02  0.73939633687E+02  0.00000000000E+00 0. -1.
         22    1    4    4    0    0  0.27066604193E+02  0.89376889059E+01 -0.16369301351E+03  0.16615620969E+03  0.00000000000E+00 0. -1.
<mgrwt>
<rscale>  0 0.91013473E+02</rscale>
<asrwt>0</asrwt>
<pdfrwt beam="2">  1        2 0.58698534E-01 0.91013473E+02</pdfrwt>
<pdfrwt beam="1">  1       -2 0.83502103E-03 0.91013473E+02</pdfrwt>
<totfact> 0.19719778E+05</totfact>
</mgrwt>
</event>
<event>
 7    1  0.3480999E-009  0.8776542E+02  0.7818608E-02  0.1308355E+00
          2   -1    0    0  501    0  0.00000000000E+00  0.00000000000E+00  0.24772463620E+02  0.24772463751E+02  0.25500000000E-02 0. -1.
         -2   -1    0    0    0  501 -0.00000000000E+00 -0.00000000000E+00 -0.77735198909E+02  0.77735198951E+02  0.25500000000E-02 0.  1.
         23    2    1    2    0    0  0.00000000000E+00  0.00000000000E+00 -0.52962735290E+02  0.10250766270E+03  0.87765423620E+02 0.  0.
    9000005    2    3    3    0    0  0.18288329372E+02 -0.27649768962E+02 -0.59414490284E+02  0.68734924327E+02  0.97691070034E+01 0.  0.
         22    1    3    3    0    0 -0.18288329372E+02  0.27649768962E+02  0.64517549945E+01  0.33772738375E+02  0.00000000000E+00 0. -1.
         22    1    4    4    0    0  0.59239274987E+01 -0.73236142971E+01 -0.26483664447E+02  0.28108943878E+02  0.00000000000E+00 0. -1.
         22    1    4    4    0    0  0.12364401873E+02 -0.20326154665E+02 -0.32930825837E+02  0.40625980449E+02  0.00000000000E+00 0. -1.
<mgrwt>
<rscale>  0 0.87765424E+02</rscale>
<asrwt>0</asrwt>
<pdfrwt beam="1">  1        2 0.38111483E-02 0.87765424E+02</pdfrwt>
<pdfrwt beam="2">  1       -2 0.11959261E-01 0.87765424E+02</pdfrwt>
<totfact> 0.94159026E+04</totfact>
</mgrwt>
</event>
<event>
 7    1  0.3480999E-009  0.9733846E+02  0.7818608E-02  0.1285994E+00
          2   -1    0    0  501    0  0.00000000000E+00  0.00000000000E+00  0.73677999402E+02  0.73677999446E+02  0.25500000000E-02 0. -1.
         -2   -1    0    0    0  501 -0.00000000000E+00 -0.00000000000E+00 -0.32149268149E+02  0.32149268250E+02  0.25500000000E-02 0.  1.
         23    2    1    2    0    0  0.00000000000E+00  0.00000000000E+00  0.41528731253E+02  0.10582726770E+03  0.97338456268E+02 0.  0.
    9000005    2    3    3    0    0 -0.49804936455E+01  0.47358799375E+02  0.24101254723E+02  0.55118509740E+02  0.13766569710E+02 0.  0.
         22    1    3    3    0    0  0.49804936455E+01 -0.47358799375E+02  0.17427476530E+02  0.50708757956E+02  0.00000000000E+00 0. -1.
         22    1    4    4    0    0  0.44209881772E+01  0.85462477633E+01  0.51816425887E+01  0.10928536371E+02  0.00000000000E+00 0. -1.
         22    1    4    4    0    0 -0.94014818227E+01  0.38812551612E+02  0.18919612134E+02  0.44189973369E+02  0.00000000000E+00 0. -1.
<mgrwt>
<rscale>  0 0.97338456E+02</rscale>
<asrwt>0</asrwt>
<pdfrwt beam="1">  1        2 0.11335077E-01 0.97338456E+02</pdfrwt>
<pdfrwt beam="2">  1       -2 0.49460413E-02 0.97338456E+02</pdfrwt>
<totfact> 0.93385760E+04</totfact>
</mgrwt>
</event>
<event>
 7    1  0.3480999E-009  0.8200183E+02  0.7818608E-02  0.1323465E+00
          2   -1    0    0  501    0  0.00000000000E+00  0.00000000000E+00  0.49948303116E+02  0.49948303181E+02  0.25500000000E-02 0. -1.
         -2   -1    0    0    0  501 -0.00000000000E+00 -0.00000000000E+00 -0.33656300093E+02  0.33656300190E+02  0.25500000000E-02 0.  1.
         23    2    1    2    0    0  0.00000000000E+00  0.17763568394E-14  0.16292003023E+02  0.83604603370E+02  0.82001831335E+02 0.  0.
    9000005    2    3    3    0    0 -0.34550615581E+02  0.14377323495E+02  0.24198829047E+02  0.45355807759E+02  0.84328822039E+01 0.  0.
         22    1    3    3    0    0  0.34550615581E+02 -0.14377323495E+02 -0.79068260246E+01  0.38248795611E+02  0.00000000000E+00 0.  1.
         22    1    4    4    0    0 -0.12224806053E+02  0.92574951136E+01  0.79535395613E+01  0.17274428800E+02  0.00000000000E+00 0. -1.
         22    1    4    4    0    0 -0.22325809528E+02  0.51198283818E+01  0.16245289486E+02  0.28081378959E+02  0.00000000000E+00 0. -1.
<mgrwt>
<rscale>  0 0.82001831E+02</rscale>
<asrwt>0</asrwt>
<pdfrwt beam="1">  1        2 0.76843544E-02 0.82001831E+02</pdfrwt>
<pdfrwt beam="2">  1       -2 0.51778923E-02 0.82001831E+02</pdfrwt>
<totfact> 0.13629880E+05</totfact>
</mgrwt>
</event>
<event>
 7    1  0.3480999E-009  0.9226594E+02  0.7818608E-02  0.1297455E+00
         -2   -1    0    0    0  501 -0.00000000000E+00  0.00000000000E+00  0.12991934439E+03  0.12991934441E+03  0.25500000000E-02 0.  1.
          2   -1    0    0  501    0  0.00000000000E+00 -0.00000000000E+00 -0.16381322868E+02  0.16381323067E+02  0.25500000000E-02 0. -1.
         23    2    1    2    0    0  0.00000000000E+00  0.44408920985E-15  0.11353802152E+03  0.14630066748E+03  0.92265936154E+02 0.  0.
    9000005    2    3    3    0    0  0.45767299179E+02 -0.33827964085E+01  0.55321230525E+02  0.72170486450E+02  0.64847191159E+01 0.  0.
         22    1    3    3    0    0 -0.45767299179E+02  0.33827964085E+01  0.58216790993E+02  0.74130181028E+02  0.00000000000E+00 0. -1.
         22    1    4    4    0    0  0.19841543257E+02  0.12696897040E+01  0.26450235918E+02  0.33089483690E+02  0.00000000000E+00 0. -1.
         22    1    4    4    0    0  0.25925755922E+02 -0.46524861125E+01  0.28870994607E+02  0.39081002760E+02  0.00000000000E+00 0. -1.
<mgrwt>
<rscale>  0 0.92265936E+02</rscale>
<asrwt>0</asrwt>
<pdfrwt beam="2">  1        2 0.25202035E-02 0.92265936E+02</pdfrwt>
<pdfrwt beam="1">  1       -2 0.19987591E-01 0.92265936E+02</pdfrwt>
<totfact> 0.71297249E+04</totfact>
</mgrwt>
</event>
<event>
 7    1  0.3480999E-009  0.9212545E+02  0.7818608E-02  0.1297785E+00
         -2   -1    0    0    0  501 -0.00000000000E+00  0.00000000000E+00  0.10922815001E+03  0.10922815004E+03  0.25500000000E-02 0.  1.
          2   -1    0    0  501    0  0.00000000000E+00 -0.00000000000E+00 -0.19425163079E+02  0.19425163246E+02  0.25500000000E-02 0. -1.
         23    2    1    2    0    0  0.00000000000E+00  0.00000000000E+00  0.89802986929E+02  0.12865331328E+03  0.92125450108E+02 0.  0.
    9000005    2    3    3    0    0 -0.85245881584E+01  0.42562266654E+02  0.25029305451E+02  0.50679952717E+02  0.76010742671E+01 0.  0.
         22    1    3    3    0    0  0.85245881584E+01 -0.42562266654E+02  0.64773681478E+02  0.77973360568E+02  0.00000000000E+00 0.  1.
         22    1    4    4    0    0  0.13708567755E+01  0.60413544002E+01  0.42418239599E+01  0.75080145041E+01  0.00000000000E+00 0.  1.
         22    1    4    4    0    0 -0.98954449339E+01  0.36520912254E+02  0.20787481491E+02  0.43171938213E+02  0.00000000000E+00 0.  1.
<mgrwt>
<rscale>  0 0.92125450E+02</rscale>
<asrwt>0</asrwt>
<pdfrwt beam="2">  1        2 0.29884866E-02 0.92125450E+02</pdfrwt>
<pdfrwt beam="1">  1       -2 0.16804331E-01 0.92125450E+02</pdfrwt>
<totfact> 0.75708596E+04</totfact>
</mgrwt>
</event>
<event>
 7    1  0.3480999E-009  0.9060115E+02  0.7818608E-02  0.1301402E+00
          2   -1    0    0  501    0  0.00000000000E+00  0.00000000000E+00  0.14425424287E+02  0.14425424513E+02  0.25500000000E-02 0. -1.
         -2   -1    0    0    0  501 -0.00000000000E+00 -0.00000000000E+00 -0.14225869963E+03  0.14225869966E+03  0.25500000000E-02 0.  1.
         23    2    1    2    0    0  0.00000000000E+00  0.35527136788E-14 -0.12783327535E+03  0.15668412417E+03  0.90601150549E+02 0.  0.
    9000005    2    3    3    0    0  0.33540193337E+02  0.27833267423E+02 -0.53532479127E+02  0.70543287957E+02  0.14525625968E+02 0.  0.
         22    1    3    3    0    0 -0.33540193337E+02 -0.27833267423E+02 -0.74300796220E+02  0.86140836213E+02  0.00000000000E+00 0. -1.
         22    1    4    4    0    0  0.59471456773E+01  0.12747475279E+02 -0.21177048531E+02  0.25423100759E+02  0.00000000000E+00 0.  1.
         22    1    4    4    0    0  0.27593047660E+02  0.15085792143E+02 -0.32355430596E+02  0.45120187198E+02  0.00000000000E+00 0.  1.
<mgrwt>
<rscale>  0 0.90601151E+02</rscale>
<asrwt>0</asrwt>
<pdfrwt beam="1">  1        2 0.22192962E-02 0.90601151E+02</pdfrwt>
<pdfrwt beam="2">  1       -2 0.21885953E-01 0.90601151E+02</pdfrwt>
<totfact> 0.72345453E+04</totfact>
</mgrwt>
</event>
<event>
 7    1  0.3480999E-009  0.8943117E+02  0.7818608E-02  0.1304235E+00
         -2   -1    0    0    0  501 -0.00000000000E+00  0.00000000000E+00  0.97366278399E+01  0.97366281738E+01  0.25500000000E-02 0.  1.
          2   -1    0    0  501    0  0.00000000000E+00 -0.00000000000E+00 -0.20535686625E+03  0.20535686626E+03  0.25500000000E-02 0. -1.
         23    2    1    2    0    0  0.00000000000E+00  0.00000000000E+00 -0.19562023841E+03  0.21509349444E+03  0.89431167243E+02 0.  0.
    9000005    2    3    3    0    0  0.30968671486E+02  0.23725743695E+02 -0.55094529387E+02  0.69253018495E+02  0.15446807914E+02 0.  0.
         22    1    3    3    0    0 -0.30968671486E+02 -0.23725743695E+02 -0.14052570902E+03  0.14584047594E+03  0.00000000000E+00 0. -1.
         22    1    4    4    0    0  0.14580935103E+02  0.35454478695E+01 -0.27593572858E+02  0.31409857245E+02  0.00000000000E+00 0. -1.
         22    1    4    4    0    0  0.16387736383E+02  0.20180295825E+02 -0.27500956529E+02  0.37843161249E+02  0.00000000000E+00 0. -1.
<mgrwt>
<rscale>  0 0.89431167E+02</rscale>
<asrwt>0</asrwt>
<pdfrwt beam="2">  1        2 0.31593361E-01 0.89431167E+02</pdfrwt>
<pdfrwt beam="1">  1       -2 0.14979429E-02 0.89431167E+02</pdfrwt>
<totfact> 0.16449062E+05</totfact>
</mgrwt>
</event>
<event>
 7    1  0.3480999E-009  0.9130525E+02  0.7818608E-02  0.1299721E+00
         -2   -1    0    0    0  501 -0.00000000000E+00  0.00000000000E+00  0.18934254097E+01  0.18934271269E+01  0.25500000000E-02 0.  1.
          2   -1    0    0  501    0  0.00000000000E+00 -0.00000000000E+00 -0.11007357662E+04  0.11007357662E+04  0.25500000000E-02 0. -1.
         23    2    1    2    0    0  0.00000000000E+00  0.00000000000E+00 -0.10988423408E+04  0.11026291934E+04  0.91305246672E+02 0.  0.
    9000005    2    3    3    0    0  0.17869027076E+02 -0.90163390297E+01 -0.10442330201E+04  0.10444675702E+04  0.94503151130E+01 0.  0.
         22    1    3    3    0    0 -0.17869027076E+02  0.90163390297E+01 -0.54609320760E+02  0.58161623189E+02  0.00000000000E+00 0.  1.
         22    1    4    4    0    0  0.70473551915E+01 -0.23321458726E+01 -0.19823786970E+03  0.19837680586E+03  0.00000000000E+00 0.  1.
         22    1    4    4    0    0  0.10821671884E+02 -0.66841931571E+01 -0.84599515035E+03  0.84609076430E+03  0.00000000000E+00 0.  1.
<mgrwt>
<rscale>  0 0.91305247E+02</rscale>
<asrwt>0</asrwt>
<pdfrwt beam="2">  1        2 0.16934345E+00 0.91305247E+02</pdfrwt>
<pdfrwt beam="1">  1       -2 0.29129723E-03 0.91305247E+02</pdfrwt>
<totfact> 0.24925941E+05</totfact>
</mgrwt>
</event>
<event>
 7    1  0.3480999E-009  0.9234729E+02  0.7818608E-02  0.1297265E+00
         -2   -1    0    0    0  501 -0.00000000000E+00  0.00000000000E+00  0.10464422200E+02  0.10464422510E+02  0.25500000000E-02 0.  1.
          2   -1    0    0  501    0  0.00000000000E+00 -0.00000000000E+00 -0.20373848099E+03  0.20373848100E+03  0.25500000000E-02 0. -1.
         23    2    1    2    0    0  0.00000000000E+00  0.35527136788E-14 -0.19327405879E+03  0.21420290351E+03  0.92347290558E+02 0.  0.
    9000005    2    3    3    0    0 -0.10229013215E+02  0.23654092921E+02 -0.18511301845E+03  0.18717048959E+03  0.10090279982E+02 0.  0.
         22    1    3    3    0    0  0.10229013215E+02 -0.23654092921E+02 -0.81610403393E+01  0.27032413926E+02  0.00000000000E+00 0.  1.
         22    1    4    4    0    0 -0.35573603287E+00  0.11569924898E+02 -0.96770681798E+02  0.97460528246E+02  0.00000000000E+00 0. -1.
         22    1    4    4    0    0 -0.98732771821E+01  0.12084168022E+02 -0.88342336652E+02  0.89709961343E+02  0.00000000000E+00 0. -1.
<mgrwt>
<rscale>  0 0.92347291E+02</rscale>
<asrwt>0</asrwt>
<pdfrwt beam="2">  1        2 0.31344379E-01 0.92347291E+02</pdfrwt>
<pdfrwt beam="1">  1       -2 0.16099113E-02 0.92347291E+02</pdfrwt>
<totfact> 0.15045793E+05</totfact>
</mgrwt>
</event>
<event>
 7    1  0.3480999E-009  0.9149924E+02  0.7818608E-02  0.1299261E+00
         -2   -1    0    0    0  501 -0.00000000000E+00  0.00000000000E+00  0.22465506149E+02  0.22465506294E+02  0.25500000000E-02 0. -1.
          2   -1    0    0  501    0  0.00000000000E+00 -0.00000000000E+00 -0.93166275066E+02  0.93166275101E+02  0.25500000000E-02 0.  1.
         23    2    1    2    0    0  0.35527136788E-14  0.00000000000E+00 -0.70700768916E+02  0.11563178139E+03  0.91499235752E+02 0.  0.
    9000005    2    3    3    0    0  0.30363433735E+02 -0.30821377636E+02 -0.18247932849E+02  0.47637697541E+02  0.80291809191E+01 0.  0.
         22    1    3    3    0    0 -0.30363433735E+02  0.30821377636E+02 -0.52452836067E+02  0.67994083853E+02  0.00000000000E+00 0.  1.
         22    1    4    4    0    0  0.21713363733E+01  0.57743527583E-01 -0.60307813859E+00  0.22542713240E+01  0.00000000000E+00 0. -1.
         22    1    4    4    0    0  0.28192097362E+02 -0.30879121163E+02 -0.17644854710E+02  0.45383426217E+02  0.00000000000E+00 0. -1.
<mgrwt>
<rscale>  0 0.91499236E+02</rscale>
<asrwt>0</asrwt>
<pdfrwt beam="2">  1        2 0.14333273E-01 0.91499236E+02</pdfrwt>
<pdfrwt beam="1">  1       -2 0.34562318E-02 0.91499236E+02</pdfrwt>
<totfact> 0.11891975E+05</totfact>
</mgrwt>
</event>
<event>
 7    1  0.3480999E-009  0.9100082E+02  0.7818608E-02  0.1300446E+00
          2   -1    0    0  501    0  0.00000000000E+00  0.00000000000E+00  0.14417725594E+03  0.14417725596E+03  0.25500000000E-02 0. -1.
         -2   -1    0    0    0  501 -0.00000000000E+00 -0.00000000000E+00 -0.14359319453E+02  0.14359319679E+02  0.25500000000E-02 0.  1.
         23    2    1    2    0    0  0.00000000000E+00  0.00000000000E+00  0.12981793648E+03  0.15853657564E+03  0.91000819678E+02 0.  0.
    9000005    2    3    3    0    0  0.41958326476E+02  0.86877003673E+01  0.48360081992E+02  0.66496587824E+02  0.15720094263E+02 0.  0.
         22    1    3    3    0    0 -0.41958326476E+02 -0.86877003673E+01  0.81457854492E+02  0.92039987814E+02  0.00000000000E+00 0. -1.
         22    1    4    4    0    0  0.26730529872E+02  0.12428586930E+02  0.36005565078E+02  0.46533769639E+02  0.00000000000E+00 0.  1.
         22    1    4    4    0    0  0.15227796604E+02 -0.37408865622E+01  0.12354516914E+02  0.19962818185E+02  0.00000000000E+00 0.  1.
<mgrwt>
<rscale>  0 0.91000820E+02</rscale>
<asrwt>0</asrwt>
<pdfrwt beam="1">  1        2 0.22181117E-01 0.91000820E+02</pdfrwt>
<pdfrwt beam="2">  1       -2 0.22091260E-02 0.91000820E+02</pdfrwt>
<totfact> 0.13867488E+05</totfact>
</mgrwt>
</event>
<event>
 7    1  0.3480999E-009  0.8637685E+02  0.7818608E-02  0.1311871E+00
         -2   -1    0    0    0  501 -0.00000000000E+00  0.00000000000E+00  0.30520500693E+01  0.30520511346E+01  0.25500000000E-02 0. -1.
          2   -1    0    0  501    0  0.00000000000E+00 -0.00000000000E+00 -0.61114322065E+03  0.61114322065E+03  0.25500000000E-02 0.  1.
         23    2    1    2    0    0  0.00000000000E+00  0.22204460493E-15 -0.60809117058E+03  0.61419527179E+03  0.86376849624E+02 0.  0.
    9000005    2    3    3    0    0 -0.35882770878E+02 -0.15902932365E+01 -0.46770996345E+03  0.46929190539E+03  0.13862910083E+02 0.  0.
         22    1    3    3    0    0  0.35882770878E+02  0.15902932365E+01 -0.14038120713E+03  0.14490336639E+03  0.00000000000E+00 0. -1.
         22    1    4    4    0    0 -0.92573818176E+01 -0.45423685932E+01 -0.80741626530E+02  0.81397435373E+02  0.00000000000E+00 0. -1.
         22    1    4    4    0    0 -0.26625389060E+02  0.29520753567E+01 -0.38696833692E+03  0.38789447002E+03  0.00000000000E+00 0. -1.
<mgrwt>
<rscale>  0 0.86376850E+02</rscale>
<asrwt>0</asrwt>
<pdfrwt beam="2">  1        2 0.94021937E-01 0.86376850E+02</pdfrwt>
<pdfrwt beam="1">  1       -2 0.46954673E-03 0.86376850E+02</pdfrwt>
<totfact> 0.26407742E+05</totfact>
</mgrwt>
</event>
<event>
 7    1  0.3480999E-009  0.8812374E+02  0.7818608E-02  0.1307460E+00
         -2   -1    0    0    0  501 -0.00000000000E+00  0.00000000000E+00  0.10278207366E+02  0.10278207682E+02  0.25500000000E-02 0. -1.
          2   -1    0    0  501    0  0.00000000000E+00 -0.00000000000E+00 -0.18888978295E+03  0.18888978296E+03  0.25500000000E-02 0.  1.
         23    2    1    2    0    0  0.00000000000E+00  0.00000000000E+00 -0.17861157558E+03  0.19916799065E+03  0.88123740085E+02 0.  0.
    9000005    2    3    3    0    0  0.22286250777E+02  0.15185952463E+02 -0.16771809481E+03  0.17008263266E+03  0.84529568259E+01 0.  0.
         22    1    3    3    0    0 -0.22286250777E+02 -0.15185952463E+02 -0.10893480766E+02  0.29085357984E+02  0.00000000000E+00 0. -1.
         22    1    4    4    0    0  0.21302788512E+02  0.14976101906E+02 -0.16639754231E+03  0.16842278502E+03  0.00000000000E+00 0. -1.
         22    1    4    4    0    0  0.98346226482E+00  0.20985055640E+00 -0.13205525067E+01  0.16598476452E+01  0.00000000000E+00 0. -1.
<mgrwt>
<rscale>  0 0.88123740E+02</rscale>
<asrwt>0</asrwt>
<pdfrwt beam="2">  1        2 0.29059964E-01 0.88123740E+02</pdfrwt>
<pdfrwt beam="1">  1       -2 0.15812628E-02 0.88123740E+02</pdfrwt>
<totfact> 0.16606250E+05</totfact>
</mgrwt>
</event>
<event>
 7    1  0.3480999E-009  0.9518609E+02  0.7818608E-02  0.1290758E+00
         -2   -1    0    0    0  501 -0.00000000000E+00  0.00000000000E+00  0.10062284575E+03  0.10062284578E+03  0.25500000000E-02 0.  1.
          2   -1    0    0  501    0  0.00000000000E+00 -0.00000000000E+00 -0.22510771340E+02  0.22510771484E+02  0.25500000000E-02 0. -1.
         23    2    1    2    0    0  0.00000000000E+00 -0.17763568394E-14  0.78112074412E+02  0.12313361727E+03  0.95186088965E+02 0.  0.
    9000005    2    3    3    0    0  0.34906709176E+02  0.14283920609E+02  0.75032084876E+02  0.85291906564E+02  0.14912639977E+02 0.  0.
         22    1    3    3    0    0 -0.34906709176E+02 -0.14283920609E+02  0.30799895360E+01  0.37841710704E+02  0.00000000000E+00 0. -1.
         22    1    4    4    0    0  0.93146499573E+00  0.36975228346E+01  0.26764327935E+01  0.46586043670E+01  0.00000000000E+00 0. -1.
         22    1    4    4    0    0  0.33975244180E+02  0.10586397774E+02  0.72355652082E+02  0.80633302197E+02  0.00000000000E+00 0. -1.
<mgrwt>
<rscale>  0 0.95186089E+02</rscale>
<asrwt>0</asrwt>
<pdfrwt beam="2">  1        2 0.34631955E-02 0.95186089E+02</pdfrwt>
<pdfrwt beam="1">  1       -2 0.15480438E-01 0.95186089E+02</pdfrwt>
<totfact> 0.71563889E+04</totfact>
</mgrwt>
</event>
<event>
 7    1  0.3480999E-009  0.9241170E+02  0.7818608E-02  0.1297114E+00
         -2   -1    0    0    0  501 -0.00000000000E+00  0.00000000000E+00  0.66582260805E+02  0.66582260853E+02  0.25500000000E-02 0.  1.
          2   -1    0    0  501    0  0.00000000000E+00 -0.00000000000E+00 -0.32065308984E+02  0.32065309085E+02  0.25500000000E-02 0. -1.
         23    2    1    2    0    0 -0.17763568394E-14  0.00000000000E+00  0.34516951821E+02  0.98647569939E+02  0.92411704301E+02 0.  0.
    9000005    2    3    3    0    0  0.11419183609E+02 -0.31851326883E+02  0.50742461504E+02  0.61121952782E+02  0.40237959603E+01 0.  0.
         22    1    3    3    0    0 -0.11419183609E+02  0.31851326883E+02 -0.16225509683E+02  0.37525617156E+02  0.00000000000E+00 0. -1.
         22    1    4    4    0    0  0.94413481469E+01 -0.21075390969E+02  0.35503865487E+02  0.42353696697E+02  0.00000000000E+00 0.  1.
         22    1    4    4    0    0  0.19778354619E+01 -0.10775935914E+02  0.15238596017E+02  0.18768256085E+02  0.00000000000E+00 0.  1.
<mgrwt>
<rscale>  0 0.92411704E+02</rscale>
<asrwt>0</asrwt>
<pdfrwt beam="2">  1        2 0.49331245E-02 0.92411704E+02</pdfrwt>
<pdfrwt beam="1">  1       -2 0.10243425E-01 0.92411704E+02</pdfrwt>
<totfact> 0.86531156E+04</totfact>
</mgrwt>
</event>
<event>
 7    1  0.3480999E-009  0.8881864E+02  0.7818608E-02  0.1305738E+00
          2   -1    0    0  501    0  0.00000000000E+00  0.00000000000E+00  0.40734303032E+03  0.40734303033E+03  0.25500000000E-02 0. -1.
         -2   -1    0    0    0  501 -0.00000000000E+00 -0.00000000000E+00 -0.48415892413E+01  0.48415899128E+01  0.25500000000E-02 0.  1.
         23    2    1    2    0    0 -0.17763568394E-14  0.00000000000E+00  0.40250144108E+03  0.41218462024E+03  0.88818641582E+02 0.  0.
    9000005    2    3    3    0    0 -0.10742829208E+02 -0.25432297607E+02  0.36143913610E+03  0.36270408840E+03  0.12401471591E+02 0.  0.
         22    1    3    3    0    0  0.10742829208E+02  0.25432297607E+02  0.41062304982E+02  0.49480531842E+02  0.00000000000E+00 0.  1.
         22    1    4    4    0    0 -0.11380043822E+02 -0.11105690720E+02  0.19721440840E+03  0.19785440264E+03  0.00000000000E+00 0. -1.
         22    1    4    4    0    0  0.63721461354E+00 -0.14326606887E+02  0.16422472770E+03  0.16484968576E+03  0.00000000000E+00 0. -1.
<mgrwt>
<rscale>  0 0.88818642E+02</rscale>
<asrwt>0</asrwt>
<pdfrwt beam="1">  1        2 0.62668162E-01 0.88818642E+02</pdfrwt>
<pdfrwt beam="2">  1       -2 0.74485990E-03 0.88818642E+02</pdfrwt>
<totfact> 0.21536807E+05</totfact>
</mgrwt>
</event>
<event>
 7    1  0.3480999E-009  0.9364635E+02  0.7818608E-02  0.1294254E+00
          2   -1    0    0  501    0  0.00000000000E+00  0.00000000000E+00  0.66358089574E+02  0.66358089623E+02  0.25500000000E-02 0. -1.
         -2   -1    0    0    0  501 -0.00000000000E+00 -0.00000000000E+00 -0.33039074411E+02  0.33039074509E+02  0.25500000000E-02 0.  1.
         23    2    1    2    0    0  0.00000000000E+00  0.00000000000E+00  0.33319015163E+02  0.99397164132E+02  0.93646353192E+02 0.  0.
    9000005    2    3    3    0    0  0.22275600444E+02  0.10043972721E+01  0.59392481449E+02  0.65089193730E+02  0.14557647430E+02 0.  0.
         22    1    3    3    0    0 -0.22275600444E+02 -0.10043972721E+01 -0.26073466286E+02  0.34307970403E+02  0.00000000000E+00 0.  1.
         22    1    4    4    0    0  0.17601518737E+02  0.21676831701E+00  0.57235998659E+02  0.59881716683E+02  0.00000000000E+00 0. -1.
         22    1    4    4    0    0  0.46740817069E+01  0.78762895509E+00  0.21564827898E+01  0.52074770471E+01  0.00000000000E+00 0. -1.
<mgrwt>
<rscale>  0 0.93646353E+02</rscale>
<asrwt>0</asrwt>
<pdfrwt beam="1">  1        2 0.10208937E-01 0.93646353E+02</pdfrwt>
<pdfrwt beam="2">  1       -2 0.50829346E-02 0.93646353E+02</pdfrwt>
<totfact> 0.10110604E+05</totfact>
</mgrwt>
</event>
<event>
 7    1  0.3480999E-009  0.9418968E+02  0.7818608E-02  0.1293012E+00
         -2   -1    0    0    0  501 -0.00000000000E+00  0.00000000000E+00  0.46445931493E+01  0.46445938493E+01  0.25500000000E-02 0.  1.
          2   -1    0    0  501    0  0.00000000000E+00 -0.00000000000E+00 -0.47752808407E+03  0.47752808408E+03  0.25500000000E-02 0. -1.
         23    2    1    2    0    0 -0.71054273576E-14 -0.88817841970E-15 -0.47288349092E+03  0.48217267793E+03  0.94189677529E+02 0.  0.
    9000005    2    3    3    0    0  0.45341842413E+02  0.33979289131E+01 -0.20314948191E+03  0.20863316668E+03  0.13807883451E+02 0.  0.
         22    1    3    3    0    0 -0.45341842413E+02 -0.33979289131E+01 -0.26973400902E+03  0.27353951125E+03  0.00000000000E+00 0.  1.
         22    1    4    4    0    0  0.25517819897E+01 -0.11202535479E+01 -0.39165795696E+01  0.48068861917E+01  0.00000000000E+00 0.  1.
         22    1    4    4    0    0  0.42790060423E+02  0.45181824610E+01 -0.19923290234E+03  0.20382628049E+03  0.00000000000E+00 0.  1.
<mgrwt>
<rscale>  0 0.94189678E+02</rscale>
<asrwt>0</asrwt>
<pdfrwt beam="2">  1        2 0.73465820E-01 0.94189678E+02</pdfrwt>
<pdfrwt beam="1">  1       -2 0.71455322E-03 0.94189678E+02</pdfrwt>
<totfact> 0.19471404E+05</totfact>
</mgrwt>
</event>
<event>
 7    1  0.3480999E-009  0.8833507E+02  0.7818608E-02  0.1306934E+00
          2   -1    0    0  501    0  0.00000000000E+00  0.00000000000E+00  0.75235417713E+03  0.75235417713E+03  0.25500000000E-02 0. -1.
         -2   -1    0    0    0  501 -0.00000000000E+00 -0.00000000000E+00 -0.25928884876E+01  0.25928897416E+01  0.25500000000E-02 0.  1.
         23    2    1    2    0    0  0.00000000000E+00  0.00000000000E+00  0.74976128864E+03  0.75494706687E+03  0.88335065732E+02 0.  0.
    9000005    2    3    3    0    0  0.12069575468E+02  0.32323300096E+02  0.60684919625E+03  0.60792891652E+03  0.11006824027E+02 0.  0.
         22    1    3    3    0    0 -0.12069575468E+02 -0.32323300096E+02  0.14291209239E+03  0.14701815035E+03  0.00000000000E+00 0.  1.
         22    1    4    4    0    0  0.79441895263E+01  0.29265479344E+02  0.55446608880E+03  0.55529471640E+03  0.00000000000E+00 0. -1.
         22    1    4    4    0    0  0.41253859412E+01  0.30578207523E+01  0.52383107443E+02  0.52634200120E+02  0.00000000000E+00 0. -1.
<mgrwt>
<rscale>  0 0.88335066E+02</rscale>
<asrwt>0</asrwt>
<pdfrwt beam="1">  1        2 0.11574687E+00 0.88335066E+02</pdfrwt>
<pdfrwt beam="2">  1       -2 0.39890576E-03 0.88335066E+02</pdfrwt>
<totfact> 0.26184775E+05</totfact>
</mgrwt>
</event>
<event>
 7    1  0.3480999E-009  0.8736555E+02  0.7818608E-02  0.1309360E+00
          2   -1    0    0  501    0  0.00000000000E+00  0.00000000000E+00  0.47210124056E+02  0.47210124125E+02  0.25500000000E-02 0. -1.
         -2   -1    0    0    0  501 -0.00000000000E+00 -0.00000000000E+00 -0.40418974461E+02  0.40418974541E+02  0.25500000000E-02 0.  1.
         23    2    1    2    0    0  0.00000000000E+00  0.17763568394E-14  0.67911495950E+01  0.87629098666E+02  0.87365549390E+02 0.  0.
    9000005    2    3    3    0    0  0.24779890813E+02 -0.14891133767E+02 -0.29412367552E+02  0.41298941021E+02  0.21740080138E+01 0.  0.
         22    1    3    3    0    0 -0.24779890813E+02  0.14891133767E+02  0.36203517147E+02  0.46330157645E+02  0.00000000000E+00 0. -1.
         22    1    4    4    0    0  0.69643092119E+01 -0.40289872387E+01 -0.95967835233E+01  0.12523282116E+02  0.00000000000E+00 0. -1.
         22    1    4    4    0    0  0.17815581602E+02 -0.10862146529E+02 -0.19815584029E+02  0.28775658905E+02  0.00000000000E+00 0. -1.
<mgrwt>
<rscale>  0 0.87365549E+02</rscale>
<asrwt>0</asrwt>
<pdfrwt beam="1">  1        2 0.72630961E-02 0.87365549E+02</pdfrwt>
<pdfrwt beam="2">  1       -2 0.62183037E-02 0.87365549E+02</pdfrwt>
<totfact> 0.11245379E+05</totfact>
</mgrwt>
</event>
<event>
 7    1  0.3480999E-009  0.9327312E+02  0.7818608E-02  0.1295114E+00
         -2   -1    0    0    0  501 -0.00000000000E+00  0.00000000000E+00  0.41907750560E+01  0.41907758318E+01  0.25500000000E-02 0. -1.
          2   -1    0    0  501    0  0.00000000000E+00 -0.00000000000E+00 -0.51898953187E+03  0.51898953188E+03  0.25500000000E-02 0.  1.
         23    2    1    2    0    0  0.00000000000E+00  0.00000000000E+00 -0.51479875682E+03  0.52318030771E+03  0.93273117007E+02 0.  0.
    9000005    2    3    3    0    0 -0.53649578541E+00 -0.18773626155E+02 -0.49645167944E+03  0.49692479181E+03  0.10827826894E+02 0.  0.
         22    1    3    3    0    0  0.53649578541E+00  0.18773626155E+02 -0.18347077382E+02  0.26255515901E+02  0.00000000000E+00 0. -1.
         22    1    4    4    0    0 -0.28368427324E-01 -0.11387219086E+02 -0.16596783238E+03  0.16635802039E+03  0.00000000000E+00 0.  1.
         22    1    4    4    0    0 -0.50812735809E+00 -0.73864070694E+01 -0.33048384706E+03  0.33056677142E+03  0.00000000000E+00 0.  1.
<mgrwt>
<rscale>  0 0.93273117E+02</rscale>
<asrwt>0</asrwt>
<pdfrwt beam="2">  1        2 0.79844493E-01 0.93273117E+02</pdfrwt>
<pdfrwt beam="1">  1       -2 0.64473509E-03 0.93273117E+02</pdfrwt>
<totfact> 0.20534615E+05</totfact>
</mgrwt>
</event>
<event>
 7    1  0.3480999E-009  0.8902698E+02  0.7818608E-02  0.1305225E+00
          2   -1    0    0  501    0  0.00000000000E+00  0.00000000000E+00  0.23315783351E+02  0.23315783490E+02  0.25500000000E-02 0. -1.
         -2   -1    0    0    0  501 -0.00000000000E+00 -0.00000000000E+00 -0.84983235250E+02  0.84983235288E+02  0.25500000000E-02 0.  1.
         23    2    1    2    0    0  0.00000000000E+00  0.00000000000E+00 -0.61667451900E+02  0.10829901878E+03  0.89026978184E+02 0.  0.
    9000005    2    3    3    0    0 -0.39362685043E+02  0.11675038774E+02 -0.48975977637E+02  0.65324595884E+02  0.13525122470E+02 0.  0.
         22    1    3    3    0    0  0.39362685043E+02 -0.11675038774E+02 -0.12691474263E+02  0.42974422894E+02  0.00000000000E+00 0. -1.
         22    1    4    4    0    0 -0.35525124846E+02  0.69967905281E+01 -0.46116550482E+02  0.58632122607E+02  0.00000000000E+00 0.  1.
         22    1    4    4    0    0 -0.38375601969E+01  0.46782482462E+01 -0.28594271546E+01  0.66924732775E+01  0.00000000000E+00 0.  1.
<mgrwt>
<rscale>  0 0.89026978E+02</rscale>
<asrwt>0</asrwt>
<pdfrwt beam="1">  1        2 0.35870436E-02 0.89026978E+02</pdfrwt>
<pdfrwt beam="2">  1       -2 0.13074344E-01 0.89026978E+02</pdfrwt>
<totfact> 0.88725348E+04</totfact>
</mgrwt>
</event>
<event>
 7    1  0.3480999E-009  0.9133775E+02  0.7818608E-02  0.1299644E+00
         -2   -1    0    0    0  501 -0.00000000000E+00  0.00000000000E+00  0.84997721028E+01  0.84997724853E+01  0.25500000000E-02 0.  1.
          2   -1    0    0  501    0  0.00000000000E+00 -0.00000000000E+00 -0.24537668785E+03  0.24537668786E+03  0.25500000000E-02 0. -1.
         23    2    1    2    0    0  0.00000000000E+00  0.00000000000E+00 -0.23687691575E+03  0.25387646035E+03  0.91337746333E+02 0.  0.
    9000005    2    3    3    0    0  0.24287106823E+02 -0.33467570586E+02 -0.17205002635E+03  0.17698388966E+03  0.34847943814E+01 0.  0.
         22    1    3    3    0    0 -0.24287106823E+02  0.33467570586E+02 -0.64826889394E+02  0.76892570690E+02  0.00000000000E+00 0.  1.
         22    1    4    4    0    0  0.17272784857E+02 -0.20982301586E+02 -0.11271485214E+03  0.11594500407E+03  0.00000000000E+00 0.  1.
         22    1    4    4    0    0  0.70143219663E+01 -0.12485269000E+02 -0.59335174215E+02  0.61038885587E+02  0.00000000000E+00 0.  1.
<mgrwt>
<rscale>  0 0.91337746E+02</rscale>
<asrwt>0</asrwt>
<pdfrwt beam="2">  1        2 0.37750254E-01 0.91337746E+02</pdfrwt>
<pdfrwt beam="1">  1       -2 0.13076575E-02 0.91337746E+02</pdfrwt>
<totfact> 0.16591921E+05</totfact>
</mgrwt>
</event>
<event>
 7    1  0.3480999E-009  0.9197726E+02  0.7818608E-02  0.1298133E+00
          2   -1    0    0  501    0  0.00000000000E+00  0.00000000000E+00  0.38026691053E+02  0.38026691138E+02  0.25500000000E-02 0. -1.
         -2   -1    0    0    0  501 -0.00000000000E+00 -0.00000000000E+00 -0.55617615841E+02  0.55617615900E+02  0.25500000000E-02 0.  1.
         23    2    1    2    0    0  0.71054273576E-14  0.00000000000E+00 -0.17590924789E+02  0.93644307038E+02  0.91977255915E+02 0.  0.
    9000005    2    3    3    0    0 -0.38190976377E+02  0.16883600340E+02 -0.27863529436E+02  0.50642760051E+02  0.66862721917E+01 0.  0.
         22    1    3    3    0    0  0.38190976377E+02 -0.16883600340E+02  0.10272604648E+02  0.43001546988E+02  0.00000000000E+00 0. -1.
         22    1    4    4    0    0 -0.72228308030E+00  0.16621984858E+01 -0.80458835575E+00  0.19829168102E+01  0.00000000000E+00 0. -1.
         22    1    4    4    0    0 -0.37468693297E+02  0.15221401854E+02 -0.27058941080E+02  0.48659843240E+02  0.00000000000E+00 0. -1.
<mgrwt>
<rscale>  0 0.91977256E+02</rscale>
<asrwt>0</asrwt>
<pdfrwt beam="1">  1        2 0.58502602E-02 0.91977256E+02</pdfrwt>
<pdfrwt beam="2">  1       -2 0.85565563E-02 0.91977256E+02</pdfrwt>
<totfact> 0.91779457E+04</totfact>
</mgrwt>
</event>
<event>
 7    1  0.3480999E-009  0.9005268E+02  0.7818608E-02  0.1302724E+00
         -2   -1    0    0    0  501 -0.00000000000E+00  0.00000000000E+00  0.24519609815E+01  0.24519623075E+01  0.25500000000E-02 0.  1.
          2   -1    0    0  501    0  0.00000000000E+00 -0.00000000000E+00 -0.82683640911E+03  0.82683640912E+03  0.25500000000E-02 0. -1.
         23    2    1    2    0    0  0.00000000000E+00  0.00000000000E+00 -0.82438444813E+03  0.82928837142E+03  0.90052677133E+02 0.  0.
    9000005    2    3    3    0    0 -0.60394963262E+01 -0.38362354690E+02 -0.61227775638E+03  0.61365582644E+03  0.13463899340E+02 0.  0.
         22    1    3    3    0    0  0.60394963262E+01  0.38362354690E+02 -0.21210669175E+03  0.21563254499E+03  0.00000000000E+00 0.  1.
         22    1    4    4    0    0 -0.46942362556E+01 -0.21798734119E+02 -0.44397839107E+03  0.44453799882E+03  0.00000000000E+00 0. -1.
         22    1    4    4    0    0 -0.13452600706E+01 -0.16563620571E+02 -0.16829936532E+03  0.16911782761E+03  0.00000000000E+00 0. -1.
<mgrwt>
<rscale>  0 0.90052677E+02</rscale>
<asrwt>0</asrwt>
<pdfrwt beam="2">  1        2 0.12720538E+00 0.90052677E+02</pdfrwt>
<pdfrwt beam="1">  1       -2 0.37722553E-03 0.90052677E+02</pdfrwt>
<totfact> 0.25322826E+05</totfact>
</mgrwt>
</event>
<event>
 7    1  0.3480999E-009  0.9107808E+02  0.7818608E-02  0.1300262E+00
          2   -1    0    0  501    0  0.00000000000E+00  0.00000000000E+00  0.71891990594E+02  0.71891990639E+02  0.25500000000E-02 0. -1.
         -2   -1    0    0    0  501 -0.00000000000E+00 -0.00000000000E+00 -0.28846111059E+02  0.28846111172E+02  0.25500000000E-02 0.  1.
         23    2    1    2    0    0  0.00000000000E+00  0.00000000000E+00  0.43045879535E+02  0.10073810181E+03  0.91078084145E+02 0.  0.
    9000005    2    3    3    0    0 -0.99873331499E+01  0.42994761780E+01  0.70163980073E+02  0.71521262563E+02  0.86066590573E+01 0.  0.
         22    1    3    3    0    0  0.99873331499E+01 -0.42994761780E+01 -0.27118100538E+02  0.29216839248E+02  0.00000000000E+00 0.  1.
         22    1    4    4    0    0 -0.11117050954E+02  0.52935147937E+01  0.64221637267E+02  0.65391351218E+02  0.00000000000E+00 0. -1.
         22    1    4    4    0    0  0.11297178040E+01 -0.99403861565E+00  0.59423428058E+01  0.61299113458E+01  0.00000000000E+00 0. -1.
<mgrwt>
<rscale>  0 0.91078084E+02</rscale>
<asrwt>0</asrwt>
<pdfrwt beam="1">  1        2 0.11060306E-01 0.91078084E+02</pdfrwt>
<pdfrwt beam="2">  1       -2 0.44378633E-02 0.91078084E+02</pdfrwt>
<totfact> 0.11178063E+05</totfact>
</mgrwt>
</event>
<event>
 7    1  0.3480999E-009  0.8607650E+02  0.7818608E-02  0.1312641E+00
          2   -1    0    0  501    0  0.00000000000E+00  0.00000000000E+00  0.29632133022E+02  0.29632133132E+02  0.25500000000E-02 0.  1.
         -2   -1    0    0    0  501 -0.00000000000E+00 -0.00000000000E+00 -0.62509534515E+02  0.62509534567E+02  0.25500000000E-02 0. -1.
         23    2    1    2    0    0  0.00000000000E+00  0.00000000000E+00 -0.32877401492E+02  0.92141667699E+02  0.86076497358E+02 0.  0.
    9000005    2    3    3    0    0 -0.36313697887E+02 -0.12538935082E+02  0.13653560255E+01  0.40678321619E+02  0.13302334586E+02 0.  0.
         22    1    3    3    0    0  0.36313697887E+02  0.12538935082E+02 -0.34242757518E+02  0.51463346079E+02  0.00000000000E+00 0.  1.
         22    1    4    4    0    0 -0.88860547569E+01 -0.93614610969E+01  0.19919891747E+01  0.13060128019E+02  0.00000000000E+00 0. -1.
         22    1    4    4    0    0 -0.27427643131E+02 -0.31774739852E+01 -0.62663314917E+00  0.27618193600E+02  0.00000000000E+00 0. -1.
<mgrwt>
<rscale>  0 0.86076497E+02</rscale>
<asrwt>0</asrwt>
<pdfrwt beam="1">  1        2 0.45587897E-02 0.86076497E+02</pdfrwt>
<pdfrwt beam="2">  1       -2 0.96168515E-02 0.86076497E+02</pdfrwt>
<totfact> 0.10448124E+05</totfact>
</mgrwt>
</event>
<event>
 7    1  0.3480999E-009  0.9249909E+02  0.7818608E-02  0.1296910E+00
          2   -1    0    0  501    0  0.00000000000E+00  0.00000000000E+00  0.12724892987E+03  0.12724892990E+03  0.25500000000E-02 0. -1.
         -2   -1    0    0    0  501 -0.00000000000E+00 -0.00000000000E+00 -0.16809733591E+02  0.16809733785E+02  0.25500000000E-02 0.  1.
         23    2    1    2    0    0  0.35527136788E-14 -0.55511151231E-15  0.11043919628E+03  0.14405866368E+03  0.92499094627E+02 0.  0.
    9000005    2    3    3    0    0  0.29794956651E+02 -0.34955629645E+00  0.10974722803E+03  0.11425362298E+03  0.11026090514E+02 0.  0.
         22    1    3    3    0    0 -0.29794956651E+02  0.34955629645E+00  0.69196825364E+00  0.29805040707E+02  0.00000000000E+00 0.  1.
         22    1    4    4    0    0  0.92917702753E+01 -0.44369571541E+01  0.47015070993E+02  0.48129413919E+02  0.00000000000E+00 0. -1.
         22    1    4    4    0    0  0.20503186376E+02  0.40874008577E+01  0.62732157033E+02  0.66124209056E+02  0.00000000000E+00 0. -1.
<mgrwt>
<rscale>  0 0.92499095E+02</rscale>
<asrwt>0</asrwt>
<pdfrwt beam="1">  1        2 0.19576758E-01 0.92499095E+02</pdfrwt>
<pdfrwt beam="2">  1       -2 0.25861129E-02 0.92499095E+02</pdfrwt>
<totfact> 0.12724345E+05</totfact>
</mgrwt>
</event>
<event>
 7    1  0.3480999E-009  0.9090531E+02  0.7818608E-02  0.1300674E+00
         -2   -1    0    0    0  501 -0.00000000000E+00  0.00000000000E+00  0.26757180670E+01  0.26757192821E+01  0.25500000000E-02 0.  1.
          2   -1    0    0  501    0  0.00000000000E+00 -0.00000000000E+00 -0.77210797918E+03  0.77210797919E+03  0.25500000000E-02 0. -1.
         23    2    1    2    0    0  0.88817841970E-15  0.00000000000E+00 -0.76943226111E+03  0.77478369847E+03  0.90905307698E+02 0.  0.
    9000005    2    3    3    0    0  0.41769690597E+01 -0.35353148824E+02 -0.62273745994E+03  0.62383119967E+03  0.98045634430E+01 0.  0.
         22    1    3    3    0    0 -0.41769690597E+01  0.35353148824E+02 -0.14669480118E+03  0.15095249880E+03  0.00000000000E+00 0.  1.
         22    1    4    4    0    0  0.72860909770E+01 -0.28171122808E+02 -0.49181216886E+03  0.49267221225E+03  0.00000000000E+00 0.  1.
         22    1    4    4    0    0 -0.31091219173E+01 -0.71820260163E+01 -0.13092529108E+03  0.13115898742E+03  0.00000000000E+00 0.  1.
<mgrwt>
<rscale>  0 0.90905308E+02</rscale>
<asrwt>0</asrwt>
<pdfrwt beam="2">  1        2 0.11878567E+00 0.90905308E+02</pdfrwt>
<pdfrwt beam="1">  1       -2 0.41164964E-03 0.90905308E+02</pdfrwt>
<totfact> 0.24406394E+05</totfact>
</mgrwt>
</event>
<event>
 7    1  0.3480999E-009  0.9184683E+02  0.7818608E-02  0.1298440E+00
         -2   -1    0    0    0  501 -0.00000000000E+00  0.00000000000E+00  0.11499370787E+03  0.11499370790E+03  0.25500000000E-02 0. -1.
          2   -1    0    0  501    0  0.00000000000E+00 -0.00000000000E+00 -0.18339785474E+02  0.18339785652E+02  0.25500000000E-02 0.  1.
         23    2    1    2    0    0  0.00000000000E+00  0.00000000000E+00  0.96653922397E+02  0.13333349355E+03  0.91846827860E+02 0.  0.
    9000005    2    3    3    0    0  0.32621702352E+02  0.15478947965E+02  0.88437899704E+02  0.96302745202E+02  0.12214062993E+02 0.  0.
         22    1    3    3    0    0 -0.32621702352E+02 -0.15478947965E+02  0.82160226923E+01  0.37030748350E+02  0.00000000000E+00 0.  1.
         22    1    4    4    0    0  0.17270374930E+02  0.10279981495E+02  0.33926728346E+02  0.39433066911E+02  0.00000000000E+00 0.  1.
         22    1    4    4    0    0  0.15351327422E+02  0.51989664693E+01  0.54511171359E+02  0.56869678291E+02  0.00000000000E+00 0.  1.
<mgrwt>
<rscale>  0 0.91846828E+02</rscale>
<asrwt>0</asrwt>
<pdfrwt beam="2">  1        2 0.28215054E-02 0.91846828E+02</pdfrwt>
<pdfrwt beam="1">  1       -2 0.17691340E-01 0.91846828E+02</pdfrwt>
<totfact> 0.75061932E+04</totfact>
</mgrwt>
</event>
<event>
 7    1  0.3480999E-009  0.9151374E+02  0.7818608E-02  0.1299227E+00
          2   -1    0    0  501    0  0.00000000000E+00  0.00000000000E+00  0.28398222990E+02  0.28398223105E+02  0.25500000000E-02 0. -1.
         -2   -1    0    0    0  501 -0.00000000000E+00 -0.00000000000E+00 -0.73726137331E+02  0.73726137375E+02  0.25500000000E-02 0.  1.
         23    2    1    2    0    0 -0.35527136788E-14  0.00000000000E+00 -0.45327914341E+02  0.10212436048E+03  0.91513743148E+02 0.  0.
    9000005    2    3    3    0    0 -0.26300494207E+02  0.25345371228E+02  0.76765539526E+01  0.37753734436E+02  0.56842893231E+01 0.  0.
         22    1    3    3    0    0  0.26300494207E+02 -0.25345371228E+02 -0.53004468293E+02  0.64370626044E+02  0.00000000000E+00 0.  1.
         22    1    4    4    0    0 -0.90402230362E+01  0.63286992098E+01  0.32329277662E+00  0.11040044586E+02  0.00000000000E+00 0.  1.
         22    1    4    4    0    0 -0.17260271171E+02  0.19016672018E+02  0.73532611760E+01  0.26713689851E+02  0.00000000000E+00 0.  1.
<mgrwt>
<rscale>  0 0.91513743E+02</rscale>
<asrwt>0</asrwt>
<pdfrwt beam="1">  1        2 0.43689574E-02 0.91513743E+02</pdfrwt>
<pdfrwt beam="2">  1       -2 0.11342483E-01 0.91513743E+02</pdfrwt>
<totfact> 0.86217195E+04</totfact>
</mgrwt>
</event>
<event>
 7    1  0.3480999E-009  0.9057400E+02  0.7818608E-02  0.1301468E+00
          2   -1    0    0  501    0  0.00000000000E+00  0.00000000000E+00  0.13596045626E+03  0.13596045628E+03  0.25500000000E-02 0. -1.
         -2   -1    0    0    0  501 -0.00000000000E+00 -0.00000000000E+00 -0.15084624961E+02  0.15084625177E+02  0.25500000000E-02 0.  1.
         23    2    1    2    0    0  0.00000000000E+00  0.35527136788E-14  0.12087583129E+03  0.15104508146E+03  0.90574003120E+02 0.  0.
    9000005    2    3    3    0    0  0.12195814779E+01  0.24969530228E+02  0.12263216066E+03  0.12598416544E+03  0.14436006917E+02 0.  0.
         22    1    3    3    0    0 -0.12195814779E+01 -0.24969530228E+02 -0.17563293610E+01  0.25060916017E+02  0.00000000000E+00 0.  1.
         22    1    4    4    0    0 -0.14170777801E+00  0.16142748142E+02  0.44397314154E+02  0.47241188626E+02  0.00000000000E+00 0.  1.
         22    1    4    4    0    0  0.13612892559E+01  0.88267820860E+01  0.78234846502E+02  0.78742976814E+02  0.00000000000E+00 0.  1.
<mgrwt>
<rscale>  0 0.90574003E+02</rscale>
<asrwt>0</asrwt>
<pdfrwt beam="1">  1        2 0.20916993E-01 0.90574003E+02</pdfrwt>
<pdfrwt beam="2">  1       -2 0.23207116E-02 0.90574003E+02</pdfrwt>
<totfact> 0.13773019E+05</totfact>
</mgrwt>
</event>
<event>
 7    1  0.3480999E-009  0.9391094E+02  0.7818608E-02  0.1293648E+00
         -2   -1    0    0    0  501 -0.00000000000E+00  0.00000000000E+00  0.32433851492E+01  0.32433861516E+01  0.25500000000E-02 0.  1.
          2   -1    0    0  501    0  0.00000000000E+00 -0.00000000000E+00 -0.67978850969E+03  0.67978850970E+03  0.25500000000E-02 0. -1.
         23    2    1    2    0    0  0.17763568394E-14  0.14210854715E-13 -0.67654512454E+03  0.68303189585E+03  0.93910942938E+02 0.  0.
    9000005    2    3    3    0    0 -0.15838339119E+02 -0.42603526561E+02 -0.40901245827E+03  0.41166564705E+03  0.10559378920E+02 0.  0.
         22    1    3    3    0    0  0.15838339119E+02  0.42603526561E+02 -0.26753266627E+03  0.27136624879E+03  0.00000000000E+00 0.  1.
         22    1    4    4    0    0 -0.15823159527E+02 -0.42944434085E+02 -0.39398448428E+03  0.39663379918E+03  0.00000000000E+00 0.  1.
         22    1    4    4    0    0 -0.15179591812E-01  0.34090752435E+00 -0.15027973991E+02  0.15031847878E+02  0.00000000000E+00 0.  1.
<mgrwt>
<rscale>  0 0.93910943E+02</rscale>
<asrwt>0</asrwt>
<pdfrwt beam="2">  1        2 0.10458273E+00 0.93910943E+02</pdfrwt>
<pdfrwt beam="1">  1       -2 0.49898295E-03 0.93910943E+02</pdfrwt>
<totfact> 0.21780320E+05</totfact>
</mgrwt>
</event>
<event>
 7    1  0.4721210E-009  0.9069400E+02  0.7818608E-02  0.1301180E+00
          2   -1    0    0  501    0  0.00000000000E+00  0.00000000000E+00  0.10382414926E+03  0.10382414930E+03  0.25500000000E-02 0. -1.
         -2   -1    0    0    0  501 -0.00000000000E+00 -0.00000000000E+00 -0.19806091471E+02  0.19806091635E+02  0.25500000000E-02 0.  1.
         23    2    1    2    0    0  0.00000000000E+00  0.00000000000E+00  0.84018057793E+02  0.12363024093E+03  0.90694004417E+02 0.  0.
    9000005    2    3    3    0    0 -0.40441021211E+01 -0.10986617566E+02  0.10142940202E+03  0.10264892936E+03  0.10574430303E+02 0.  0.
         22    1    3    3    0    0  0.40441021211E+01  0.10986617566E+02 -0.17411344228E+02  0.20981311573E+02  0.00000000000E+00 0.  1.
         22    1    4    4    0    0 -0.46457069937E+01 -0.27348424691E+01  0.67905381834E+02  0.68119034335E+02  0.00000000000E+00 0.  1.
         22    1    4    4    0    0  0.60160487257E+00 -0.82517750964E+01  0.33524020188E+02  0.34529895022E+02  0.00000000000E+00 0.  1.
<mgrwt>
<rscale>  0 0.90694004E+02</rscale>
<asrwt>0</asrwt>
<pdfrwt beam="1">  1        2 0.15972946E-01 0.90694004E+02</pdfrwt>
<pdfrwt beam="2">  1       -2 0.30470910E-02 0.90694004E+02</pdfrwt>
<totfact> 0.12591675E+05</totfact>
</mgrwt>
</event>
<event>
 7    1  0.3480999E-009  0.8981364E+02  0.7818608E-02  0.1303304E+00
          2   -1    0    0  501    0  0.00000000000E+00  0.00000000000E+00  0.14422046473E+02  0.14422046698E+02  0.25500000000E-02 0. -1.
         -2   -1    0    0    0  501 -0.00000000000E+00 -0.00000000000E+00 -0.13982914412E+03  0.13982914415E+03  0.25500000000E-02 0.  1.
         23    2    1    2    0    0  0.00000000000E+00  0.17763568394E-14 -0.12540709765E+03  0.15425119084E+03  0.89813638919E+02 0.  0.
    9000005    2    3    3    0    0  0.40506036757E+02 -0.15053105363E+02 -0.77216710825E+02  0.89523697635E+02  0.13591799466E+02 0.  0.
         22    1    3    3    0    0 -0.40506036757E+02  0.15053105363E+02 -0.48190386826E+02  0.64727493210E+02  0.00000000000E+00 0. -1.
         22    1    4    4    0    0  0.12417017456E+02  0.17337000503E+01 -0.19748369208E+02  0.23392009848E+02  0.00000000000E+00 0. -1.
         22    1    4    4    0    0  0.28089019301E+02 -0.16786805413E+02 -0.57468341617E+02  0.66131687786E+02  0.00000000000E+00 0. -1.
<mgrwt>
<rscale>  0 0.89813639E+02</rscale>
<asrwt>0</asrwt>
<pdfrwt beam="1">  1        2 0.22187765E-02 0.89813639E+02</pdfrwt>
<pdfrwt beam="2">  1       -2 0.21512175E-01 0.89813639E+02</pdfrwt>
<totfact> 0.74405359E+04</totfact>
</mgrwt>
</event>
<event>
 7    1  0.3480999E-009  0.9194639E+02  0.7818608E-02  0.1298206E+00
          2   -1    0    0  501    0  0.00000000000E+00  0.00000000000E+00  0.31154141842E+03  0.31154141844E+03  0.25500000000E-02 0. -1.
         -2   -1    0    0    0  501 -0.00000000000E+00 -0.00000000000E+00 -0.67841200406E+01  0.67841205198E+01  0.25500000000E-02 0.  1.
         23    2    1    2    0    0  0.17763568394E-14  0.00000000000E+00  0.30475729838E+03  0.31832553895E+03  0.91946385642E+02 0.  0.
    9000005    2    3    3    0    0  0.15402670835E+02  0.39421416602E+02  0.20994411473E+03  0.21449476245E+03  0.11839824792E+02 0.  0.
         22    1    3    3    0    0 -0.15402670835E+02 -0.39421416602E+02  0.94813183649E+02  0.10383077650E+03  0.00000000000E+00 0.  1.
         22    1    4    4    0    0  0.20453886021E+01  0.20458307875E+02  0.10872887307E+03  0.11065574461E+03  0.00000000000E+00 0. -1.
         22    1    4    4    0    0  0.13357282233E+02  0.18963108727E+02  0.10121524167E+03  0.10383901784E+03  0.00000000000E+00 0. -1.
<mgrwt>
<rscale>  0 0.91946386E+02</rscale>
<asrwt>0</asrwt>
<pdfrwt beam="1">  1        2 0.47929455E-01 0.91946386E+02</pdfrwt>
<pdfrwt beam="2">  1       -2 0.10437107E-02 0.91946386E+02</pdfrwt>
<totfact> 0.17815838E+05</totfact>
</mgrwt>
</event>
<event>
 7    1  0.3480999E-009  0.9081731E+02  0.7818608E-02  0.1300884E+00
         -2   -1    0    0    0  501 -0.00000000000E+00  0.00000000000E+00  0.20174880155E+01  0.20174896271E+01  0.25500000000E-02 0.  1.
          2   -1    0    0  501    0  0.00000000000E+00 -0.00000000000E+00 -0.10220358959E+04  0.10220358959E+04  0.25500000000E-02 0. -1.
         23    2    1    2    0    0 -0.35527136788E-14  0.88817841970E-15 -0.10200184079E+04  0.10240533856E+04  0.90817311086E+02 0.  0.
    9000005    2    3    3    0    0  0.22863294055E+02 -0.67472173577E+01 -0.94363819602E+03  0.94403968720E+03  0.13770651848E+02 0.  0.
         22    1    3    3    0    0 -0.22863294055E+02  0.67472173577E+01 -0.76380211883E+02  0.80013698355E+02  0.00000000000E+00 0.  1.
         22    1    4    4    0    0  0.24618053821E+02 -0.72159472955E+01 -0.86394221250E+03  0.86432300965E+03  0.00000000000E+00 0.  1.
         22    1    4    4    0    0 -0.17547597661E+01  0.46872993774E+00 -0.79695983521E+02  0.79716677546E+02  0.00000000000E+00 0.  1.
<mgrwt>
<rscale>  0 0.90817311E+02</rscale>
<asrwt>0</asrwt>
<pdfrwt beam="2">  1        2 0.15723588E+00 0.90817311E+02</pdfrwt>
<pdfrwt beam="1">  1       -2 0.31038371E-03 0.90817311E+02</pdfrwt>
<totfact> 0.25282379E+05</totfact>
</mgrwt>
</event>
<event>
 7    1  0.3480999E-009  0.9592722E+02  0.7818608E-02  0.1289101E+00
         -2   -1    0    0    0  501 -0.00000000000E+00  0.00000000000E+00  0.31371188082E+01  0.31371198446E+01  0.25500000000E-02 0. -1.
          2   -1    0    0  501    0  0.00000000000E+00 -0.00000000000E+00 -0.73331851199E+03  0.73331851199E+03  0.25500000000E-02 0.  1.
         23    2    1    2    0    0 -0.71054273576E-14 -0.17763568394E-14 -0.73018139318E+03  0.73645563184E+03  0.95927215734E+02 0.  0.
    9000005    2    3    3    0    0 -0.41185412728E+02 -0.11061745812E+02 -0.53305963021E+03  0.53477372913E+03  0.34309720566E+01 0.  0.
         22    1    3    3    0    0  0.41185412728E+02  0.11061745812E+02 -0.19712176297E+03  0.20168190271E+03  0.00000000000E+00 0. -1.
         22    1    4    4    0    0 -0.34248132420E+02 -0.10505759687E+02 -0.44669849776E+03  0.44813262933E+03  0.00000000000E+00 0.  1.
         22    1    4    4    0    0 -0.69372803089E+01 -0.55598612527E+00 -0.86361132441E+02  0.86641099803E+02  0.00000000000E+00 0.  1.
<mgrwt>
<rscale>  0 0.95927216E+02</rscale>
<asrwt>0</asrwt>
<pdfrwt beam="2">  1        2 0.11281810E+00 0.95927216E+02</pdfrwt>
<pdfrwt beam="1">  1       -2 0.48263433E-03 0.95927216E+02</pdfrwt>
<totfact> 0.20951283E+05</totfact>
</mgrwt>
</event>
<event>
 7    1  0.3480999E-009  0.9145100E+02  0.7818608E-02  0.1299375E+00
         -2   -1    0    0    0  501 -0.00000000000E+00  0.00000000000E+00  0.31993079904E+01  0.31993090067E+01  0.25500000000E-02 0.  1.
          2   -1    0    0  501    0  0.00000000000E+00 -0.00000000000E+00 -0.65352294031E+03  0.65352294032E+03  0.25500000000E-02 0. -1.
         23    2    1    2    0    0  0.00000000000E+00  0.00000000000E+00 -0.65032363232E+03  0.65672224932E+03  0.91451003279E+02 0.  0.
    9000005    2    3    3    0    0  0.21250751003E+02  0.38908137188E+02 -0.39778919833E+03  0.40032591957E+03  0.76914249116E+01 0.  0.
         22    1    3    3    0    0 -0.21250751003E+02 -0.38908137188E+02 -0.25253443399E+03  0.25639632975E+03  0.00000000000E+00 0.  1.
         22    1    4    4    0    0  0.10793551950E+02  0.12122995325E+02 -0.13955348508E+03  0.14049428094E+03  0.00000000000E+00 0. -1.
         22    1    4    4    0    0  0.10457199053E+02  0.26785141863E+02 -0.25823571325E+03  0.25983163863E+03  0.00000000000E+00 0. -1.
<mgrwt>
<rscale>  0 0.91451003E+02</rscale>
<asrwt>0</asrwt>
<pdfrwt beam="2">  1        2 0.10054188E+00 0.91451003E+02</pdfrwt>
<pdfrwt beam="1">  1       -2 0.49220183E-03 0.91451003E+02</pdfrwt>
<totfact> 0.23133868E+05</totfact>
</mgrwt>
</event>
<event>
 7    1  0.4750666E-009  0.9349238E+02  0.7818608E-02  0.1294608E+00
          2   -1    0    0  501    0  0.00000000000E+00  0.00000000000E+00  0.19081958844E+04  0.19081958844E+04  0.25500000000E-02 0. -1.
         -2   -1    0    0    0  501 -0.00000000000E+00 -0.00000000000E+00 -0.11451674342E+01  0.11451702733E+01  0.25500000000E-02 0.  1.
         23    2    1    2    0    0 -0.35527136788E-14  0.00000000000E+00  0.19070507170E+04  0.19093410547E+04  0.93492384650E+02 0.  0.
    9000005    2    3    3    0    0  0.18307323652E+02 -0.49220329375E+01  0.18240749340E+04  0.18242272187E+04  0.14007007891E+02 0.  0.
         22    1    3    3    0    0 -0.18307323652E+02  0.49220329375E+01  0.82975783034E+02  0.85113835995E+02  0.00000000000E+00 0.  1.
         22    1    4    4    0    0  0.16722976187E+02  0.11181915094E+01  0.14869590435E+04  0.14870534978E+04  0.00000000000E+00 0. -1.
         22    1    4    4    0    0  0.15843474644E+01 -0.60402244469E+01  0.33711589052E+03  0.33717372096E+03  0.00000000000E+00 0. -1.
<mgrwt>
<rscale>  0 0.93492385E+02</rscale>
<asrwt>0</asrwt>
<pdfrwt beam="1">  1        2 0.29356777E+00 0.93492385E+02</pdfrwt>
<pdfrwt beam="2">  1       -2 0.17618032E-03 0.93492385E+02</pdfrwt>
<totfact> 0.19192325E+05</totfact>
</mgrwt>
</event>
<event>
 7    1  0.3480999E-009  0.9043721E+02  0.7818608E-02  0.1301796E+00
          2   -1    0    0  501    0  0.00000000000E+00  0.00000000000E+00  0.71764142501E+02  0.71764142547E+02  0.25500000000E-02 0.  1.
         -2   -1    0    0    0  501 -0.00000000000E+00 -0.00000000000E+00 -0.28492253068E+02  0.28492253182E+02  0.25500000000E-02 0. -1.
         23    2    1    2    0    0  0.35527136788E-14 -0.35527136788E-14  0.43271889433E+02  0.10025639573E+03  0.90437207328E+02 0.  0.
    9000005    2    3    3    0    0 -0.21198676892E+02  0.19373238439E+02  0.60301702737E+02  0.66868960806E+02  0.32336197367E+01 0.  0.
         22    1    3    3    0    0  0.21198676892E+02 -0.19373238439E+02 -0.17029813304E+02  0.33387434923E+02  0.00000000000E+00 0. -1.
         22    1    4    4    0    0 -0.34512910848E-01  0.45509298908E+00  0.53353361963E+00  0.70211031398E+00  0.00000000000E+00 0.  1.
         22    1    4    4    0    0 -0.21164163981E+02  0.18918145450E+02  0.59768169118E+02  0.66166850492E+02  0.00000000000E+00 0.  1.
<mgrwt>
<rscale>  0 0.90437207E+02</rscale>
<asrwt>0</asrwt>
<pdfrwt beam="1">  1        2 0.11040637E-01 0.90437207E+02</pdfrwt>
<pdfrwt beam="2">  1       -2 0.43834236E-02 0.90437207E+02</pdfrwt>
<totfact> 0.11394793E+05</totfact>
</mgrwt>
</event>
<event>
 7    1  0.4252798E-009  0.9077663E+02  0.7818608E-02  0.1300982E+00
         -2   -1    0    0    0  501 -0.00000000000E+00  0.00000000000E+00  0.26393083669E+01  0.26393095988E+01  0.25500000000E-02 0. -1.
          2   -1    0    0  501    0  0.00000000000E+00 -0.00000000000E+00 -0.78054490885E+03  0.78054490885E+03  0.25500000000E-02 0.  1.
         23    2    1    2    0    0  0.44408920985E-15  0.35527136788E-14 -0.77790560048E+03  0.78318421845E+03  0.90776631193E+02 0.  0.
    9000005    2    3    3    0    0 -0.31501554385E+01 -0.30941219609E+02 -0.66976308029E+03  0.67065827822E+03  0.15253192568E+02 0.  0.
         22    1    3    3    0    0  0.31501554385E+01  0.30941219609E+02 -0.10814252019E+03  0.11252594022E+03  0.00000000000E+00 0. -1.
         22    1    4    4    0    0  0.47078774814E+01 -0.22672045771E+02 -0.46924502211E+03  0.46981600287E+03  0.00000000000E+00 0.  1.
         22    1    4    4    0    0 -0.78580329198E+01 -0.82691738384E+01 -0.20051805818E+03  0.20084227536E+03  0.00000000000E+00 0.  1.
<mgrwt>
<rscale>  0 0.90776631E+02</rscale>
<asrwt>0</asrwt>
<pdfrwt beam="2">  1        2 0.12008365E+00 0.90776631E+02</pdfrwt>
<pdfrwt beam="1">  1       -2 0.40604816E-03 0.90776631E+02</pdfrwt>
<totfact> 0.24548187E+05</totfact>
</mgrwt>
</event>
<event>
 7    1  0.3480999E-009  0.8839430E+02  0.7818608E-02  0.1306787E+00
         -2   -1    0    0    0  501 -0.00000000000E+00  0.00000000000E+00  0.18234898204E+02  0.18234898383E+02  0.25500000000E-02 0.  1.
          2   -1    0    0  501    0  0.00000000000E+00 -0.00000000000E+00 -0.10712360248E+03  0.10712360251E+03  0.25500000000E-02 0. -1.
         23    2    1    2    0    0  0.17763568394E-14 -0.35527136788E-14 -0.88888704278E+02  0.12535850090E+03  0.88394298450E+02 0.  0.
    9000005    2    3    3    0    0  0.10812314854E+02  0.29217400441E+02 -0.43201198291E+01  0.35234097337E+02  0.15881295249E+02 0.  0.
         22    1    3    3    0    0 -0.10812314854E+02 -0.29217400441E+02 -0.84568584449E+02  0.90124403558E+02  0.00000000000E+00 0. -1.
         22    1    4    4    0    0 -0.34614133281E+00  0.21260290100E+02 -0.25769515430E+01  0.21418693429E+02  0.00000000000E+00 0.  1.
         22    1    4    4    0    0  0.11158456187E+02  0.79571103408E+01 -0.17431682861E+01  0.13815403908E+02  0.00000000000E+00 0.  1.
<mgrwt>
<rscale>  0 0.88394298E+02</rscale>
<asrwt>0</asrwt>
<pdfrwt beam="2">  1        2 0.16480554E-01 0.88394298E+02</pdfrwt>
<pdfrwt beam="1">  1       -2 0.28053690E-02 0.88394298E+02</pdfrwt>
<totfact> 0.13639301E+05</totfact>
</mgrwt>
</event>
<event>
 7    1  0.3480999E-009  0.9086292E+02  0.7818608E-02  0.1300775E+00
         -2   -1    0    0    0  501 -0.00000000000E+00  0.00000000000E+00  0.14532147345E+01  0.14532169718E+01  0.25500000000E-02 0.  1.
          2   -1    0    0  501    0  0.00000000000E+00 -0.00000000000E+00 -0.14203104042E+04  0.14203104042E+04  0.25500000000E-02 0. -1.
         23    2    1    2    0    0  0.00000000000E+00  0.00000000000E+00 -0.14188571894E+04  0.14217636211E+04  0.90862920909E+02 0.  0.
    9000005    2    3    3    0    0  0.21589324399E+02  0.19114189387E+02 -0.12533598628E+04  0.12537730967E+04  0.14303191424E+02 0.  0.
         22    1    3    3    0    0 -0.21589324399E+02 -0.19114189387E+02 -0.16549732668E+03  0.16799052444E+03  0.00000000000E+00 0.  1.
         22    1    4    4    0    0  0.18930557688E+02  0.21038489589E+02 -0.11806940004E+04  0.11810331522E+04  0.00000000000E+00 0. -1.
         22    1    4    4    0    0  0.26587667106E+01 -0.19243002017E+01 -0.72665862338E+02  0.72739944467E+02  0.00000000000E+00 0. -1.
<mgrwt>
<rscale>  0 0.90862921E+02</rscale>
<asrwt>0</asrwt>
<pdfrwt beam="2">  1        2 0.21850818E+00 0.90862921E+02</pdfrwt>
<pdfrwt beam="1">  1       -2 0.22357281E-03 0.90862921E+02</pdfrwt>
<totfact> 0.24257637E+05</totfact>
</mgrwt>
</event>
<event>
 7    1  0.3480999E-009  0.9714432E+02  0.7818608E-02  0.1286418E+00
         -2   -1    0    0    0  501 -0.00000000000E+00  0.00000000000E+00  0.11250750585E+03  0.11250750588E+03  0.25500000000E-02 0.  1.
          2   -1    0    0  501    0  0.00000000000E+00 -0.00000000000E+00 -0.20969753453E+02  0.20969753608E+02  0.25500000000E-02 0. -1.
         23    2    1    2    0    0  0.00000000000E+00  0.00000000000E+00  0.91537752400E+02  0.13347725949E+03  0.97144318859E+02 0.  0.
    9000005    2    3    3    0    0 -0.39996543817E+02  0.16664491127E+02  0.20301040180E+02  0.50098017771E+02  0.14840834559E+02 0.  0.
         22    1    3    3    0    0  0.39996543817E+02 -0.16664491127E+02  0.71236712220E+02  0.83379241719E+02  0.00000000000E+00 0.  1.
         22    1    4    4    0    0 -0.31642136095E+02  0.19240848351E+02  0.15767495188E+02  0.40249831384E+02  0.00000000000E+00 0.  1.
         22    1    4    4    0    0 -0.83544077217E+01 -0.25763572240E+01  0.45335449923E+01  0.98481863875E+01  0.00000000000E+00 0.  1.
<mgrwt>
<rscale>  0 0.97144319E+02</rscale>
<asrwt>0</asrwt>
<pdfrwt beam="2">  1        2 0.32261160E-02 0.97144319E+02</pdfrwt>
<pdfrwt beam="1">  1       -2 0.17308847E-01 0.97144319E+02</pdfrwt>
<totfact> 0.65683991E+04</totfact>
</mgrwt>
</event>
<event>
 7    1  0.3480999E-009  0.9102874E+02  0.7818608E-02  0.1300379E+00
          2   -1    0    0  501    0  0.00000000000E+00  0.00000000000E+00  0.60939495057E+02  0.60939495110E+02  0.25500000000E-02 0. -1.
         -2   -1    0    0    0  501 -0.00000000000E+00 -0.00000000000E+00 -0.33993683542E+02  0.33993683638E+02  0.25500000000E-02 0.  1.
         23    2    1    2    0    0  0.00000000000E+00  0.00000000000E+00  0.26945811515E+02  0.94933178748E+02  0.91028740896E+02 0.  0.
    9000005    2    3    3    0    0  0.20757208596E+02  0.13891616566E+02 -0.24193770160E+02  0.38020126349E+02  0.15373769008E+02 0.  0.
         22    1    3    3    0    0 -0.20757208596E+02 -0.13891616566E+02  0.51139581675E+02  0.56913052399E+02  0.00000000000E+00 0. -1.
         22    1    4    4    0    0  0.13318103860E+02  0.10060796196E+01 -0.63550729094E+01  0.14790910666E+02  0.00000000000E+00 0.  1.
         22    1    4    4    0    0  0.74391047358E+01  0.12885536947E+02 -0.17838697251E+02  0.23229215683E+02  0.00000000000E+00 0.  1.
<mgrwt>
<rscale>  0 0.91028741E+02</rscale>
<asrwt>0</asrwt>
<pdfrwt beam="1">  1        2 0.93753069E-02 0.91028741E+02</pdfrwt>
<pdfrwt beam="2">  1       -2 0.52297975E-02 0.91028741E+02</pdfrwt>
<totfact> 0.10700255E+05</totfact>
</mgrwt>
</event>
<event>
 7    1  0.3480999E-009  0.9072586E+02  0.7818608E-02  0.1301103E+00
          2   -1    0    0  501    0  0.00000000000E+00  0.00000000000E+00  0.20383444844E+02  0.20383445003E+02  0.25500000000E-02 0. -1.
         -2   -1    0    0    0  501 -0.00000000000E+00 -0.00000000000E+00 -0.10095424980E+03  0.10095424983E+03  0.25500000000E-02 0.  1.
         23    2    1    2    0    0 -0.35527136788E-14 -0.17763568394E-14 -0.80570804956E+02  0.12133769483E+03  0.90725859470E+02 0.  0.
    9000005    2    3    3    0    0  0.23239682739E+02  0.87384777115E+01  0.72232912775E+01  0.30100382402E+02  0.15408219798E+02 0.  0.
         22    1    3    3    0    0 -0.23239682739E+02 -0.87384777115E+01 -0.87794096234E+02  0.91237312433E+02  0.00000000000E+00 0.  1.
         22    1    4    4    0    0  0.86456140756E+00  0.31887082755E+01 -0.33792787440E+01  0.47259762720E+01  0.00000000000E+00 0. -1.
         22    1    4    4    0    0  0.22375121331E+02  0.55497694360E+01  0.10602570022E+02  0.25374406130E+02  0.00000000000E+00 0. -1.
<mgrwt>
<rscale>  0 0.90725859E+02</rscale>
<asrwt>0</asrwt>
<pdfrwt beam="1">  1        2 0.31359147E-02 0.90725859E+02</pdfrwt>
<pdfrwt beam="2">  1       -2 0.15531423E-01 0.90725859E+02</pdfrwt>
<totfact> 0.80568106E+04</totfact>
</mgrwt>
</event>
<event>
 7    1  0.3480999E-009  0.9247893E+02  0.7818608E-02  0.1296957E+00
          2   -1    0    0  501    0  0.00000000000E+00  0.00000000000E+00  0.94314131053E+02  0.94314131088E+02  0.25500000000E-02 0. -1.
         -2   -1    0    0    0  501 -0.00000000000E+00 -0.00000000000E+00 -0.22669861611E+02  0.22669861755E+02  0.25500000000E-02 0.  1.
         23    2    1    2    0    0  0.88817841970E-15  0.35527136788E-14  0.71644269442E+02  0.11698399284E+03  0.92478934020E+02 0.  0.
    9000005    2    3    3    0    0  0.66343054657E+01  0.28597599377E+02 -0.73237793373E+01  0.32735613469E+02  0.12495837156E+02 0.  0.
         22    1    3    3    0    0 -0.66343054657E+01 -0.28597599377E+02  0.78968048779E+02  0.84248379374E+02  0.00000000000E+00 0. -1.
         22    1    4    4    0    0  0.22841839777E+01  0.88804311108E+01 -0.85092894217E+01  0.12509498776E+02  0.00000000000E+00 0.  1.
         22    1    4    4    0    0  0.43501214880E+01  0.19717168267E+02  0.11855100844E+01  0.20226114693E+02  0.00000000000E+00 0.  1.
<mgrwt>
<rscale>  0 0.92478934E+02</rscale>
<asrwt>0</asrwt>
<pdfrwt beam="1">  1        2 0.14509867E-01 0.92478934E+02</pdfrwt>
<pdfrwt beam="2">  1       -2 0.34876710E-02 0.92478934E+02</pdfrwt>
<totfact> 0.11589226E+05</totfact>
</mgrwt>
</event>
<event>
 7    1  0.3480999E-009  0.9135239E+02  0.7818608E-02  0.1299609E+00
          2   -1    0    0  501    0  0.00000000000E+00  0.00000000000E+00  0.69472741224E+01  0.69472745904E+01  0.25500000000E-02 0. -1.
         -2   -1    0    0    0  501 -0.00000000000E+00 -0.00000000000E+00 -0.30030693365E+03  0.30030693366E+03  0.25500000000E-02 0.  1.
         23    2    1    2    0    0 -0.35527136788E-14  0.71054273576E-14 -0.29335965953E+03  0.30725420825E+03  0.91352387215E+02 0.  0.
    9000005    2    3    3    0    0  0.17906199224E+02 -0.40441271933E+02 -0.11395941908E+03  0.12248252557E+03  0.76870948969E+01 0.  0.
         22    1    3    3    0    0 -0.17906199224E+02  0.40441271933E+02 -0.17940024045E+03  0.18477168268E+03  0.00000000000E+00 0.  1.
         22    1    4    4    0    0  0.92813706488E+01 -0.14771952263E+02 -0.37229948790E+02  0.41114760144E+02  0.00000000000E+00 0. -1.
         22    1    4    4    0    0  0.86248285755E+01 -0.25669319671E+02 -0.76729470288E+02  0.81367765429E+02  0.00000000000E+00 0. -1.
<mgrwt>
<rscale>  0 0.91352387E+02</rscale>
<asrwt>0</asrwt>
<pdfrwt beam="1">  1        2 0.10688117E-02 0.91352387E+02</pdfrwt>
<pdfrwt beam="2">  1       -2 0.46201057E-01 0.91352387E+02</pdfrwt>
<totfact> 0.50719918E+04</totfact>
</mgrwt>
</event>
<event>
 7    1  0.3480999E-009  0.8941571E+02  0.7818608E-02  0.1304273E+00
         -2   -1    0    0    0  501 -0.00000000000E+00  0.00000000000E+00  0.89251728822E+00  0.89252093100E+00  0.25500000000E-02 0.  1.
          2   -1    0    0  501    0  0.00000000000E+00 -0.00000000000E+00 -0.22394952186E+04  0.22394952186E+04  0.25500000000E-02 0. -1.
         23    2    1    2    0    0  0.00000000000E+00  0.00000000000E+00 -0.22386027014E+04  0.22403877396E+04  0.89415709622E+02 0.  0.
    9000005    2    3    3    0    0 -0.17706643034E+02 -0.37868339007E+01 -0.21434550265E+04  0.21435324591E+04  0.20217392982E+01 0.  0.
         22    1    3    3    0    0  0.17706643034E+02  0.37868339007E+01 -0.95147674879E+02  0.96855280462E+02  0.00000000000E+00 0.  1.
         22    1    4    4    0    0 -0.62863340290E+01 -0.18968779609E+01 -0.68328704644E+03  0.68331859625E+03  0.00000000000E+00 0.  1.
         22    1    4    4    0    0 -0.11420309005E+02 -0.18899559398E+01 -0.14601679800E+04  0.14602138629E+04  0.00000000000E+00 0.  1.
<mgrwt>
<rscale>  0 0.89415710E+02</rscale>
<asrwt>0</asrwt>
<pdfrwt beam="2">  1        2 0.34453323E+00 0.89415710E+02</pdfrwt>
<pdfrwt beam="1">  1       -2 0.13731243E-03 0.89415710E+02</pdfrwt>
<totfact> 0.18328136E+05</totfact>
</mgrwt>
</event>
<event>
 7    1  0.3480999E-009  0.9128459E+02  0.7818608E-02  0.1299770E+00
         -2   -1    0    0    0  501 -0.00000000000E+00  0.00000000000E+00  0.60866730513E+01  0.60866735855E+01  0.25500000000E-02 0.  1.
          2   -1    0    0  501    0  0.00000000000E+00 -0.00000000000E+00 -0.34225908343E+03  0.34225908344E+03  0.25500000000E-02 0. -1.
         23    2    1    2    0    0  0.00000000000E+00 -0.71054273576E-14 -0.33617241038E+03  0.34834575703E+03  0.91284593100E+02 0.  0.
    9000005    2    3    3    0    0  0.12103315604E+02  0.40074475683E+02 -0.11102705879E+03  0.11934164529E+03  0.12765839841E+02 0.  0.
         22    1    3    3    0    0 -0.12103315604E+02 -0.40074475683E+02 -0.22514535159E+03  0.22900411174E+03  0.00000000000E+00 0.  1.
         22    1    4    4    0    0  0.20729162043E+01  0.63486666979E+01 -0.34124626944E+02  0.34772010504E+02  0.00000000000E+00 0.  1.
         22    1    4    4    0    0  0.10030399400E+02  0.33725808985E+02 -0.76902431845E+02  0.84569634784E+02  0.00000000000E+00 0.  1.
<mgrwt>
<rscale>  0 0.91284593E+02</rscale>
<asrwt>0</asrwt>
<pdfrwt beam="2">  1        2 0.52655229E-01 0.91284593E+02</pdfrwt>
<pdfrwt beam="1">  1       -2 0.93641154E-03 0.91284593E+02</pdfrwt>
<totfact> 0.18805109E+05</totfact>
</mgrwt>
</event>
<event>
 7    1  0.3480999E-009  0.8635345E+02  0.7818608E-02  0.1311931E+00
         -2   -1    0    0    0  501 -0.00000000000E+00  0.00000000000E+00  0.92228686250E+01  0.92228689775E+01  0.25500000000E-02 0.  1.
          2   -1    0    0  501    0  0.00000000000E+00 -0.00000000000E+00 -0.20213121952E+03  0.20213121954E+03  0.25500000000E-02 0. -1.
         23    2    1    2    0    0  0.00000000000E+00  0.00000000000E+00 -0.19290835090E+03  0.21135408851E+03  0.86353453240E+02 0.  0.
    9000005    2    3    3    0    0  0.88244238351E+01  0.40679227652E+02 -0.11670347954E+03  0.12452176483E+03  0.12381347297E+02 0.  0.
         22    1    3    3    0    0 -0.88244238351E+01 -0.40679227652E+02 -0.76204871358E+02  0.86832323688E+02  0.00000000000E+00 0.  1.
         22    1    4    4    0    0  0.11489553410E+02  0.25356652136E+02 -0.72386601861E+02  0.77555075747E+02  0.00000000000E+00 0.  1.
         22    1    4    4    0    0 -0.26651295744E+01  0.15322575516E+02 -0.44316877677E+02  0.46966689080E+02  0.00000000000E+00 0.  1.
<mgrwt>
<rscale>  0 0.86353453E+02</rscale>
<asrwt>0</asrwt>
<pdfrwt beam="2">  1        2 0.31097107E-01 0.86353453E+02</pdfrwt>
<pdfrwt beam="1">  1       -2 0.14189031E-02 0.86353453E+02</pdfrwt>
<totfact> 0.17963451E+05</totfact>
</mgrwt>
</event>
<event>
 7    1  0.3480999E-009  0.1032316E+03  0.7818608E-02  0.1273643E+00
         -2   -1    0    0    0  501 -0.00000000000E+00  0.00000000000E+00  0.20752247517E+02  0.20752247673E+02  0.25500000000E-02 0.  1.
          2   -1    0    0  501    0  0.00000000000E+00 -0.00000000000E+00 -0.12838094201E+03  0.12838094203E+03  0.25500000000E-02 0. -1.
         23    2    1    2    0    0  0.00000000000E+00  0.00000000000E+00 -0.10762869449E+03  0.14913318970E+03  0.10323164434E+03 0.  0.
    9000005    2    3    3    0    0  0.50140660378E+02  0.10740790224E+02 -0.62046621434E+02  0.80524328893E+02  0.22212416598E+01 0.  0.
         22    1    3    3    0    0 -0.50140660378E+02 -0.10740790224E+02 -0.45582073054E+02  0.68608860811E+02  0.00000000000E+00 0. -1.
         22    1    4    4    0    0  0.53982030557E+01  0.95137657374E+00 -0.77049264942E+01  0.94557710366E+01  0.00000000000E+00 0. -1.
         22    1    4    4    0    0  0.44742457323E+02  0.97894136500E+01 -0.54341694940E+02  0.71068557857E+02  0.00000000000E+00 0. -1.
<mgrwt>
<rscale>  0 0.10323164E+03</rscale>
<asrwt>0</asrwt>
<pdfrwt beam="2">  1        2 0.19750914E-01 0.10323164E+03</pdfrwt>
<pdfrwt beam="1">  1       -2 0.31926535E-02 0.10323164E+03</pdfrwt>
<totfact> 0.94304561E+04</totfact>
</mgrwt>
</event>
<event>
 7    1  0.3480999E-009  0.9589322E+02  0.7818608E-02  0.1289177E+00
          2   -1    0    0  501    0  0.00000000000E+00  0.00000000000E+00  0.19444167864E+02  0.19444168032E+02  0.25500000000E-02 0. -1.
         -2   -1    0    0    0  501 -0.00000000000E+00 -0.00000000000E+00 -0.11822965029E+03  0.11822965032E+03  0.25500000000E-02 0.  1.
         23    2    1    2    0    0  0.00000000000E+00  0.17763568394E-14 -0.98785482425E+02  0.13767381835E+03  0.95893215196E+02 0.  0.
    9000005    2    3    3    0    0 -0.33932852670E+02  0.11794982774E+02 -0.94952545957E+02  0.10154555364E+03  0.22256170444E+01 0.  0.
         22    1    3    3    0    0  0.33932852670E+02 -0.11794982774E+02 -0.38329364681E+01  0.36128264709E+02  0.00000000000E+00 0. -1.
         22    1    4    4    0    0 -0.30450371421E+02  0.11177261248E+02 -0.86570452846E+02  0.92447820929E+02  0.00000000000E+00 0. -1.
         22    1    4    4    0    0 -0.34824812491E+01  0.61772152542E+00 -0.83820931108E+01  0.90977327094E+01  0.00000000000E+00 0. -1.
<mgrwt>
<rscale>  0 0.95893215E+02</rscale>
<asrwt>0</asrwt>
<pdfrwt beam="1">  1        2 0.29914105E-02 0.95893215E+02</pdfrwt>
<pdfrwt beam="2">  1       -2 0.18189177E-01 0.95893215E+02</pdfrwt>
<totfact> 0.66770004E+04</totfact>
</mgrwt>
</event>
<event>
 7    1  0.3480999E-009  0.9044191E+02  0.7818608E-02  0.1301785E+00
         -2   -1    0    0    0  501 -0.00000000000E+00  0.00000000000E+00  0.37439586386E+02  0.37439586473E+02  0.25500000000E-02 0. -1.
          2   -1    0    0  501    0  0.00000000000E+00 -0.00000000000E+00 -0.54619590963E+02  0.54619591022E+02  0.25500000000E-02 0.  1.
         23    2    1    2    0    0  0.00000000000E+00  0.00000000000E+00 -0.17180004577E+02  0.92059177495E+02  0.90441912872E+02 0.  0.
    9000005    2    3    3    0    0  0.86115982263E+01  0.42888172652E+02 -0.52580957766E+01  0.46719494139E+02  0.15540546447E+02 0.  0.
         22    1    3    3    0    0 -0.86115982263E+01 -0.42888172652E+02 -0.11921908800E+02  0.45339683357E+02  0.00000000000E+00 0.  1.
         22    1    4    4    0    0 -0.72073791723E+00  0.26842714254E+02 -0.78525586166E+01  0.27977016433E+02  0.00000000000E+00 0. -1.
         22    1    4    4    0    0  0.93323361435E+01  0.16045458399E+02  0.25944628400E+01  0.18742477706E+02  0.00000000000E+00 0. -1.
<mgrwt>
<rscale>  0 0.90441913E+02</rscale>
<asrwt>0</asrwt>
<pdfrwt beam="2">  1        2 0.84030140E-02 0.90441913E+02</pdfrwt>
<pdfrwt beam="1">  1       -2 0.57599364E-02 0.90441913E+02</pdfrwt>
<totfact> 0.10584934E+05</totfact>
</mgrwt>
</event>
<event>
 7    1  0.3480999E-009  0.9236849E+02  0.7818608E-02  0.1297215E+00
         -2   -1    0    0    0  501 -0.00000000000E+00  0.00000000000E+00  0.32902423191E+02  0.32902423290E+02  0.25500000000E-02 0.  1.
          2   -1    0    0  501    0  0.00000000000E+00 -0.00000000000E+00 -0.64827581734E+02  0.64827581784E+02  0.25500000000E-02 0. -1.
         23    2    1    2    0    0  0.00000000000E+00  0.00000000000E+00 -0.31925158542E+02  0.97730005074E+02  0.92368491077E+02 0.  0.
    9000005    2    3    3    0    0 -0.38665914498E+02  0.24514468502E+02 -0.11636574827E+02  0.47653675945E+02  0.62809909651E+01 0.  0.
         22    1    3    3    0    0  0.38665914498E+02 -0.24514468502E+02 -0.20288583715E+02  0.50076329129E+02  0.00000000000E+00 0.  1.
         22    1    4    4    0    0 -0.24493991692E+02  0.18423699098E+02 -0.60028981522E+01  0.31231764338E+02  0.00000000000E+00 0. -1.
         22    1    4    4    0    0 -0.14171922806E+02  0.60907694038E+01 -0.56336766749E+01  0.16421911607E+02  0.00000000000E+00 0. -1.
<mgrwt>
<rscale>  0 0.92368491E+02</rscale>
<asrwt>0</asrwt>
<pdfrwt beam="2">  1        2 0.99734741E-02 0.92368491E+02</pdfrwt>
<pdfrwt beam="1">  1       -2 0.50619113E-02 0.92368491E+02</pdfrwt>
<totfact> 0.10442435E+05</totfact>
</mgrwt>
</event>
<event>
 7    1  0.3480999E-009  0.9106789E+02  0.7818608E-02  0.1300286E+00
         -2   -1    0    0    0  501 -0.00000000000E+00  0.00000000000E+00  0.86917292494E+01  0.86917296235E+01  0.25500000000E-02 0.  1.
          2   -1    0    0  501    0  0.00000000000E+00 -0.00000000000E+00 -0.23854171942E+03  0.23854171943E+03  0.25500000000E-02 0. -1.
         23    2    1    2    0    0  0.71054273576E-14  0.00000000000E+00 -0.22984999017E+03  0.24723344905E+03  0.91067888694E+02 0.  0.
    9000005    2    3    3    0    0 -0.33671620751E+02  0.25844401923E+02 -0.15867690932E+03  0.16436416288E+03  0.59586349798E+01 0.  0.
         22    1    3    3    0    0  0.33671620751E+02 -0.25844401923E+02 -0.71173080842E+02  0.82869286176E+02  0.00000000000E+00 0.  1.
         22    1    4    4    0    0 -0.23290416443E+01  0.23276157920E+01 -0.19516678428E+02  0.19792497749E+02  0.00000000000E+00 0.  1.
         22    1    4    4    0    0 -0.31342579107E+02  0.23516786131E+02 -0.13916023090E+03  0.14457166513E+03  0.00000000000E+00 0.  1.
<mgrwt>
<rscale>  0 0.91067889E+02</rscale>
<asrwt>0</asrwt>
<pdfrwt beam="2">  1        2 0.36698721E-01 0.91067889E+02</pdfrwt>
<pdfrwt beam="1">  1       -2 0.13371893E-02 0.91067889E+02</pdfrwt>
<totfact> 0.16550551E+05</totfact>
</mgrwt>
</event>
<event>
 7    1  0.3480999E-009  0.9192076E+02  0.7818608E-02  0.1298266E+00
          2   -1    0    0  501    0  0.00000000000E+00  0.00000000000E+00  0.41901176467E+03  0.41901176468E+03  0.25500000000E-02 0. -1.
         -2   -1    0    0    0  501 -0.00000000000E+00 -0.00000000000E+00 -0.50412815546E+01  0.50412821996E+01  0.25500000000E-02 0.  1.
         23    2    1    2    0    0  0.00000000000E+00 -0.71054273576E-14  0.41397048312E+03  0.42405304688E+03  0.91920757586E+02 0.  0.
    9000005    2    3    3    0    0  0.50000624510E+01  0.36464269866E+02  0.33061088029E+03  0.33292968553E+03  0.13563839231E+02 0.  0.
         22    1    3    3    0    0 -0.50000624510E+01 -0.36464269866E+02  0.83359602826E+02  0.91123361356E+02  0.00000000000E+00 0.  1.
         22    1    4    4    0    0  0.52043066450E+01  0.30478393477E+02  0.22065277401E+03  0.22280858142E+03  0.00000000000E+00 0.  1.
         22    1    4    4    0    0 -0.20424419400E+00  0.59858763890E+01  0.10995810628E+03  0.11012110410E+03  0.00000000000E+00 0.  1.
<mgrwt>
<rscale>  0 0.91920758E+02</rscale>
<asrwt>0</asrwt>
<pdfrwt beam="1">  1        2 0.64463363E-01 0.91920758E+02</pdfrwt>
<pdfrwt beam="2">  1       -2 0.77558165E-03 0.91920758E+02</pdfrwt>
<totfact> 0.19861025E+05</totfact>
</mgrwt>
</event>
<event>
 7    1  0.3480999E-009  0.8509173E+02  0.7818608E-02  0.1315193E+00
         -2   -1    0    0    0  501 -0.00000000000E+00  0.00000000000E+00  0.22077705093E+01  0.22077719820E+01  0.25500000000E-02 0. -1.
          2   -1    0    0  501    0  0.00000000000E+00 -0.00000000000E+00 -0.81989945220E+03  0.81989945220E+03  0.25500000000E-02 0.  1.
         23    2    1    2    0    0 -0.17763568394E-14  0.00000000000E+00 -0.81769168169E+03  0.82210722419E+03  0.85091725524E+02 0.  0.
    9000005    2    3    3    0    0  0.14015951487E+02  0.15020648315E+02 -0.76718949548E+03  0.76758624122E+03  0.13669270575E+02 0.  0.
         22    1    3    3    0    0 -0.14015951487E+02 -0.15020648315E+02 -0.50502186211E+02  0.54520982970E+02  0.00000000000E+00 0. -1.
         22    1    4    4    0    0  0.16467845344E+02  0.14205176810E+02 -0.71759081969E+03  0.71792030302E+03  0.00000000000E+00 0. -1.
         22    1    4    4    0    0 -0.24518938569E+01  0.81547150528E+00 -0.49598675785E+02  0.49665938196E+02  0.00000000000E+00 0. -1.
<mgrwt>
<rscale>  0 0.85091726E+02</rscale>
<asrwt>0</asrwt>
<pdfrwt beam="2">  1        2 0.12613813E+00 0.85091726E+02</pdfrwt>
<pdfrwt beam="1">  1       -2 0.33965777E-03 0.85091726E+02</pdfrwt>
<totfact> 0.29342369E+05</totfact>
</mgrwt>
</event>
<event>
 7    1  0.3480999E-009  0.9176040E+02  0.7818608E-02  0.1298644E+00
          2   -1    0    0  501    0  0.00000000000E+00  0.00000000000E+00  0.35008614880E+03  0.35008614880E+03  0.25500000000E-02 0. -1.
         -2   -1    0    0    0  501 -0.00000000000E+00 -0.00000000000E+00 -0.60127846686E+01  0.60127852093E+01  0.25500000000E-02 0.  1.
         23    2    1    2    0    0  0.00000000000E+00  0.44408920985E-15  0.34407336413E+03  0.35609893401E+03  0.91760399435E+02 0.  0.
    9000005    2    3    3    0    0 -0.33614587914E+02  0.31234705274E+01  0.29081294171E+03  0.29304047554E+03  0.12682927549E+02 0.  0.
         22    1    3    3    0    0  0.33614587914E+02 -0.31234705274E+01  0.53260422416E+02  0.63058458471E+02  0.00000000000E+00 0.  1.
         22    1    4    4    0    0 -0.32866759342E+01  0.45967651255E+01  0.40359594794E+02  0.40753274473E+02  0.00000000000E+00 0. -1.
         22    1    4    4    0    0 -0.30327911980E+02 -0.14732945981E+01  0.25045334692E+03  0.25228720107E+03  0.00000000000E+00 0. -1.
<mgrwt>
<rscale>  0 0.91760399E+02</rscale>
<asrwt>0</asrwt>
<pdfrwt beam="1">  1        2 0.53859404E-01 0.91760399E+02</pdfrwt>
<pdfrwt beam="2">  1       -2 0.92504390E-03 0.91760399E+02</pdfrwt>
<totfact> 0.18700957E+05</totfact>
</mgrwt>
</event>
<event>
 7    1  0.3480999E-009  0.9203384E+02  0.7818608E-02  0.1298000E+00
         -2   -1    0    0    0  501 -0.00000000000E+00  0.00000000000E+00  0.12590205530E+01  0.12590231354E+01  0.25500000000E-02 0. -1.
          2   -1    0    0  501    0  0.00000000000E+00 -0.00000000000E+00 -0.16819062678E+04  0.16819062678E+04  0.25500000000E-02 0.  1.
         23    2    1    2    0    0 -0.17763568394E-14 -0.35527136788E-14 -0.16806472472E+04  0.16831652909E+04  0.92033835827E+02 0.  0.
    9000005    2    3    3    0    0  0.15124882216E+02  0.12751460706E+02 -0.15988209903E+04  0.15989815744E+04  0.11052342482E+02 0.  0.
         22    1    3    3    0    0 -0.15124882216E+02 -0.12751460706E+02 -0.81826256875E+02  0.84183716515E+02  0.00000000000E+00 0. -1.
         22    1    4    4    0    0  0.93300549092E+01  0.80487999073E+01 -0.13298063743E+04  0.13298634615E+04  0.00000000000E+00 0.  1.
         22    1    4    4    0    0  0.57948273067E+01  0.47026607986E+01 -0.26901461599E+03  0.26911811284E+03  0.00000000000E+00 0.  1.
<mgrwt>
<rscale>  0 0.92033836E+02</rscale>
<asrwt>0</asrwt>
<pdfrwt beam="2">  1        2 0.25875301E+00 0.92033836E+02</pdfrwt>
<pdfrwt beam="1">  1       -2 0.19369701E-03 0.92033836E+02</pdfrwt>
<totfact> 0.21820775E+05</totfact>
</mgrwt>
</event>
<event>
 7    1  0.3480999E-009  0.9077466E+02  0.7818608E-02  0.1300987E+00
         -2   -1    0    0    0  501 -0.00000000000E+00  0.00000000000E+00  0.89943428906E+02  0.89943428942E+02  0.25500000000E-02 0.  1.
          2   -1    0    0  501    0  0.00000000000E+00 -0.00000000000E+00 -0.22903391518E+02  0.22903391660E+02  0.25500000000E-02 0. -1.
         23    2    1    2    0    0  0.00000000000E+00 -0.35527136788E-14  0.67040037387E+02  0.11284682060E+03  0.90774656745E+02 0.  0.
    9000005    2    3    3    0    0 -0.27605071911E+02 -0.23348774970E+02  0.25183532280E+00  0.36900331396E+02  0.73733132483E+01 0.  0.
         22    1    3    3    0    0  0.27605071911E+02  0.23348774970E+02  0.66788202064E+02  0.75946489207E+02  0.00000000000E+00 0. -1.
         22    1    4    4    0    0 -0.20204848040E+02 -0.17180803515E+02  0.34595734479E+01  0.26746673478E+02  0.00000000000E+00 0. -1.
         22    1    4    4    0    0 -0.74002238717E+01 -0.61679714549E+01 -0.32077381251E+01  0.10153657917E+02  0.00000000000E+00 0. -1.
<mgrwt>
<rscale>  0 0.90774657E+02</rscale>
<asrwt>0</asrwt>
<pdfrwt beam="2">  1        2 0.35235987E-02 0.90774657E+02</pdfrwt>
<pdfrwt beam="1">  1       -2 0.13837451E-01 0.90774657E+02</pdfrwt>
<totfact> 0.83224366E+04</totfact>
</mgrwt>
</event>
<event>
 7    1  0.3480999E-009  0.9109126E+02  0.7818608E-02  0.1300230E+00
          2   -1    0    0  501    0  0.00000000000E+00  0.00000000000E+00  0.30243828749E+03  0.30243828750E+03  0.25500000000E-02 0. -1.
         -2   -1    0    0    0  501 -0.00000000000E+00 -0.00000000000E+00 -0.68589340789E+01  0.68589345529E+01  0.25500000000E-02 0.  1.
         23    2    1    2    0    0  0.00000000000E+00  0.35527136788E-14  0.29557935341E+03  0.30929722205E+03  0.91091258676E+02 0.  0.
    9000005    2    3    3    0    0  0.39407870262E+02  0.21610969591E+02  0.12647437716E+03  0.13432148877E+03  0.51458742845E+01 0.  0.
         22    1    3    3    0    0 -0.39407870262E+02 -0.21610969591E+02  0.16910497624E+03  0.17497573328E+03  0.00000000000E+00 0. -1.
         22    1    4    4    0    0  0.25521239749E+02  0.11916540314E+02  0.73844642919E+02  0.79033973070E+02  0.00000000000E+00 0. -1.
         22    1    4    4    0    0  0.13886630513E+02  0.96944292770E+01  0.52629734244E+02  0.55287515703E+02  0.00000000000E+00 0. -1.
<mgrwt>
<rscale>  0 0.91091259E+02</rscale>
<asrwt>0</asrwt>
<pdfrwt beam="1">  1        2 0.46528972E-01 0.91091259E+02</pdfrwt>
<pdfrwt beam="2">  1       -2 0.10552206E-02 0.91091259E+02</pdfrwt>
<totfact> 0.18065470E+05</totfact>
</mgrwt>
</event>
<event>
 7    1  0.3480999E-009  0.9131243E+02  0.7818608E-02  0.1299704E+00
          2   -1    0    0  501    0  0.00000000000E+00  0.00000000000E+00  0.25999955697E+03  0.25999955699E+03  0.25500000000E-02 0. -1.
         -2   -1    0    0    0  501 -0.00000000000E+00 -0.00000000000E+00 -0.80172818800E+01  0.80172822855E+01  0.25500000000E-02 0.  1.
         23    2    1    2    0    0  0.00000000000E+00 -0.71054273576E-14  0.25198227509E+03  0.26801683927E+03  0.91312426163E+02 0.  0.
    9000005    2    3    3    0    0  0.18131688667E+02 -0.32047004492E+02  0.49307713599E+02  0.62024736248E+02  0.77491067567E+01 0.  0.
         22    1    3    3    0    0 -0.18131688667E+02  0.32047004492E+02  0.20267456149E+03  0.20599210302E+03  0.00000000000E+00 0. -1.
         22    1    4    4    0    0  0.86246593979E+01 -0.84259007827E+01  0.13707513251E+02  0.18255861339E+02  0.00000000000E+00 0.  1.
         22    1    4    4    0    0  0.95070292687E+01 -0.23621103709E+02  0.35600200348E+02  0.43768874909E+02  0.00000000000E+00 0.  1.
<mgrwt>
<rscale>  0 0.91312426E+02</rscale>
<asrwt>0</asrwt>
<pdfrwt beam="1">  1        2 0.39999931E-01 0.91312426E+02</pdfrwt>
<pdfrwt beam="2">  1       -2 0.12334281E-02 0.91312426E+02</pdfrwt>
<totfact> 0.16964538E+05</totfact>
</mgrwt>
</event>
<event>
 7    1  0.3480999E-009  0.9057127E+02  0.7818608E-02  0.1301474E+00
          2   -1    0    0  501    0  0.00000000000E+00  0.00000000000E+00  0.80822966430E+02  0.80822966470E+02  0.25500000000E-02 0. -1.
         -2   -1    0    0    0  501 -0.00000000000E+00 -0.00000000000E+00 -0.25373836706E+02  0.25373836834E+02  0.25500000000E-02 0.  1.
         23    2    1    2    0    0  0.00000000000E+00  0.00000000000E+00  0.55449129724E+02  0.10619680330E+03  0.90571270526E+02 0.  0.
    9000005    2    3    3    0    0 -0.41032519536E+02  0.17352607846E+02  0.22363820704E+02  0.50704296319E+02  0.92738627433E+01 0.  0.
         22    1    3    3    0    0  0.41032519536E+02 -0.17352607846E+02  0.33085309020E+02  0.55492506985E+02  0.00000000000E+00 0.  1.
         22    1    4    4    0    0 -0.67908878059E+01  0.11965106350E+01  0.70538690573E+01  0.98643227629E+01  0.00000000000E+00 0.  1.
         22    1    4    4    0    0 -0.34241631730E+02  0.16156097211E+02  0.15309951646E+02  0.40839973556E+02  0.00000000000E+00 0.  1.
<mgrwt>
<rscale>  0 0.90571271E+02</rscale>
<asrwt>0</asrwt>
<pdfrwt beam="1">  1        2 0.12434303E-01 0.90571271E+02</pdfrwt>
<pdfrwt beam="2">  1       -2 0.39036671E-02 0.90571271E+02</pdfrwt>
<totfact> 0.11734291E+05</totfact>
</mgrwt>
</event>
<event>
 7    1  0.3480999E-009  0.9684966E+02  0.7818608E-02  0.1287064E+00
          2   -1    0    0  501    0  0.00000000000E+00  0.00000000000E+00  0.25492278150E+03  0.25492278151E+03  0.25500000000E-02 0. -1.
         -2   -1    0    0    0  501 -0.00000000000E+00 -0.00000000000E+00 -0.91987231596E+01  0.91987235130E+01  0.25500000000E-02 0.  1.
         23    2    1    2    0    0  0.00000000000E+00  0.00000000000E+00  0.24572405834E+03  0.26412150502E+03  0.96849659626E+02 0.  0.
    9000005    2    3    3    0    0  0.42064260505E+02 -0.22209338608E+02  0.13078463218E+03  0.13972806299E+03  0.12516183189E+02 0.  0.
         22    1    3    3    0    0 -0.42064260505E+02  0.22209338608E+02  0.11493942616E+03  0.12439344203E+03  0.00000000000E+00 0. -1.
         22    1    4    4    0    0  0.35769971821E+02 -0.13898422883E+02  0.10944622764E+03  0.11597902304E+03  0.00000000000E+00 0. -1.
         22    1    4    4    0    0  0.62942886844E+01 -0.83109157249E+01  0.21338404540E+02  0.23749039950E+02  0.00000000000E+00 0. -1.
<mgrwt>
<rscale>  0 0.96849660E+02</rscale>
<asrwt>0</asrwt>
<pdfrwt beam="1">  1        2 0.39218892E-01 0.96849660E+02</pdfrwt>
<pdfrwt beam="2">  1       -2 0.14151881E-02 0.96849660E+02</pdfrwt>
<totfact> 0.14375666E+05</totfact>
</mgrwt>
</event>
<event>
 7    1  0.3480999E-009  0.9146063E+02  0.7818608E-02  0.1299353E+00
          2   -1    0    0  501    0  0.00000000000E+00  0.00000000000E+00  0.60996837059E+02  0.60996837112E+02  0.25500000000E-02 0. -1.
         -2   -1    0    0    0  501 -0.00000000000E+00 -0.00000000000E+00 -0.34284753086E+02  0.34284753181E+02  0.25500000000E-02 0.  1.
         23    2    1    2    0    0  0.00000000000E+00  0.00000000000E+00  0.26712083973E+02  0.95281590293E+02  0.91460625509E+02 0.  0.
    9000005    2    3    3    0    0 -0.37197433161E+02  0.26322751553E+02  0.10312104414E+02  0.46851273211E+02  0.34879823543E+01 0.  0.
         22    1    3    3    0    0  0.37197433161E+02 -0.26322751553E+02  0.16399979559E+02  0.48430317082E+02  0.00000000000E+00 0. -1.
         22    1    4    4    0    0 -0.23608107325E+02  0.14756773164E+02  0.69008779748E+01  0.28683221620E+02  0.00000000000E+00 0. -1.
         22    1    4    4    0    0 -0.13589325836E+02  0.11565978389E+02  0.34112264395E+01  0.18168051591E+02  0.00000000000E+00 0. -1.
<mgrwt>
<rscale>  0 0.91460626E+02</rscale>
<asrwt>0</asrwt>
<pdfrwt beam="1">  1        2 0.93841288E-02 0.91460626E+02</pdfrwt>
<pdfrwt beam="2">  1       -2 0.52745774E-02 0.91460626E+02</pdfrwt>
<totfact> 0.10560988E+05</totfact>
</mgrwt>
</event>
<event>
 7    1  0.3480999E-009  0.9023290E+02  0.7818608E-02  0.1302289E+00
          2   -1    0    0  501    0  0.00000000000E+00  0.00000000000E+00  0.26336878993E+02  0.26336879117E+02  0.25500000000E-02 0. -1.
         -2   -1    0    0    0  501 -0.00000000000E+00 -0.00000000000E+00 -0.77286832089E+02  0.77286832131E+02  0.25500000000E-02 0.  1.
         23    2    1    2    0    0 -0.35527136788E-14  0.00000000000E+00 -0.50949953096E+02  0.10362371125E+03  0.90232897617E+02 0.  0.
    9000005    2    3    3    0    0 -0.17330046583E+02 -0.37368677839E+02 -0.46533316028E+02  0.62195999738E+02  0.24988566979E+01 0.  0.
         22    1    3    3    0    0  0.17330046583E+02  0.37368677839E+02 -0.44166370683E+01  0.41427711511E+02  0.00000000000E+00 0. -1.
         22    1    4    4    0    0 -0.16363316074E+02 -0.33543874269E+02 -0.42072190146E+02  0.56240721880E+02  0.00000000000E+00 0. -1.
         22    1    4    4    0    0 -0.96673050953E+00 -0.38248035701E+01 -0.44611258814E+01  0.59552778573E+01  0.00000000000E+00 0. -1.
<mgrwt>
<rscale>  0 0.90232898E+02</rscale>
<asrwt>0</asrwt>
<pdfrwt beam="1">  1        2 0.40518276E-02 0.90232898E+02</pdfrwt>
<pdfrwt beam="2">  1       -2 0.11890282E-01 0.90232898E+02</pdfrwt>
<totfact> 0.88107740E+04</totfact>
</mgrwt>
</event>
<event>
 7    1  0.3480999E-009  0.9040485E+02  0.7818608E-02  0.1301874E+00
         -2   -1    0    0    0  501 -0.00000000000E+00  0.00000000000E+00  0.60321726383E+01  0.60321731773E+01  0.25500000000E-02 0.  1.
          2   -1    0    0  501    0  0.00000000000E+00 -0.00000000000E+00 -0.33872692981E+03  0.33872692982E+03  0.25500000000E-02 0. -1.
         23    2    1    2    0    0  0.35527136788E-14  0.00000000000E+00 -0.33269475717E+03  0.34475910300E+03  0.90404854127E+02 0.  0.
    9000005    2    3    3    0    0 -0.29198209426E+02  0.33063669409E+02 -0.15780127235E+03  0.16438872654E+03  0.13291733938E+02 0.  0.
         22    1    3    3    0    0  0.29198209426E+02 -0.33063669409E+02 -0.17489348482E+03  0.18037037645E+03  0.00000000000E+00 0.  1.
         22    1    4    4    0    0 -0.22620686557E+02  0.23510119246E+02 -0.13396034208E+03  0.13787601103E+03  0.00000000000E+00 0.  1.
         22    1    4    4    0    0 -0.65775228696E+01  0.95535501635E+01 -0.23840930270E+02  0.26512715515E+02  0.00000000000E+00 0.  1.
<mgrwt>
<rscale>  0 0.90404854E+02</rscale>
<asrwt>0</asrwt>
<pdfrwt beam="2">  1        2 0.52111821E-01 0.90404854E+02</pdfrwt>
<pdfrwt beam="1">  1       -2 0.92802686E-03 0.90404854E+02</pdfrwt>
<totfact> 0.19222416E+05</totfact>
</mgrwt>
</event>
<event>
 7    1  0.3480999E-009  0.9527255E+02  0.7818608E-02  0.1290563E+00
         -2   -1    0    0    0  501 -0.00000000000E+00  0.00000000000E+00  0.50176509044E+01  0.50176515523E+01  0.25500000000E-02 0.  1.
          2   -1    0    0  501    0  0.00000000000E+00 -0.00000000000E+00 -0.45224640319E+03  0.45224640320E+03  0.25500000000E-02 0. -1.
         23    2    1    2    0    0  0.00000000000E+00  0.35527136788E-14 -0.44722875229E+03  0.45726405475E+03  0.95272550586E+02 0.  0.
    9000005    2    3    3    0    0  0.29823076153E+02 -0.21545792535E+02 -0.36825207398E+03  0.37013798079E+03  0.62368090273E+01 0.  0.
         22    1    3    3    0    0 -0.29823076153E+02  0.21545792535E+02 -0.78976678313E+02  0.87126073965E+02  0.00000000000E+00 0.  1.
         22    1    4    4    0    0  0.52185588759E+01 -0.69539969760E+01 -0.81288052970E+02  0.81751691031E+02  0.00000000000E+00 0.  1.
         22    1    4    4    0    0  0.24604517277E+02 -0.14591795559E+02 -0.28696402101E+03  0.28838628976E+03  0.00000000000E+00 0.  1.
<mgrwt>
<rscale>  0 0.95272551E+02</rscale>
<asrwt>0</asrwt>
<pdfrwt beam="2">  1        2 0.69576338E-01 0.95272551E+02</pdfrwt>
<pdfrwt beam="1">  1       -2 0.77194670E-03 0.95272551E+02</pdfrwt>
<totfact> 0.18542817E+05</totfact>
</mgrwt>
</event>
<event>
 7    1  0.3480999E-009  0.9058277E+02  0.7818608E-02  0.1301447E+00
          2   -1    0    0  501    0  0.00000000000E+00  0.00000000000E+00  0.12757156110E+04  0.12757156110E+04  0.25500000000E-02 0. -1.
         -2   -1    0    0    0  501 -0.00000000000E+00 -0.00000000000E+00 -0.16079666860E+01  0.16079687080E+01  0.25500000000E-02 0.  1.
         23    2    1    2    0    0  0.00000000000E+00  0.00000000000E+00  0.12741076443E+04  0.12773235797E+04  0.90582768697E+02 0.  0.
    9000005    2    3    3    0    0  0.22003109927E+02 -0.14706837311E+02  0.11511457991E+04  0.11515458262E+04  0.14856346931E+02 0.  0.
         22    1    3    3    0    0 -0.22003109927E+02  0.14706837311E+02  0.12296184514E+03  0.12577775348E+03  0.00000000000E+00 0.  1.
         22    1    4    4    0    0  0.49660398426E+01 -0.67903275373E+01  0.63935278626E+03  0.63940812897E+03  0.00000000000E+00 0. -1.
         22    1    4    4    0    0  0.17037070084E+02 -0.79165097733E+01  0.51179301287E+03  0.51213769721E+03  0.00000000000E+00 0. -1.
<mgrwt>
<rscale>  0 0.90582769E+02</rscale>
<asrwt>0</asrwt>
<pdfrwt beam="1">  1        2 0.19626409E+00 0.90582769E+02</pdfrwt>
<pdfrwt beam="2">  1       -2 0.24737945E-03 0.90582769E+02</pdfrwt>
<totfact> 0.25082619E+05</totfact>
</mgrwt>
</event>
<event>
 7    1  0.3480999E-009  0.9485779E+02  0.7818608E-02  0.1291497E+00
          2   -1    0    0  501    0  0.00000000000E+00  0.00000000000E+00  0.17136510443E+03  0.17136510445E+03  0.25500000000E-02 0. -1.
         -2   -1    0    0    0  501 -0.00000000000E+00 -0.00000000000E+00 -0.13126944579E+02  0.13126944827E+02  0.25500000000E-02 0.  1.
         23    2    1    2    0    0  0.00000000000E+00  0.00000000000E+00  0.15823815985E+03  0.18449204927E+03  0.94857793632E+02 0.  0.
    9000005    2    3    3    0    0 -0.25924891424E+02 -0.27990111124E+02  0.13317157257E+03  0.13884251353E+03  0.93289606027E+01 0.  0.
         22    1    3    3    0    0  0.25924891424E+02  0.27990111124E+02  0.25066587281E+02  0.45649535748E+02  0.00000000000E+00 0.  1.
         22    1    4    4    0    0 -0.22505745375E+02 -0.26355644978E+02  0.10904222694E+03  0.11441737566E+03  0.00000000000E+00 0.  1.
         22    1    4    4    0    0 -0.34191460493E+01 -0.16344661452E+01  0.24129345632E+02  0.24425137868E+02  0.00000000000E+00 0.  1.
<mgrwt>
<rscale>  0 0.94857794E+02</rscale>
<asrwt>0</asrwt>
<pdfrwt beam="1">  1        2 0.26363860E-01 0.94857794E+02</pdfrwt>
<pdfrwt beam="2">  1       -2 0.20195301E-02 0.94857794E+02</pdfrwt>
<totfact> 0.13148863E+05</totfact>
</mgrwt>
</event>
<event>
 7    1  0.3480999E-009  0.9178598E+02  0.7818608E-02  0.1298583E+00
         -2   -1    0    0    0  501 -0.00000000000E+00  0.00000000000E+00  0.65906783404E+02  0.65906783453E+02  0.25500000000E-02 0.  1.
          2   -1    0    0  501    0  0.00000000000E+00 -0.00000000000E+00 -0.31956747762E+02  0.31956747863E+02  0.25500000000E-02 0. -1.
         23    2    1    2    0    0 -0.35527136788E-14  0.00000000000E+00  0.33950035642E+02  0.97863531316E+02  0.91785978459E+02 0.  0.
    9000005    2    3    3    0    0  0.23476255664E+02 -0.38533372748E+02  0.25171573006E+02  0.51895968823E+02  0.48608741115E+01 0.  0.
         22    1    3    3    0    0 -0.23476255664E+02  0.38533372748E+02  0.87784626360E+01  0.45967562493E+02  0.00000000000E+00 0. -1.
         22    1    4    4    0    0  0.39600409903E+01 -0.68934756937E+01  0.24137887398E+01  0.83083276215E+01  0.00000000000E+00 0. -1.
         22    1    4    4    0    0  0.19516214674E+02 -0.31639897054E+02  0.22757784266E+02  0.43587641202E+02  0.00000000000E+00 0. -1.
<mgrwt>
<rscale>  0 0.91785978E+02</rscale>
<asrwt>0</asrwt>
<pdfrwt beam="2">  1        2 0.49164228E-02 0.91785978E+02</pdfrwt>
<pdfrwt beam="1">  1       -2 0.10139505E-01 0.91785978E+02</pdfrwt>
<totfact> 0.88209373E+04</totfact>
</mgrwt>
</event>
<event>
 7    1  0.3480999E-009  0.5386229E+02  0.7818608E-02  0.1425557E+00
         -2   -1    0    0    0  501 -0.00000000000E+00  0.00000000000E+00  0.87451438055E+01  0.87451441773E+01  0.25500000000E-02 0.  1.
          2   -1    0    0  501    0  0.00000000000E+00 -0.00000000000E+00 -0.82935915644E+02  0.82935915683E+02  0.25500000000E-02 0. -1.
         23    2    1    2    0    0  0.44408920985E-15  0.35527136788E-14 -0.74190771838E+02  0.91681059860E+02  0.53862288395E+02 0.  0.
    9000005    2    3    3    0    0  0.37768093795E+01  0.18354180870E+02 -0.68320124796E+02  0.72044238804E+02  0.13099337699E+02 0.  0.
         22    1    3    3    0    0 -0.37768093795E+01 -0.18354180870E+02 -0.58706470420E+01  0.19636821056E+02  0.00000000000E+00 0.  1.
         22    1    4    4    0    0  0.31650262843E+01  0.13896154441E+02 -0.27470461413E+02  0.30947483741E+02  0.00000000000E+00 0. -1.
         22    1    4    4    0    0  0.61178309526E+00  0.44580264287E+01 -0.40849663384E+02  0.41096755064E+02  0.00000000000E+00 0. -1.
<mgrwt>
<rscale>  0 0.53862288E+02</rscale>
<asrwt>0</asrwt>
<pdfrwt beam="2">  1        2 0.12759371E-01 0.53862288E+02</pdfrwt>
<pdfrwt beam="1">  1       -2 0.13454068E-02 0.53862288E+02</pdfrwt>
<totfact> 0.47247856E+05</totfact>
</mgrwt>
</event>
<event>
 7    1  0.3480999E-009  0.8924151E+02  0.7818608E-02  0.1304699E+00
         -2   -1    0    0    0  501 -0.00000000000E+00  0.00000000000E+00  0.83763660869E+01  0.83763664751E+01  0.25500000000E-02 0.  1.
          2   -1    0    0  501    0  0.00000000000E+00 -0.00000000000E+00 -0.23769395939E+03  0.23769395941E+03  0.25500000000E-02 0. -1.
         23    2    1    2    0    0  0.00000000000E+00  0.00000000000E+00 -0.22931759331E+03  0.24607032588E+03  0.89241507606E+02 0.  0.
    9000005    2    3    3    0    0 -0.38460441540E+02  0.72219008798E+01 -0.59412302814E+02  0.71716750774E+02  0.90614126984E+01 0.  0.
         22    1    3    3    0    0  0.38460441540E+02 -0.72219008798E+01 -0.16990529049E+03  0.17435357511E+03  0.00000000000E+00 0. -1.
         22    1    4    4    0    0 -0.26513958553E+02  0.47555293630E+01 -0.32811164320E+02  0.42452061925E+02  0.00000000000E+00 0.  1.
         22    1    4    4    0    0 -0.11946482987E+02  0.24663715168E+01 -0.26601138494E+02  0.29264688848E+02  0.00000000000E+00 0.  1.
<mgrwt>
<rscale>  0 0.89241508E+02</rscale>
<asrwt>0</asrwt>
<pdfrwt beam="2">  1        2 0.36568296E-01 0.89241508E+02</pdfrwt>
<pdfrwt beam="1">  1       -2 0.12886719E-02 0.89241508E+02</pdfrwt>
<totfact> 0.17449537E+05</totfact>
</mgrwt>
</event>
<event>
 7    1  0.3480999E-009  0.8837240E+02  0.7818608E-02  0.1306842E+00
         -2   -1    0    0    0  501 -0.00000000000E+00  0.00000000000E+00  0.23717037554E+01  0.23717051263E+01  0.25500000000E-02 0. -1.
          2   -1    0    0  501    0  0.00000000000E+00 -0.00000000000E+00 -0.82321396373E+03  0.82321396374E+03  0.25500000000E-02 0.  1.
         23    2    1    2    0    0  0.35527136788E-14 -0.35527136788E-14 -0.82084225998E+03  0.82558566886E+03  0.88372398786E+02 0.  0.
    9000005    2    3    3    0    0  0.19034242265E+02 -0.24078757386E+02 -0.70714613232E+03  0.70781938175E+03  0.32458884188E+01 0.  0.
         22    1    3    3    0    0 -0.19034242265E+02  0.24078757386E+02 -0.11369612766E+03  0.11776628712E+03  0.00000000000E+00 0. -1.
         22    1    4    4    0    0  0.65874954900E+01 -0.60653229429E+01 -0.19545583321E+03  0.19566084426E+03  0.00000000000E+00 0.  1.
         22    1    4    4    0    0  0.12446746775E+02 -0.18013434443E+02 -0.51169029911E+03  0.51215853749E+03  0.00000000000E+00 0.  1.
<mgrwt>
<rscale>  0 0.88372399E+02</rscale>
<asrwt>0</asrwt>
<pdfrwt beam="2">  1        2 0.12664807E+00 0.88372399E+02</pdfrwt>
<pdfrwt beam="1">  1       -2 0.36487826E-03 0.88372399E+02</pdfrwt>
<totfact> 0.26589502E+05</totfact>
</mgrwt>
</event>
<event>
 7    1  0.3480999E-009  0.9031711E+02  0.7818608E-02  0.1302086E+00
         -2   -1    0    0    0  501 -0.00000000000E+00  0.00000000000E+00  0.99606005090E+01  0.99606008354E+01  0.25500000000E-02 0.  1.
          2   -1    0    0  501    0  0.00000000000E+00 -0.00000000000E+00 -0.20473616726E+03  0.20473616728E+03  0.25500000000E-02 0. -1.
         23    2    1    2    0    0  0.00000000000E+00  0.00000000000E+00 -0.19477556675E+03  0.21469676811E+03  0.90317112632E+02 0.  0.
    9000005    2    3    3    0    0  0.37232439597E+02 -0.18188753290E+02 -0.61621387053E+02  0.75243833845E+02  0.12138940838E+02 0.  0.
         22    1    3    3    0    0 -0.37232439597E+02  0.18188753290E+02 -0.13315417970E+03  0.13945293427E+03  0.00000000000E+00 0. -1.
         22    1    4    4    0    0  0.19517303508E+02 -0.15437409339E+02 -0.40564261009E+02  0.47588843382E+02  0.00000000000E+00 0.  1.
         22    1    4    4    0    0  0.17715136089E+02 -0.27513439514E+01 -0.21057126045E+02  0.27654990462E+02  0.00000000000E+00 0.  1.
<mgrwt>
<rscale>  0 0.90317113E+02</rscale>
<asrwt>0</asrwt>
<pdfrwt beam="2">  1        2 0.31497869E-01 0.90317113E+02</pdfrwt>
<pdfrwt beam="1">  1       -2 0.15324003E-02 0.90317113E+02</pdfrwt>
<totfact> 0.16002002E+05</totfact>
</mgrwt>
</event>
<event>
 7    1  0.3480999E-009  0.9071117E+02  0.7818608E-02  0.1301139E+00
         -2   -1    0    0    0  501 -0.00000000000E+00  0.00000000000E+00  0.85543244270E+01  0.85543248071E+01  0.25500000000E-02 0. -1.
          2   -1    0    0  501    0  0.00000000000E+00 -0.00000000000E+00 -0.24047825837E+03  0.24047825839E+03  0.25500000000E-02 0.  1.
         23    2    1    2    0    0  0.00000000000E+00  0.00000000000E+00 -0.23192393395E+03  0.24903258319E+03  0.90711169958E+02 0.  0.
    9000005    2    3    3    0    0 -0.32978177038E+02 -0.54011611530E+01 -0.38518682850E+02  0.52761536287E+02  0.13540977819E+02 0.  0.
         22    1    3    3    0    0  0.32978177038E+02  0.54011611530E+01 -0.19340525110E+03  0.19627104691E+03  0.00000000000E+00 0.  1.
         22    1    4    4    0    0 -0.73433531255E+01  0.39696465842E+01 -0.58593007339E+01  0.10198741796E+02  0.00000000000E+00 0. -1.
         22    1    4    4    0    0 -0.25634823912E+02 -0.93708077372E+01 -0.32659382117E+02  0.42562794491E+02  0.00000000000E+00 0. -1.
<mgrwt>
<rscale>  0 0.90711170E+02</rscale>
<asrwt>0</asrwt>
<pdfrwt beam="2">  1        2 0.36996650E-01 0.90711170E+02</pdfrwt>
<pdfrwt beam="1">  1       -2 0.13160501E-02 0.90711170E+02</pdfrwt>
<totfact> 0.16775371E+05</totfact>
</mgrwt>
</event>
<event>
 7    1  0.3480999E-009  0.9079333E+02  0.7818608E-02  0.1300942E+00
         -2   -1    0    0    0  501 -0.00000000000E+00  0.00000000000E+00  0.18613627929E+02  0.18613628103E+02  0.25500000000E-02 0.  1.
          2   -1    0    0  501    0  0.00000000000E+00 -0.00000000000E+00 -0.11071764278E+03  0.11071764281E+03  0.25500000000E-02 0. -1.
         23    2    1    2    0    0  0.00000000000E+00  0.71054273576E-14 -0.92104014853E+02  0.12933127091E+03  0.90793326210E+02 0.  0.
    9000005    2    3    3    0    0  0.62558913518E+01  0.43598166235E+02 -0.39216586074E+02  0.60505284554E+02  0.13528213483E+02 0.  0.
         22    1    3    3    0    0 -0.62558913518E+01 -0.43598166235E+02 -0.52887428779E+02  0.68825986361E+02  0.00000000000E+00 0.  1.
         22    1    4    4    0    0  0.63837069156E+01  0.86780904108E+01 -0.12728097816E+02  0.16675294336E+02  0.00000000000E+00 0. -1.
         22    1    4    4    0    0 -0.12781556372E+00  0.34920075824E+02 -0.26488488258E+02  0.43829990218E+02  0.00000000000E+00 0. -1.
<mgrwt>
<rscale>  0 0.90793326E+02</rscale>
<asrwt>0</asrwt>
<pdfrwt beam="2">  1        2 0.17033483E-01 0.90793326E+02</pdfrwt>
<pdfrwt beam="1">  1       -2 0.28636352E-02 0.90793326E+02</pdfrwt>
<totfact> 0.12806609E+05</totfact>
</mgrwt>
</event>
<event>
 7    1  0.3480999E-009  0.1039727E+03  0.7818608E-02  0.1272157E+00
          2   -1    0    0  501    0  0.00000000000E+00  0.00000000000E+00  0.60809130011E+02  0.60809130065E+02  0.25500000000E-02 0. -1.
         -2   -1    0    0    0  501 -0.00000000000E+00 -0.00000000000E+00 -0.44443682321E+02  0.44443682394E+02  0.25500000000E-02 0.  1.
         23    2    1    2    0    0  0.00000000000E+00  0.11102230246E-15  0.16365447690E+02  0.10525281246E+03  0.10397272071E+03 0.  0.
    9000005    2    3    3    0    0 -0.31746942532E+02  0.13162233769E+00  0.48919150750E+02  0.59781620838E+02  0.13148125163E+02 0.  0.
         22    1    3    3    0    0  0.31746942532E+02 -0.13162233769E+00 -0.32553703060E+02  0.45471191622E+02  0.00000000000E+00 0.  1.
         22    1    4    4    0    0 -0.21751079077E+01  0.17614288405E+01  0.25083593996E+00  0.28100969092E+01  0.00000000000E+00 0.  1.
         22    1    4    4    0    0 -0.29571834625E+02 -0.16298065028E+01  0.48668314810E+02  0.56971523929E+02  0.00000000000E+00 0.  1.
<mgrwt>
<rscale>  0 0.10397272E+03</rscale>
<asrwt>0</asrwt>
<pdfrwt beam="1">  1        2 0.93552507E-02 0.10397272E+03</pdfrwt>
<pdfrwt beam="2">  1       -2 0.68374896E-02 0.10397272E+03</pdfrwt>
<totfact> 0.73168264E+04</totfact>
</mgrwt>
</event>
<event>
 7    1  0.3480999E-009  0.9020304E+02  0.7818608E-02  0.1302361E+00
         -2   -1    0    0    0  501 -0.00000000000E+00  0.00000000000E+00  0.19494223324E+01  0.19494240002E+01  0.25500000000E-02 0.  1.
          2   -1    0    0  501    0  0.00000000000E+00 -0.00000000000E+00 -0.10434610854E+04  0.10434610854E+04  0.25500000000E-02 0. -1.
         23    2    1    2    0    0  0.00000000000E+00  0.17763568394E-14 -0.10415116631E+04  0.10454105094E+04  0.90203042439E+02 0.  0.
    9000005    2    3    3    0    0 -0.18467055052E+02  0.14400016223E+02 -0.96590245511E+03  0.96625784099E+03  0.11758821883E+02 0.  0.
         22    1    3    3    0    0  0.18467055052E+02 -0.14400016223E+02 -0.75609207970E+02  0.79152668429E+02  0.00000000000E+00 0.  1.
         22    1    4    4    0    0 -0.11528884932E+02  0.13839950314E+02 -0.54440279779E+03  0.54470071200E+03  0.00000000000E+00 0.  1.
         22    1    4    4    0    0 -0.69381701200E+01  0.56006590945E+00 -0.42149965732E+03  0.42155712899E+03  0.00000000000E+00 0.  1.
<mgrwt>
<rscale>  0 0.90203042E+02</rscale>
<asrwt>0</asrwt>
<pdfrwt beam="2">  1        2 0.16053203E+00 0.90203042E+02</pdfrwt>
<pdfrwt beam="1">  1       -2 0.29991209E-03 0.90203042E+02</pdfrwt>
<totfact> 0.25748396E+05</totfact>
</mgrwt>
</event>
<event>
 7    1  0.3480999E-009  0.9282712E+02  0.7818608E-02  0.1296146E+00
          2   -1    0    0  501    0  0.00000000000E+00  0.00000000000E+00  0.27803803164E+03  0.27803803165E+03  0.25500000000E-02 0. -1.
         -2   -1    0    0    0  501 -0.00000000000E+00 -0.00000000000E+00 -0.77479275335E+01  0.77479279531E+01  0.25500000000E-02 0.  1.
         23    2    1    2    0    0 -0.35527136788E-14  0.00000000000E+00  0.27029010410E+03  0.28578595960E+03  0.92827120655E+02 0.  0.
    9000005    2    3    3    0    0 -0.29376445896E+02  0.28390471371E+02  0.67609862101E+02  0.79029400005E+02  0.23575779286E+01 0.  0.
         22    1    3    3    0    0  0.29376445896E+02 -0.28390471371E+02  0.20268024200E+03  0.20675655960E+03  0.00000000000E+00 0. -1.
         22    1    4    4    0    0 -0.31993669553E+01  0.34527731956E+01  0.92320536685E+01  0.10362837767E+02  0.00000000000E+00 0. -1.
         22    1    4    4    0    0 -0.26177078940E+02  0.24937698175E+02  0.58377808432E+02  0.68666562237E+02  0.00000000000E+00 0. -1.
<mgrwt>
<rscale>  0 0.92827121E+02</rscale>
<asrwt>0</asrwt>
<pdfrwt beam="1">  1        2 0.42775074E-01 0.92827121E+02</pdfrwt>
<pdfrwt beam="2">  1       -2 0.11919891E-02 0.92827121E+02</pdfrwt>
<totfact> 0.16645146E+05</totfact>
</mgrwt>
</event>
<event>
 7    1  0.3480999E-009  0.8941572E+02  0.7818608E-02  0.1304273E+00
         -2   -1    0    0    0  501 -0.00000000000E+00  0.00000000000E+00  0.76711342046E+01  0.76711346284E+01  0.25500000000E-02 0.  1.
          2   -1    0    0  501    0  0.00000000000E+00 -0.00000000000E+00 -0.26056026966E+03  0.26056026967E+03  0.25500000000E-02 0. -1.
         23    2    1    2    0    0  0.88817841970E-15 -0.71054273576E-14 -0.25288913545E+03  0.26823140430E+03  0.89415722453E+02 0.  0.
    9000005    2    3    3    0    0 -0.58260383961E+01  0.37568476846E+02 -0.19365393586E+03  0.19784573781E+03  0.13991280156E+02 0.  0.
         22    1    3    3    0    0  0.58260383961E+01 -0.37568476846E+02 -0.59235199594E+02  0.70385666488E+02  0.00000000000E+00 0.  1.
         22    1    4    4    0    0 -0.53678347170E+01  0.35908547406E+01 -0.26849065031E+02  0.27614854343E+02  0.00000000000E+00 0. -1.
         22    1    4    4    0    0 -0.45820367909E+00  0.33977622106E+02 -0.16680487083E+03  0.17023088347E+03  0.00000000000E+00 0. -1.
<mgrwt>
<rscale>  0 0.89415722E+02</rscale>
<asrwt>0</asrwt>
<pdfrwt beam="2">  1        2 0.40086189E-01 0.89415722E+02</pdfrwt>
<pdfrwt beam="1">  1       -2 0.11801747E-02 0.89415722E+02</pdfrwt>
<totfact> 0.17957493E+05</totfact>
</mgrwt>
</event>
<event>
 7    1  0.3480999E-009  0.8930866E+02  0.7818608E-02  0.1304535E+00
         -2   -1    0    0    0  501 -0.00000000000E+00  0.00000000000E+00  0.23351118778E+02  0.23351118917E+02  0.25500000000E-02 0.  1.
          2   -1    0    0  501    0  0.00000000000E+00 -0.00000000000E+00 -0.85392452963E+02  0.85392453001E+02  0.25500000000E-02 0. -1.
         23    2    1    2    0    0  0.00000000000E+00  0.00000000000E+00 -0.62041334186E+02  0.10874357192E+03  0.89308662995E+02 0.  0.
    9000005    2    3    3    0    0  0.14035257093E+02 -0.10097032028E+02 -0.81119825243E+02  0.82996196936E+02  0.30006934171E+01 0.  0.
         22    1    3    3    0    0 -0.14035257093E+02  0.10097032028E+02  0.19078491057E+02  0.25747374982E+02  0.00000000000E+00 0.  1.
         22    1    4    4    0    0  0.13146998685E+02 -0.83120511475E+01 -0.72054637948E+02  0.73714344727E+02  0.00000000000E+00 0. -1.
         22    1    4    4    0    0  0.88825840823E+00 -0.17849808800E+01 -0.90651872944E+01  0.92818522088E+01  0.00000000000E+00 0. -1.
<mgrwt>
<rscale>  0 0.89308663E+02</rscale>
<asrwt>0</asrwt>
<pdfrwt beam="2">  1        2 0.13137300E-01 0.89308663E+02</pdfrwt>
<pdfrwt beam="1">  1       -2 0.35924799E-02 0.89308663E+02</pdfrwt>
<totfact> 0.12393238E+05</totfact>
</mgrwt>
</event>
<event>
 7    1  0.3480999E-009  0.9135448E+02  0.7818608E-02  0.1299604E+00
         -2   -1    0    0    0  501 -0.00000000000E+00  0.00000000000E+00  0.90543870960E+01  0.90543874551E+01  0.25500000000E-02 0. -1.
          2   -1    0    0  501    0  0.00000000000E+00 -0.00000000000E+00 -0.23043084948E+03  0.23043084950E+03  0.25500000000E-02 0.  1.
         23    2    1    2    0    0  0.00000000000E+00  0.00000000000E+00 -0.22137646239E+03  0.23948523695E+03  0.91354477827E+02 0.  0.
    9000005    2    3    3    0    0 -0.28416187729E+02  0.94372528874E+01 -0.20046466985E+03  0.20296340055E+03  0.10560143810E+02 0.  0.
         22    1    3    3    0    0  0.28416187729E+02 -0.94372528874E+01 -0.20911792535E+02  0.36521836401E+02  0.00000000000E+00 0. -1.
         22    1    4    4    0    0 -0.21302171844E+02  0.47791143339E+01 -0.11324436417E+03  0.11532956462E+03  0.00000000000E+00 0.  1.
         22    1    4    4    0    0 -0.71140158845E+01  0.46581385536E+01 -0.87220305683E+02  0.87633835932E+02  0.00000000000E+00 0.  1.
<mgrwt>
<rscale>  0 0.91354478E+02</rscale>
<asrwt>0</asrwt>
<pdfrwt beam="2">  1        2 0.35450896E-01 0.91354478E+02</pdfrwt>
<pdfrwt beam="1">  1       -2 0.13929828E-02 0.91354478E+02</pdfrwt>
<totfact> 0.16203743E+05</totfact>
</mgrwt>
</event>
<event>
 6    1  0.3480999E-009  0.3411923E+03  0.7818608E-02  0.1066289E+00
         -2   -1    0    0    0  501 -0.00000000000E+00  0.00000000000E+00  0.49960229424E+02  0.49960229489E+02  0.25500000000E-02 0.  1.
          2   -1    0    0  501    0  0.00000000000E+00 -0.00000000000E+00 -0.58252442154E+03  0.58252442154E+03  0.25500000000E-02 0. -1.
    9000005    2    1    2    0    0  0.11595388293E+03  0.12508494471E+03 -0.27146042474E+03  0.32060851585E+03  0.27407797019E+01 0.  0.
         22    1    1    2    0    0 -0.11595388293E+03 -0.12508494471E+03 -0.26110376737E+03  0.31187613518E+03  0.00000000000E+00 0.  1.
         22    1    3    3    0    0  0.62960325496E+02  0.67930368304E+02 -0.14484192677E+03  0.17192359139E+03  0.00000000000E+00 0. -1.
         22    1    3    3    0    0  0.52993557437E+02  0.57154576408E+02 -0.12661849797E+03  0.14868492446E+03  0.00000000000E+00 0. -1.
<mgrwt>
<rscale>  0 0.34119234E+03</rscale>
<asrwt>0</asrwt>
<pdfrwt beam="2">  1        2 0.89619137E-01 0.34119234E+03</pdfrwt>
<pdfrwt beam="1">  1       -2 0.76861896E-02 0.34119234E+03</pdfrwt>
<totfact> 0.52769127E+03</totfact>
</mgrwt>
</event>
<event>
 7    1  0.3480999E-009  0.9215152E+02  0.7818608E-02  0.1297724E+00
         -2   -1    0    0    0  501 -0.00000000000E+00  0.00000000000E+00  0.20841512095E+01  0.20841527694E+01  0.25500000000E-02 0.  1.
          2   -1    0    0  501    0  0.00000000000E+00 -0.00000000000E+00 -0.10186280446E+04  0.10186280446E+04  0.25500000000E-02 0. -1.
         23    2    1    2    0    0  0.35527136788E-14  0.00000000000E+00 -0.10165438934E+04  0.10207121974E+04  0.92151520203E+02 0.  0.
    9000005    2    3    3    0    0  0.18579545867E+02  0.16541038356E+02 -0.93538876035E+03  0.93583015514E+03  0.14392387178E+02 0.  0.
         22    1    3    3    0    0 -0.18579545867E+02 -0.16541038356E+02 -0.81155133048E+02  0.84882042238E+02  0.00000000000E+00 0.  1.
         22    1    4    4    0    0 -0.11467980237E+01  0.13677219303E+01 -0.22244408596E+03  0.22245124677E+03  0.00000000000E+00 0.  1.
         22    1    4    4    0    0  0.19726343891E+02  0.15173316426E+02 -0.71294467439E+03  0.71337890837E+03  0.00000000000E+00 0.  1.
<mgrwt>
<rscale>  0 0.92151520E+02</rscale>
<asrwt>0</asrwt>
<pdfrwt beam="2">  1        2 0.15671161E+00 0.92151520E+02</pdfrwt>
<pdfrwt beam="1">  1       -2 0.32063958E-03 0.92151520E+02</pdfrwt>
<totfact> 0.24327308E+05</totfact>
</mgrwt>
</event>
<event>
 7    1  0.3480999E-009  0.9045015E+02  0.7818608E-02  0.1301765E+00
          2   -1    0    0  501    0  0.00000000000E+00  0.00000000000E+00  0.17403924118E+02  0.17403924305E+02  0.25500000000E-02 0. -1.
         -2   -1    0    0    0  501 -0.00000000000E+00 -0.00000000000E+00 -0.11751990490E+03  0.11751990493E+03  0.25500000000E-02 0.  1.
         23    2    1    2    0    0 -0.71054273576E-14  0.00000000000E+00 -0.10011598078E+03  0.13492382923E+03  0.90450152498E+02 0.  0.
    9000005    2    3    3    0    0  0.38750175787E+02  0.24747817865E+01 -0.15856530450E+02  0.42147993809E+02  0.41621095314E+01 0.  0.
         22    1    3    3    0    0 -0.38750175787E+02 -0.24747817865E+01 -0.84259450334E+02  0.92775835426E+02  0.00000000000E+00 0.  1.
         22    1    4    4    0    0  0.19953039993E+02  0.28124684063E+01 -0.97162187483E+01  0.22370487037E+02  0.00000000000E+00 0.  1.
         22    1    4    4    0    0  0.18797135794E+02 -0.33768661974E+00 -0.61403117021E+01  0.19777506771E+02  0.00000000000E+00 0.  1.
<mgrwt>
<rscale>  0 0.90450152E+02</rscale>
<asrwt>0</asrwt>
<pdfrwt beam="1">  1        2 0.26775269E-02 0.90450152E+02</pdfrwt>
<pdfrwt beam="2">  1       -2 0.18079985E-01 0.90450152E+02</pdfrwt>
<totfact> 0.77462887E+04</totfact>
</mgrwt>
</event>
<event>
 7    1  0.3480999E-009  0.9006939E+02  0.7818608E-02  0.1302684E+00
          2   -1    0    0  501    0  0.00000000000E+00  0.00000000000E+00  0.34752858071E+02  0.34752858165E+02  0.25500000000E-02 0. -1.
         -2   -1    0    0    0  501 -0.00000000000E+00 -0.00000000000E+00 -0.58358469540E+02  0.58358469595E+02  0.25500000000E-02 0.  1.
         23    2    1    2    0    0  0.00000000000E+00  0.00000000000E+00 -0.23605611468E+02  0.93111327760E+02  0.90069386944E+02 0.  0.
    9000005    2    3    3    0    0 -0.83232654745E+01 -0.25371826744E+02 -0.47832293809E+02  0.57056668176E+02  0.15953955995E+02 0.  0.
         22    1    3    3    0    0  0.83232654745E+01  0.25371826744E+02  0.24226682341E+02  0.36054659584E+02  0.00000000000E+00 0. -1.
         22    1    4    4    0    0 -0.99346792538E+01 -0.62670947198E+01 -0.21268809250E+02  0.24296842902E+02  0.00000000000E+00 0.  1.
         22    1    4    4    0    0  0.16114137793E+01 -0.19104732024E+02 -0.26563484560E+02  0.32759825274E+02  0.00000000000E+00 0.  1.
<mgrwt>
<rscale>  0 0.90069387E+02</rscale>
<asrwt>0</asrwt>
<pdfrwt beam="1">  1        2 0.53465936E-02 0.90069387E+02</pdfrwt>
<pdfrwt beam="2">  1       -2 0.89782261E-02 0.90069387E+02</pdfrwt>
<totfact> 0.95312482E+04</totfact>
</mgrwt>
</event>
<event>
 7    1  0.3480999E-009  0.9017653E+02  0.7818608E-02  0.1302425E+00
          2   -1    0    0  501    0  0.00000000000E+00  0.00000000000E+00  0.40773588626E+02  0.40773588706E+02  0.25500000000E-02 0. -1.
         -2   -1    0    0    0  501 -0.00000000000E+00 -0.00000000000E+00 -0.49859525543E+02  0.49859525608E+02  0.25500000000E-02 0.  1.
         23    2    1    2    0    0  0.00000000000E+00  0.00000000000E+00 -0.90859369166E+01  0.90633114314E+02  0.90176533314E+02 0.  0.
    9000005    2    3    3    0    0  0.43234609493E+02  0.47941680030E+01  0.59053865352E+01  0.44622731967E+02  0.80061921774E+01 0.  0.
         22    1    3    3    0    0 -0.43234609493E+02 -0.47941680030E+01 -0.14991323452E+02  0.46010382347E+02  0.00000000000E+00 0.  1.
         22    1    4    4    0    0  0.12587035750E+02 -0.21630937516E+01  0.94646861374E+00  0.12806570438E+02  0.00000000000E+00 0.  1.
         22    1    4    4    0    0  0.30647573743E+02  0.69572617546E+01  0.49589179214E+01  0.31816161529E+02  0.00000000000E+00 0.  1.
<mgrwt>
<rscale>  0 0.90176533E+02</rscale>
<asrwt>0</asrwt>
<pdfrwt beam="1">  1        2 0.62728598E-02 0.90176533E+02</pdfrwt>
<pdfrwt beam="2">  1       -2 0.76706962E-02 0.90176533E+02</pdfrwt>
<totfact> 0.98964830E+04</totfact>
</mgrwt>
</event>
<event>
 7    1  0.3480999E-009  0.9101302E+02  0.7818608E-02  0.1300417E+00
         -2   -1    0    0    0  501 -0.00000000000E+00  0.00000000000E+00  0.45043343552E+02  0.45043343625E+02  0.25500000000E-02 0.  1.
          2   -1    0    0  501    0  0.00000000000E+00 -0.00000000000E+00 -0.45974435625E+02  0.45974435696E+02  0.25500000000E-02 0. -1.
         23    2    1    2    0    0  0.00000000000E+00  0.00000000000E+00 -0.93109207234E+00  0.91017779320E+02  0.91013016761E+02 0.  0.
    9000005    2    3    3    0    0 -0.18089604198E+02 -0.14941523875E+02 -0.39262704514E+02  0.46075645102E+02  0.55607724366E+01 0.  0.
         22    1    3    3    0    0  0.18089604198E+02  0.14941523875E+02  0.38331612441E+02  0.44942134218E+02  0.00000000000E+00 0.  1.
         22    1    4    4    0    0 -0.13277797050E+02 -0.11856272647E+02 -0.24824253039E+02  0.30546925125E+02  0.00000000000E+00 0.  1.
         22    1    4    4    0    0 -0.48118071481E+01 -0.30852512271E+01 -0.14438451474E+02  0.15528719977E+02  0.00000000000E+00 0.  1.
<mgrwt>
<rscale>  0 0.91013017E+02</rscale>
<asrwt>0</asrwt>
<pdfrwt beam="2">  1        2 0.70729901E-02 0.91013017E+02</pdfrwt>
<pdfrwt beam="1">  1       -2 0.69297452E-02 0.91013017E+02</pdfrwt>
<totfact> 0.99402561E+04</totfact>
</mgrwt>
</event>
<event>
 7    1  0.3874975E-009  0.9042873E+02  0.7818608E-02  0.1301817E+00
         -2   -1    0    0    0  501 -0.00000000000E+00  0.00000000000E+00  0.53792473292E+01  0.53792479336E+01  0.25500000000E-02 0.  1.
          2   -1    0    0  501    0  0.00000000000E+00 -0.00000000000E+00 -0.38004181204E+03  0.38004181205E+03  0.25500000000E-02 0. -1.
         23    2    1    2    0    0  0.00000000000E+00  0.00000000000E+00 -0.37466256471E+03  0.38542105998E+03  0.90428734825E+02 0.  0.
    9000005    2    3    3    0    0  0.18788292923E+02 -0.13921064080E+02 -0.35110261322E+03  0.35222667355E+03  0.15613730392E+02 0.  0.
         22    1    3    3    0    0 -0.18788292923E+02  0.13921064080E+02 -0.23559951491E+02  0.33194386429E+02  0.00000000000E+00 0.  1.
         22    1    4    4    0    0  0.45317757986E+01 -0.98329594915E+01 -0.22403389651E+03  0.22429536525E+03  0.00000000000E+00 0.  1.
         22    1    4    4    0    0  0.14256517125E+02 -0.40881045889E+01 -0.12706871670E+03  0.12793130830E+03  0.00000000000E+00 0.  1.
<mgrwt>
<rscale>  0 0.90428735E+02</rscale>
<asrwt>0</asrwt>
<pdfrwt beam="2">  1        2 0.58467950E-01 0.90428735E+02</pdfrwt>
<pdfrwt beam="1">  1       -2 0.82757685E-03 0.90428735E+02</pdfrwt>
<totfact> 0.20031442E+05</totfact>
</mgrwt>
</event>
<event>
 7    1  0.3480999E-009  0.9122149E+02  0.7818608E-02  0.1299920E+00
          2   -1    0    0  501    0  0.00000000000E+00  0.00000000000E+00  0.11248862609E+03  0.11248862612E+03  0.25500000000E-02 0. -1.
         -2   -1    0    0    0  501 -0.00000000000E+00 -0.00000000000E+00 -0.18493783189E+02  0.18493783365E+02  0.25500000000E-02 0.  1.
         23    2    1    2    0    0  0.00000000000E+00  0.22204460493E-15  0.93994842899E+02  0.13098240948E+03  0.91221494737E+02 0.  0.
    9000005    2    3    3    0    0  0.33026281022E+02 -0.18261574430E+01  0.91609853060E+02  0.97819806061E+02  0.90707877777E+01 0.  0.
         22    1    3    3    0    0 -0.33026281022E+02  0.18261574430E+01  0.23849898391E+01  0.33162603421E+02  0.00000000000E+00 0.  1.
         22    1    4    4    0    0  0.31717574605E+02 -0.13000127657E+01  0.90809548343E+02  0.96198069847E+02  0.00000000000E+00 0.  1.
         22    1    4    4    0    0  0.13087064168E+01 -0.52614467725E+00  0.80030471715E+00  0.16217362137E+01  0.00000000000E+00 0.  1.
<mgrwt>
<rscale>  0 0.91221495E+02</rscale>
<asrwt>0</asrwt>
<pdfrwt beam="1">  1        2 0.17305942E-01 0.91221495E+02</pdfrwt>
<pdfrwt beam="2">  1       -2 0.28451975E-02 0.91221495E+02</pdfrwt>
<totfact> 0.12705650E+05</totfact>
</mgrwt>
</event>
<event>
 7    1  0.3480999E-009  0.8990123E+02  0.7818608E-02  0.1303091E+00
          2   -1    0    0  501    0  0.00000000000E+00  0.00000000000E+00  0.22512879392E+03  0.22512879394E+03  0.25500000000E-02 0. -1.
         -2   -1    0    0    0  501 -0.00000000000E+00 -0.00000000000E+00 -0.89751197224E+01  0.89751200847E+01  0.25500000000E-02 0.  1.
         23    2    1    2    0    0 -0.88817841970E-15 -0.35527136788E-14  0.21615367420E+03  0.23410391402E+03  0.89901232973E+02 0.  0.
    9000005    2    3    3    0    0 -0.58942910291E+01 -0.31346374832E+02  0.28891845710E+02  0.44145154573E+02  0.98345331285E+01 0.  0.
         22    1    3    3    0    0  0.58942910291E+01  0.31346374832E+02  0.18726182849E+03  0.18995875945E+03  0.00000000000E+00 0. -1.
         22    1    4    4    0    0 -0.56016797345E+01 -0.28589743606E+02  0.21375700804E+02  0.36134095258E+02  0.00000000000E+00 0.  1.
         22    1    4    4    0    0 -0.29261129461E+00 -0.27566312269E+01  0.75161449062E+01  0.80110593146E+01  0.00000000000E+00 0.  1.
<mgrwt>
<rscale>  0 0.89901233E+02</rscale>
<asrwt>0</asrwt>
<pdfrwt beam="1">  1        2 0.34635197E-01 0.89901233E+02</pdfrwt>
<pdfrwt beam="2">  1       -2 0.13807877E-02 0.89901233E+02</pdfrwt>
<totfact> 0.16771575E+05</totfact>
</mgrwt>
</event>
<event>
 7    1  0.3480999E-009  0.9548188E+02  0.7818608E-02  0.1290094E+00
         -2   -1    0    0    0  501 -0.00000000000E+00  0.00000000000E+00  0.83877885251E+01  0.83877889127E+01  0.25500000000E-02 0.  1.
          2   -1    0    0  501    0  0.00000000000E+00 -0.00000000000E+00 -0.27172801070E+03  0.27172801071E+03  0.25500000000E-02 0. -1.
         23    2    1    2    0    0 -0.12490009027E-15 -0.71054273576E-14 -0.26334022218E+03  0.28011579963E+03  0.95481875685E+02 0.  0.
    9000005    2    3    3    0    0  0.22393439578E-01  0.32618957124E+02 -0.23222479001E+03  0.23503623680E+03  0.15801349662E+02 0.  0.
         22    1    3    3    0    0 -0.22393439578E-01 -0.32618957124E+02 -0.31115432171E+02  0.45079562825E+02  0.00000000000E+00 0.  1.
         22    1    4    4    0    0  0.35385406680E+01  0.32303488938E+02 -0.20061997927E+03  0.20323487090E+03  0.00000000000E+00 0. -1.
         22    1    4    4    0    0 -0.35161472285E+01  0.31546818569E+00 -0.31604810738E+02  0.31801365903E+02  0.00000000000E+00 0. -1.
<mgrwt>
<rscale>  0 0.95481876E+02</rscale>
<asrwt>0</asrwt>
<pdfrwt beam="2">  1        2 0.41804303E-01 0.95481876E+02</pdfrwt>
<pdfrwt beam="1">  1       -2 0.12904292E-02 0.95481876E+02</pdfrwt>
<totfact> 0.15299672E+05</totfact>
</mgrwt>
</event>
<event>
 7    1  0.3480999E-009  0.8927900E+02  0.7818608E-02  0.1304607E+00
          2   -1    0    0  501    0  0.00000000000E+00  0.00000000000E+00  0.14661306100E+03  0.14661306102E+03  0.25500000000E-02 0. -1.
         -2   -1    0    0    0  501 -0.00000000000E+00 -0.00000000000E+00 -0.13591456805E+02  0.13591457044E+02  0.25500000000E-02 0.  1.
         23    2    1    2    0    0 -0.22204460493E-15  0.00000000000E+00  0.13302160419E+03  0.16020451807E+03  0.89279003278E+02 0.  0.
    9000005    2    3    3    0    0 -0.71369932093E+00 -0.11667609986E+02  0.14366152385E+03  0.14439786188E+03  0.86871507827E+01 0.  0.
         22    1    3    3    0    0  0.71369932093E+00  0.11667609986E+02 -0.10639919661E+02  0.15806656189E+02  0.00000000000E+00 0.  1.
         22    1    4    4    0    0  0.36125878085E+01 -0.60835658307E+01  0.54576432717E+02  0.55033149756E+02  0.00000000000E+00 0.  1.
         22    1    4    4    0    0 -0.43262871294E+01 -0.55840441549E+01  0.89085091137E+02  0.89364712120E+02  0.00000000000E+00 0.  1.
<mgrwt>
<rscale>  0 0.89279003E+02</rscale>
<asrwt>0</asrwt>
<pdfrwt beam="1">  1        2 0.22555855E-01 0.89279003E+02</pdfrwt>
<pdfrwt beam="2">  1       -2 0.20909934E-02 0.89279003E+02</pdfrwt>
<totfact> 0.14686991E+05</totfact>
</mgrwt>
</event>
<event>
 7    1  0.3480999E-009  0.8875398E+02  0.7818608E-02  0.1305897E+00
          2   -1    0    0  501    0  0.00000000000E+00  0.00000000000E+00  0.40979193796E+01  0.40979201730E+01  0.25500000000E-02 0. -1.
         -2   -1    0    0    0  501 -0.00000000000E+00 -0.00000000000E+00 -0.48056512969E+03  0.48056512970E+03  0.25500000000E-02 0.  1.
         23    2    1    2    0    0  0.00000000000E+00  0.00000000000E+00 -0.47646721031E+03  0.48466304987E+03  0.88753982492E+02 0.  0.
    9000005    2    3    3    0    0 -0.23662515521E+02  0.12633402410E+02 -0.43100022385E+03  0.43187323688E+03  0.58122527018E+01 0.  0.
         22    1    3    3    0    0  0.23662515521E+02 -0.12633402410E+02 -0.45466986464E+02  0.52789812988E+02  0.00000000000E+00 0. -1.
         22    1    4    4    0    0 -0.90879133349E+01  0.50444011299E+01 -0.21369093114E+03  0.21394356780E+03  0.00000000000E+00 0.  1.
         22    1    4    4    0    0 -0.14574602186E+02  0.75890012799E+01 -0.21730929271E+03  0.21792966909E+03  0.00000000000E+00 0.  1.
<mgrwt>
<rscale>  0 0.88753982E+02</rscale>
<asrwt>0</asrwt>
<pdfrwt beam="1">  1        2 0.63044958E-03 0.88753982E+02</pdfrwt>
<pdfrwt beam="2">  1       -2 0.73933052E-01 0.88753982E+02</pdfrwt>
<totfact> 0.40127303E+04</totfact>
</mgrwt>
</event>
<event>
 7    1  0.3480999E-009  0.9208053E+02  0.7818608E-02  0.1297890E+00
          2   -1    0    0  501    0  0.00000000000E+00  0.00000000000E+00  0.16180008195E+03  0.16180008197E+03  0.25500000000E-02 0. -1.
         -2   -1    0    0    0  501 -0.00000000000E+00 -0.00000000000E+00 -0.13100772990E+02  0.13100773238E+02  0.25500000000E-02 0.  1.
         23    2    1    2    0    0  0.00000000000E+00  0.00000000000E+00  0.14869930896E+03  0.17490085521E+03  0.92080533596E+02 0.  0.
    9000005    2    3    3    0    0 -0.34781459129E+02 -0.13967812954E+02  0.27983960348E+02  0.48500518625E+02  0.12819850712E+02 0.  0.
         22    1    3    3    0    0  0.34781459129E+02  0.13967812954E+02  0.12071534861E+03  0.12640033658E+03  0.00000000000E+00 0. -1.
         22    1    4    4    0    0 -0.42897165097E+00 -0.37085613026E+01  0.31898408897E+01  0.49104509481E+01  0.00000000000E+00 0. -1.
         22    1    4    4    0    0 -0.34352487478E+02 -0.10259251651E+02  0.24794119458E+02  0.43590067677E+02  0.00000000000E+00 0. -1.
<mgrwt>
<rscale>  0 0.92080534E+02</rscale>
<asrwt>0</asrwt>
<pdfrwt beam="1">  1        2 0.24892319E-01 0.92080534E+02</pdfrwt>
<pdfrwt beam="2">  1       -2 0.20155036E-02 0.92080534E+02</pdfrwt>
<totfact> 0.13970318E+05</totfact>
</mgrwt>
</event>
<event>
 7    1  0.3480999E-009  0.9000998E+02  0.7818608E-02  0.1302828E+00
         -2   -1    0    0    0  501 -0.00000000000E+00  0.00000000000E+00  0.18650993912E+02  0.18650994086E+02  0.25500000000E-02 0.  1.
          2   -1    0    0  501    0  0.00000000000E+00 -0.00000000000E+00 -0.10859738667E+03  0.10859738670E+03  0.25500000000E-02 0. -1.
         23    2    1    2    0    0 -0.35527136788E-14  0.00000000000E+00 -0.89946392759E+02  0.12724838079E+03  0.90009981905E+02 0.  0.
    9000005    2    3    3    0    0 -0.29045947371E+02 -0.20228951676E+02 -0.10170225565E+02  0.39972299317E+02  0.15539423415E+02 0.  0.
         22    1    3    3    0    0  0.29045947371E+02  0.20228951676E+02 -0.79776167194E+02  0.87276081470E+02  0.00000000000E+00 0. -1.
         22    1    4    4    0    0 -0.27097677149E+02 -0.22408053696E+02 -0.11152210149E+02  0.36888707872E+02  0.00000000000E+00 0. -1.
         22    1    4    4    0    0 -0.19482702228E+01  0.21791020199E+01  0.98198458450E+00  0.30835914448E+01  0.00000000000E+00 0. -1.
<mgrwt>
<rscale>  0 0.90009982E+02</rscale>
<asrwt>0</asrwt>
<pdfrwt beam="2">  1        2 0.16707290E-01 0.90009982E+02</pdfrwt>
<pdfrwt beam="1">  1       -2 0.28693838E-02 0.90009982E+02</pdfrwt>
<totfact> 0.13035245E+05</totfact>
</mgrwt>
</event>
<event>
 6    1  0.3702175E-009  0.1383609E+03  0.7818608E-02  0.1215552E+00
         -2   -1    0    0    0  501 -0.00000000000E+00  0.00000000000E+00  0.35949698805E+02  0.35949698896E+02  0.25500000000E-02 0.  1.
          2   -1    0    0  501    0  0.00000000000E+00 -0.00000000000E+00 -0.13312866404E+03  0.13312866407E+03  0.25500000000E-02 0. -1.
    9000005    2    1    2    0    0  0.16252094049E+02 -0.25290921478E+02 -0.12434712067E+03  0.12855836864E+03  0.12699860643E+02 0.  0.
         22    1    1    2    0    0 -0.16252094049E+02  0.25290921478E+02  0.27168155429E+02  0.40519994319E+02  0.00000000000E+00 0.  1.
         22    1    3    3    0    0  0.51817922200E+01 -0.18555780917E+02 -0.64058839830E+02  0.66893220407E+02  0.00000000000E+00 0. -1.
         22    1    3    3    0    0  0.11070301829E+02 -0.67351405607E+01 -0.60288280836E+02  0.61665148237E+02  0.00000000000E+00 0. -1.
<mgrwt>
<rscale>  0 0.13836091E+03</rscale>
<asrwt>0</asrwt>
<pdfrwt beam="2">  1        2 0.20481333E-01 0.13836091E+03</pdfrwt>
<pdfrwt beam="1">  1       -2 0.55307230E-02 0.13836091E+03</pdfrwt>
<totfact> 0.41601345E+04</totfact>
</mgrwt>
</event>
<event>
 7    1  0.3480999E-009  0.9275106E+02  0.7818608E-02  0.1296323E+00
          2   -1    0    0  501    0  0.00000000000E+00  0.00000000000E+00  0.19785520954E+03  0.19785520956E+03  0.25500000000E-02 0. -1.
         -2   -1    0    0    0  501 -0.00000000000E+00 -0.00000000000E+00 -0.10870018563E+02  0.10870018862E+02  0.25500000000E-02 0.  1.
         23    2    1    2    0    0  0.00000000000E+00  0.55511151231E-15  0.18698519098E+03  0.20872522842E+03  0.92751061091E+02 0.  0.
    9000005    2    3    3    0    0 -0.29102167207E+02  0.25023357102E+00  0.14108099726E+02  0.33415538348E+02  0.84000578691E+01 0.  0.
         22    1    3    3    0    0  0.29102167207E+02 -0.25023357102E+00  0.17287709126E+03  0.17530969007E+03  0.00000000000E+00 0. -1.
         22    1    4    4    0    0 -0.13427377487E+02 -0.40573770859E+01  0.61441918336E+01  0.15313649737E+02  0.00000000000E+00 0.  1.
         22    1    4    4    0    0 -0.15674789721E+02  0.43076106569E+01  0.79639078926E+01  0.18101888611E+02  0.00000000000E+00 0.  1.
<mgrwt>
<rscale>  0 0.92751061E+02</rscale>
<asrwt>0</asrwt>
<pdfrwt beam="1">  1        2 0.30439260E-01 0.92751061E+02</pdfrwt>
<pdfrwt beam="2">  1       -2 0.16723107E-02 0.92751061E+02</pdfrwt>
<totfact> 0.14712417E+05</totfact>
</mgrwt>
</event>
<event>
 7    1  0.3480999E-009  0.8655949E+02  0.7818608E-02  0.1311404E+00
         -2   -1    0    0    0  501 -0.00000000000E+00  0.00000000000E+00  0.13603714478E+03  0.13603714480E+03  0.25500000000E-02 0.  1.
          2   -1    0    0  501    0  0.00000000000E+00 -0.00000000000E+00 -0.13769299772E+02  0.13769300008E+02  0.25500000000E-02 0. -1.
         23    2    1    2    0    0 -0.17763568394E-14  0.00000000000E+00  0.12226784500E+03  0.14980644481E+03  0.86559488122E+02 0.  0.
    9000005    2    3    3    0    0  0.80389521514E+01  0.34691201584E+02  0.10176933474E+03  0.10871760031E+03  0.13943274541E+02 0.  0.
         22    1    3    3    0    0 -0.80389521514E+01 -0.34691201584E+02  0.20498510265E+02  0.41088844497E+02  0.00000000000E+00 0. -1.
         22    1    4    4    0    0  0.93380758333E+01  0.30784925567E+02  0.74637776771E+02  0.81275513064E+02  0.00000000000E+00 0.  1.
         22    1    4    4    0    0 -0.12991236819E+01  0.39062760165E+01  0.27131557968E+02  0.27442087246E+02  0.00000000000E+00 0.  1.
<mgrwt>
<rscale>  0 0.86559488E+02</rscale>
<asrwt>0</asrwt>
<pdfrwt beam="2">  1        2 0.21183538E-02 0.86559488E+02</pdfrwt>
<pdfrwt beam="1">  1       -2 0.20928792E-01 0.86559488E+02</pdfrwt>
<totfact> 0.82438319E+04</totfact>
</mgrwt>
</event>
<event>
 7    1  0.3480999E-009  0.9077328E+02  0.7818608E-02  0.1300990E+00
         -2   -1    0    0    0  501 -0.00000000000E+00  0.00000000000E+00  0.55605371598E+01  0.55605377445E+01  0.25500000000E-02 0. -1.
          2   -1    0    0  501    0  0.00000000000E+00 -0.00000000000E+00 -0.37045830736E+03  0.37045830737E+03  0.25500000000E-02 0.  1.
         23    2    1    2    0    0  0.00000000000E+00  0.00000000000E+00 -0.36489777020E+03  0.37601884511E+03  0.90773284524E+02 0.  0.
    9000005    2    3    3    0    0 -0.22138008795E+02 -0.37991874970E+02 -0.15213090004E+03  0.15875583621E+03  0.11230796440E+02 0.  0.
         22    1    3    3    0    0  0.22138008795E+02  0.37991874970E+02 -0.21276687016E+03  0.21726300890E+03  0.00000000000E+00 0. -1.
         22    1    4    4    0    0 -0.22426527348E+02 -0.38576389108E+02 -0.15094872693E+03  0.15740586104E+03  0.00000000000E+00 0. -1.
         22    1    4    4    0    0  0.28851855298E+00  0.58451413893E+00 -0.11821731032E+01  0.13499751775E+01  0.00000000000E+00 0. -1.
<mgrwt>
<rscale>  0 0.90773285E+02</rscale>
<asrwt>0</asrwt>
<pdfrwt beam="2">  1        2 0.56993566E-01 0.90773285E+02</pdfrwt>
<pdfrwt beam="1">  1       -2 0.85546759E-03 0.90773285E+02</pdfrwt>
<totfact> 0.19647415E+05</totfact>
</mgrwt>
</event>
<event>
 7    1  0.3480999E-009  0.9149939E+02  0.7818608E-02  0.1299261E+00
         -2   -1    0    0    0  501 -0.00000000000E+00  0.00000000000E+00  0.40793543901E+02  0.40793543981E+02  0.25500000000E-02 0.  1.
          2   -1    0    0  501    0  0.00000000000E+00 -0.00000000000E+00 -0.51307986786E+02  0.51307986849E+02  0.25500000000E-02 0. -1.
         23    2    1    2    0    0  0.00000000000E+00  0.00000000000E+00 -0.10514442885E+02  0.92101530830E+02  0.91499390555E+02 0.  0.
    9000005    2    3    3    0    0  0.39707537549E+02  0.20094602231E+02 -0.16992153051E+01  0.46734253919E+02  0.14167624350E+02 0.  0.
         22    1    3    3    0    0 -0.39707537549E+02 -0.20094602231E+02 -0.88152275794E+01  0.45367276911E+02  0.00000000000E+00 0. -1.
         22    1    4    4    0    0  0.15027591050E+02  0.29227457328E+01  0.46605266918E+01  0.16002857383E+02  0.00000000000E+00 0. -1.
         22    1    4    4    0    0  0.24679946499E+02  0.17171856498E+02 -0.63597419969E+01  0.30731396536E+02  0.00000000000E+00 0. -1.
<mgrwt>
<rscale>  0 0.91499391E+02</rscale>
<asrwt>0</asrwt>
<pdfrwt beam="2">  1        2 0.78935364E-02 0.91499391E+02</pdfrwt>
<pdfrwt beam="1">  1       -2 0.62759298E-02 0.91499391E+02</pdfrwt>
<totfact> 0.10074336E+05</totfact>
</mgrwt>
</event>
<event>
 7    1  0.3615246E-009  0.9146639E+02  0.7818608E-02  0.1299339E+00
         -2   -1    0    0    0  501 -0.00000000000E+00  0.00000000000E+00  0.12677747810E+02  0.12677748067E+02  0.25500000000E-02 0.  1.
          2   -1    0    0  501    0  0.00000000000E+00 -0.00000000000E+00 -0.16497609082E+03  0.16497609084E+03  0.25500000000E-02 0. -1.
         23    2    1    2    0    0  0.35527136788E-14  0.00000000000E+00 -0.15229834301E+03  0.17765383890E+03  0.91466393799E+02 0.  0.
    9000005    2    3    3    0    0  0.29572533644E+02  0.21985894092E+02 -0.29811950764E+02  0.49744376511E+02  0.15094247279E+02 0.  0.
         22    1    3    3    0    0 -0.29572533644E+02 -0.21985894092E+02 -0.12248639224E+03  0.12790946239E+03  0.00000000000E+00 0.  1.
         22    1    4    4    0    0  0.24720803674E+02  0.21805577670E+02 -0.30415378960E+02  0.44851941197E+02  0.00000000000E+00 0.  1.
         22    1    4    4    0    0  0.48517299698E+01  0.18031642215E+00  0.60342819628E+00  0.48924353138E+01  0.00000000000E+00 0.  1.
<mgrwt>
<rscale>  0 0.91466394E+02</rscale>
<asrwt>0</asrwt>
<pdfrwt beam="2">  1        2 0.25380936E-01 0.91466394E+02</pdfrwt>
<pdfrwt beam="1">  1       -2 0.19504229E-02 0.91466394E+02</pdfrwt>
<totfact> 0.14322465E+05</totfact>
</mgrwt>
</event>
<event>
 6    1  0.3480999E-009  0.1453681E+03  0.7818608E-02  0.1206283E+00
         -2   -1    0    0    0  501 -0.00000000000E+00  0.00000000000E+00  0.17797293085E+02  0.17797293268E+02  0.25500000000E-02 0.  1.
          2   -1    0    0  501    0  0.00000000000E+00 -0.00000000000E+00 -0.29684122803E+03  0.29684122804E+03  0.25500000000E-02 0. -1.
    9000005    2    1    2    0    0  0.56109987352E+02 -0.32833298773E+02 -0.73760861322E+02  0.99307389084E+02  0.13961972456E+02 0.  0.
         22    1    1    2    0    0 -0.56109987352E+02  0.32833298773E+02 -0.20528307362E+03  0.21533113222E+03  0.00000000000E+00 0. -1.
         22    1    3    3    0    0  0.17858333734E+02 -0.63356605793E+01 -0.13965055797E+02  0.23538977508E+02  0.00000000000E+00 0.  1.
         22    1    3    3    0    0  0.38251653618E+02 -0.26497638194E+02 -0.59795805525E+02  0.75768411576E+02  0.00000000000E+00 0.  1.
<mgrwt>
<rscale>  0 0.14536809E+03</rscale>
<asrwt>0</asrwt>
<pdfrwt beam="2">  1        2 0.45667878E-01 0.14536809E+03</pdfrwt>
<pdfrwt beam="1">  1       -2 0.27380453E-02 0.14536809E+03</pdfrwt>
<totfact> 0.49774100E+04</totfact>
</mgrwt>
</event>
<event>
 7    1  0.3480999E-009  0.9063215E+02  0.7818608E-02  0.1301328E+00
          2   -1    0    0  501    0  0.00000000000E+00  0.00000000000E+00  0.58537172713E+02  0.58537172768E+02  0.25500000000E-02 0. -1.
         -2   -1    0    0    0  501 -0.00000000000E+00 -0.00000000000E+00 -0.35081068313E+02  0.35081068405E+02  0.25500000000E-02 0.  1.
         23    2    1    2    0    0  0.00000000000E+00  0.00000000000E+00  0.23456104400E+02  0.93618241174E+02  0.90632147977E+02 0.  0.
    9000005    2    3    3    0    0  0.25660471792E+02  0.20630262341E+02  0.42531603248E+02  0.55566405565E+02  0.13950649293E+02 0.  0.
         22    1    3    3    0    0 -0.25660471792E+02 -0.20630262341E+02 -0.19075498848E+02  0.38051835609E+02  0.00000000000E+00 0.  1.
         22    1    4    4    0    0  0.37791879590E+01  0.83447515737E+01  0.50513305815E+01  0.10461026771E+02  0.00000000000E+00 0.  1.
         22    1    4    4    0    0  0.21881283833E+02  0.12285510767E+02  0.37480272667E+02  0.45105378794E+02  0.00000000000E+00 0.  1.
<mgrwt>
<rscale>  0 0.90632148E+02</rscale>
<asrwt>0</asrwt>
<pdfrwt beam="1">  1        2 0.90057189E-02 0.90632148E+02</pdfrwt>
<pdfrwt beam="2">  1       -2 0.53970874E-02 0.90632148E+02</pdfrwt>
<totfact> 0.10716745E+05</totfact>
</mgrwt>
</event>
<event>
 7    1  0.3480999E-009  0.8798436E+02  0.7818608E-02  0.1307808E+00
         -2   -1    0    0    0  501 -0.00000000000E+00  0.00000000000E+00  0.65124223098E+01  0.65124228091E+01  0.25500000000E-02 0.  1.
          2   -1    0    0  501    0  0.00000000000E+00 -0.00000000000E+00 -0.29717236994E+03  0.29717236995E+03  0.25500000000E-02 0. -1.
         23    2    1    2    0    0  0.00000000000E+00  0.88817841970E-15 -0.29065994763E+03  0.30368479276E+03  0.87984363368E+02 0.  0.
    9000005    2    3    3    0    0  0.43612204389E+02 -0.46535669306E+01 -0.15011170773E+03  0.15645202537E+03  0.44756435556E+01 0.  0.
         22    1    3    3    0    0 -0.43612204389E+02  0.46535669306E+01 -0.14054823990E+03  0.14723276740E+03  0.00000000000E+00 0.  1.
         22    1    4    4    0    0  0.25923222237E+02 -0.90412834129E+00 -0.92639957098E+02  0.96202871841E+02  0.00000000000E+00 0.  1.
         22    1    4    4    0    0  0.17688982152E+02 -0.37494385893E+01 -0.57471750636E+02  0.60249153524E+02  0.00000000000E+00 0.  1.
<mgrwt>
<rscale>  0 0.87984363E+02</rscale>
<asrwt>0</asrwt>
<pdfrwt beam="2">  1        2 0.45718816E-01 0.87984363E+02</pdfrwt>
<pdfrwt beam="1">  1       -2 0.10019114E-02 0.87984363E+02</pdfrwt>
<totfact> 0.19684488E+05</totfact>
</mgrwt>
</event>
<event>
 7    1  0.3480999E-009  0.8693980E+02  0.7818608E-02  0.1310436E+00
         -2   -1    0    0    0  501 -0.00000000000E+00  0.00000000000E+00  0.25397861114E+01  0.25397873916E+01  0.25500000000E-02 0. -1.
          2   -1    0    0  501    0  0.00000000000E+00 -0.00000000000E+00 -0.74401212454E+03  0.74401212455E+03  0.25500000000E-02 0.  1.
         23    2    1    2    0    0 -0.35527136788E-14  0.00000000000E+00 -0.74147233843E+03  0.74655191194E+03  0.86939798485E+02 0.  0.
    9000005    2    3    3    0    0  0.23904980599E+02  0.24823468696E+02 -0.59099029441E+03  0.59217413417E+03  0.14595355395E+02 0.  0.
         22    1    3    3    0    0 -0.23904980599E+02 -0.24823468696E+02 -0.15048204402E+03  0.15437777777E+03  0.00000000000E+00 0. -1.
         22    1    4    4    0    0  0.58569019783E+00 -0.18726451833E+01 -0.27275189949E+02  0.27345672779E+02  0.00000000000E+00 0. -1.
         22    1    4    4    0    0  0.23319290401E+02  0.26696113880E+02 -0.56371510446E+03  0.56482846140E+03  0.00000000000E+00 0. -1.
<mgrwt>
<rscale>  0 0.86939798E+02</rscale>
<asrwt>0</asrwt>
<pdfrwt beam="2">  1        2 0.11446323E+00 0.86939798E+02</pdfrwt>
<pdfrwt beam="1">  1       -2 0.39073702E-03 0.86939798E+02</pdfrwt>
<totfact> 0.27240013E+05</totfact>
</mgrwt>
</event>
<event>
 7    1  0.3480999E-009  0.8910061E+02  0.7818608E-02  0.1305044E+00
          2   -1    0    0  501    0  0.00000000000E+00  0.00000000000E+00  0.21835118467E+03  0.21835118469E+03  0.25500000000E-02 0. -1.
         -2   -1    0    0    0  501 -0.00000000000E+00 -0.00000000000E+00 -0.90896212816E+01  0.90896216393E+01  0.25500000000E-02 0.  1.
         23    2    1    2    0    0  0.00000000000E+00  0.00000000000E+00  0.20926156339E+03  0.22744080633E+03  0.89100608694E+02 0.  0.
    9000005    2    3    3    0    0  0.69454482778E+01  0.42691149149E+02  0.77670433801E+02  0.88923663509E+02  0.19870021942E+01 0.  0.
         22    1    3    3    0    0 -0.69454482778E+01 -0.42691149149E+02  0.13159112959E+03  0.13851714282E+03  0.00000000000E+00 0. -1.
         22    1    4    4    0    0  0.49233281828E+01  0.24134657885E+02  0.44157435518E+02  0.50562832032E+02  0.00000000000E+00 0. -1.
         22    1    4    4    0    0  0.20221200950E+01  0.18556491264E+02  0.33512998283E+02  0.38360831477E+02  0.00000000000E+00 0. -1.
<mgrwt>
<rscale>  0 0.89100609E+02</rscale>
<asrwt>0</asrwt>
<pdfrwt beam="1">  1        2 0.33592492E-01 0.89100609E+02</pdfrwt>
<pdfrwt beam="2">  1       -2 0.13984032E-02 0.89100609E+02</pdfrwt>
<totfact> 0.16987424E+05</totfact>
</mgrwt>
</event>
<event>
 7    1  0.3480999E-009  0.8508106E+02  0.7818608E-02  0.1315221E+00
          2   -1    0    0  501    0  0.00000000000E+00  0.00000000000E+00  0.54732194936E+03  0.54732194936E+03  0.25500000000E-02 0. -1.
         -2   -1    0    0    0  501 -0.00000000000E+00 -0.00000000000E+00 -0.33064567188E+01  0.33064577021E+01  0.25500000000E-02 0.  1.
         23    2    1    2    0    0  0.00000000000E+00  0.35527136788E-14  0.54401549264E+03  0.55062840707E+03  0.85081058036E+02 0.  0.
    9000005    2    3    3    0    0 -0.84145844876E+01  0.20772495299E+02  0.50429949010E+03  0.50502508865E+03  0.15167816431E+02 0.  0.
         22    1    3    3    0    0  0.84145844876E+01 -0.20772495299E+02  0.39716002537E+02  0.45603318417E+02  0.00000000000E+00 0.  1.
         22    1    4    4    0    0 -0.47523809976E+01  0.23316547537E+01  0.23972155056E+03  0.23977998987E+03  0.00000000000E+00 0. -1.
         22    1    4    4    0    0 -0.36622034900E+01  0.18440840545E+02  0.26457793954E+03  0.26524509878E+03  0.00000000000E+00 0. -1.
<mgrwt>
<rscale>  0 0.85081058E+02</rscale>
<asrwt>0</asrwt>
<pdfrwt beam="1">  1        2 0.84203470E-01 0.85081058E+02</pdfrwt>
<pdfrwt beam="2">  1       -2 0.50868516E-03 0.85081058E+02</pdfrwt>
<totfact> 0.26607068E+05</totfact>
</mgrwt>
</event>
<event>
 7    1  0.3480999E-009  0.9402731E+02  0.7818608E-02  0.1293382E+00
         -2   -1    0    0    0  501 -0.00000000000E+00  0.00000000000E+00  0.69520692013E+01  0.69520696690E+01  0.25500000000E-02 0.  1.
          2   -1    0    0  501    0  0.00000000000E+00 -0.00000000000E+00 -0.31793175412E+03  0.31793175413E+03  0.25500000000E-02 0. -1.
         23    2    1    2    0    0  0.00000000000E+00 -0.17763568394E-14 -0.31097968492E+03  0.32488382380E+03  0.94027307386E+02 0.  0.
    9000005    2    3    3    0    0 -0.10924324196E+02 -0.13911847778E+02 -0.30594205982E+03  0.30649203122E+03  0.48929404120E+01 0.  0.
         22    1    3    3    0    0  0.10924324196E+02  0.13911847778E+02 -0.50376251006E+01  0.18391792582E+02  0.00000000000E+00 0.  1.
         22    1    4    4    0    0 -0.80378745717E+01 -0.63042583560E+01 -0.16898146673E+03  0.16928995009E+03  0.00000000000E+00 0.  1.
         22    1    4    4    0    0 -0.28864496245E+01 -0.76075894219E+01 -0.13696059308E+03  0.13720208113E+03  0.00000000000E+00 0.  1.
<mgrwt>
<rscale>  0 0.94027307E+02</rscale>
<asrwt>0</asrwt>
<pdfrwt beam="2">  1        2 0.48912566E-01 0.94027307E+02</pdfrwt>
<pdfrwt beam="1">  1       -2 0.10695494E-02 0.94027307E+02</pdfrwt>
<totfact> 0.16908576E+05</totfact>
</mgrwt>
</event>
<event>
 7    1  0.3480999E-009  0.9404962E+02  0.7818608E-02  0.1293331E+00
          2   -1    0    0  501    0  0.00000000000E+00  0.00000000000E+00  0.26479909930E+03  0.26479909931E+03  0.25500000000E-02 0.  1.
         -2   -1    0    0    0  501 -0.00000000000E+00 -0.00000000000E+00 -0.83509828638E+01  0.83509832531E+01  0.25500000000E-02 0. -1.
         23    2    1    2    0    0  0.71054273576E-14 -0.44408920985E-15  0.25644811643E+03  0.27315008256E+03  0.94049620848E+02 0.  0.
    9000005    2    3    3    0    0  0.38015946545E+02 -0.38383525701E+01  0.20644264840E+03  0.21021764280E+03  0.10627564184E+02 0.  0.
         22    1    3    3    0    0 -0.38015946545E+02  0.38383525701E+01  0.50005468030E+02  0.62932439768E+02  0.00000000000E+00 0. -1.
         22    1    4    4    0    0  0.20815063828E+01  0.63697555609E+00  0.39274583013E+01  0.44903602739E+01  0.00000000000E+00 0.  1.
         22    1    4    4    0    0  0.35934440162E+02 -0.44753281262E+01  0.20251519010E+03  0.20572728252E+03  0.00000000000E+00 0.  1.
<mgrwt>
<rscale>  0 0.94049621E+02</rscale>
<asrwt>0</asrwt>
<pdfrwt beam="1">  1        2 0.40738322E-01 0.94049621E+02</pdfrwt>
<pdfrwt beam="2">  1       -2 0.12847667E-02 0.94049621E+02</pdfrwt>
<totfact> 0.15780112E+05</totfact>
</mgrwt>
</event>
<event>
 7    1  0.3480999E-009  0.9154141E+02  0.7818608E-02  0.1299161E+00
         -2   -1    0    0    0  501 -0.00000000000E+00  0.00000000000E+00  0.12198695222E+02  0.12198695489E+02  0.25500000000E-02 0.  1.
          2   -1    0    0  501    0  0.00000000000E+00 -0.00000000000E+00 -0.17173617824E+03  0.17173617826E+03  0.25500000000E-02 0. -1.
         23    2    1    2    0    0  0.00000000000E+00  0.00000000000E+00 -0.15953748302E+03  0.18393487375E+03  0.91541407532E+02 0.  0.
    9000005    2    3    3    0    0 -0.31119302458E+02  0.21288178514E+02 -0.13003649271E+03  0.13606101909E+03  0.13472711381E+02 0.  0.
         22    1    3    3    0    0  0.31119302458E+02 -0.21288178514E+02 -0.29500990311E+02  0.47873854652E+02  0.00000000000E+00 0.  1.
         22    1    4    4    0    0 -0.22610639255E+02  0.10587181705E+02 -0.99831715002E+02  0.10290627165E+03  0.00000000000E+00 0.  1.
         22    1    4    4    0    0 -0.85086632028E+01  0.10700996809E+02 -0.30204777704E+02  0.33154747448E+02  0.00000000000E+00 0.  1.
<mgrwt>
<rscale>  0 0.91541408E+02</rscale>
<asrwt>0</asrwt>
<pdfrwt beam="2">  1        2 0.26420949E-01 0.91541408E+02</pdfrwt>
<pdfrwt beam="1">  1       -2 0.18767225E-02 0.91541408E+02</pdfrwt>
<totfact> 0.14492510E+05</totfact>
</mgrwt>
</event>
<event>
 7    1  0.3480999E-009  0.9605555E+02  0.7818608E-02  0.1288816E+00
         -2   -1    0    0    0  501 -0.00000000000E+00  0.00000000000E+00  0.25326169928E+03  0.25326169930E+03  0.25500000000E-02 0.  1.
          2   -1    0    0  501    0  0.00000000000E+00 -0.00000000000E+00 -0.91078410999E+01  0.91078414568E+01  0.25500000000E-02 0. -1.
         23    2    1    2    0    0  0.00000000000E+00  0.00000000000E+00  0.24415385818E+03  0.26236954075E+03  0.96055553973E+02 0.  0.
    9000005    2    3    3    0    0 -0.13704293755E+02 -0.23718116091E+02  0.22976357478E+03  0.23142706259E+03  0.41022320527E+01 0.  0.
         22    1    3    3    0    0  0.13704293755E+02  0.23718116091E+02  0.14390283408E+02  0.30942478162E+02  0.00000000000E+00 0. -1.
         22    1    4    4    0    0 -0.38231840875E+01 -0.82483926320E+01  0.91437769648E+02  0.91888619729E+02  0.00000000000E+00 0. -1.
         22    1    4    4    0    0 -0.98811096672E+01 -0.15469723459E+02  0.13832580513E+03  0.13953844286E+03  0.00000000000E+00 0. -1.
<mgrwt>
<rscale>  0 0.96055554E+02</rscale>
<asrwt>0</asrwt>
<pdfrwt beam="2">  1        2 0.14012065E-02 0.96055554E+02</pdfrwt>
<pdfrwt beam="1">  1       -2 0.38963336E-01 0.96055554E+02</pdfrwt>
<totfact> 0.48811769E+04</totfact>
</mgrwt>
</event>
<event>
 7    1  0.3480999E-009  0.9538340E+02  0.7818608E-02  0.1290315E+00
         -2   -1    0    0    0  501 -0.00000000000E+00  0.00000000000E+00  0.14123544446E+01  0.14123567466E+01  0.25500000000E-02 0.  1.
          2   -1    0    0  501    0  0.00000000000E+00 -0.00000000000E+00 -0.16104289882E+04  0.16104289882E+04  0.25500000000E-02 0. -1.
         23    2    1    2    0    0  0.00000000000E+00  0.90205620751E-16 -0.16090166337E+04  0.16118413449E+04  0.95383403086E+02 0.  0.
    9000005    2    3    3    0    0  0.13869069805E+02  0.15275731064E-01 -0.15751127269E+04  0.15752103986E+04  0.10739928450E+02 0.  0.
         22    1    3    3    0    0 -0.13869069805E+02 -0.15275731064E-01 -0.33903906813E+02  0.36630946313E+02  0.00000000000E+00 0.  1.
         22    1    4    4    0    0  0.91380546386E+01  0.32256685022E+01 -0.13108977350E+04  0.13109335530E+04  0.00000000000E+00 0.  1.
         22    1    4    4    0    0  0.47310151665E+01 -0.32103927711E+01 -0.26421499198E+03  0.26427684558E+03  0.00000000000E+00 0.  1.
<mgrwt>
<rscale>  0 0.95383403E+02</rscale>
<asrwt>0</asrwt>
<pdfrwt beam="2">  1        2 0.24775684E+00 0.95383403E+02</pdfrwt>
<pdfrwt beam="1">  1       -2 0.21728676E-03 0.95383403E+02</pdfrwt>
<totfact> 0.20312785E+05</totfact>
</mgrwt>
</event>
<event>
 7    1  0.3480999E-009  0.8628829E+02  0.7818608E-02  0.1312097E+00
          2   -1    0    0  501    0  0.00000000000E+00  0.00000000000E+00  0.16136133121E+03  0.16136133123E+03  0.25500000000E-02 0. -1.
         -2   -1    0    0    0  501 -0.00000000000E+00 -0.00000000000E+00 -0.11535708274E+02  0.11535708556E+02  0.25500000000E-02 0.  1.
         23    2    1    2    0    0  0.00000000000E+00  0.22204460493E-15  0.14982562294E+03  0.17289703979E+03  0.86288290506E+02 0.  0.
    9000005    2    3    3    0    0  0.41775751458E+02  0.12341573235E+01  0.58072606567E+02  0.72073666667E+02  0.86861521476E+01 0.  0.
         22    1    3    3    0    0 -0.41775751458E+02 -0.12341573235E+01  0.91753016369E+02  0.10082337312E+03  0.00000000000E+00 0.  1.
         22    1    4    4    0    0  0.28848726857E+02  0.16093441363E+01  0.46353346043E+02  0.54621165488E+02  0.00000000000E+00 0. -1.
         22    1    4    4    0    0  0.12927024602E+02 -0.37518681278E+00  0.11719260523E+02  0.17452501179E+02  0.00000000000E+00 0. -1.
<mgrwt>
<rscale>  0 0.86288291E+02</rscale>
<asrwt>0</asrwt>
<pdfrwt beam="1">  1        2 0.24824820E-01 0.86288291E+02</pdfrwt>
<pdfrwt beam="2">  1       -2 0.17747244E-02 0.86288291E+02</pdfrwt>
<totfact> 0.16632370E+05</totfact>
</mgrwt>
</event>
<event>
 7    1  0.3480999E-009  0.9176743E+02  0.7818608E-02  0.1298627E+00
         -2   -1    0    0    0  501 -0.00000000000E+00  0.00000000000E+00  0.10559280837E+02  0.10559281145E+02  0.25500000000E-02 0.  1.
          2   -1    0    0  501    0  0.00000000000E+00 -0.00000000000E+00 -0.19938053638E+03  0.19938053640E+03  0.25500000000E-02 0. -1.
         23    2    1    2    0    0  0.00000000000E+00  0.00000000000E+00 -0.18882125555E+03  0.20993981754E+03  0.91767425838E+02 0.  0.
    9000005    2    3    3    0    0  0.17339628924E+02  0.20398247033E+02 -0.17887145693E+03  0.18137848519E+03  0.13653042641E+02 0.  0.
         22    1    3    3    0    0 -0.17339628924E+02 -0.20398247033E+02 -0.99497986167E+01  0.28561332353E+02  0.00000000000E+00 0.  1.
         22    1    4    4    0    0  0.35403032493E+00  0.10086543620E+02 -0.67025119195E+02  0.67780751713E+02  0.00000000000E+00 0.  1.
         22    1    4    4    0    0  0.16985598599E+02  0.10311703413E+02 -0.11184633773E+03  0.11359773348E+03  0.00000000000E+00 0.  1.
<mgrwt>
<rscale>  0 0.91767426E+02</rscale>
<asrwt>0</asrwt>
<pdfrwt beam="2">  1        2 0.30673926E-01 0.91767426E+02</pdfrwt>
<pdfrwt beam="1">  1       -2 0.16245049E-02 0.91767426E+02</pdfrwt>
<totfact> 0.15184035E+05</totfact>
</mgrwt>
</event>
<event>
 7    1  0.3480999E-009  0.9039865E+02  0.7818608E-02  0.1301889E+00
          2   -1    0    0  501    0  0.00000000000E+00  0.00000000000E+00  0.79583218349E+01  0.79583222434E+01  0.25500000000E-02 0. -1.
         -2   -1    0    0    0  501 -0.00000000000E+00 -0.00000000000E+00 -0.25670978782E+03  0.25670978783E+03  0.25500000000E-02 0.  1.
         23    2    1    2    0    0  0.00000000000E+00  0.00000000000E+00 -0.24875146599E+03  0.26466811008E+03  0.90398654091E+02 0.  0.
    9000005    2    3    3    0    0  0.41353830102E+02 -0.17804032252E+02 -0.11748889530E+03  0.12589856986E+03  0.44369523170E+01 0.  0.
         22    1    3    3    0    0 -0.41353830102E+02  0.17804032252E+02 -0.13126257068E+03  0.13876954021E+03  0.00000000000E+00 0. -1.
         22    1    4    4    0    0  0.27869748372E+01 -0.24489326689E+01 -0.86447258284E+01  0.94072198129E+01  0.00000000000E+00 0.  1.
         22    1    4    4    0    0  0.38566855265E+02 -0.15355099583E+02 -0.10884416947E+03  0.11649135005E+03  0.00000000000E+00 0.  1.
<mgrwt>
<rscale>  0 0.90398654E+02</rscale>
<asrwt>0</asrwt>
<pdfrwt beam="1">  1        2 0.12243574E-02 0.90398654E+02</pdfrwt>
<pdfrwt beam="2">  1       -2 0.39493807E-01 0.90398654E+02</pdfrwt>
<totfact> 0.56665844E+04</totfact>
</mgrwt>
</event>
<event>
 7    1  0.3480999E-009  0.9144031E+02  0.7818608E-02  0.1299401E+00
          2   -1    0    0  501    0  0.00000000000E+00  0.00000000000E+00  0.43396927161E+02  0.43396927236E+02  0.25500000000E-02 0. -1.
         -2   -1    0    0    0  501 -0.00000000000E+00 -0.00000000000E+00 -0.48167752122E+02  0.48167752190E+02  0.25500000000E-02 0.  1.
         23    2    1    2    0    0  0.00000000000E+00  0.00000000000E+00 -0.47708249615E+01  0.91564679426E+02  0.91440307018E+02 0.  0.
    9000005    2    3    3    0    0 -0.27741226187E+02  0.28524087276E+02  0.18956495564E+02  0.45237744230E+02  0.10193409327E+02 0.  0.
         22    1    3    3    0    0  0.27741226187E+02 -0.28524087276E+02 -0.23727320525E+02  0.46326935195E+02  0.00000000000E+00 0.  1.
         22    1    4    4    0    0 -0.25626832316E+02  0.20869929502E+02  0.16403134541E+02  0.36896494613E+02  0.00000000000E+00 0.  1.
         22    1    4    4    0    0 -0.21143938717E+01  0.76541577735E+01  0.25533610225E+01  0.83412496172E+01  0.00000000000E+00 0.  1.
<mgrwt>
<rscale>  0 0.91440307E+02</rscale>
<asrwt>0</asrwt>
<pdfrwt beam="1">  1        2 0.66764504E-02 0.91440307E+02</pdfrwt>
<pdfrwt beam="2">  1       -2 0.74104234E-02 0.91440307E+02</pdfrwt>
<totfact> 0.96615160E+04</totfact>
</mgrwt>
</event>
<event>
 7    1  0.3480999E-009  0.8497677E+02  0.7818608E-02  0.1315493E+00
          2   -1    0    0  501    0  0.00000000000E+00  0.00000000000E+00  0.85908742576E+01  0.85908746360E+01  0.25500000000E-02 0. -1.
         -2   -1    0    0    0  501 -0.00000000000E+00 -0.00000000000E+00 -0.21013725914E+03  0.21013725915E+03  0.25500000000E-02 0.  1.
         23    2    1    2    0    0  0.00000000000E+00  0.00000000000E+00 -0.20154638488E+03  0.21872813379E+03  0.84976768900E+02 0.  0.
    9000005    2    3    3    0    0 -0.37315230018E+02 -0.15143958412E+02 -0.13225835641E+03  0.13858702850E+03  0.96086294846E+01 0.  0.
         22    1    3    3    0    0  0.37315230018E+02  0.15143958412E+02 -0.69288028467E+02  0.80141105287E+02  0.00000000000E+00 0. -1.
         22    1    4    4    0    0 -0.31855128682E+02 -0.15556636274E+02 -0.12067842231E+03  0.12577773955E+03  0.00000000000E+00 0.  1.
         22    1    4    4    0    0 -0.54601013360E+01  0.41267786198E+00 -0.11579934108E+02  0.12809288956E+02  0.00000000000E+00 0.  1.
<mgrwt>
<rscale>  0 0.84976769E+02</rscale>
<asrwt>0</asrwt>
<pdfrwt beam="1">  1        2 0.13216732E-02 0.84976769E+02</pdfrwt>
<pdfrwt beam="2">  1       -2 0.32328805E-01 0.84976769E+02</pdfrwt>
<totfact> 0.72984867E+04</totfact>
</mgrwt>
</event>
<event>
 7    1  0.3480999E-009  0.9149655E+02  0.7818608E-02  0.1299268E+00
         -2   -1    0    0    0  501 -0.00000000000E+00  0.00000000000E+00  0.81359391428E+01  0.81359395424E+01  0.25500000000E-02 0. -1.
          2   -1    0    0  501    0  0.00000000000E+00 -0.00000000000E+00 -0.25724194403E+03  0.25724194404E+03  0.25500000000E-02 0.  1.
         23    2    1    2    0    0 -0.35527136788E-14  0.00000000000E+00 -0.24910600488E+03  0.26537788358E+03  0.91496554170E+02 0.  0.
    9000005    2    3    3    0    0 -0.26595257327E+02  0.33954492542E+02 -0.89481376369E+02  0.10002904837E+03  0.11776184681E+02 0.  0.
         22    1    3    3    0    0  0.26595257327E+02 -0.33954492542E+02 -0.15962462851E+03  0.16534883521E+03  0.00000000000E+00 0.  1.
         22    1    4    4    0    0 -0.22882009520E+02  0.33148438770E+02 -0.75893572323E+02  0.85919960850E+02  0.00000000000E+00 0.  1.
         22    1    4    4    0    0 -0.37132478073E+01  0.80605377171E+00 -0.13587804046E+02  0.14109087523E+02  0.00000000000E+00 0.  1.
<mgrwt>
<rscale>  0 0.91496554E+02</rscale>
<asrwt>0</asrwt>
<pdfrwt beam="2">  1        2 0.39575678E-01 0.91496554E+02</pdfrwt>
<pdfrwt beam="1">  1       -2 0.12516832E-02 0.91496554E+02</pdfrwt>
<totfact> 0.16806292E+05</totfact>
</mgrwt>
</event>
<event>
 7    1  0.3480999E-009  0.8928257E+02  0.7818608E-02  0.1304598E+00
         -2   -1    0    0    0  501 -0.00000000000E+00  0.00000000000E+00  0.56508583768E+01  0.56508589522E+01  0.25500000000E-02 0. -1.
          2   -1    0    0  501    0  0.00000000000E+00 -0.00000000000E+00 -0.35266220019E+03  0.35266220020E+03  0.25500000000E-02 0.  1.
         23    2    1    2    0    0  0.00000000000E+00  0.00000000000E+00 -0.34701134182E+03  0.35831305915E+03  0.89282568352E+02 0.  0.
    9000005    2    3    3    0    0  0.18080242180E+02 -0.36131322967E+02 -0.11448188856E+03  0.12229968180E+03  0.14789919013E+02 0.  0.
         22    1    3    3    0    0 -0.18080242180E+02  0.36131322967E+02 -0.23252945326E+03  0.23601337735E+03  0.00000000000E+00 0.  1.
         22    1    4    4    0    0  0.74603715073E+01 -0.75045562362E+01 -0.47836503974E+02  0.48992924180E+02  0.00000000000E+00 0. -1.
         22    1    4    4    0    0  0.10619870673E+02 -0.28626766731E+02 -0.66645384583E+02  0.73306757620E+02  0.00000000000E+00 0. -1.
<mgrwt>
<rscale>  0 0.89282568E+02</rscale>
<asrwt>0</asrwt>
<pdfrwt beam="2">  1        2 0.54255706E-01 0.89282568E+02</pdfrwt>
<pdfrwt beam="1">  1       -2 0.86936315E-03 0.89282568E+02</pdfrwt>
<totfact> 0.20166144E+05</totfact>
</mgrwt>
</event>
<event>
 7    1  0.3480999E-009  0.9040750E+02  0.7818608E-02  0.1301868E+00
         -2   -1    0    0    0  501 -0.00000000000E+00  0.00000000000E+00  0.39522326303E+01  0.39522334529E+01  0.25500000000E-02 0. -1.
          2   -1    0    0  501    0  0.00000000000E+00 -0.00000000000E+00 -0.51701886665E+03  0.51701886666E+03  0.25500000000E-02 0.  1.
         23    2    1    2    0    0  0.00000000000E+00  0.00000000000E+00 -0.51306663402E+03  0.52097110011E+03  0.90407500821E+02 0.  0.
    9000005    2    3    3    0    0  0.12477514960E+02  0.96960467180E+01 -0.50016939620E+03  0.50057403059E+03  0.12459273888E+02 0.  0.
         22    1    3    3    0    0 -0.12477514960E+02 -0.96960467180E+01 -0.12897237820E+02  0.20397069518E+02  0.00000000000E+00 0. -1.
         22    1    4    4    0    0  0.26094522959E+00  0.37961463473E+01 -0.34888296959E+02  0.35095186055E+02  0.00000000000E+00 0.  1.
         22    1    4    4    0    0  0.12216569731E+02  0.58999003707E+01 -0.46528109924E+03  0.46547884454E+03  0.00000000000E+00 0.  1.
<mgrwt>
<rscale>  0 0.90407501E+02</rscale>
<asrwt>0</asrwt>
<pdfrwt beam="2">  1        2 0.79541311E-01 0.90407501E+02</pdfrwt>
<pdfrwt beam="1">  1       -2 0.60803626E-03 0.90407501E+02</pdfrwt>
<totfact> 0.22276451E+05</totfact>
</mgrwt>
</event>
<event>
 7    1  0.3480999E-009  0.9073387E+02  0.7818608E-02  0.1301084E+00
          2   -1    0    0  501    0  0.00000000000E+00  0.00000000000E+00  0.10299985983E+02  0.10299986299E+02  0.25500000000E-02 0. -1.
         -2   -1    0    0    0  501 -0.00000000000E+00 -0.00000000000E+00 -0.19982150953E+03  0.19982150955E+03  0.25500000000E-02 0.  1.
         23    2    1    2    0    0 -0.71054273576E-14  0.17763568394E-14 -0.18952152355E+03  0.21012149585E+03  0.90733869800E+02 0.  0.
    9000005    2    3    3    0    0 -0.43443731662E+02  0.97178098903E+01 -0.91935749699E+02  0.10286117277E+03  0.12101451987E+02 0.  0.
         22    1    3    3    0    0  0.43443731662E+02 -0.97178098903E+01 -0.97585773850E+02  0.10726032308E+03  0.00000000000E+00 0. -1.
         22    1    4    4    0    0 -0.39725559771E+02  0.76147877071E+01 -0.73075856026E+02  0.83523564489E+02  0.00000000000E+00 0. -1.
         22    1    4    4    0    0 -0.37181718909E+01  0.21030221832E+01 -0.18859893673E+02  0.19337608276E+02  0.00000000000E+00 0. -1.
<mgrwt>
<rscale>  0 0.90733870E+02</rscale>
<asrwt>0</asrwt>
<pdfrwt beam="1">  1        2 0.15846134E-02 0.90733870E+02</pdfrwt>
<pdfrwt beam="2">  1       -2 0.30741768E-01 0.90733870E+02</pdfrwt>
<totfact> 0.63123172E+04</totfact>
</mgrwt>
</event>
<event>
 7    1  0.3480999E-009  0.8833237E+02  0.7818608E-02  0.1306941E+00
          2   -1    0    0  501    0  0.00000000000E+00  0.00000000000E+00  0.18384691949E+03  0.18384691951E+03  0.25500000000E-02 0. -1.
         -2   -1    0    0    0  501 -0.00000000000E+00 -0.00000000000E+00 -0.10610196196E+02  0.10610196502E+02  0.25500000000E-02 0.  1.
         23    2    1    2    0    0  0.22204460493E-15  0.00000000000E+00  0.17323672330E+03  0.19445711601E+03  0.88332370451E+02 0.  0.
    9000005    2    3    3    0    0  0.10939974766E+01 -0.35916838940E+02  0.14293779977E+03  0.14745455314E+03  0.45182395570E+01 0.  0.
         22    1    3    3    0    0 -0.10939974766E+01  0.35916838940E+02  0.30298923531E+02  0.47002562877E+02  0.00000000000E+00 0.  1.
         22    1    4    4    0    0  0.19333197559E+01 -0.32661718603E+02  0.12544699087E+03  0.12964363890E+03  0.00000000000E+00 0. -1.
         22    1    4    4    0    0 -0.83932227933E+00 -0.32551203366E+01  0.17490808894E+02  0.17810914240E+02  0.00000000000E+00 0. -1.
<mgrwt>
<rscale>  0 0.88332370E+02</rscale>
<asrwt>0</asrwt>
<pdfrwt beam="1">  1        2 0.28284138E-01 0.88332370E+02</pdfrwt>
<pdfrwt beam="2">  1       -2 0.16323381E-02 0.88332370E+02</pdfrwt>
<totfact> 0.16343342E+05</totfact>
</mgrwt>
</event>
<event>
 7    1  0.3480999E-009  0.9067474E+02  0.7818608E-02  0.1301226E+00
         -2   -1    0    0    0  501 -0.00000000000E+00  0.00000000000E+00  0.80244856082E+01  0.80244860134E+01  0.25500000000E-02 0. -1.
          2   -1    0    0  501    0  0.00000000000E+00 -0.00000000000E+00 -0.25615065438E+03  0.25615065439E+03  0.25500000000E-02 0.  1.
         23    2    1    2    0    0  0.88817841970E-15  0.00000000000E+00 -0.24812616877E+03  0.26417514041E+03  0.90674743889E+02 0.  0.
    9000005    2    3    3    0    0 -0.48409399908E+01 -0.42813725475E+02 -0.96968165962E+02  0.10699628813E+03  0.13745205521E+02 0.  0.
         22    1    3    3    0    0  0.48409399908E+01  0.42813725475E+02 -0.15115800281E+03  0.15717885228E+03  0.00000000000E+00 0.  1.
         22    1    4    4    0    0  0.33849959860E+01 -0.39331877805E+01 -0.77456506941E+01  0.93232649119E+01  0.00000000000E+00 0. -1.
         22    1    4    4    0    0 -0.82259359768E+01 -0.38880537694E+02 -0.89222515268E+02  0.97673023219E+02  0.00000000000E+00 0. -1.
<mgrwt>
<rscale>  0 0.90674744E+02</rscale>
<asrwt>0</asrwt>
<pdfrwt beam="2">  1        2 0.39407787E-01 0.90674744E+02</pdfrwt>
<pdfrwt beam="1">  1       -2 0.12345365E-02 0.90674744E+02</pdfrwt>
<totfact> 0.17189859E+05</totfact>
</mgrwt>
</event>
<event>
 7    1  0.3480999E-009  0.1009083E+03  0.7818608E-02  0.1278397E+00
          2   -1    0    0  501    0  0.00000000000E+00  0.00000000000E+00  0.10653409480E+04  0.10653409480E+04  0.25500000000E-02 0. -1.
         -2   -1    0    0    0  501 -0.00000000000E+00 -0.00000000000E+00 -0.23894887332E+01  0.23894900938E+01  0.25500000000E-02 0.  1.
         23    2    1    2    0    0  0.00000000000E+00  0.00000000000E+00  0.10629514593E+04  0.10677304381E+04  0.10090829342E+03 0.  0.
    9000005    2    3    3    0    0  0.14474200192E+02 -0.15830598070E+01  0.10424582876E+04  0.10425912529E+04  0.80765460585E+01 0.  0.
         22    1    3    3    0    0 -0.14474200192E+02  0.15830598070E+01  0.20493171659E+02  0.25139185234E+02  0.00000000000E+00 0.  1.
         22    1    4    4    0    0  0.72145051448E+01  0.21776492702E+01  0.32990565291E+03  0.32999171363E+03  0.00000000000E+00 0. -1.
         22    1    4    4    0    0  0.72596950470E+01 -0.37607090772E+01  0.71255263470E+03  0.71259953924E+03  0.00000000000E+00 0. -1.
<mgrwt>
<rscale>  0 0.10090829E+03</rscale>
<asrwt>0</asrwt>
<pdfrwt beam="1">  1        2 0.16389880E+00 0.10090829E+03</pdfrwt>
<pdfrwt beam="2">  1       -2 0.36761333E-03 0.10090829E+03</pdfrwt>
<totfact> 0.19141686E+05</totfact>
</mgrwt>
</event>
<event>
 7    1  0.3480999E-009  0.9621172E+02  0.7818608E-02  0.1288470E+00
         -2   -1    0    0    0  501 -0.00000000000E+00  0.00000000000E+00  0.18973860267E+02  0.18973860438E+02  0.25500000000E-02 0.  1.
          2   -1    0    0  501    0  0.00000000000E+00 -0.00000000000E+00 -0.12196640468E+03  0.12196640471E+03  0.25500000000E-02 0. -1.
         23    2    1    2    0    0  0.00000000000E+00  0.00000000000E+00 -0.10299254442E+03  0.14094026515E+03  0.96211715164E+02 0.  0.
    9000005    2    3    3    0    0  0.47500952401E+01 -0.13688236115E+02 -0.11818858045E+03  0.11994381964E+03  0.14423872873E+02 0.  0.
         22    1    3    3    0    0 -0.47500952401E+01  0.13688236115E+02  0.15196036035E+02  0.20996445506E+02  0.00000000000E+00 0.  1.
         22    1    4    4    0    0  0.17871791871E+01 -0.10709634990E+02 -0.34914269429E+02  0.36563595295E+02  0.00000000000E+00 0.  1.
         22    1    4    4    0    0  0.29629160530E+01 -0.29786011249E+01 -0.83274311020E+02  0.83380224347E+02  0.00000000000E+00 0.  1.
<mgrwt>
<rscale>  0 0.96211715E+02</rscale>
<asrwt>0</asrwt>
<pdfrwt beam="2">  1        2 0.18764062E-01 0.96211715E+02</pdfrwt>
<pdfrwt beam="1">  1       -2 0.29190555E-02 0.96211715E+02</pdfrwt>
<totfact> 0.11263801E+05</totfact>
</mgrwt>
</event>
<event>
 7    1  0.3480999E-009  0.9006558E+02  0.7818608E-02  0.1302693E+00
          2   -1    0    0  501    0  0.00000000000E+00  0.00000000000E+00  0.28631196518E+03  0.28631196519E+03  0.25500000000E-02 0. -1.
         -2   -1    0    0    0  501 -0.00000000000E+00 -0.00000000000E+00 -0.70830161986E+01  0.70830166576E+01  0.25500000000E-02 0.  1.
         23    2    1    2    0    0  0.00000000000E+00  0.00000000000E+00  0.27922894898E+03  0.29339498185E+03  0.90065584020E+02 0.  0.
    9000005    2    3    3    0    0  0.26881933168E+02  0.35661491818E+02  0.14656981152E+03  0.15342060176E+03  0.77968625515E+01 0.  0.
         22    1    3    3    0    0 -0.26881933168E+02 -0.35661491818E+02  0.13265913746E+03  0.13997438009E+03  0.00000000000E+00 0.  1.
         22    1    4    4    0    0  0.23832729902E+02  0.31429570895E+02  0.11915113720E+03  0.12551020053E+03  0.00000000000E+00 0.  1.
         22    1    4    4    0    0  0.30492032659E+01  0.42319209225E+01  0.27418674327E+02  0.27910401235E+02  0.00000000000E+00 0.  1.
<mgrwt>
<rscale>  0 0.90065584E+02</rscale>
<asrwt>0</asrwt>
<pdfrwt beam="1">  1        2 0.44047989E-01 0.90065584E+02</pdfrwt>
<pdfrwt beam="2">  1       -2 0.10896950E-02 0.90065584E+02</pdfrwt>
<totfact> 0.18243039E+05</totfact>
</mgrwt>
</event>
<event>
 7    1  0.3480999E-009  0.7006151E+02  0.7818608E-02  0.1359884E+00
          2   -1    0    0  501    0  0.00000000000E+00  0.00000000000E+00  0.77077708031E+03  0.77077708031E+03  0.25500000000E-02 0. -1.
         -2   -1    0    0    0  501 -0.00000000000E+00 -0.00000000000E+00 -0.15920983566E+01  0.15921003987E+01  0.25500000000E-02 0.  1.
         23    2    1    2    0    0  0.35527136788E-14  0.11102230246E-15  0.76918498195E+03  0.77236918071E+03  0.70061507637E+02 0.  0.
    9000005    2    3    3    0    0  0.26124915520E+02  0.73288902440E+00  0.63989463346E+03  0.64046375038E+03  0.67546491486E+01 0.  0.
         22    1    3    3    0    0 -0.26124915520E+02 -0.73288902440E+00  0.12929034849E+03  0.13190543033E+03  0.00000000000E+00 0.  1.
         22    1    4    4    0    0  0.43040220084E+01 -0.73826812339E+00  0.60985352209E+02  0.61141498422E+02  0.00000000000E+00 0.  1.
         22    1    4    4    0    0  0.21820893512E+02  0.14711571478E+01  0.57890928125E+03  0.57932225196E+03  0.00000000000E+00 0.  1.
<mgrwt>
<rscale>  0 0.70061508E+02</rscale>
<asrwt>0</asrwt>
<pdfrwt beam="1">  1        2 0.11858105E+00 0.70061508E+02</pdfrwt>
<pdfrwt beam="2">  1       -2 0.24493844E-03 0.70061508E+02</pdfrwt>
<totfact> 0.48021964E+05</totfact>
</mgrwt>
</event>
<event>
 7    1  0.3480999E-009  0.9166135E+02  0.7818608E-02  0.1298878E+00
          2   -1    0    0  501    0  0.00000000000E+00  0.00000000000E+00  0.21192308561E+02  0.21192308715E+02  0.25500000000E-02 0. -1.
         -2   -1    0    0    0  501 -0.00000000000E+00 -0.00000000000E+00 -0.99113816209E+02  0.99113816241E+02  0.25500000000E-02 0.  1.
         23    2    1    2    0    0 -0.88817841970E-15 -0.35527136788E-14 -0.77921507647E+02  0.12030612496E+03  0.91661345986E+02 0.  0.
    9000005    2    3    3    0    0 -0.56545175284E+01 -0.27984073736E+02 -0.85486671653E+02  0.90771168417E+02  0.10786660012E+02 0.  0.
         22    1    3    3    0    0  0.56545175284E+01  0.27984073736E+02  0.75651640058E+01  0.29534956539E+02  0.00000000000E+00 0. -1.
         22    1    4    4    0    0 -0.54196027968E+01 -0.45350389530E+01 -0.20285999194E+02  0.21481630200E+02  0.00000000000E+00 0.  1.
         22    1    4    4    0    0 -0.23491473154E+00 -0.23449034783E+02 -0.65200672459E+02  0.69289538217E+02  0.00000000000E+00 0.  1.
<mgrwt>
<rscale>  0 0.91661346E+02</rscale>
<asrwt>0</asrwt>
<pdfrwt beam="1">  1        2 0.32603552E-02 0.91661346E+02</pdfrwt>
<pdfrwt beam="2">  1       -2 0.15248279E-01 0.91661346E+02</pdfrwt>
<totfact> 0.78969228E+04</totfact>
</mgrwt>
</event>
<event>
 7    1  0.3480999E-009  0.9246858E+02  0.7818608E-02  0.1296981E+00
          2   -1    0    0  501    0  0.00000000000E+00  0.00000000000E+00  0.30646908932E+02  0.30646909038E+02  0.25500000000E-02 0.  1.
         -2   -1    0    0    0  501 -0.00000000000E+00 -0.00000000000E+00 -0.69749591679E+02  0.69749591726E+02  0.25500000000E-02 0. -1.
         23    2    1    2    0    0  0.00000000000E+00  0.00000000000E+00 -0.39102682748E+02  0.10039650076E+03  0.92468576108E+02 0.  0.
    9000005    2    3    3    0    0 -0.32046229621E+02 -0.20988714341E+02  0.56147021500E+01  0.41514147935E+02  0.14980408402E+02 0.  0.
         22    1    3    3    0    0  0.32046229621E+02  0.20988714341E+02 -0.44717384897E+02  0.58882352829E+02  0.00000000000E+00 0. -1.
         22    1    4    4    0    0 -0.30022224173E+02 -0.21291805903E+02  0.14042868434E+01  0.36832688803E+02  0.00000000000E+00 0.  1.
         22    1    4    4    0    0 -0.20240054480E+01  0.30309156201E+00  0.42104153066E+01  0.46814591318E+01  0.00000000000E+00 0.  1.
<mgrwt>
<rscale>  0 0.92468576E+02</rscale>
<asrwt>0</asrwt>
<pdfrwt beam="1">  1        2 0.47149091E-02 0.92468576E+02</pdfrwt>
<pdfrwt beam="2">  1       -2 0.10730706E-01 0.92468576E+02</pdfrwt>
<totfact> 0.85329822E+04</totfact>
</mgrwt>
</event>
<event>
 7    1  0.3480999E-009  0.9084316E+02  0.7818608E-02  0.1300823E+00
          2   -1    0    0  501    0  0.00000000000E+00  0.00000000000E+00  0.19401675909E+04  0.19401675909E+04  0.25500000000E-02 0. -1.
         -2   -1    0    0    0  501 -0.00000000000E+00 -0.00000000000E+00 -0.10633704254E+01  0.10633734829E+01  0.25500000000E-02 0.  1.
         23    2    1    2    0    0  0.00000000000E+00 -0.17763568394E-14  0.19391042205E+04  0.19412309644E+04  0.90843157272E+02 0.  0.
    9000005    2    3    3    0    0 -0.46321354900E+01  0.15476582741E+02  0.18757642058E+04  0.18758632448E+04  0.10515535811E+02 0.  0.
         22    1    3    3    0    0  0.46321354900E+01 -0.15476582741E+02  0.63340014723E+02  0.65367719539E+02  0.00000000000E+00 0.  1.
         22    1    4    4    0    0 -0.72255877190E+01  0.79650753799E+01  0.84544029446E+03  0.84550868892E+03  0.00000000000E+00 0.  1.
         22    1    4    4    0    0  0.25934522290E+01  0.75115073613E+01  0.10303239113E+04  0.10303545559E+04  0.00000000000E+00 0.  1.
<mgrwt>
<rscale>  0 0.90843157E+02</rscale>
<asrwt>0</asrwt>
<pdfrwt beam="1">  1        2 0.29848735E+00 0.90843157E+02</pdfrwt>
<pdfrwt beam="2">  1       -2 0.16359567E-03 0.90843157E+02</pdfrwt>
<totfact> 0.20420193E+05</totfact>
</mgrwt>
</event>
<event>
 7    1  0.3480999E-009  0.9159239E+02  0.7818608E-02  0.1299041E+00
          2   -1    0    0  501    0  0.00000000000E+00  0.00000000000E+00  0.26919012938E+03  0.26919012939E+03  0.25500000000E-02 0. -1.
         -2   -1    0    0    0  501 -0.00000000000E+00 -0.00000000000E+00 -0.77911149638E+01  0.77911153811E+01  0.25500000000E-02 0.  1.
         23    2    1    2    0    0  0.00000000000E+00  0.17763568394E-14  0.26139901441E+03  0.27698124477E+03  0.91592386246E+02 0.  0.
    9000005    2    3    3    0    0 -0.28889448584E+02  0.14958595625E+02  0.22797319904E+03  0.23033743537E+03  0.50194448454E+01 0.  0.
         22    1    3    3    0    0  0.28889448584E+02 -0.14958595625E+02  0.33425815370E+02  0.46643809404E+02  0.00000000000E+00 0.  1.
         22    1    4    4    0    0 -0.12074965172E+02  0.41772859163E+01  0.77911417912E+02  0.78952159835E+02  0.00000000000E+00 0.  1.
         22    1    4    4    0    0 -0.16814483412E+02  0.10781309709E+02  0.15006178113E+03  0.15138527553E+03  0.00000000000E+00 0.  1.
<mgrwt>
<rscale>  0 0.91592386E+02</rscale>
<asrwt>0</asrwt>
<pdfrwt beam="1">  1        2 0.41413858E-01 0.91592386E+02</pdfrwt>
<pdfrwt beam="2">  1       -2 0.11986333E-02 0.91592386E+02</pdfrwt>
<totfact> 0.17045580E+05</totfact>
</mgrwt>
</event>
<event>
 7    1  0.3480999E-009  0.8929400E+02  0.7818608E-02  0.1304570E+00
          2   -1    0    0  501    0  0.00000000000E+00  0.00000000000E+00  0.49780700002E+03  0.49780700003E+03  0.25500000000E-02 0. -1.
         -2   -1    0    0    0  501 -0.00000000000E+00 -0.00000000000E+00 -0.40042718863E+01  0.40042726982E+01  0.25500000000E-02 0.  1.
         23    2    1    2    0    0  0.00000000000E+00  0.00000000000E+00  0.49380272813E+03  0.50181127272E+03  0.89294003837E+02 0.  0.
    9000005    2    3    3    0    0  0.34076693838E+02 -0.25504262136E+02  0.30181416849E+03  0.30516108715E+03  0.14825935487E+02 0.  0.
         22    1    3    3    0    0 -0.34076693838E+02  0.25504262136E+02  0.19198855965E+03  0.19665018557E+03  0.00000000000E+00 0.  1.
         22    1    4    4    0    0  0.12854137438E+02 -0.54642569320E+01  0.60683563998E+02  0.62270232797E+02  0.00000000000E+00 0.  1.
         22    1    4    4    0    0  0.21222556400E+02 -0.20040005204E+02  0.24113060449E+03  0.24289085436E+03  0.00000000000E+00 0.  1.
<mgrwt>
<rscale>  0 0.89294004E+02</rscale>
<asrwt>0</asrwt>
<pdfrwt beam="1">  1        2 0.76585740E-01 0.89294004E+02</pdfrwt>
<pdfrwt beam="2">  1       -2 0.61604151E-03 0.89294004E+02</pdfrwt>
<totfact> 0.22738949E+05</totfact>
</mgrwt>
</event>
<event>
 7    1  0.3480999E-009  0.1178707E+03  0.7818608E-02  0.1246652E+00
         -2   -1    0    0    0  501 -0.00000000000E+00  0.00000000000E+00  0.42121630837E+01  0.42121638556E+01  0.25500000000E-02 0.  1.
          2   -1    0    0  501    0  0.00000000000E+00 -0.00000000000E+00 -0.82460603072E+03  0.82460603072E+03  0.25500000000E-02 0. -1.
         23    2    1    2    0    0  0.00000000000E+00  0.00000000000E+00 -0.82039386763E+03  0.82881819458E+03  0.11787069869E+03 0.  0.
    9000005    2    3    3    0    0 -0.30082779705E+02 -0.44156549662E+02 -0.57385188187E+03  0.57655300622E+03  0.15893776824E+02 0.  0.
         22    1    3    3    0    0  0.30082779705E+02  0.44156549662E+02 -0.24654198577E+03  0.25226518836E+03  0.00000000000E+00 0.  1.
         22    1    4    4    0    0  0.17121407342E+01 -0.50466796886E+01 -0.58393077845E+02  0.58635756515E+02  0.00000000000E+00 0. -1.
         22    1    4    4    0    0 -0.31794920440E+02 -0.39109869974E+02 -0.51545880402E+03  0.51791724970E+03  0.00000000000E+00 0. -1.
<mgrwt>
<rscale>  0 0.11787070E+03</rscale>
<asrwt>0</asrwt>
<pdfrwt beam="2">  1        2 0.12686234E+00 0.11787070E+03</pdfrwt>
<pdfrwt beam="1">  1       -2 0.64802580E-03 0.11787070E+03</pdfrwt>
<totfact> 0.12345667E+05</totfact>
</mgrwt>
</event>
<event>
 7    1  0.3480999E-009  0.9113728E+02  0.7818608E-02  0.1300121E+00
          2   -1    0    0  501    0  0.00000000000E+00  0.00000000000E+00  0.47578356256E+03  0.47578356257E+03  0.25500000000E-02 0. -1.
         -2   -1    0    0    0  501 -0.00000000000E+00 -0.00000000000E+00 -0.43643814963E+01  0.43643822412E+01  0.25500000000E-02 0.  1.
         23    2    1    2    0    0  0.71054273576E-14  0.00000000000E+00  0.47141918107E+03  0.48014794481E+03  0.91137284514E+02 0.  0.
    9000005    2    3    3    0    0  0.42792560836E+02 -0.22261784779E+01  0.31687547013E+03  0.31977363975E+03  0.29929877441E+01 0.  0.
         22    1    3    3    0    0 -0.42792560836E+02  0.22261784779E+01  0.15454371094E+03  0.16037430506E+03  0.00000000000E+00 0.  1.
         22    1    4    4    0    0  0.25894089634E+02 -0.28102020484E+01  0.19252821856E+03  0.19428205284E+03  0.00000000000E+00 0.  1.
         22    1    4    4    0    0  0.16898471203E+02  0.58402357051E+00  0.12434725157E+03  0.12549158692E+03  0.00000000000E+00 0.  1.
<mgrwt>
<rscale>  0 0.91137285E+02</rscale>
<asrwt>0</asrwt>
<pdfrwt beam="1">  1        2 0.73197507E-01 0.91137285E+02</pdfrwt>
<pdfrwt beam="2">  1       -2 0.67144303E-03 0.91137285E+02</pdfrwt>
<totfact> 0.21224420E+05</totfact>
</mgrwt>
</event>
<event>
 7    1  0.3480999E-009  0.8797456E+02  0.7818608E-02  0.1307832E+00
         -2   -1    0    0    0  501 -0.00000000000E+00  0.00000000000E+00  0.37382162703E+02  0.37382162790E+02  0.25500000000E-02 0. -1.
          2   -1    0    0  501    0  0.00000000000E+00 -0.00000000000E+00 -0.51759464072E+02  0.51759464135E+02  0.25500000000E-02 0.  1.
         23    2    1    2    0    0  0.00000000000E+00  0.00000000000E+00 -0.14377301368E+02  0.89141626925E+02  0.87974558005E+02 0.  0.
    9000005    2    3    3    0    0  0.17562289418E+02 -0.23219110372E+02  0.24077223857E+02  0.40909774312E+02  0.15695089343E+02 0.  0.
         22    1    3    3    0    0 -0.17562289418E+02  0.23219110372E+02 -0.38454525226E+02  0.48231852613E+02  0.00000000000E+00 0.  1.
         22    1    4    4    0    0  0.12664410555E+02 -0.22335081043E+02  0.25013156509E+02  0.35845517689E+02  0.00000000000E+00 0. -1.
         22    1    4    4    0    0  0.48978788632E+01 -0.88402932969E+00 -0.93593265111E+00  0.50642566228E+01  0.00000000000E+00 0. -1.
<mgrwt>
<rscale>  0 0.87974558E+02</rscale>
<asrwt>0</asrwt>
<pdfrwt beam="2">  1        2 0.79629945E-02 0.87974558E+02</pdfrwt>
<pdfrwt beam="1">  1       -2 0.57511019E-02 0.87974558E+02</pdfrwt>
<totfact> 0.11287126E+05</totfact>
</mgrwt>
</event>
<event>
 7    1  0.3480999E-009  0.1024490E+03  0.7818608E-02  0.1275229E+00
         -2   -1    0    0    0  501 -0.00000000000E+00  0.00000000000E+00  0.10110923775E+02  0.10110924097E+02  0.25500000000E-02 0. -1.
          2   -1    0    0  501    0  0.00000000000E+00 -0.00000000000E+00 -0.25951617923E+03  0.25951617925E+03  0.25500000000E-02 0.  1.
         23    2    1    2    0    0  0.00000000000E+00  0.00000000000E+00 -0.24940525546E+03  0.26962710334E+03  0.10244897953E+03 0.  0.
    9000005    2    3    3    0    0  0.47359236359E+02 -0.15413448357E+02 -0.15494573590E+03  0.16284193352E+03  0.53705288844E+01 0.  0.
         22    1    3    3    0    0 -0.47359236359E+02  0.15413448357E+02 -0.94459519558E+02  0.10678516982E+03  0.00000000000E+00 0. -1.
         22    1    4    4    0    0  0.22321392269E+02 -0.50497983499E+01 -0.65607466197E+02  0.69484420103E+02  0.00000000000E+00 0. -1.
         22    1    4    4    0    0  0.25037844090E+02 -0.10363650007E+02 -0.89338269702E+02  0.93357513418E+02  0.00000000000E+00 0. -1.
<mgrwt>
<rscale>  0 0.10244898E+03</rscale>
<asrwt>0</asrwt>
<pdfrwt beam="2">  1        2 0.39925561E-01 0.10244898E+03</pdfrwt>
<pdfrwt beam="1">  1       -2 0.15555270E-02 0.10244898E+03</pdfrwt>
<totfact> 0.12431809E+05</totfact>
</mgrwt>
</event>
<event>
 7    1  0.3480999E-009  0.9202806E+02  0.7818608E-02  0.1298013E+00
          2   -1    0    0  501    0  0.00000000000E+00  0.00000000000E+00  0.25154668805E+02  0.25154668934E+02  0.25500000000E-02 0. -1.
         -2   -1    0    0    0  501 -0.00000000000E+00 -0.00000000000E+00 -0.84170889349E+02  0.84170889388E+02  0.25500000000E-02 0.  1.
         23    2    1    2    0    0  0.00000000000E+00  0.00000000000E+00 -0.59016220544E+02  0.10932555832E+03  0.92028057761E+02 0.  0.
    9000005    2    3    3    0    0 -0.12459809238E+01  0.32909039114E+02 -0.66196991644E+02  0.75619167275E+02  0.15863777381E+02 0.  0.
         22    1    3    3    0    0  0.12459809238E+01 -0.32909039114E+02  0.71807710995E+01  0.33706391048E+02  0.00000000000E+00 0. -1.
         22    1    4    4    0    0  0.57385025046E+00  0.28261508152E+02 -0.64371701506E+02  0.70304751631E+02  0.00000000000E+00 0. -1.
         22    1    4    4    0    0 -0.18198311743E+01  0.46475309624E+01 -0.18252901377E+01  0.53144156439E+01  0.00000000000E+00 0. -1.
<mgrwt>
<rscale>  0 0.92028058E+02</rscale>
<asrwt>0</asrwt>
<pdfrwt beam="1">  1        2 0.38699491E-02 0.92028058E+02</pdfrwt>
<pdfrwt beam="2">  1       -2 0.12949367E-01 0.92028058E+02</pdfrwt>
<totfact> 0.81983150E+04</totfact>
</mgrwt>
</event>
<event>
 7    1  0.3480999E-009  0.1067528E+03  0.7818608E-02  0.1266704E+00
          2   -1    0    0  501    0  0.00000000000E+00  0.00000000000E+00  0.57777267991E+02  0.57777268047E+02  0.25500000000E-02 0. -1.
         -2   -1    0    0    0  501 -0.00000000000E+00 -0.00000000000E+00 -0.49310730331E+02  0.49310730397E+02  0.25500000000E-02 0.  1.
         23    2    1    2    0    0  0.00000000000E+00  0.00000000000E+00  0.84665376598E+01  0.10708799844E+03  0.10675278521E+03 0.  0.
    9000005    2    3    3    0    0  0.12206128899E+02  0.28301643161E+02  0.47251009381E+02  0.57548036444E+02  0.11364243164E+02 0.  0.
         22    1    3    3    0    0 -0.12206128899E+02 -0.28301643161E+02 -0.38784471722E+02  0.49539962001E+02  0.00000000000E+00 0.  1.
         22    1    4    4    0    0 -0.13373252208E+01  0.38954013807E+00  0.46048048897E+01  0.48108635750E+01  0.00000000000E+00 0.  1.
         22    1    4    4    0    0  0.13543454120E+02  0.27912103023E+02  0.42646204492E+02  0.52737172869E+02  0.00000000000E+00 0.  1.
<mgrwt>
<rscale>  0 0.10675279E+03</rscale>
<asrwt>0</asrwt>
<pdfrwt beam="1">  1        2 0.88888104E-02 0.10675279E+03</pdfrwt>
<pdfrwt beam="2">  1       -2 0.75862662E-02 0.10675279E+03</pdfrwt>
<totfact> 0.66761755E+04</totfact>
</mgrwt>
</event>
<event>
 7    1  0.3480999E-009  0.9022736E+02  0.7818608E-02  0.1302302E+00
         -2   -1    0    0    0  501 -0.00000000000E+00  0.00000000000E+00  0.77872525670E+01  0.77872529845E+01  0.25500000000E-02 0.  1.
          2   -1    0    0  501    0  0.00000000000E+00 -0.00000000000E+00 -0.26135587825E+03  0.26135587826E+03  0.25500000000E-02 0. -1.
         23    2    1    2    0    0 -0.17763568394E-14  0.00000000000E+00 -0.25356862568E+03  0.26914313124E+03  0.90227363735E+02 0.  0.
    9000005    2    3    3    0    0 -0.10062732612E+02  0.97635328752E+01 -0.25443353746E+03  0.25509559643E+03  0.11863944163E+02 0.  0.
         22    1    3    3    0    0  0.10062732612E+02 -0.97635328752E+01  0.86491178587E+00  0.14047534809E+02  0.00000000000E+00 0.  1.
         22    1    4    4    0    0 -0.52566420520E+01  0.11505601621E+02 -0.20731528646E+03  0.20770084053E+03  0.00000000000E+00 0.  1.
         22    1    4    4    0    0 -0.48060905599E+01 -0.17420687460E+01 -0.47118251001E+02  0.47394755906E+02  0.00000000000E+00 0.  1.
<mgrwt>
<rscale>  0 0.90227364E+02</rscale>
<asrwt>0</asrwt>
<pdfrwt beam="2">  1        2 0.40208590E-01 0.90227364E+02</pdfrwt>
<pdfrwt beam="1">  1       -2 0.11980391E-02 0.90227364E+02</pdfrwt>
<totfact> 0.17549431E+05</totfact>
</mgrwt>
</event>
<event>
 7    1  0.3480999E-009  0.8723496E+02  0.7818608E-02  0.1309689E+00
          2   -1    0    0  501    0  0.00000000000E+00  0.00000000000E+00  0.40093816887E+01  0.40093824996E+01  0.25500000000E-02 0. -1.
         -2   -1    0    0    0  501 -0.00000000000E+00 -0.00000000000E+00 -0.47450819361E+03  0.47450819361E+03  0.25500000000E-02 0.  1.
         23    2    1    2    0    0 -0.17763568394E-14  0.00000000000E+00 -0.47049881192E+03  0.47851757611E+03  0.87234962216E+02 0.  0.
    9000005    2    3    3    0    0 -0.15131024620E+02 -0.23774372789E+01 -0.45858316364E+03  0.45911183501E+03  0.15829054078E+02 0.  0.
         22    1    3    3    0    0  0.15131024620E+02  0.23774372789E+01 -0.11915648276E+02  0.19405741107E+02  0.00000000000E+00 0. -1.
         22    1    4    4    0    0 -0.15920670296E+02 -0.62750807665E+00 -0.24379462115E+03  0.24431471264E+03  0.00000000000E+00 0. -1.
         22    1    4    4    0    0  0.78964567595E+00 -0.17499292023E+01 -0.21478854249E+03  0.21479712236E+03  0.00000000000E+00 0. -1.
<mgrwt>
<rscale>  0 0.87234962E+02</rscale>
<asrwt>0</asrwt>
<pdfrwt beam="1">  1        2 0.61682839E-03 0.87234962E+02</pdfrwt>
<pdfrwt beam="2">  1       -2 0.73001216E-01 0.87234962E+02</pdfrwt>
<totfact> 0.42360457E+04</totfact>
</mgrwt>
</event>
<event>
 7    1  0.3480999E-009  0.9286129E+02  0.7818608E-02  0.1296067E+00
          2   -1    0    0  501    0  0.00000000000E+00  0.00000000000E+00  0.20514668698E+02  0.20514668856E+02  0.25500000000E-02 0.  1.
         -2   -1    0    0    0  501 -0.00000000000E+00 -0.00000000000E+00 -0.10508601322E+03  0.10508601325E+03  0.25500000000E-02 0. -1.
         23    2    1    2    0    0  0.00000000000E+00  0.00000000000E+00 -0.84571344522E+02  0.12560068211E+03  0.92861289197E+02 0.  0.
    9000005    2    3    3    0    0  0.27274202525E+02  0.35873421888E+02 -0.50176243736E+02  0.68910228947E+02  0.14148487439E+02 0.  0.
         22    1    3    3    0    0 -0.27274202525E+02 -0.35873421888E+02 -0.34395100786E+02  0.56690453159E+02  0.00000000000E+00 0. -1.
         22    1    4    4    0    0  0.21862146938E+02  0.24235405960E+02 -0.26758154245E+02  0.42205535056E+02  0.00000000000E+00 0. -1.
         22    1    4    4    0    0  0.54120555865E+01  0.11638015928E+02 -0.23418089491E+02  0.26704693891E+02  0.00000000000E+00 0. -1.
<mgrwt>
<rscale>  0 0.92861289E+02</rscale>
<asrwt>0</asrwt>
<pdfrwt beam="1">  1        2 0.31561030E-02 0.92861289E+02</pdfrwt>
<pdfrwt beam="2">  1       -2 0.16167079E-01 0.92861289E+02</pdfrwt>
<totfact> 0.75109537E+04</totfact>
</mgrwt>
</event>
<event>
 7    1  0.3480999E-009  0.9232505E+02  0.7818608E-02  0.1297317E+00
         -2   -1    0    0    0  501 -0.00000000000E+00  0.00000000000E+00  0.13956908307E+02  0.13956908540E+02  0.25500000000E-02 0.  1.
          2   -1    0    0  501    0  0.00000000000E+00 -0.00000000000E+00 -0.15268272659E+03  0.15268272661E+03  0.25500000000E-02 0. -1.
         23    2    1    2    0    0 -0.71054273576E-14  0.35527136788E-14 -0.13872581828E+03  0.16663963515E+03  0.92325052640E+02 0.  0.
    9000005    2    3    3    0    0 -0.35952777888E+02  0.24965171907E+02 -0.95551588885E+02  0.10515893793E+03  0.35261937956E+01 0.  0.
         22    1    3    3    0    0  0.35952777888E+02 -0.24965171907E+02 -0.43174229395E+02  0.61480697215E+02  0.00000000000E+00 0.  1.
         22    1    4    4    0    0 -0.30089807420E+02  0.21830361144E+02 -0.83328417650E+02  0.91244651166E+02  0.00000000000E+00 0.  1.
         22    1    4    4    0    0 -0.58629704680E+01  0.31348107630E+01 -0.12223171234E+02  0.13914286768E+02  0.00000000000E+00 0.  1.
<mgrwt>
<rscale>  0 0.92325053E+02</rscale>
<asrwt>0</asrwt>
<pdfrwt beam="2">  1        2 0.23489649E-01 0.92325053E+02</pdfrwt>
<pdfrwt beam="1">  1       -2 0.21472168E-02 0.92325053E+02</pdfrwt>
<totfact> 0.13595444E+05</totfact>
</mgrwt>
</event>
<event>
 6    1  0.3480999E-009  0.1781217E+03  0.7818608E-02  0.1169633E+00
         -2   -1    0    0    0  501 -0.00000000000E+00  0.00000000000E+00  0.30947019976E+02  0.30947020081E+02  0.25500000000E-02 0.  1.
          2   -1    0    0  501    0  0.00000000000E+00 -0.00000000000E+00 -0.25630354493E+03  0.25630354495E+03  0.25500000000E-02 0. -1.
    9000005    2    1    2    0    0  0.58804170050E+02 -0.11119013066E+02 -0.21898171381E+03  0.22706584035E+03  0.49337618643E+01 0.  0.
         22    1    1    2    0    0 -0.58804170050E+02  0.11119013066E+02 -0.63748111481E+01  0.60184724673E+02  0.00000000000E+00 0.  1.
         22    1    3    3    0    0  0.26597371260E+02 -0.50629948867E+01 -0.89854505858E+02  0.93845012111E+02  0.00000000000E+00 0.  1.
         22    1    3    3    0    0  0.32206798789E+02 -0.60560181796E+01 -0.12912720795E+03  0.13322082824E+03  0.00000000000E+00 0.  1.
<mgrwt>
<rscale>  0 0.17812165E+03</rscale>
<asrwt>0</asrwt>
<pdfrwt beam="2">  1        2 0.39431313E-01 0.17812165E+03</pdfrwt>
<pdfrwt beam="1">  1       -2 0.47610802E-02 0.17812165E+03</pdfrwt>
<totfact> 0.26111493E+04</totfact>
</mgrwt>
</event>
<event>
 7    1  0.3480999E-009  0.9148661E+02  0.7818608E-02  0.1299291E+00
         -2   -1    0    0    0  501 -0.00000000000E+00  0.00000000000E+00  0.86792000719E+01  0.86792004465E+01  0.25500000000E-02 0. -1.
          2   -1    0    0  501    0  0.00000000000E+00 -0.00000000000E+00 -0.24108786703E+03  0.24108786705E+03  0.25500000000E-02 0.  1.
         23    2    1    2    0    0 -0.71054273576E-14 -0.88817841970E-15 -0.23240866696E+03  0.24976706749E+03  0.91486608449E+02 0.  0.
    9000005    2    3    3    0    0 -0.35201831875E+02 -0.62897672684E+01 -0.43731818341E+02  0.57731437088E+02  0.11904484587E+02 0.  0.
         22    1    3    3    0    0  0.35201831875E+02  0.62897672684E+01 -0.18867684862E+03  0.19203563041E+03  0.00000000000E+00 0.  1.
         22    1    4    4    0    0 -0.30439073666E+02 -0.13724280123E+01 -0.32279537194E+02  0.44389067187E+02  0.00000000000E+00 0. -1.
         22    1    4    4    0    0 -0.47627582084E+01 -0.49173392561E+01 -0.11452281147E+02  0.13342369901E+02  0.00000000000E+00 0. -1.
<mgrwt>
<rscale>  0 0.91486608E+02</rscale>
<asrwt>0</asrwt>
<pdfrwt beam="2">  1        2 0.37090436E-01 0.91486608E+02</pdfrwt>
<pdfrwt beam="1">  1       -2 0.13352618E-02 0.91486608E+02</pdfrwt>
<totfact> 0.16412301E+05</totfact>
</mgrwt>
</event>
<event>
 7    1  0.3480999E-009  0.9092972E+02  0.7818608E-02  0.1300616E+00
          2   -1    0    0  501    0  0.00000000000E+00  0.00000000000E+00  0.17583258644E+02  0.17583258829E+02  0.25500000000E-02 0. -1.
         -2   -1    0    0    0  501 -0.00000000000E+00 -0.00000000000E+00 -0.11755803414E+03  0.11755803417E+03  0.25500000000E-02 0.  1.
         23    2    1    2    0    0  0.17763568394E-14  0.00000000000E+00 -0.99974775496E+02  0.13514129300E+03  0.90929716469E+02 0.  0.
    9000005    2    3    3    0    0 -0.98821325714E+01  0.18095966850E+02  0.97331048211E+01  0.23512714379E+02  0.57440271223E+01 0.  0.
         22    1    3    3    0    0  0.98821325714E+01 -0.18095966850E+02 -0.10970788032E+03  0.11162857862E+03  0.00000000000E+00 0.  1.
         22    1    4    4    0    0 -0.87555490403E+01  0.18272739528E+02  0.91595124510E+01  0.22236216341E+02  0.00000000000E+00 0.  1.
         22    1    4    4    0    0 -0.11265835311E+01 -0.17677267724E+00  0.57359237008E+00  0.12764980372E+01  0.00000000000E+00 0.  1.
<mgrwt>
<rscale>  0 0.90929716E+02</rscale>
<asrwt>0</asrwt>
<pdfrwt beam="1">  1        2 0.27051168E-02 0.90929716E+02</pdfrwt>
<pdfrwt beam="2">  1       -2 0.18085851E-01 0.90929716E+02</pdfrwt>
<totfact> 0.76435769E+04</totfact>
</mgrwt>
</event>
<event>
 7    1  0.3480999E-009  0.9256352E+02  0.7818608E-02  0.1296760E+00
         -2   -1    0    0    0  501 -0.00000000000E+00  0.00000000000E+00  0.11339461291E+03  0.11339461293E+03  0.25500000000E-02 0.  1.
          2   -1    0    0  501    0  0.00000000000E+00 -0.00000000000E+00 -0.18889798215E+02  0.18889798387E+02  0.25500000000E-02 0. -1.
         23    2    1    2    0    0  0.00000000000E+00  0.22204460493E-15  0.94504814691E+02  0.13228441132E+03  0.92563521318E+02 0.  0.
    9000005    2    3    3    0    0  0.33788112098E+02 -0.16732470209E+00  0.61847072533E+01  0.37721702527E+02  0.15588833217E+02 0.  0.
         22    1    3    3    0    0 -0.33788112098E+02  0.16732470209E+00  0.88320107438E+02  0.94562708794E+02  0.00000000000E+00 0.  1.
         22    1    4    4    0    0  0.14905083168E+02 -0.74739371279E+01  0.51366269094E+01  0.17447239794E+02  0.00000000000E+00 0. -1.
         22    1    4    4    0    0  0.18883028929E+02  0.73066124258E+01  0.10480803439E+01  0.20274462733E+02  0.00000000000E+00 0. -1.
<mgrwt>
<rscale>  0 0.92563521E+02</rscale>
<asrwt>0</asrwt>
<pdfrwt beam="2">  1        2 0.29061228E-02 0.92563521E+02</pdfrwt>
<pdfrwt beam="1">  1       -2 0.17445325E-01 0.92563521E+02</pdfrwt>
<totfact> 0.73941628E+04</totfact>
</mgrwt>
</event>
<event>
 7    1  0.3480999E-009  0.9854782E+02  0.7818608E-02  0.1283380E+00
          2   -1    0    0  501    0  0.00000000000E+00  0.00000000000E+00  0.17832554209E+02  0.17832554391E+02  0.25500000000E-02 0. -1.
         -2   -1    0    0    0  501 -0.00000000000E+00 -0.00000000000E+00 -0.13615088758E+03  0.13615088760E+03  0.25500000000E-02 0.  1.
         23    2    1    2    0    0  0.35527136788E-14 -0.88817841970E-15 -0.11831833337E+03  0.15398344199E+03  0.98547817817E+02 0.  0.
    9000005    2    3    3    0    0 -0.24941800413E+02  0.73278105805E+01  0.24274584680E+01  0.30470946826E+02  0.15709736794E+02 0.  0.
         22    1    3    3    0    0  0.24941800413E+02 -0.73278105805E+01 -0.12074579183E+03  0.12351249516E+03  0.00000000000E+00 0.  1.
         22    1    4    4    0    0 -0.24960930160E+02  0.90547897898E+01 -0.10659570528E+01  0.26573925511E+02  0.00000000000E+00 0. -1.
         22    1    4    4    0    0  0.19129747191E-01 -0.17269792093E+01  0.34934155207E+01  0.38970213159E+01  0.00000000000E+00 0. -1.
<mgrwt>
<rscale>  0 0.98547818E+02</rscale>
<asrwt>0</asrwt>
<pdfrwt beam="1">  1        2 0.27434700E-02 0.98547818E+02</pdfrwt>
<pdfrwt beam="2">  1       -2 0.20946290E-01 0.98547818E+02</pdfrwt>
<totfact> 0.59415309E+04</totfact>
</mgrwt>
</event>
<event>
 7    1  0.3480999E-009  0.9074652E+02  0.7818608E-02  0.1301054E+00
         -2   -1    0    0    0  501 -0.00000000000E+00  0.00000000000E+00  0.66387949038E+02  0.66387949087E+02  0.25500000000E-02 0.  1.
          2   -1    0    0  501    0  0.00000000000E+00 -0.00000000000E+00 -0.31010642177E+02  0.31010642281E+02  0.25500000000E-02 0. -1.
         23    2    1    2    0    0  0.00000000000E+00  0.00000000000E+00  0.35377306861E+02  0.97398591368E+02  0.90746524781E+02 0.  0.
    9000005    2    3    3    0    0  0.90865732416E+01  0.40710367701E+02 -0.22347492186E+00  0.42559595069E+02  0.84480376288E+01 0.  0.
         22    1    3    3    0    0 -0.90865732416E+01 -0.40710367701E+02  0.35600781783E+02  0.54838996300E+02  0.00000000000E+00 0.  1.
         22    1    4    4    0    0  0.97700550860E+01  0.25139794551E+02  0.52872175276E-01  0.26971578410E+02  0.00000000000E+00 0.  1.
         22    1    4    4    0    0 -0.68348184442E+00  0.15570573150E+02 -0.27634709714E+00  0.15588016659E+02  0.00000000000E+00 0.  1.
<mgrwt>
<rscale>  0 0.90746525E+02</rscale>
<asrwt>0</asrwt>
<pdfrwt beam="2">  1        2 0.47708681E-02 0.90746525E+02</pdfrwt>
<pdfrwt beam="1">  1       -2 0.10213531E-01 0.90746525E+02</pdfrwt>
<totfact> 0.90506715E+04</totfact>
</mgrwt>
</event>
<event>
 7    1  0.3480999E-009  0.9113263E+02  0.7818608E-02  0.1300132E+00
         -2   -1    0    0    0  501 -0.00000000000E+00  0.00000000000E+00  0.17279168665E+02  0.17279168853E+02  0.25500000000E-02 0.  1.
          2   -1    0    0  501    0  0.00000000000E+00 -0.00000000000E+00 -0.12016139497E+03  0.12016139499E+03  0.25500000000E-02 0. -1.
         23    2    1    2    0    0  0.00000000000E+00  0.00000000000E+00 -0.10288222630E+03  0.13744056385E+03  0.91132629182E+02 0.  0.
    9000005    2    3    3    0    0  0.11537567440E+02 -0.37915884137E+02 -0.84844102351E+02  0.93896291571E+02  0.68747461600E+01 0.  0.
         22    1    3    3    0    0 -0.11537567440E+02  0.37915884137E+02 -0.18038123949E+02  0.43544272274E+02  0.00000000000E+00 0.  1.
         22    1    4    4    0    0  0.67908494591E+01 -0.20310566938E+02 -0.37848010953E+02  0.43486856621E+02  0.00000000000E+00 0.  1.
         22    1    4    4    0    0  0.47467179807E+01 -0.17605317199E+02 -0.46996091398E+02  0.50409434950E+02  0.00000000000E+00 0.  1.
<mgrwt>
<rscale>  0 0.91132629E+02</rscale>
<asrwt>0</asrwt>
<pdfrwt beam="2">  1        2 0.18486368E-01 0.91132629E+02</pdfrwt>
<pdfrwt beam="1">  1       -2 0.26583337E-02 0.91132629E+02</pdfrwt>
<totfact> 0.13009258E+05</totfact>
</mgrwt>
</event>
<event>
 7    1  0.3480999E-009  0.8982868E+02  0.7818608E-02  0.1303267E+00
          2   -1    0    0  501    0  0.00000000000E+00  0.00000000000E+00  0.99650932618E+03  0.99650932618E+03  0.25500000000E-02 0. -1.
         -2   -1    0    0    0  501 -0.00000000000E+00 -0.00000000000E+00 -0.20243633599E+01  0.20243649659E+01  0.25500000000E-02 0.  1.
         23    2    1    2    0    0 -0.35527136788E-14  0.00000000000E+00  0.99448496282E+03  0.99853369115E+03  0.89828676294E+02 0.  0.
    9000005    2    3    3    0    0  0.19031705703E+02 -0.31223992306E+02  0.78500243479E+03  0.78588357225E+03  0.68573311440E+01 0.  0.
         22    1    3    3    0    0 -0.19031705703E+02  0.31223992306E+02  0.20948252803E+03  0.21265011890E+03  0.00000000000E+00 0.  1.
         22    1    4    4    0    0  0.19532105973E+02 -0.30114112767E+02  0.76748402678E+03  0.76832291018E+03  0.00000000000E+00 0.  1.
         22    1    4    4    0    0 -0.50040027033E+00 -0.11098795396E+01  0.17518408008E+02  0.17560662065E+02  0.00000000000E+00 0.  1.
<mgrwt>
<rscale>  0 0.89828676E+02</rscale>
<asrwt>0</asrwt>
<pdfrwt beam="1">  1        2 0.15330915E+00 0.89828676E+02</pdfrwt>
<pdfrwt beam="2">  1       -2 0.31144060E-03 0.89828676E+02</pdfrwt>
<totfact> 0.25996689E+05</totfact>
</mgrwt>
</event>
<event>
 7    1  0.3480999E-009  0.9147892E+02  0.7818608E-02  0.1299309E+00
         -2   -1    0    0    0  501 -0.00000000000E+00  0.00000000000E+00  0.94187645075E+01  0.94187648527E+01  0.25500000000E-02 0. -1.
          2   -1    0    0  501    0  0.00000000000E+00 -0.00000000000E+00 -0.22212022394E+03  0.22212022395E+03  0.25500000000E-02 0.  1.
         23    2    1    2    0    0  0.00000000000E+00  0.17763568394E-14 -0.21270145943E+03  0.23153898881E+03  0.91478918299E+02 0.  0.
    9000005    2    3    3    0    0 -0.23091545295E+02  0.15793210125E+02 -0.19743779840E+03  0.19967012786E+03  0.10189738559E+02 0.  0.
         22    1    3    3    0    0  0.23091545295E+02 -0.15793210125E+02 -0.15263661035E+02  0.31868860951E+02  0.00000000000E+00 0. -1.
         22    1    4    4    0    0 -0.16189629549E+02  0.15970654020E+02 -0.14316397614E+03  0.14495892508E+03  0.00000000000E+00 0. -1.
         22    1    4    4    0    0 -0.69019157459E+01 -0.17744389531E+00 -0.54273822253E+02  0.54711202776E+02  0.00000000000E+00 0. -1.
<mgrwt>
<rscale>  0 0.91478918E+02</rscale>
<asrwt>0</asrwt>
<pdfrwt beam="2">  1        2 0.34172338E-01 0.91478918E+02</pdfrwt>
<pdfrwt beam="1">  1       -2 0.14490409E-02 0.91478918E+02</pdfrwt>
<totfact> 0.15928145E+05</totfact>
</mgrwt>
</event>
<event>
 7    1  0.3480999E-009  0.6960491E+02  0.7818608E-02  0.1361442E+00
         -2   -1    0    0    0  501 -0.00000000000E+00  0.00000000000E+00  0.33330086534E+01  0.33330096288E+01  0.25500000000E-02 0.  1.
          2   -1    0    0  501    0  0.00000000000E+00 -0.00000000000E+00 -0.36339864598E+03  0.36339864599E+03  0.25500000000E-02 0. -1.
         23    2    1    2    0    0  0.35527136788E-14 -0.17763568394E-14 -0.36006563733E+03  0.36673165562E+03  0.69604913970E+02 0.  0.
    9000005    2    3    3    0    0  0.30771254337E+02 -0.15509755736E+02 -0.17212102295E+03  0.17565418261E+03  0.64282744144E+01 0.  0.
         22    1    3    3    0    0 -0.30771254337E+02  0.15509755736E+02 -0.18794461438E+03  0.19107747300E+03  0.00000000000E+00 0. -1.
         22    1    4    4    0    0  0.28751726504E+02 -0.14436424613E+02 -0.16660322143E+03  0.16968118789E+03  0.00000000000E+00 0. -1.
         22    1    4    4    0    0  0.20195278330E+01 -0.10733311228E+01 -0.55178015170E+01  0.59729947219E+01  0.00000000000E+00 0. -1.
<mgrwt>
<rscale>  0 0.69604914E+02</rscale>
<asrwt>0</asrwt>
<pdfrwt beam="2">  1        2 0.55907453E-01 0.69604914E+02</pdfrwt>
<pdfrwt beam="1">  1       -2 0.51277092E-03 0.69604914E+02</pdfrwt>
<totfact> 0.39111052E+05</totfact>
</mgrwt>
</event>
<event>
 7    1  0.3480999E-009  0.9225722E+02  0.7818608E-02  0.1297476E+00
          2   -1    0    0  501    0  0.00000000000E+00  0.00000000000E+00  0.23157086025E+02  0.23157086166E+02  0.25500000000E-02 0. -1.
         -2   -1    0    0    0  501 -0.00000000000E+00 -0.00000000000E+00 -0.91887573241E+02  0.91887573277E+02  0.25500000000E-02 0.  1.
         23    2    1    2    0    0  0.44408920985E-15  0.00000000000E+00 -0.68730487216E+02  0.11504465944E+03  0.92257215400E+02 0.  0.
    9000005    2    3    3    0    0 -0.12444659113E+01  0.25242232445E+02 -0.81523800881E+02  0.86718207692E+02  0.15336180783E+02 0.  0.
         22    1    3    3    0    0  0.12444659113E+01 -0.25242232445E+02  0.12793313666E+02  0.28326451750E+02  0.00000000000E+00 0. -1.
         22    1    4    4    0    0  0.52704883994E+01  0.30359201678E+01 -0.22842551353E+02  0.23638464662E+02  0.00000000000E+00 0. -1.
         22    1    4    4    0    0 -0.65149543107E+01  0.22206312277E+02 -0.58681249528E+02  0.63079743031E+02  0.00000000000E+00 0. -1.
<mgrwt>
<rscale>  0 0.92257215E+02</rscale>
<asrwt>0</asrwt>
<pdfrwt beam="1">  1        2 0.35626287E-02 0.92257215E+02</pdfrwt>
<pdfrwt beam="2">  1       -2 0.14136550E-01 0.92257215E+02</pdfrwt>
<totfact> 0.79458976E+04</totfact>
</mgrwt>
</event>
<event>
 7    1  0.3480999E-009  0.9075415E+02  0.7818608E-02  0.1301036E+00
          2   -1    0    0  501    0  0.00000000000E+00  0.00000000000E+00  0.53758073439E+02  0.53758073500E+02  0.25500000000E-02 0.  1.
         -2   -1    0    0    0  501 -0.00000000000E+00 -0.00000000000E+00 -0.38302692974E+02  0.38302693059E+02  0.25500000000E-02 0. -1.
         23    2    1    2    0    0  0.00000000000E+00 -0.71054273576E-14  0.15455380465E+02  0.92060766558E+02  0.90754151167E+02 0.  0.
    9000005    2    3    3    0    0  0.36450252584E+01  0.42588507063E+02 -0.58646735254E+01  0.44294545804E+02  0.10027225409E+02 0.  0.
         22    1    3    3    0    0 -0.36450252584E+01 -0.42588507063E+02  0.21320053991E+02  0.47766220754E+02  0.00000000000E+00 0.  1.
         22    1    4    4    0    0  0.72406137201E+00  0.36458693186E+02 -0.76800949694E+01  0.37265861488E+02  0.00000000000E+00 0. -1.
         22    1    4    4    0    0  0.29209638863E+01  0.61298138775E+01  0.18154214440E+01  0.70286843163E+01  0.00000000000E+00 0. -1.
<mgrwt>
<rscale>  0 0.90754151E+02</rscale>
<asrwt>0</asrwt>
<pdfrwt beam="1">  1        2 0.82704728E-02 0.90754151E+02</pdfrwt>
<pdfrwt beam="2">  1       -2 0.58927220E-02 0.90754151E+02</pdfrwt>
<totfact> 0.10438474E+05</totfact>
</mgrwt>
</event>
<event>
 7    1  0.3480999E-009  0.8852207E+02  0.7818608E-02  0.1306471E+00
          2   -1    0    0  501    0  0.00000000000E+00  0.00000000000E+00  0.28964364099E+03  0.28964364100E+03  0.25500000000E-02 0. -1.
         -2   -1    0    0    0  501 -0.00000000000E+00 -0.00000000000E+00 -0.67636186608E+01  0.67636191415E+01  0.25500000000E-02 0.  1.
         23    2    1    2    0    0  0.00000000000E+00  0.00000000000E+00  0.28288002233E+03  0.29640726014E+03  0.88522069747E+02 0.  0.
    9000005    2    3    3    0    0 -0.26217459033E+02 -0.67274752906E+01  0.25824710130E+03  0.25980951594E+03  0.87638555377E+01 0.  0.
         22    1    3    3    0    0  0.26217459033E+02  0.67274752906E+01  0.24632921029E+02  0.36597744197E+02  0.00000000000E+00 0.  1.
         22    1    4    4    0    0 -0.13352412336E+02 -0.14344589493E+01  0.16294297531E+03  0.16349543660E+03  0.00000000000E+00 0. -1.
         22    1    4    4    0    0 -0.12865046697E+02 -0.52930163412E+01  0.95304125991E+02  0.96314079342E+02  0.00000000000E+00 0. -1.
<mgrwt>
<rscale>  0 0.88522070E+02</rscale>
<asrwt>0</asrwt>
<pdfrwt beam="1">  1        2 0.44560553E-01 0.88522070E+02</pdfrwt>
<pdfrwt beam="2">  1       -2 0.10405569E-02 0.88522070E+02</pdfrwt>
<totfact> 0.19184656E+05</totfact>
</mgrwt>
</event>
<event>
 7    1  0.3480999E-009  0.9714116E+02  0.7818608E-02  0.1286425E+00
         -2   -1    0    0    0  501 -0.00000000000E+00  0.00000000000E+00  0.18654501597E+02  0.18654501771E+02  0.25500000000E-02 0.  1.
          2   -1    0    0  501    0  0.00000000000E+00 -0.00000000000E+00 -0.12646284019E+03  0.12646284022E+03  0.25500000000E-02 0. -1.
         23    2    1    2    0    0 -0.71054273576E-14 -0.44408920985E-15 -0.10780833860E+03  0.14511734199E+03  0.97141160561E+02 0.  0.
    9000005    2    3    3    0    0 -0.41664316513E+02 -0.23449044554E+01 -0.17831029970E+02  0.45934027288E+02  0.71116373472E+01 0.  0.
         22    1    3    3    0    0  0.41664316513E+02  0.23449044554E+01 -0.89977308627E+02  0.99183314701E+02  0.00000000000E+00 0. -1.
         22    1    4    4    0    0 -0.63433292803E+01 -0.38043583543E+00 -0.81426424683E-01  0.63552488579E+01  0.00000000000E+00 0. -1.
         22    1    4    4    0    0 -0.35320987233E+02 -0.19644686199E+01 -0.17749603545E+02  0.39578778431E+02  0.00000000000E+00 0. -1.
<mgrwt>
<rscale>  0 0.97141161E+02</rscale>
<asrwt>0</asrwt>
<pdfrwt beam="2">  1        2 0.19455821E-01 0.97141161E+02</pdfrwt>
<pdfrwt beam="1">  1       -2 0.28699234E-02 0.97141161E+02</pdfrwt>
<totfact> 0.11101192E+05</totfact>
</mgrwt>
</event>
<event>
 7    1  0.3480999E-009  0.9083671E+02  0.7818608E-02  0.1300838E+00
          2   -1    0    0  501    0  0.00000000000E+00  0.00000000000E+00  0.74137701594E+02  0.74137701638E+02  0.25500000000E-02 0. -1.
         -2   -1    0    0    0  501 -0.00000000000E+00 -0.00000000000E+00 -0.27824265177E+02  0.27824265294E+02  0.25500000000E-02 0.  1.
         23    2    1    2    0    0  0.00000000000E+00  0.00000000000E+00  0.46313436417E+02  0.10196196693E+03  0.90836712336E+02 0.  0.
    9000005    2    3    3    0    0  0.12955573330E+02 -0.10958463690E+02 -0.23742771018E+02  0.29880020463E+02  0.64157338232E+01 0.  0.
         22    1    3    3    0    0 -0.12955573330E+02  0.10958463690E+02  0.70056207434E+02  0.72081946470E+02  0.00000000000E+00 0. -1.
         22    1    4    4    0    0  0.32570134725E+01 -0.68941415133E+01 -0.98709270135E+01  0.12472871525E+02  0.00000000000E+00 0.  1.
         22    1    4    4    0    0  0.96985598578E+01 -0.40643221763E+01 -0.13871844004E+02  0.17407148938E+02  0.00000000000E+00 0.  1.
<mgrwt>
<rscale>  0 0.90836712E+02</rscale>
<asrwt>0</asrwt>
<pdfrwt beam="1">  1        2 0.11405800E-01 0.90836712E+02</pdfrwt>
<pdfrwt beam="2">  1       -2 0.42806563E-02 0.90836712E+02</pdfrwt>
<totfact> 0.11358319E+05</totfact>
</mgrwt>
</event>
<event>
 7    1  0.3480999E-009  0.9039790E+02  0.7818608E-02  0.1301891E+00
          2   -1    0    0  501    0  0.00000000000E+00  0.00000000000E+00  0.93804964039E+01  0.93804967505E+01  0.25500000000E-02 0. -1.
         -2   -1    0    0    0  501 -0.00000000000E+00 -0.00000000000E+00 -0.21778646131E+03  0.21778646133E+03  0.25500000000E-02 0.  1.
         23    2    1    2    0    0  0.35527136788E-14  0.71054273576E-14 -0.20840596491E+03  0.22716695808E+03  0.90397901706E+02 0.  0.
    9000005    2    3    3    0    0 -0.16284648464E+02 -0.29465949660E+02 -0.32968994826E+02  0.48528881407E+02  0.11604557115E+02 0.  0.
         22    1    3    3    0    0  0.16284648464E+02  0.29465949660E+02 -0.17543697008E+03  0.17863807667E+03  0.00000000000E+00 0. -1.
         22    1    4    4    0    0  0.89932003571E+00 -0.82899175437E+01 -0.78494107798E+01  0.11451845222E+02  0.00000000000E+00 0.  1.
         22    1    4    4    0    0 -0.17183968500E+02 -0.21176032116E+02 -0.25119584046E+02  0.37077036185E+02  0.00000000000E+00 0.  1.
<mgrwt>
<rscale>  0 0.90397902E+02</rscale>
<asrwt>0</asrwt>
<pdfrwt beam="1">  1        2 0.14431535E-02 0.90397902E+02</pdfrwt>
<pdfrwt beam="2">  1       -2 0.33505606E-01 0.90397902E+02</pdfrwt>
<totfact> 0.61333195E+04</totfact>
</mgrwt>
</event>
<event>
 7    1  0.3480999E-009  0.9112074E+02  0.7818608E-02  0.1300160E+00
         -2   -1    0    0    0  501 -0.00000000000E+00  0.00000000000E+00  0.75140556286E+01  0.75140560613E+01  0.25500000000E-02 0.  1.
          2   -1    0    0  501    0  0.00000000000E+00 -0.00000000000E+00 -0.27624857157E+03  0.27624857158E+03  0.25500000000E-02 0. -1.
         23    2    1    2    0    0  0.00000000000E+00  0.00000000000E+00 -0.26873451594E+03  0.28376262764E+03  0.91120737423E+02 0.  0.
    9000005    2    3    3    0    0  0.37200577609E+02  0.17646913570E+02 -0.19357054390E+03  0.19806012344E+03  0.79347652630E+01 0.  0.
         22    1    3    3    0    0 -0.37200577609E+02 -0.17646913570E+02 -0.75163972041E+02  0.85702504199E+02  0.00000000000E+00 0.  1.
         22    1    4    4    0    0  0.32020959185E+02  0.13113811248E+02 -0.14927335129E+03  0.15323135214E+03  0.00000000000E+00 0. -1.
         22    1    4    4    0    0  0.51796184233E+01  0.45331023218E+01 -0.44297192605E+02  0.44828771301E+02  0.00000000000E+00 0. -1.
<mgrwt>
<rscale>  0 0.91120737E+02</rscale>
<asrwt>0</asrwt>
<pdfrwt beam="2">  1        2 0.42499772E-01 0.91120737E+02</pdfrwt>
<pdfrwt beam="1">  1       -2 0.11560088E-02 0.91120737E+02</pdfrwt>
<totfact> 0.17450478E+05</totfact>
</mgrwt>
</event>
<event>
 7    1  0.3480999E-009  0.1236201E+03  0.7818608E-02  0.1237242E+00
         -2   -1    0    0    0  501 -0.00000000000E+00  0.00000000000E+00  0.28317378221E+02  0.28317378336E+02  0.25500000000E-02 0.  1.
          2   -1    0    0  501    0  0.00000000000E+00 -0.00000000000E+00 -0.13491642925E+03  0.13491642927E+03  0.25500000000E-02 0. -1.
         23    2    1    2    0    0  0.00000000000E+00  0.00000000000E+00 -0.10659905103E+03  0.16323380761E+03  0.12362005609E+03 0.  0.
    9000005    2    3    3    0    0  0.43355962642E+02 -0.29056766469E+02 -0.97004700556E+01  0.53173050894E+02  0.30395802059E+01 0.  0.
         22    1    3    3    0    0 -0.43355962642E+02  0.29056766469E+02 -0.96898580972E+02  0.11006075671E+03  0.00000000000E+00 0. -1.
         22    1    4    4    0    0  0.33375602607E+02 -0.23816553763E+02 -0.79492889867E+01  0.41765419643E+02  0.00000000000E+00 0. -1.
         22    1    4    4    0    0  0.99803600350E+01 -0.52402127060E+01 -0.17511810690E+01  0.11407631251E+02  0.00000000000E+00 0. -1.
<mgrwt>
<rscale>  0 0.12362006E+03</rscale>
<asrwt>0</asrwt>
<pdfrwt beam="2">  1        2 0.20756373E-01 0.12362006E+03</pdfrwt>
<pdfrwt beam="1">  1       -2 0.43565198E-02 0.12362006E+03</pdfrwt>
<totfact> 0.57809362E+04</totfact>
</mgrwt>
</event>
<event>
 6    1  0.3480999E-009  0.1529725E+03  0.7818608E-02  0.1196867E+00
         -2   -1    0    0    0  501 -0.00000000000E+00  0.00000000000E+00  0.35378342526E+02  0.35378342617E+02  0.25500000000E-02 0. -1.
          2   -1    0    0  501    0  0.00000000000E+00 -0.00000000000E+00 -0.16535954350E+03  0.16535954352E+03  0.25500000000E-02 0.  1.
    9000005    2    1    2    0    0 -0.58003846066E+02 -0.48823134360E+02 -0.74558132854E+02  0.10682377065E+03  0.10210690203E+02 0.  0.
         22    1    1    2    0    0  0.58003846066E+02  0.48823134360E+02 -0.55423068117E+02  0.93914115482E+02  0.00000000000E+00 0. -1.
         22    1    3    3    0    0 -0.36530884463E+01 -0.35455244900E+01 -0.91924158625E+01  0.10507916468E+02  0.00000000000E+00 0. -1.
         22    1    3    3    0    0 -0.54350757620E+02 -0.45277609870E+02 -0.65365716991E+02  0.96315854184E+02  0.00000000000E+00 0. -1.
<mgrwt>
<rscale>  0 0.15297250E+03</rscale>
<asrwt>0</asrwt>
<pdfrwt beam="2">  1        2 0.25439929E-01 0.15297250E+03</pdfrwt>
<pdfrwt beam="1">  1       -2 0.54428220E-02 0.15297250E+03</pdfrwt>
<totfact> 0.33830954E+04</totfact>
</mgrwt>
</event>
<event>
 7    1  0.3480999E-009  0.9732073E+02  0.7818608E-02  0.1286033E+00
          2   -1    0    0  501    0  0.00000000000E+00  0.00000000000E+00  0.31371909038E+03  0.31371909039E+03  0.25500000000E-02 0.  1.
         -2   -1    0    0    0  501 -0.00000000000E+00 -0.00000000000E+00 -0.75476156807E+01  0.75476161115E+01  0.25500000000E-02 0. -1.
         23    2    1    2    0    0  0.00000000000E+00  0.71054273576E-14  0.30617147470E+03  0.32126670651E+03  0.97320731538E+02 0.  0.
    9000005    2    3    3    0    0  0.25528027418E+00 -0.42949917226E+02  0.79844046401E+02  0.90899900390E+02  0.65543563834E+01 0.  0.
         22    1    3    3    0    0 -0.25528027418E+00  0.42949917226E+02  0.22632742830E+03  0.23036680611E+03  0.00000000000E+00 0.  1.
         22    1    4    4    0    0  0.19800707160E+01 -0.36478610018E+02  0.70506610512E+02  0.79409015828E+02  0.00000000000E+00 0. -1.
         22    1    4    4    0    0 -0.17247904418E+01 -0.64713072083E+01  0.93374358887E+01  0.11490884562E+02  0.00000000000E+00 0. -1.
<mgrwt>
<rscale>  0 0.97320732E+02</rscale>
<asrwt>0</asrwt>
<pdfrwt beam="1">  1        2 0.48264475E-01 0.97320732E+02</pdfrwt>
<pdfrwt beam="2">  1       -2 0.11611717E-02 0.97320732E+02</pdfrwt>
<totfact> 0.15341272E+05</totfact>
</mgrwt>
</event>
<event>
 7    1  0.3480999E-009  0.9202304E+02  0.7818608E-02  0.1298025E+00
         -2   -1    0    0    0  501 -0.00000000000E+00  0.00000000000E+00  0.69218082953E+02  0.69218083000E+02  0.25500000000E-02 0.  1.
          2   -1    0    0  501    0  0.00000000000E+00 -0.00000000000E+00 -0.30585359685E+02  0.30585359791E+02  0.25500000000E-02 0. -1.
         23    2    1    2    0    0  0.00000000000E+00 -0.35527136788E-14  0.38632723268E+02  0.99803442791E+02  0.92023039973E+02 0.  0.
    9000005    2    3    3    0    0 -0.84585427653E+01 -0.26196098469E+02  0.58338339401E+02  0.65949435231E+02  0.13718004318E+02 0.  0.
         22    1    3    3    0    0  0.84585427653E+01  0.26196098469E+02 -0.19705616133E+02  0.33854007560E+02  0.00000000000E+00 0. -1.
         22    1    4    4    0    0  0.27169109249E+01 -0.12317732045E+02  0.28991609901E+02  0.31616792569E+02  0.00000000000E+00 0. -1.
         22    1    4    4    0    0 -0.11175453690E+02 -0.13878366424E+02  0.29346729500E+02  0.34332642662E+02  0.00000000000E+00 0. -1.
<mgrwt>
<rscale>  0 0.92023040E+02</rscale>
<asrwt>0</asrwt>
<pdfrwt beam="2">  1        2 0.47054400E-02 0.92023040E+02</pdfrwt>
<pdfrwt beam="1">  1       -2 0.10648936E-01 0.92023040E+02</pdfrwt>
<totfact> 0.86517299E+04</totfact>
</mgrwt>
</event>
<event>
 7    1  0.3480999E-009  0.8701708E+02  0.7818608E-02  0.1310240E+00
          2   -1    0    0  501    0  0.00000000000E+00  0.00000000000E+00  0.39272087086E+01  0.39272095365E+01  0.25500000000E-02 0. -1.
         -2   -1    0    0    0  501 -0.00000000000E+00 -0.00000000000E+00 -0.48201992781E+03  0.48201992781E+03  0.25500000000E-02 0.  1.
         23    2    1    2    0    0  0.00000000000E+00  0.00000000000E+00 -0.47809271910E+03  0.48594713735E+03  0.87017080186E+02 0.  0.
    9000005    2    3    3    0    0 -0.42616472015E+02 -0.83208977580E+01 -0.25366289514E+03  0.25735547760E+03  0.12555684361E+01 0.  0.
         22    1    3    3    0    0  0.42616472015E+02  0.83208977580E+01 -0.22442982396E+03  0.22859165975E+03  0.00000000000E+00 0.  1.
         22    1    4    4    0    0 -0.26244870605E+02 -0.53080883757E+01 -0.15294109982E+03  0.15526734701E+03  0.00000000000E+00 0. -1.
         22    1    4    4    0    0 -0.16371601410E+02 -0.30128093822E+01 -0.10072179532E+03  0.10208813058E+03  0.00000000000E+00 0. -1.
<mgrwt>
<rscale>  0 0.87017080E+02</rscale>
<asrwt>0</asrwt>
<pdfrwt beam="1">  1        2 0.60418640E-03 0.87017080E+02</pdfrwt>
<pdfrwt beam="2">  1       -2 0.74156865E-01 0.87017080E+02</pdfrwt>
<totfact> 0.42131449E+04</totfact>
</mgrwt>
</event>
<event>
 7    1  0.3480999E-009  0.9025797E+02  0.7818608E-02  0.1302228E+00
         -2   -1    0    0    0  501 -0.00000000000E+00  0.00000000000E+00  0.83232591981E+02  0.83232592020E+02  0.25500000000E-02 0.  1.
          2   -1    0    0  501    0  0.00000000000E+00 -0.00000000000E+00 -0.24469081294E+02  0.24469081427E+02  0.25500000000E-02 0. -1.
         23    2    1    2    0    0  0.00000000000E+00  0.00000000000E+00  0.58763510686E+02  0.10770167345E+03  0.90257965161E+02 0.  0.
    9000005    2    3    3    0    0  0.14776937830E+02  0.25523551972E+02  0.69569149273E+02  0.76291938934E+02  0.10525389246E+02 0.  0.
         22    1    3    3    0    0 -0.14776937830E+02 -0.25523551972E+02 -0.10805638587E+02  0.31409734513E+02  0.00000000000E+00 0. -1.
         22    1    4    4    0    0  0.27121891033E+01  0.44023880321E+00  0.12480497300E+02  0.12779381550E+02  0.00000000000E+00 0.  1.
         22    1    4    4    0    0  0.12064748727E+02  0.25083313169E+02  0.57088651973E+02  0.63512557384E+02  0.00000000000E+00 0.  1.
<mgrwt>
<rscale>  0 0.90257965E+02</rscale>
<asrwt>0</asrwt>
<pdfrwt beam="2">  1        2 0.37644741E-02 0.90257965E+02</pdfrwt>
<pdfrwt beam="1">  1       -2 0.12805014E-01 0.90257965E+02</pdfrwt>
<totfact> 0.86272134E+04</totfact>
</mgrwt>
</event>
<event>
 7    1  0.3480999E-009  0.8212132E+02  0.7818608E-02  0.1323137E+00
          2   -1    0    0  501    0  0.00000000000E+00  0.00000000000E+00  0.96246986140E+02  0.96246986174E+02  0.25500000000E-02 0. -1.
         -2   -1    0    0    0  501 -0.00000000000E+00 -0.00000000000E+00 -0.17517200735E+02  0.17517200921E+02  0.25500000000E-02 0.  1.
         23    2    1    2    0    0  0.00000000000E+00  0.35527136788E-14  0.78729785405E+02  0.11376418709E+03  0.82121319737E+02 0.  0.
    9000005    2    3    3    0    0 -0.12072330246E+02 -0.21676045931E+02 -0.21671491256E+01  0.29147958502E+02  0.15143144479E+02 0.  0.
         22    1    3    3    0    0  0.12072330246E+02  0.21676045931E+02  0.80896934531E+02  0.84616228593E+02  0.00000000000E+00 0. -1.
         22    1    4    4    0    0  0.27517412977E+01 -0.85786097922E+01  0.11782555575E+01  0.90858633214E+01  0.00000000000E+00 0.  1.
         22    1    4    4    0    0 -0.14824071543E+02 -0.13097436139E+02 -0.33454046831E+01  0.20062095181E+02  0.00000000000E+00 0.  1.
<mgrwt>
<rscale>  0 0.82121320E+02</rscale>
<asrwt>0</asrwt>
<pdfrwt beam="1">  1        2 0.14807229E-01 0.82121320E+02</pdfrwt>
<pdfrwt beam="2">  1       -2 0.26949540E-02 0.82121320E+02</pdfrwt>
<totfact> 0.16141431E+05</totfact>
</mgrwt>
</event>
<event>
 7    1  0.3480999E-009  0.8916034E+02  0.7818608E-02  0.1304898E+00
         -2   -1    0    0    0  501 -0.00000000000E+00  0.00000000000E+00  0.12751122954E+02  0.12751123209E+02  0.25500000000E-02 0.  1.
          2   -1    0    0  501    0  0.00000000000E+00 -0.00000000000E+00 -0.15586010393E+03  0.15586010396E+03  0.25500000000E-02 0. -1.
         23    2    1    2    0    0  0.00000000000E+00  0.00000000000E+00 -0.14310898098E+03  0.16861122716E+03  0.89160335847E+02 0.  0.
    9000005    2    3    3    0    0 -0.38647336117E+02 -0.48858414895E+01 -0.33561043724E+02  0.52343266859E+02  0.97972390844E+01 0.  0.
         22    1    3    3    0    0  0.38647336117E+02  0.48858414895E+01 -0.10954793726E+03  0.11626796030E+03  0.00000000000E+00 0. -1.
         22    1    4    4    0    0 -0.34368569914E+01  0.50376004775E-01 -0.75314552801E+01  0.82787283056E+01  0.00000000000E+00 0. -1.
         22    1    4    4    0    0 -0.35210479126E+02 -0.49362174943E+01 -0.26029588443E+02  0.44064538554E+02  0.00000000000E+00 0. -1.
<mgrwt>
<rscale>  0 0.89160336E+02</rscale>
<asrwt>0</asrwt>
<pdfrwt beam="2">  1        2 0.23978476E-01 0.89160336E+02</pdfrwt>
<pdfrwt beam="1">  1       -2 0.19617114E-02 0.89160336E+02</pdfrwt>
<totfact> 0.15048672E+05</totfact>
</mgrwt>
</event>
<event>
 7    1  0.3480999E-009  0.9200000E+02  0.7818608E-02  0.1298079E+00
         -2   -1    0    0    0  501 -0.00000000000E+00  0.00000000000E+00  0.39199741907E+01  0.39199750201E+01  0.25500000000E-02 0. -1.
          2   -1    0    0  501    0  0.00000000000E+00 -0.00000000000E+00 -0.53979942384E+03  0.53979942385E+03  0.25500000000E-02 0.  1.
         23    2    1    2    0    0  0.00000000000E+00  0.00000000000E+00 -0.53587944965E+03  0.54371939887E+03  0.92000000799E+02 0.  0.
    9000005    2    3    3    0    0 -0.22399566149E+02  0.12904720260E+02 -0.49222156744E+03  0.49298200588E+03  0.89952372412E+01 0.  0.
         22    1    3    3    0    0  0.22399566149E+02 -0.12904720260E+02 -0.43657882206E+02  0.50737392990E+02  0.00000000000E+00 0. -1.
         22    1    4    4    0    0 -0.37336675616E+01  0.67542842978E+01 -0.13727838236E+03  0.13749514498E+03  0.00000000000E+00 0.  1.
         22    1    4    4    0    0 -0.18665898588E+02  0.61504359626E+01 -0.35494318508E+03  0.35548686089E+03  0.00000000000E+00 0.  1.
<mgrwt>
<rscale>  0 0.92000001E+02</rscale>
<asrwt>0</asrwt>
<pdfrwt beam="2">  1        2 0.83046006E-01 0.92000001E+02</pdfrwt>
<pdfrwt beam="1">  1       -2 0.60307345E-03 0.92000001E+02</pdfrwt>
<totfact> 0.21560819E+05</totfact>
</mgrwt>
</event>
<event>
 7    1  0.3480999E-009  0.9234010E+02  0.7818608E-02  0.1297282E+00
         -2   -1    0    0    0  501 -0.00000000000E+00  0.00000000000E+00  0.45006543033E+02  0.45006543106E+02  0.25500000000E-02 0.  1.
          2   -1    0    0  501    0  0.00000000000E+00 -0.00000000000E+00 -0.47363636549E+02  0.47363636618E+02  0.25500000000E-02 0. -1.
         23    2    1    2    0    0  0.35527136788E-14  0.00000000000E+00 -0.23570935159E+01  0.92370179724E+02  0.92340100782E+02 0.  0.
    9000005    2    3    3    0    0 -0.25236507676E+02  0.38139964798E+02  0.17062883531E+01  0.46456681635E+02  0.79858383476E+01 0.  0.
         22    1    3    3    0    0  0.25236507676E+02 -0.38139964798E+02 -0.40633818690E+01  0.45913498088E+02  0.00000000000E+00 0. -1.
         22    1    4    4    0    0 -0.57755368627E+01  0.14655292232E+02  0.24822537869E+01  0.15946661103E+02  0.00000000000E+00 0. -1.
         22    1    4    4    0    0 -0.19460970813E+02  0.23484672566E+02 -0.77596543383E+00  0.30510020532E+02  0.00000000000E+00 0. -1.
<mgrwt>
<rscale>  0 0.92340101E+02</rscale>
<asrwt>0</asrwt>
<pdfrwt beam="2">  1        2 0.72867133E-02 0.92340101E+02</pdfrwt>
<pdfrwt beam="1">  1       -2 0.69240836E-02 0.92340101E+02</pdfrwt>
<totfact> 0.96099716E+04</totfact>
</mgrwt>
</event>
<event>
 7    1  0.3480999E-009  0.9819497E+02  0.7818608E-02  0.1284138E+00
         -2   -1    0    0    0  501 -0.00000000000E+00  0.00000000000E+00  0.93220283746E+01  0.93220287234E+01  0.25500000000E-02 0.  1.
          2   -1    0    0  501    0  0.00000000000E+00 -0.00000000000E+00 -0.25858780325E+03  0.25858780326E+03  0.25500000000E-02 0. -1.
         23    2    1    2    0    0  0.71054273576E-14  0.88817841970E-15 -0.24926577487E+03  0.26790983198E+03  0.98194967031E+02 0.  0.
    9000005    2    3    3    0    0  0.47688575892E+02  0.31928489240E+01 -0.13371820685E+03  0.14286729910E+03  0.15687949289E+02 0.  0.
         22    1    3    3    0    0 -0.47688575892E+02 -0.31928489240E+01 -0.11554756802E+03  0.12504253288E+03  0.00000000000E+00 0. -1.
         22    1    4    4    0    0  0.45280363542E+02  0.52313937959E+01 -0.13099707005E+03  0.13870079728E+03  0.00000000000E+00 0. -1.
         22    1    4    4    0    0  0.24082123501E+01 -0.20385448719E+01 -0.27211367976E+01  0.41665018168E+01  0.00000000000E+00 0. -1.
<mgrwt>
<rscale>  0 0.98194967E+02</rscale>
<asrwt>0</asrwt>
<pdfrwt beam="2">  1        2 0.39782733E-01 0.98194967E+02</pdfrwt>
<pdfrwt beam="1">  1       -2 0.14341584E-02 0.98194967E+02</pdfrwt>
<totfact> 0.13924882E+05</totfact>
</mgrwt>
</event>
<event>
 7    1  0.3480999E-009  0.9173317E+02  0.7818608E-02  0.1298708E+00
         -2   -1    0    0    0  501 -0.00000000000E+00  0.00000000000E+00  0.52892042990E+01  0.52892049137E+01  0.25500000000E-02 0.  1.
          2   -1    0    0  501    0  0.00000000000E+00 -0.00000000000E+00 -0.39774287044E+03  0.39774287045E+03  0.25500000000E-02 0. -1.
         23    2    1    2    0    0  0.35527136788E-14  0.00000000000E+00 -0.39245366614E+03  0.40303207536E+03  0.91733165775E+02 0.  0.
    9000005    2    3    3    0    0  0.17694418778E+02 -0.25115221891E+02 -0.34495895562E+03  0.34646694163E+03  0.99395047649E+01 0.  0.
         22    1    3    3    0    0 -0.17694418778E+02  0.25115221891E+02 -0.47494710528E+02  0.56565133737E+02  0.00000000000E+00 0.  1.
         22    1    4    4    0    0  0.85393811628E+01 -0.50446620584E+01 -0.85984982077E+02  0.86555108392E+02  0.00000000000E+00 0. -1.
         22    1    4    4    0    0  0.91550376148E+01 -0.20070559833E+02 -0.25897397354E+03  0.25991183324E+03  0.00000000000E+00 0. -1.
<mgrwt>
<rscale>  0 0.91733166E+02</rscale>
<asrwt>0</asrwt>
<pdfrwt beam="2">  1        2 0.61191187E-01 0.91733166E+02</pdfrwt>
<pdfrwt beam="1">  1       -2 0.81372410E-03 0.91733166E+02</pdfrwt>
<totfact> 0.19602660E+05</totfact>
</mgrwt>
</event>
<event>
 7    1  0.3480999E-009  0.9539464E+02  0.7818608E-02  0.1290290E+00
         -2   -1    0    0    0  501 -0.00000000000E+00  0.00000000000E+00  0.34300308146E+02  0.34300308241E+02  0.25500000000E-02 0.  1.
          2   -1    0    0  501    0  0.00000000000E+00 -0.00000000000E+00 -0.66326939741E+02  0.66326939790E+02  0.25500000000E-02 0. -1.
         23    2    1    2    0    0  0.00000000000E+00  0.00000000000E+00 -0.32026631595E+02  0.10062724803E+03  0.95394643010E+02 0.  0.
    9000005    2    3    3    0    0  0.38994123597E+02  0.47707360630E+01 -0.42890065838E+02  0.59868006119E+02  0.14188686032E+02 0.  0.
         22    1    3    3    0    0 -0.38994123597E+02 -0.47707360630E+01  0.10863434243E+02  0.40759241912E+02  0.00000000000E+00 0.  1.
         22    1    4    4    0    0  0.25086225481E+02 -0.53055509954E+00 -0.18048251828E+02  0.30908568256E+02  0.00000000000E+00 0. -1.
         22    1    4    4    0    0  0.13907898116E+02  0.53012911625E+01 -0.24841814010E+02  0.28959437862E+02  0.00000000000E+00 0. -1.
<mgrwt>
<rscale>  0 0.95394643E+02</rscale>
<asrwt>0</asrwt>
<pdfrwt beam="2">  1        2 0.10204145E-01 0.95394643E+02</pdfrwt>
<pdfrwt beam="1">  1       -2 0.52769705E-02 0.95394643E+02</pdfrwt>
<totfact> 0.95945656E+04</totfact>
</mgrwt>
</event>
<event>
 7    1  0.3480999E-009  0.9045894E+02  0.7818608E-02  0.1301744E+00
         -2   -1    0    0    0  501 -0.00000000000E+00  0.00000000000E+00  0.41500072912E+02  0.41500072991E+02  0.25500000000E-02 0.  1.
          2   -1    0    0  501    0  0.00000000000E+00 -0.00000000000E+00 -0.49294006110E+02  0.49294006176E+02  0.25500000000E-02 0. -1.
         23    2    1    2    0    0  0.00000000000E+00  0.71054273576E-14 -0.77939331980E+01  0.90794079167E+02  0.90458937740E+02 0.  0.
    9000005    2    3    3    0    0 -0.24053374366E+01 -0.43612776129E+02 -0.10875145144E+02  0.47006480958E+02  0.13545500369E+02 0.  0.
         22    1    3    3    0    0  0.24053374366E+01  0.43612776129E+02  0.30812119460E+01  0.43787598209E+02  0.00000000000E+00 0.  1.
         22    1    4    4    0    0 -0.30883004420E+01 -0.40944575633E+02 -0.61244163760E+01  0.41515109892E+02  0.00000000000E+00 0. -1.
         22    1    4    4    0    0  0.68296300539E+00 -0.26682004958E+01 -0.47507287681E+01  0.54913710656E+01  0.00000000000E+00 0. -1.
<mgrwt>
<rscale>  0 0.90458938E+02</rscale>
<asrwt>0</asrwt>
<pdfrwt beam="2">  1        2 0.75836933E-02 0.90458938E+02</pdfrwt>
<pdfrwt beam="1">  1       -2 0.63846266E-02 0.90458938E+02</pdfrwt>
<totfact> 0.10299751E+05</totfact>
</mgrwt>
</event>
<event>
 7    1  0.3480999E-009  0.8833961E+02  0.7818608E-02  0.1306923E+00
          2   -1    0    0  501    0  0.00000000000E+00  0.00000000000E+00  0.43080229370E+02  0.43080229446E+02  0.25500000000E-02 0. -1.
         -2   -1    0    0    0  501 -0.00000000000E+00 -0.00000000000E+00 -0.45286935751E+02  0.45286935823E+02  0.25500000000E-02 0.  1.
         23    2    1    2    0    0  0.00000000000E+00 -0.17763568394E-14 -0.22067063809E+01  0.88367165268E+02  0.88339608016E+02 0.  0.
    9000005    2    3    3    0    0  0.26923960837E+02  0.15410084144E+02 -0.32461395415E+02  0.45034538195E+02  0.34636797916E+01 0.  0.
         22    1    3    3    0    0 -0.26923960837E+02 -0.15410084144E+02  0.30254689034E+02  0.43332627073E+02  0.00000000000E+00 0. -1.
         22    1    4    4    0    0  0.25346814407E+02  0.13582427953E+02 -0.29266161342E+02  0.41029886051E+02  0.00000000000E+00 0. -1.
         22    1    4    4    0    0  0.15771464300E+01  0.18276561908E+01 -0.31952340729E+01  0.40046521439E+01  0.00000000000E+00 0. -1.
<mgrwt>
<rscale>  0 0.88339608E+02</rscale>
<asrwt>0</asrwt>
<pdfrwt beam="1">  1        2 0.66277276E-02 0.88339608E+02</pdfrwt>
<pdfrwt beam="2">  1       -2 0.69672209E-02 0.88339608E+02</pdfrwt>
<totfact> 0.10646984E+05</totfact>
</mgrwt>
</event>
<event>
 7    1  0.3480999E-009  0.9200435E+02  0.7818608E-02  0.1298069E+00
         -2   -1    0    0    0  501 -0.00000000000E+00  0.00000000000E+00  0.94920780239E+02  0.94920780274E+02  0.25500000000E-02 0. -1.
          2   -1    0    0  501    0  0.00000000000E+00 -0.00000000000E+00 -0.22294380714E+02  0.22294380860E+02  0.25500000000E-02 0.  1.
         23    2    1    2    0    0  0.71054273576E-14  0.00000000000E+00  0.72626399525E+02  0.11721516113E+03  0.92004348221E+02 0.  0.
    9000005    2    3    3    0    0 -0.32079271311E+02 -0.16433625783E+01 -0.49337856312E+01  0.33266589913E+02  0.71093934626E+01 0.  0.
         22    1    3    3    0    0  0.32079271311E+02  0.16433625783E+01  0.77560185156E+02  0.83948571220E+02  0.00000000000E+00 0. -1.
         22    1    4    4    0    0 -0.26503786071E+02  0.10708383272E+01 -0.53195603261E+01  0.27053559708E+02  0.00000000000E+00 0. -1.
         22    1    4    4    0    0 -0.55754852401E+01 -0.27142009055E+01  0.38577469490E+00  0.62130302054E+01  0.00000000000E+00 0. -1.
<mgrwt>
<rscale>  0 0.92004348E+02</rscale>
<asrwt>0</asrwt>
<pdfrwt beam="2">  1        2 0.34299047E-02 0.92004348E+02</pdfrwt>
<pdfrwt beam="1">  1       -2 0.14603197E-01 0.92004348E+02</pdfrwt>
<totfact> 0.79246213E+04</totfact>
</mgrwt>
</event>
<event>
 7    1  0.3480999E-009  0.9337001E+02  0.7818608E-02  0.1294890E+00
         -2   -1    0    0    0  501 -0.00000000000E+00  0.00000000000E+00  0.47778845209E+02  0.47778845277E+02  0.25500000000E-02 0.  1.
          2   -1    0    0  501    0  0.00000000000E+00 -0.00000000000E+00 -0.45616210478E+02  0.45616210549E+02  0.25500000000E-02 0. -1.
         23    2    1    2    0    0  0.00000000000E+00  0.00000000000E+00  0.21626347314E+01  0.93395055827E+02  0.93370013730E+02 0.  0.
    9000005    2    3    3    0    0  0.34332721620E+02 -0.28163064336E+02 -0.10181869376E+02  0.47305135580E+02  0.12736224778E+02 0.  0.
         22    1    3    3    0    0 -0.34332721620E+02  0.28163064336E+02  0.12344504108E+02  0.46089920246E+02  0.00000000000E+00 0.  1.
         22    1    4    4    0    0  0.19325940140E+02 -0.12982581669E+02 -0.11402985391E+02  0.25924264018E+02  0.00000000000E+00 0.  1.
         22    1    4    4    0    0  0.15006781480E+02 -0.15180482668E+02  0.12211160145E+01  0.21380871562E+02  0.00000000000E+00 0.  1.
<mgrwt>
<rscale>  0 0.93370014E+02</rscale>
<asrwt>0</asrwt>
<pdfrwt beam="2">  1        2 0.70178785E-02 0.93370014E+02</pdfrwt>
<pdfrwt beam="1">  1       -2 0.73505916E-02 0.93370014E+02</pdfrwt>
<totfact> 0.92161982E+04</totfact>
</mgrwt>
</event>
<event>
 7    1  0.3480999E-009  0.8974141E+02  0.7818608E-02  0.1303479E+00
          2   -1    0    0  501    0  0.00000000000E+00  0.00000000000E+00  0.11653410971E+02  0.11653411250E+02  0.25500000000E-02 0.  1.
         -2   -1    0    0    0  501 -0.00000000000E+00 -0.00000000000E+00 -0.17277174434E+03  0.17277174436E+03  0.25500000000E-02 0. -1.
         23    2    1    2    0    0  0.00000000000E+00  0.00000000000E+00 -0.16111833337E+03  0.18442515561E+03  0.89741410027E+02 0.  0.
    9000005    2    3    3    0    0  0.42029976459E+02 -0.12057151854E+02 -0.89683034280E+02  0.10067018090E+03  0.13399434814E+02 0.  0.
         22    1    3    3    0    0 -0.42029976459E+02  0.12057151854E+02 -0.71435299088E+02  0.83754974705E+02  0.00000000000E+00 0.  1.
         22    1    4    4    0    0  0.34467394851E+02 -0.41072967404E+01 -0.66109801042E+02  0.74668447072E+02  0.00000000000E+00 0. -1.
         22    1    4    4    0    0  0.75625816083E+01 -0.79498551140E+01 -0.23573233238E+02  0.26001733831E+02  0.00000000000E+00 0. -1.
<mgrwt>
<rscale>  0 0.89741410E+02</rscale>
<asrwt>0</asrwt>
<pdfrwt beam="1">  1        2 0.17928326E-02 0.89741410E+02</pdfrwt>
<pdfrwt beam="2">  1       -2 0.26580267E-01 0.89741410E+02</pdfrwt>
<totfact> 0.68935283E+04</totfact>
</mgrwt>
</event>
<event>
 7    1  0.3480999E-009  0.9022261E+02  0.7818608E-02  0.1302314E+00
          2   -1    0    0  501    0  0.00000000000E+00  0.00000000000E+00  0.78588835306E+02  0.78588835348E+02  0.25500000000E-02 0. -1.
         -2   -1    0    0    0  501 -0.00000000000E+00 -0.00000000000E+00 -0.25894640594E+02  0.25894640719E+02  0.25500000000E-02 0.  1.
         23    2    1    2    0    0  0.00000000000E+00  0.35527136788E-14  0.52694194713E+02  0.10448347607E+03  0.90222605895E+02 0.  0.
    9000005    2    3    3    0    0 -0.20140819424E+02  0.23894765242E+02  0.63567749573E+02  0.71395009672E+02  0.89317527521E+01 0.  0.
         22    1    3    3    0    0  0.20140819424E+02 -0.23894765242E+02 -0.10873554861E+02  0.33088466395E+02  0.00000000000E+00 0.  1.
         22    1    4    4    0    0 -0.75325632482E+01  0.31654716410E+01  0.18099559298E+02  0.19858342493E+02  0.00000000000E+00 0. -1.
         22    1    4    4    0    0 -0.12608256176E+02  0.20729293601E+02  0.45468190275E+02  0.51536667179E+02  0.00000000000E+00 0. -1.
<mgrwt>
<rscale>  0 0.90222606E+02</rscale>
<asrwt>0</asrwt>
<pdfrwt beam="1">  1        2 0.12090590E-01 0.90222606E+02</pdfrwt>
<pdfrwt beam="2">  1       -2 0.39837909E-02 0.90222606E+02</pdfrwt>
<totfact> 0.11766214E+05</totfact>
</mgrwt>
</event>
<event>
 7    1  0.4178432E-009  0.9263552E+02  0.7818608E-02  0.1296592E+00
         -2   -1    0    0    0  501 -0.00000000000E+00  0.00000000000E+00  0.16880333186E+02  0.16880333378E+02  0.25500000000E-02 0.  1.
          2   -1    0    0  501    0  0.00000000000E+00 -0.00000000000E+00 -0.12709078131E+03  0.12709078133E+03  0.25500000000E-02 0. -1.
         23    2    1    2    0    0  0.00000000000E+00  0.00000000000E+00 -0.11021044812E+03  0.14397111471E+03  0.92635516925E+02 0.  0.
    9000005    2    3    3    0    0 -0.29767932007E+02  0.41515403806E+01 -0.41875996120E+01  0.33770345795E+02  0.14816720323E+02 0.  0.
         22    1    3    3    0    0  0.29767932007E+02 -0.41515403806E+01 -0.10602284851E+03  0.11020076892E+03  0.00000000000E+00 0. -1.
         22    1    4    4    0    0 -0.27715298192E+02 -0.11787636871E+01 -0.42128093534E+01  0.28058421202E+02  0.00000000000E+00 0.  1.
         22    1    4    4    0    0 -0.20526338155E+01  0.53303040676E+01  0.25209741435E-01  0.57119245938E+01  0.00000000000E+00 0.  1.
<mgrwt>
<rscale>  0 0.92635517E+02</rscale>
<asrwt>0</asrwt>
<pdfrwt beam="2">  1        2 0.19552427E-01 0.92635517E+02</pdfrwt>
<pdfrwt beam="1">  1       -2 0.25969744E-02 0.92635517E+02</pdfrwt>
<totfact> 0.12667972E+05</totfact>
</mgrwt>
</event>
<event>
 7    1  0.3480999E-009  0.9310479E+02  0.7818608E-02  0.1295503E+00
          2   -1    0    0  501    0  0.00000000000E+00  0.00000000000E+00  0.20104510077E+02  0.20104510239E+02  0.25500000000E-02 0.  1.
         -2   -1    0    0    0  501 -0.00000000000E+00 -0.00000000000E+00 -0.10779299982E+03  0.10779299985E+03  0.25500000000E-02 0. -1.
         23    2    1    2    0    0  0.00000000000E+00  0.00000000000E+00 -0.87688489746E+02  0.12789751009E+03  0.93104789640E+02 0.  0.
    9000005    2    3    3    0    0  0.31096407419E+02 -0.19825999403E+02 -0.81379534370E+02  0.90482810779E+02  0.14298728110E+02 0.  0.
         22    1    3    3    0    0 -0.31096407419E+02  0.19825999403E+02 -0.63089553765E+01  0.37414699313E+02  0.00000000000E+00 0.  1.
         22    1    4    4    0    0  0.13656654239E+02 -0.11786499525E+02 -0.54792427924E+02  0.57685664890E+02  0.00000000000E+00 0. -1.
         22    1    4    4    0    0  0.17439753181E+02 -0.80394998785E+01 -0.26587106446E+02  0.32797145889E+02  0.00000000000E+00 0. -1.
<mgrwt>
<rscale>  0 0.93104790E+02</rscale>
<asrwt>0</asrwt>
<pdfrwt beam="1">  1        2 0.30930016E-02 0.93104790E+02</pdfrwt>
<pdfrwt beam="2">  1       -2 0.16583538E-01 0.93104790E+02</pdfrwt>
<totfact> 0.74036695E+04</totfact>
</mgrwt>
</event>
<event>
 7    1  0.3480999E-009  0.9175122E+02  0.7818608E-02  0.1298665E+00
         -2   -1    0    0    0  501 -0.00000000000E+00  0.00000000000E+00  0.11847479260E+02  0.11847479534E+02  0.25500000000E-02 0.  1.
          2   -1    0    0  501    0  0.00000000000E+00 -0.00000000000E+00 -0.17763874920E+03  0.17763874922E+03  0.25500000000E-02 0. -1.
         23    2    1    2    0    0  0.00000000000E+00  0.00000000000E+00 -0.16579126994E+03  0.18948622876E+03  0.91751216333E+02 0.  0.
    9000005    2    3    3    0    0 -0.13926076126E+02  0.29950665190E+02 -0.14731625029E+03  0.15164043252E+03  0.14204408947E+02 0.  0.
         22    1    3    3    0    0  0.13926076126E+02 -0.29950665190E+02 -0.18475019654E+02  0.37845796237E+02  0.00000000000E+00 0.  1.
         22    1    4    4    0    0 -0.80438503691E+01  0.47561233667E+01 -0.26922730117E+02  0.28498379519E+02  0.00000000000E+00 0.  1.
         22    1    4    4    0    0 -0.58822257572E+01  0.25194541823E+02 -0.12039352017E+03  0.12314205300E+03  0.00000000000E+00 0.  1.
<mgrwt>
<rscale>  0 0.91751216E+02</rscale>
<asrwt>0</asrwt>
<pdfrwt beam="2">  1        2 0.27329036E-01 0.91751216E+02</pdfrwt>
<pdfrwt beam="1">  1       -2 0.18226893E-02 0.91751216E+02</pdfrwt>
<totfact> 0.14575459E+05</totfact>
</mgrwt>
</event>
<event>
 7    1  0.3480999E-009  0.8889432E+02  0.7818608E-02  0.1305552E+00
          2   -1    0    0  501    0  0.00000000000E+00  0.00000000000E+00  0.83005138728E+02  0.83005138767E+02  0.25500000000E-02 0. -1.
         -2   -1    0    0    0  501 -0.00000000000E+00 -0.00000000000E+00 -0.23800332408E+02  0.23800332545E+02  0.25500000000E-02 0.  1.
         23    2    1    2    0    0 -0.35527136788E-14  0.35527136788E-14  0.59204806320E+02  0.10680547131E+03  0.88894317089E+02 0.  0.
    9000005    2    3    3    0    0  0.28813657010E+02 -0.27327666863E+02  0.53105929434E+02  0.66628058432E+02  0.64830720258E+01 0.  0.
         22    1    3    3    0    0 -0.28813657010E+02  0.27327666863E+02  0.60988768858E+01  0.40177412880E+02  0.00000000000E+00 0.  1.
         22    1    4    4    0    0  0.13245838639E+02 -0.10870119871E+02  0.18039186726E+02  0.24880193025E+02  0.00000000000E+00 0. -1.
         22    1    4    4    0    0  0.15567818371E+02 -0.16457546992E+02  0.35066742709E+02  0.41747865407E+02  0.00000000000E+00 0. -1.
<mgrwt>
<rscale>  0 0.88894317E+02</rscale>
<asrwt>0</asrwt>
<pdfrwt beam="1">  1        2 0.12770021E-01 0.88894317E+02</pdfrwt>
<pdfrwt beam="2">  1       -2 0.36615897E-02 0.88894317E+02</pdfrwt>
<totfact> 0.12451464E+05</totfact>
</mgrwt>
</event>
<event>
 7    1  0.3480999E-009  0.8885402E+02  0.7818608E-02  0.1305651E+00
         -2   -1    0    0    0  501 -0.00000000000E+00  0.00000000000E+00  0.18215910427E+03  0.18215910429E+03  0.25500000000E-02 0.  1.
          2   -1    0    0  501    0  0.00000000000E+00 -0.00000000000E+00 -0.10835359355E+02  0.10835359655E+02  0.25500000000E-02 0. -1.
         23    2    1    2    0    0 -0.55511151231E-16  0.00000000000E+00  0.17132374491E+03  0.19299446394E+03  0.88854023775E+02 0.  0.
    9000005    2    3    3    0    0  0.37459192793E+00 -0.33408058101E+02  0.14779945498E+03  0.15213334695E+03  0.13551298686E+02 0.  0.
         22    1    3    3    0    0 -0.37459192793E+00  0.33408058101E+02  0.23524289936E+02  0.40861116996E+02  0.00000000000E+00 0. -1.
         22    1    4    4    0    0  0.56060070662E+01 -0.71982502486E+01  0.30982446051E+02  0.32297895987E+02  0.00000000000E+00 0. -1.
         22    1    4    4    0    0 -0.52314151383E+01 -0.26209807852E+02  0.11681700893E+03  0.11983545096E+03  0.00000000000E+00 0. -1.
<mgrwt>
<rscale>  0 0.88854024E+02</rscale>
<asrwt>0</asrwt>
<pdfrwt beam="2">  1        2 0.16669784E-02 0.88854024E+02</pdfrwt>
<pdfrwt beam="1">  1       -2 0.28024478E-01 0.88854024E+02</pdfrwt>
<totfact> 0.69216634E+04</totfact>
</mgrwt>
</event>
<event>
 7    1  0.3480999E-009  0.9261176E+02  0.7818608E-02  0.1296647E+00
          2   -1    0    0  501    0  0.00000000000E+00  0.00000000000E+00  0.72577358642E+01  0.72577363121E+01  0.25500000000E-02 0. -1.
         -2   -1    0    0    0  501 -0.00000000000E+00 -0.00000000000E+00 -0.29544123054E+03  0.29544123055E+03  0.25500000000E-02 0.  1.
         23    2    1    2    0    0  0.00000000000E+00  0.00000000000E+00 -0.28818349467E+03  0.30269896686E+03  0.92611759169E+02 0.  0.
    9000005    2    3    3    0    0  0.37973410152E+02  0.18490184616E+02 -0.20289520884E+03  0.20752565912E+03  0.10796602137E+02 0.  0.
         22    1    3    3    0    0 -0.37973410152E+02 -0.18490184616E+02 -0.85288285834E+02  0.95173307740E+02  0.00000000000E+00 0. -1.
         22    1    4    4    0    0  0.23147614671E+02  0.68361470786E+01 -0.96530022545E+02  0.99501709656E+02  0.00000000000E+00 0. -1.
         22    1    4    4    0    0  0.14825795481E+02  0.11654037538E+02 -0.10636518629E+03  0.10802394947E+03  0.00000000000E+00 0. -1.
<mgrwt>
<rscale>  0 0.92611759E+02</rscale>
<asrwt>0</asrwt>
<pdfrwt beam="1">  1        2 0.11165750E-02 0.92611759E+02</pdfrwt>
<pdfrwt beam="2">  1       -2 0.45452488E-01 0.92611759E+02</pdfrwt>
<totfact> 0.49411036E+04</totfact>
</mgrwt>
</event>
<event>
 7    1  0.3480999E-009  0.8917089E+02  0.7818608E-02  0.1304872E+00
         -2   -1    0    0    0  501 -0.00000000000E+00  0.00000000000E+00  0.32562491885E+03  0.32562491886E+03  0.25500000000E-02 0. -1.
          2   -1    0    0  501    0  0.00000000000E+00 -0.00000000000E+00 -0.61047595420E+01  0.61047600746E+01  0.25500000000E-02 0.  1.
         23    2    1    2    0    0 -0.71054273576E-14  0.00000000000E+00  0.31952015931E+03  0.33172967894E+03  0.89170890328E+02 0.  0.
    9000005    2    3    3    0    0  0.43010136990E+02  0.20580938230E+01  0.11701029463E+03  0.12469259789E+03  0.16514496645E+01 0.  0.
         22    1    3    3    0    0 -0.43010136990E+02 -0.20580938230E+01  0.20250986468E+03  0.20703708105E+03  0.00000000000E+00 0. -1.
         22    1    4    4    0    0  0.13637365863E+02  0.13571707291E+01  0.38120891941E+02  0.40509530514E+02  0.00000000000E+00 0. -1.
         22    1    4    4    0    0  0.29372771127E+02  0.70092309392E+00  0.78889402687E+02  0.84183067378E+02  0.00000000000E+00 0. -1.
<mgrwt>
<rscale>  0 0.89170890E+02</rscale>
<asrwt>0</asrwt>
<pdfrwt beam="2">  1        2 0.93919366E-03 0.89170890E+02</pdfrwt>
<pdfrwt beam="1">  1       -2 0.50096150E-01 0.89170890E+02</pdfrwt>
<totfact> 0.51511067E+04</totfact>
</mgrwt>
</event>
<event>
 7    1  0.3480999E-009  0.9092128E+02  0.7818608E-02  0.1300636E+00
          2   -1    0    0  501    0  0.00000000000E+00  0.00000000000E+00  0.22275564602E+02  0.22275564748E+02  0.25500000000E-02 0.  1.
         -2   -1    0    0    0  501 -0.00000000000E+00 -0.00000000000E+00 -0.92777426674E+02  0.92777426709E+02  0.25500000000E-02 0. -1.
         23    2    1    2    0    0  0.00000000000E+00  0.00000000000E+00 -0.70501862072E+02  0.11505299146E+03  0.90921275221E+02 0.  0.
    9000005    2    3    3    0    0  0.38762732760E+02  0.19083167672E+02 -0.23092218914E+02  0.50909472660E+02  0.13849443769E+02 0.  0.
         22    1    3    3    0    0 -0.38762732760E+02 -0.19083167672E+02 -0.47409643158E+02  0.64143518798E+02  0.00000000000E+00 0. -1.
         22    1    4    4    0    0  0.17538701151E+01 -0.12157009983E+01  0.94614307621E+00  0.23343470219E+01  0.00000000000E+00 0.  1.
         22    1    4    4    0    0  0.37008862645E+02  0.20298868671E+02 -0.24038361990E+02  0.48575125638E+02  0.00000000000E+00 0.  1.
<mgrwt>
<rscale>  0 0.90921275E+02</rscale>
<asrwt>0</asrwt>
<pdfrwt beam="1">  1        2 0.34270100E-02 0.90921275E+02</pdfrwt>
<pdfrwt beam="2">  1       -2 0.14273450E-01 0.90921275E+02</pdfrwt>
<totfact> 0.82155363E+04</totfact>
</mgrwt>
</event>
<event>
 6    1  0.3480999E-009  0.1602550E+03  0.7818608E-02  0.1188409E+00
          2   -1    0    0  501    0  0.00000000000E+00  0.00000000000E+00  0.34266186934E+03  0.34266186935E+03  0.25500000000E-02 0. -1.
         -2   -1    0    0    0  501 -0.00000000000E+00 -0.00000000000E+00 -0.18736884860E+02  0.18736885033E+02  0.25500000000E-02 0.  1.
    9000005    2    1    2    0    0  0.39799308865E+02 -0.67802453054E+02  0.19406376122E+03  0.20959264471E+03  0.93367913572E+01 0.  0.
         22    1    1    2    0    0 -0.39799308865E+02  0.67802453054E+02  0.12986122326E+03  0.15180610967E+03  0.00000000000E+00 0.  1.
         22    1    3    3    0    0  0.26540127693E+02 -0.44990995255E+02  0.11681540411E+03  0.12796252056E+03  0.00000000000E+00 0. -1.
         22    1    3    3    0    0  0.13259181173E+02 -0.22811457799E+02  0.77248357113E+02  0.81630124151E+02  0.00000000000E+00 0. -1.
<mgrwt>
<rscale>  0 0.16025500E+03</rscale>
<asrwt>0</asrwt>
<pdfrwt beam="1">  1        2 0.52717207E-01 0.16025500E+03</pdfrwt>
<pdfrwt beam="2">  1       -2 0.28825979E-02 0.16025500E+03</pdfrwt>
<totfact> 0.40032028E+04</totfact>
</mgrwt>
</event>
<event>
 6    1  0.3480999E-009  0.3560371E+03  0.7818608E-02  0.1060164E+00
         -2   -1    0    0    0  501 -0.00000000000E+00  0.00000000000E+00  0.37751122076E+02  0.37751122162E+02  0.25500000000E-02 0.  1.
          2   -1    0    0  501    0  0.00000000000E+00 -0.00000000000E+00 -0.83946136049E+03  0.83946136049E+03  0.25500000000E-02 0. -1.
    9000005    2    1    2    0    0  0.14582141907E+03  0.84849448618E+02 -0.54028661216E+03  0.56607645525E+03  0.83435430413E+01 0.  0.
         22    1    1    2    0    0 -0.14582141907E+03 -0.84849448618E+02 -0.26142362625E+03  0.31113602741E+03  0.00000000000E+00 0.  1.
         22    1    3    3    0    0  0.91064496092E+02  0.48284051826E+02 -0.33022879308E+03  0.34594096012E+03  0.00000000000E+00 0. -1.
         22    1    3    3    0    0  0.54756922978E+02  0.36565396792E+02 -0.21005781908E+03  0.22013549513E+03  0.00000000000E+00 0. -1.
<mgrwt>
<rscale>  0 0.35603712E+03</rscale>
<asrwt>0</asrwt>
<pdfrwt beam="2">  1        2 0.12914789E+00 0.35603712E+03</pdfrwt>
<pdfrwt beam="1">  1       -2 0.58078656E-02 0.35603712E+03</pdfrwt>
<totfact> 0.52092254E+03</totfact>
</mgrwt>
</event>
<event>
 7    1  0.3480999E-009  0.9208895E+02  0.7818608E-02  0.1297870E+00
          2   -1    0    0  501    0  0.00000000000E+00  0.00000000000E+00  0.12050809791E+02  0.12050810061E+02  0.25500000000E-02 0. -1.
         -2   -1    0    0    0  501 -0.00000000000E+00 -0.00000000000E+00 -0.17592954402E+03  0.17592954404E+03  0.25500000000E-02 0.  1.
         23    2    1    2    0    0  0.00000000000E+00  0.00000000000E+00 -0.16387873423E+03  0.18798035410E+03  0.92088946107E+02 0.  0.
    9000005    2    3    3    0    0 -0.18685308131E+02  0.35821773115E+02 -0.44302019850E+02  0.61762562997E+02  0.14819077439E+02 0.  0.
         22    1    3    3    0    0  0.18685308131E+02 -0.35821773115E+02 -0.11957671438E+03  0.12621779111E+03  0.00000000000E+00 0.  1.
         22    1    4    4    0    0 -0.11452292828E+02  0.16521645645E+02 -0.11900449295E+02  0.23361089000E+02  0.00000000000E+00 0. -1.
         22    1    4    4    0    0 -0.72330153028E+01  0.19300127470E+02 -0.32401570555E+02  0.38401473997E+02  0.00000000000E+00 0. -1.
<mgrwt>
<rscale>  0 0.92088946E+02</rscale>
<asrwt>0</asrwt>
<pdfrwt beam="1">  1        2 0.18539709E-02 0.92088946E+02</pdfrwt>
<pdfrwt beam="2">  1       -2 0.27066082E-01 0.92088946E+02</pdfrwt>
<totfact> 0.64090930E+04</totfact>
</mgrwt>
</event>
<event>
 7    1  0.3480999E-009  0.8635164E+02  0.7818608E-02  0.1311935E+00
          2   -1    0    0  501    0  0.00000000000E+00  0.00000000000E+00  0.39568180057E+02  0.39568180139E+02  0.25500000000E-02 0. -1.
         -2   -1    0    0    0  501 -0.00000000000E+00 -0.00000000000E+00 -0.47112386262E+02  0.47112386331E+02  0.25500000000E-02 0.  1.
         23    2    1    2    0    0 -0.17763568394E-14  0.00000000000E+00 -0.75442062047E+01  0.86680566470E+02  0.86351638990E+02 0.  0.
    9000005    2    3    3    0    0  0.11405561787E+02 -0.35290717229E+02 -0.25541142798E+02  0.45456650002E+02  0.61996364194E+01 0.  0.
         22    1    3    3    0    0 -0.11405561787E+02  0.35290717229E+02  0.17996936593E+02  0.41223916468E+02  0.00000000000E+00 0.  1.
         22    1    4    4    0    0  0.14258215507E+01 -0.89597813114E+01 -0.90980254735E+01  0.12848529712E+02  0.00000000000E+00 0. -1.
         22    1    4    4    0    0  0.99797402361E+01 -0.26330935918E+02 -0.16443117324E+02  0.32608120290E+02  0.00000000000E+00 0. -1.
<mgrwt>
<rscale>  0 0.86351639E+02</rscale>
<asrwt>0</asrwt>
<pdfrwt beam="1">  1        2 0.60874123E-02 0.86351639E+02</pdfrwt>
<pdfrwt beam="2">  1       -2 0.72480594E-02 0.86351639E+02</pdfrwt>
<totfact> 0.11124485E+05</totfact>
</mgrwt>
</event>
<event>
 6    1  0.3480999E-009  0.5185690E+02  0.7818608E-02  0.1435576E+00
         -2   -1    0    0    0  501 -0.00000000000E+00  0.00000000000E+00  0.25871831808E+02  0.25871831934E+02  0.25500000000E-02 0.  1.
          2   -1    0    0  501    0  0.00000000000E+00 -0.00000000000E+00 -0.25985189146E+02  0.25985189271E+02  0.25500000000E-02 0. -1.
    9000005    2    1    2    0    0  0.13167680000E+01 -0.23819432279E+02  0.50951776570E+01  0.27439239388E+02  0.12563908262E+02 0.  0.
         22    1    1    2    0    0 -0.13167680000E+01  0.23819432279E+02 -0.52085349951E+01  0.24417781816E+02  0.00000000000E+00 0.  1.
         22    1    3    3    0    0  0.67208650102E+01 -0.12135391760E+02  0.90699849677E+00  0.13901813044E+02  0.00000000000E+00 0.  1.
         22    1    3    3    0    0 -0.54040970102E+01 -0.11684040519E+02  0.41881791603E+01  0.13537426344E+02  0.00000000000E+00 0.  1.
<mgrwt>
<rscale>  0 0.51856897E+02</rscale>
<asrwt>0</asrwt>
<pdfrwt beam="2">  1        2 0.39977215E-02 0.51856897E+02</pdfrwt>
<pdfrwt beam="1">  1       -2 0.39802818E-02 0.51856897E+02</pdfrwt>
<totfact> 0.41669936E+05</totfact>
</mgrwt>
</event>
<event>
 7    1  0.3480999E-009  0.9000888E+02  0.7818608E-02  0.1302830E+00
         -2   -1    0    0    0  501 -0.00000000000E+00  0.00000000000E+00  0.10554072883E+02  0.10554073191E+02  0.25500000000E-02 0.  1.
          2   -1    0    0  501    0  0.00000000000E+00 -0.00000000000E+00 -0.19190690210E+03  0.19190690212E+03  0.25500000000E-02 0. -1.
         23    2    1    2    0    0  0.00000000000E+00 -0.35527136788E-14 -0.18135282922E+03  0.20246097531E+03  0.90008876548E+02 0.  0.
    9000005    2    3    3    0    0 -0.34278997715E+02 -0.21485869522E+02 -0.13172209848E+03  0.13843050048E+03  0.13251413547E+02 0.  0.
         22    1    3    3    0    0  0.34278997715E+02  0.21485869522E+02 -0.49630730738E+02  0.64030474831E+02  0.00000000000E+00 0.  1.
         22    1    4    4    0    0 -0.20539318635E+02 -0.53193563995E+01 -0.60299611600E+02  0.63923409809E+02  0.00000000000E+00 0.  1.
         22    1    4    4    0    0 -0.13739679080E+02 -0.16166513122E+02 -0.71422486880E+02  0.74507090668E+02  0.00000000000E+00 0.  1.
<mgrwt>
<rscale>  0 0.90008877E+02</rscale>
<asrwt>0</asrwt>
<pdfrwt beam="2">  1        2 0.29524136E-01 0.90008877E+02</pdfrwt>
<pdfrwt beam="1">  1       -2 0.16237037E-02 0.90008877E+02</pdfrwt>
<totfact> 0.15777458E+05</totfact>
</mgrwt>
</event>
<event>
 7    1  0.3480999E-009  0.9045510E+02  0.7818608E-02  0.1301753E+00
          2   -1    0    0  501    0  0.00000000000E+00  0.00000000000E+00  0.74944886614E+02  0.74944886658E+02  0.25500000000E-02 0.  1.
         -2   -1    0    0    0  501 -0.00000000000E+00 -0.00000000000E+00 -0.27293804080E+02  0.27293804199E+02  0.25500000000E-02 0. -1.
         23    2    1    2    0    0 -0.27755575616E-15  0.00000000000E+00  0.47651082534E+02  0.10223869086E+03  0.90455095165E+02 0.  0.
    9000005    2    3    3    0    0  0.49634455683E+00  0.19541102463E+02 -0.21676676485E+02  0.30207869578E+02  0.77804908307E+01 0.  0.
         22    1    3    3    0    0 -0.49634455683E+00 -0.19541102463E+02  0.69327759020E+02  0.72030821279E+02  0.00000000000E+00 0.  1.
         22    1    4    4    0    0  0.31770824707E+01  0.38407164324E+01 -0.38203712516E+01  0.62801426926E+01  0.00000000000E+00 0. -1.
         22    1    4    4    0    0 -0.26807379138E+01  0.15700386031E+02 -0.17856305234E+02  0.23927726885E+02  0.00000000000E+00 0. -1.
<mgrwt>
<rscale>  0 0.90455095E+02</rscale>
<asrwt>0</asrwt>
<pdfrwt beam="1">  1        2 0.11529982E-01 0.90455095E+02</pdfrwt>
<pdfrwt beam="2">  1       -2 0.41990469E-02 0.90455095E+02</pdfrwt>
<totfact> 0.11527138E+05</totfact>
</mgrwt>
</event>
<event>
 7    1  0.3480999E-009  0.9100094E+02  0.7818608E-02  0.1300446E+00
         -2   -1    0    0    0  501 -0.00000000000E+00  0.00000000000E+00  0.52572059807E+02  0.52572059869E+02  0.25500000000E-02 0.  1.
          2   -1    0    0  501    0  0.00000000000E+00 -0.00000000000E+00 -0.39380098776E+02  0.39380098859E+02  0.25500000000E-02 0. -1.
         23    2    1    2    0    0  0.00000000000E+00  0.00000000000E+00  0.13191961031E+02  0.91952158728E+02  0.91000943176E+02 0.  0.
    9000005    2    3    3    0    0  0.23274504000E+02 -0.38921942869E+02  0.78696586593E+01  0.46290938030E+02  0.49294262461E+01 0.  0.
         22    1    3    3    0    0 -0.23274504000E+02  0.38921942869E+02  0.53223023715E+01  0.45661220698E+02  0.00000000000E+00 0. -1.
         22    1    4    4    0    0  0.14329454579E+02 -0.28117248830E+02  0.62469071167E+01  0.32170433613E+02  0.00000000000E+00 0.  1.
         22    1    4    4    0    0  0.89450494214E+01 -0.10804694038E+02  0.16227515426E+01  0.14120504417E+02  0.00000000000E+00 0.  1.
<mgrwt>
<rscale>  0 0.91000943E+02</rscale>
<asrwt>0</asrwt>
<pdfrwt beam="2">  1        2 0.60584768E-02 0.91000943E+02</pdfrwt>
<pdfrwt beam="1">  1       -2 0.80880092E-02 0.91000943E+02</pdfrwt>
<totfact> 0.95537274E+04</totfact>
</mgrwt>
</event>
<event>
 7    1  0.3480999E-009  0.9235089E+02  0.7818608E-02  0.1297257E+00
         -2   -1    0    0    0  501 -0.00000000000E+00  0.00000000000E+00  0.37784631823E+03  0.37784631824E+03  0.25500000000E-02 0.  1.
          2   -1    0    0  501    0  0.00000000000E+00 -0.00000000000E+00 -0.56429600771E+01  0.56429606533E+01  0.25500000000E-02 0. -1.
         23    2    1    2    0    0  0.17763568394E-14  0.00000000000E+00  0.37220335815E+03  0.38348927889E+03  0.92350891737E+02 0.  0.
    9000005    2    3    3    0    0  0.11813089331E+02  0.34953232586E+02  0.29802740967E+03  0.30064394781E+03  0.14323717950E+02 0.  0.
         22    1    3    3    0    0 -0.11813089331E+02 -0.34953232586E+02  0.74175948482E+02  0.82845331076E+02  0.00000000000E+00 0. -1.
         22    1    4    4    0    0  0.24384364449E+01  0.27479932737E+02  0.20895483221E+03  0.21076815362E+03  0.00000000000E+00 0.  1.
         22    1    4    4    0    0  0.93746528856E+01  0.74732998488E+01  0.89072577456E+02  0.89875794194E+02  0.00000000000E+00 0.  1.
<mgrwt>
<rscale>  0 0.92350892E+02</rscale>
<asrwt>0</asrwt>
<pdfrwt beam="2">  1        2 0.86814749E-03 0.92350892E+02</pdfrwt>
<pdfrwt beam="1">  1       -2 0.58130220E-01 0.92350892E+02</pdfrwt>
<totfact> 0.42896292E+04</totfact>
</mgrwt>
</event>
<event>
 7    1  0.3480999E-009  0.9093991E+02  0.7818608E-02  0.1300591E+00
          2   -1    0    0  501    0  0.00000000000E+00  0.00000000000E+00  0.14272197654E+03  0.14272197657E+03  0.25500000000E-02 0. -1.
         -2   -1    0    0    0  501 -0.00000000000E+00 -0.00000000000E+00 -0.14486322737E+02  0.14486322962E+02  0.25500000000E-02 0.  1.
         23    2    1    2    0    0  0.00000000000E+00 -0.17763568394E-14  0.12823565381E+03  0.15720829953E+03  0.90939906165E+02 0.  0.
    9000005    2    3    3    0    0  0.41579114425E+02 -0.14166827651E+02  0.48618220189E+02  0.66277240490E+02  0.99709332847E+01 0.  0.
         22    1    3    3    0    0 -0.41579114425E+02  0.14166827651E+02  0.79617433617E+02  0.90931059038E+02  0.00000000000E+00 0. -1.
         22    1    4    4    0    0  0.10223168233E+02  0.58365199179E+00  0.88942555480E+01  0.13563244454E+02  0.00000000000E+00 0. -1.
         22    1    4    4    0    0  0.31355946192E+02 -0.14750479643E+02  0.39723964641E+02  0.52713996036E+02  0.00000000000E+00 0. -1.
<mgrwt>
<rscale>  0 0.90939906E+02</rscale>
<asrwt>0</asrwt>
<pdfrwt beam="1">  1        2 0.21957227E-01 0.90939906E+02</pdfrwt>
<pdfrwt beam="2">  1       -2 0.22286650E-02 0.90939906E+02</pdfrwt>
<totfact> 0.13845400E+05</totfact>
</mgrwt>
</event>
<event>
 7    1  0.3480999E-009  0.9243632E+02  0.7818608E-02  0.1297057E+00
         -2   -1    0    0    0  501 -0.00000000000E+00  0.00000000000E+00  0.21399948972E+01  0.21399964165E+01  0.25500000000E-02 0.  1.
          2   -1    0    0  501    0  0.00000000000E+00 -0.00000000000E+00 -0.99818823792E+03  0.99818823792E+03  0.25500000000E-02 0. -1.
         23    2    1    2    0    0  0.00000000000E+00  0.00000000000E+00 -0.99604824302E+03  0.10003282343E+04  0.92436323967E+02 0.  0.
    9000005    2    3    3    0    0  0.25273521624E+02 -0.26008829283E+02 -0.80363365213E+03  0.80452582147E+03  0.10933457160E+02 0.  0.
         22    1    3    3    0    0 -0.25273521624E+02  0.26008829283E+02 -0.19241459089E+03  0.19580241287E+03  0.00000000000E+00 0.  1.
         22    1    4    4    0    0  0.89631888568E+01 -0.11213679736E+02 -0.43353980423E+03  0.43377741668E+03  0.00000000000E+00 0. -1.
         22    1    4    4    0    0  0.16310332767E+02 -0.14795149547E+02 -0.37009384789E+03  0.37074840479E+03  0.00000000000E+00 0. -1.
<mgrwt>
<rscale>  0 0.92436324E+02</rscale>
<asrwt>0</asrwt>
<pdfrwt beam="2">  1        2 0.15356705E+00 0.92436324E+02</pdfrwt>
<pdfrwt beam="1">  1       -2 0.32923090E-03 0.92436324E+02</pdfrwt>
<totfact> 0.24111841E+05</totfact>
</mgrwt>
</event>
<event>
 7    1  0.3480999E-009  0.9297062E+02  0.7818608E-02  0.1295813E+00
          2   -1    0    0  501    0  0.00000000000E+00  0.00000000000E+00  0.97082774085E+02  0.97082774119E+02  0.25500000000E-02 0. -1.
         -2   -1    0    0    0  501 -0.00000000000E+00 -0.00000000000E+00 -0.22258159427E+02  0.22258159573E+02  0.25500000000E-02 0.  1.
         23    2    1    2    0    0  0.00000000000E+00  0.00000000000E+00  0.74824614658E+02  0.11934093369E+03  0.92970616303E+02 0.  0.
    9000005    2    3    3    0    0 -0.32560140358E+02 -0.21116446566E+02  0.73078073271E+01  0.41465479742E+02  0.12645746582E+02 0.  0.
         22    1    3    3    0    0  0.32560140358E+02  0.21116446566E+02  0.67516807331E+02  0.77875453950E+02  0.00000000000E+00 0. -1.
         22    1    4    4    0    0 -0.17073866529E+02 -0.10859433232E+02 -0.26203423491E+01  0.20403686000E+02  0.00000000000E+00 0.  1.
         22    1    4    4    0    0 -0.15486273829E+02 -0.10257013334E+02  0.99281496762E+01  0.21061793742E+02  0.00000000000E+00 0.  1.
<mgrwt>
<rscale>  0 0.92970616E+02</rscale>
<asrwt>0</asrwt>
<pdfrwt beam="1">  1        2 0.14935812E-01 0.92970616E+02</pdfrwt>
<pdfrwt beam="2">  1       -2 0.34243321E-02 0.92970616E+02</pdfrwt>
<totfact> 0.11520873E+05</totfact>
</mgrwt>
</event>
<event>
 7    1  0.3480999E-009  0.9220859E+02  0.7818608E-02  0.1297590E+00
          2   -1    0    0  501    0  0.00000000000E+00  0.00000000000E+00  0.10709128236E+03  0.10709128239E+03  0.25500000000E-02 0.  1.
         -2   -1    0    0    0  501 -0.00000000000E+00 -0.00000000000E+00 -0.19848544696E+02  0.19848544860E+02  0.25500000000E-02 0. -1.
         23    2    1    2    0    0  0.00000000000E+00  0.00000000000E+00  0.87242737665E+02  0.12693982725E+03  0.92208592156E+02 0.  0.
    9000005    2    3    3    0    0 -0.38931458874E+02  0.22115702762E+02  0.38896121779E+02  0.61044773824E+02  0.14449682455E+02 0.  0.
         22    1    3    3    0    0  0.38931458874E+02 -0.22115702762E+02  0.48346615886E+02  0.65895053428E+02  0.00000000000E+00 0.  1.
         22    1    4    4    0    0 -0.39352316133E+01  0.38291951633E+01  0.12207224293E+02  0.13385257129E+02  0.00000000000E+00 0.  1.
         22    1    4    4    0    0 -0.34996227260E+02  0.18286507598E+02  0.26688897486E+02  0.47659516695E+02  0.00000000000E+00 0.  1.
<mgrwt>
<rscale>  0 0.92208592E+02</rscale>
<asrwt>0</asrwt>
<pdfrwt beam="1">  1        2 0.16475582E-01 0.92208592E+02</pdfrwt>
<pdfrwt beam="2">  1       -2 0.30536222E-02 0.92208592E+02</pdfrwt>
<totfact> 0.12146949E+05</totfact>
</mgrwt>
</event>
<event>
 7    1  0.3480999E-009  0.8829438E+02  0.7818608E-02  0.1307035E+00
         -2   -1    0    0    0  501 -0.00000000000E+00  0.00000000000E+00  0.20629312077E+01  0.20629327838E+01  0.25500000000E-02 0. -1.
          2   -1    0    0  501    0  0.00000000000E+00 -0.00000000000E+00 -0.94475948739E+03  0.94475948739E+03  0.25500000000E-02 0.  1.
         23    2    1    2    0    0  0.11102230246E-15  0.00000000000E+00 -0.94269655618E+03  0.94682242018E+03  0.88294384376E+02 0.  0.
    9000005    2    3    3    0    0  0.74795783514E+00  0.32076333479E+02 -0.79492535898E+03  0.79560807782E+03  0.75124257600E+01 0.  0.
         22    1    3    3    0    0 -0.74795783514E+00 -0.32076333479E+02 -0.14777119720E+03  0.15121434235E+03  0.00000000000E+00 0. -1.
         22    1    4    4    0    0  0.95199082304E+00  0.23669681556E+00 -0.14282121620E+02  0.14315771369E+02  0.00000000000E+00 0.  1.
         22    1    4    4    0    0 -0.20403298791E+00  0.31839636663E+02 -0.78064323736E+03  0.78129230646E+03  0.00000000000E+00 0.  1.
<mgrwt>
<rscale>  0 0.88294384E+02</rscale>
<asrwt>0</asrwt>
<pdfrwt beam="2">  1        2 0.14534727E+00 0.88294384E+02</pdfrwt>
<pdfrwt beam="1">  1       -2 0.31737491E-03 0.88294384E+02</pdfrwt>
<totfact> 0.27107206E+05</totfact>
</mgrwt>
</event>
<event>
 7    1  0.3480999E-009  0.9032495E+02  0.7818608E-02  0.1302067E+00
         -2   -1    0    0    0  501 -0.00000000000E+00  0.00000000000E+00  0.42317008301E+02  0.42317008377E+02  0.25500000000E-02 0. -1.
          2   -1    0    0  501    0  0.00000000000E+00 -0.00000000000E+00 -0.48199273325E+02  0.48199273393E+02  0.25500000000E-02 0.  1.
         23    2    1    2    0    0  0.00000000000E+00  0.35527136788E-14 -0.58822650250E+01  0.90516281770E+02  0.90324947958E+02 0.  0.
    9000005    2    3    3    0    0 -0.38812262068E+02 -0.21008863741E+02 -0.62135416496E+01  0.46381558630E+02  0.12840437632E+02 0.  0.
         22    1    3    3    0    0  0.38812262068E+02  0.21008863741E+02  0.33127662468E+00  0.44134723141E+02  0.00000000000E+00 0.  1.
         22    1    4    4    0    0 -0.13268781697E+02 -0.87141512466E+00 -0.34502573128E+01  0.13737692950E+02  0.00000000000E+00 0.  1.
         22    1    4    4    0    0 -0.25543480370E+02 -0.20137448616E+02 -0.27632843368E+01  0.32643865680E+02  0.00000000000E+00 0.  1.
<mgrwt>
<rscale>  0 0.90324948E+02</rscale>
<asrwt>0</asrwt>
<pdfrwt beam="2">  1        2 0.74152728E-02 0.90324948E+02</pdfrwt>
<pdfrwt beam="1">  1       -2 0.65103090E-02 0.90324948E+02</pdfrwt>
<totfact> 0.10283296E+05</totfact>
</mgrwt>
</event>
<event>
 7    1  0.3480999E-009  0.9294789E+02  0.7818608E-02  0.1295866E+00
         -2   -1    0    0    0  501 -0.00000000000E+00  0.00000000000E+00  0.32045330034E+01  0.32045340180E+01  0.25500000000E-02 0.  1.
          2   -1    0    0  501    0  0.00000000000E+00 -0.00000000000E+00 -0.67399126714E+03  0.67399126715E+03  0.25500000000E-02 0. -1.
         23    2    1    2    0    0  0.00000000000E+00  0.00000000000E+00 -0.67078673414E+03  0.67719580117E+03  0.92947890880E+02 0.  0.
    9000005    2    3    3    0    0 -0.41047194555E+02  0.11864460582E+02 -0.45386726508E+03  0.45610827628E+03  0.14616010696E+02 0.  0.
         22    1    3    3    0    0  0.41047194555E+02 -0.11864460582E+02 -0.21691946906E+03  0.22108752489E+03  0.00000000000E+00 0. -1.
         22    1    4    4    0    0 -0.28357977718E+02  0.12675219571E+02 -0.36745735999E+03  0.36876787754E+03  0.00000000000E+00 0.  1.
         22    1    4    4    0    0 -0.12689216837E+02 -0.81075898958E+00 -0.86409905088E+02  0.87340398736E+02  0.00000000000E+00 0.  1.
<mgrwt>
<rscale>  0 0.92947891E+02</rscale>
<asrwt>0</asrwt>
<pdfrwt beam="2">  1        2 0.10369085E+00 0.92947891E+02</pdfrwt>
<pdfrwt beam="1">  1       -2 0.49300569E-03 0.92947891E+02</pdfrwt>
<totfact> 0.22335395E+05</totfact>
</mgrwt>
</event>
<event>
 7    1  0.3480999E-009  0.9430682E+02  0.7818608E-02  0.1292745E+00
         -2   -1    0    0    0  501 -0.00000000000E+00  0.00000000000E+00  0.22404088396E+03  0.22404088398E+03  0.25500000000E-02 0.  1.
          2   -1    0    0  501    0  0.00000000000E+00 -0.00000000000E+00 -0.99242787127E+01  0.99242790403E+01  0.25500000000E-02 0. -1.
         23    2    1    2    0    0  0.00000000000E+00  0.00000000000E+00  0.21411660525E+03  0.23396516302E+03  0.94306822987E+02 0.  0.
    9000005    2    3    3    0    0  0.25113967529E+02  0.17471592791E+02  0.19504546871E+03  0.19791414128E+03  0.13831288153E+02 0.  0.
         22    1    3    3    0    0 -0.25113967529E+02 -0.17471592791E+02  0.19071136536E+02  0.36051021740E+02  0.00000000000E+00 0. -1.
         22    1    4    4    0    0  0.18943774832E+02  0.18070959840E+02  0.17452355521E+03  0.17647633699E+03  0.00000000000E+00 0.  1.
         22    1    4    4    0    0  0.61701926971E+01 -0.59936704870E+00  0.20521913504E+02  0.21437804287E+02  0.00000000000E+00 0.  1.
<mgrwt>
<rscale>  0 0.94306823E+02</rscale>
<asrwt>0</asrwt>
<pdfrwt beam="2">  1        2 0.15268122E-02 0.94306823E+02</pdfrwt>
<pdfrwt beam="1">  1       -2 0.34467828E-01 0.94306823E+02</pdfrwt>
<totfact> 0.54314197E+04</totfact>
</mgrwt>
</event>
<event>
 7    1  0.3480999E-009  0.9667720E+02  0.7818608E-02  0.1287443E+00
          2   -1    0    0  501    0  0.00000000000E+00  0.00000000000E+00  0.14648555676E+02  0.14648555898E+02  0.25500000000E-02 0. -1.
         -2   -1    0    0    0  501 -0.00000000000E+00 -0.00000000000E+00 -0.15951197576E+03  0.15951197578E+03  0.25500000000E-02 0.  1.
         23    2    1    2    0    0  0.88817841970E-15  0.00000000000E+00 -0.14486342008E+03  0.17416053167E+03  0.96677196461E+02 0.  0.
    9000005    2    3    3    0    0  0.39825926345E+01 -0.47104648343E+02 -0.67379819600E+02  0.83394804205E+02  0.13414333360E+02 0.  0.
         22    1    3    3    0    0 -0.39825926345E+01  0.47104648343E+02 -0.77483600479E+02  0.90765727468E+02  0.00000000000E+00 0. -1.
         22    1    4    4    0    0 -0.33973235522E+01 -0.30813976340E+02 -0.46717355129E+02  0.56067407782E+02  0.00000000000E+00 0.  1.
         22    1    4    4    0    0  0.73799161866E+01 -0.16290672003E+02 -0.20662464471E+02  0.27327396423E+02  0.00000000000E+00 0.  1.
<mgrwt>
<rscale>  0 0.96677196E+02</rscale>
<asrwt>0</asrwt>
<pdfrwt beam="1">  1        2 0.22536241E-02 0.96677196E+02</pdfrwt>
<pdfrwt beam="2">  1       -2 0.24540303E-01 0.96677196E+02</pdfrwt>
<totfact> 0.58844625E+04</totfact>
</mgrwt>
</event>
<event>
 7    1  0.3480999E-009  0.9203339E+02  0.7818608E-02  0.1298001E+00
         -2   -1    0    0    0  501 -0.00000000000E+00  0.00000000000E+00  0.28894908901E+02  0.28894909014E+02  0.25500000000E-02 0.  1.
          2   -1    0    0  501    0  0.00000000000E+00 -0.00000000000E+00 -0.73284057547E+02  0.73284057591E+02  0.25500000000E-02 0. -1.
         23    2    1    2    0    0  0.00000000000E+00  0.71054273576E-14 -0.44389148645E+02  0.10217896660E+03  0.92033389044E+02 0.  0.
    9000005    2    3    3    0    0  0.18295208016E+02  0.39717501487E+02 -0.88850028022E+01  0.45851895557E+02  0.10547914043E+02 0.  0.
         22    1    3    3    0    0 -0.18295208016E+02 -0.39717501487E+02 -0.35504145843E+02  0.56327071048E+02  0.00000000000E+00 0. -1.
         22    1    4    4    0    0  0.69272103302E+00  0.30947956302E+00  0.13005671709E+01  0.15056941906E+01  0.00000000000E+00 0.  1.
         22    1    4    4    0    0  0.17602486983E+02  0.39408021924E+02 -0.10185569973E+02  0.44346201367E+02  0.00000000000E+00 0.  1.
<mgrwt>
<rscale>  0 0.92033389E+02</rscale>
<asrwt>0</asrwt>
<pdfrwt beam="2">  1        2 0.11274470E-01 0.92033389E+02</pdfrwt>
<pdfrwt beam="1">  1       -2 0.44453706E-02 0.92033389E+02</pdfrwt>
<totfact> 0.10914977E+05</totfact>
</mgrwt>
</event>
<event>
 7    1  0.3480999E-009  0.9193648E+02  0.7818608E-02  0.1298229E+00
          2   -1    0    0  501    0  0.00000000000E+00  0.00000000000E+00  0.62728078554E+02  0.62728078606E+02  0.25500000000E-02 0. -1.
         -2   -1    0    0    0  501 -0.00000000000E+00 -0.00000000000E+00 -0.33686336163E+02  0.33686336260E+02  0.25500000000E-02 0.  1.
         23    2    1    2    0    0 -0.35527136788E-14 -0.17763568394E-14  0.29041742390E+02  0.96414414865E+02  0.91936481294E+02 0.  0.
    9000005    2    3    3    0    0  0.28964989713E+02  0.13791214388E+02 -0.19473415484E+02  0.38251808605E+02  0.74039670146E+01 0.  0.
         22    1    3    3    0    0 -0.28964989713E+02 -0.13791214388E+02  0.48515157875E+02  0.58162606260E+02  0.00000000000E+00 0. -1.
         22    1    4    4    0    0  0.57517739967E+01  0.59603151392E+01 -0.34152746059E+01  0.89594844328E+01  0.00000000000E+00 0. -1.
         22    1    4    4    0    0  0.23213215716E+02  0.78308992492E+01 -0.16058140878E+02  0.29292324172E+02  0.00000000000E+00 0. -1.
<mgrwt>
<rscale>  0 0.91936481E+02</rscale>
<asrwt>0</asrwt>
<pdfrwt beam="1">  1        2 0.96504735E-02 0.91936481E+02</pdfrwt>
<pdfrwt beam="2">  1       -2 0.51825133E-02 0.91936481E+02</pdfrwt>
<totfact> 0.10486645E+05</totfact>
</mgrwt>
</event>
<event>
 7    1  0.3480999E-009  0.9487902E+02  0.7818608E-02  0.1291449E+00
          2   -1    0    0  501    0  0.00000000000E+00  0.00000000000E+00  0.63998202036E+03  0.63998202036E+03  0.25500000000E-02 0. -1.
         -2   -1    0    0    0  501 -0.00000000000E+00 -0.00000000000E+00 -0.35165154290E+01  0.35165163536E+01  0.25500000000E-02 0.  1.
         23    2    1    2    0    0  0.00000000000E+00  0.00000000000E+00  0.63646550493E+03  0.64349853672E+03  0.94879016605E+02 0.  0.
    9000005    2    3    3    0    0 -0.12925748987E+02 -0.16308423430E+02  0.60719679320E+03  0.60758618302E+03  0.63233270512E+01 0.  0.
         22    1    3    3    0    0  0.12925748987E+02  0.16308423430E+02  0.29268711730E+02  0.35912353696E+02  0.00000000000E+00 0.  1.
         22    1    4    4    0    0 -0.11678104947E+01 -0.54565871575E+01  0.19240805219E+03  0.19248895208E+03  0.00000000000E+00 0.  1.
         22    1    4    4    0    0 -0.11757938493E+02 -0.10851836272E+02  0.41478874101E+03  0.41509723094E+03  0.00000000000E+00 0.  1.
<mgrwt>
<rscale>  0 0.94879017E+02</rscale>
<asrwt>0</asrwt>
<pdfrwt beam="1">  1        2 0.98458843E-01 0.94879017E+02</pdfrwt>
<pdfrwt beam="2">  1       -2 0.54100206E-03 0.94879017E+02</pdfrwt>
<totfact> 0.20873162E+05</totfact>
</mgrwt>
</event>
<event>
 7    1  0.3480999E-009  0.8791855E+02  0.7818608E-02  0.1307972E+00
          2   -1    0    0  501    0  0.00000000000E+00  0.00000000000E+00  0.27725137323E+03  0.27725137324E+03  0.25500000000E-02 0.  1.
         -2   -1    0    0    0  501 -0.00000000000E+00 -0.00000000000E+00 -0.69699128364E+01  0.69699133029E+01  0.25500000000E-02 0. -1.
         23    2    1    2    0    0  0.00000000000E+00  0.44408920985E-15  0.27028146039E+03  0.28422128655E+03  0.87918552608E+02 0.  0.
    9000005    2    3    3    0    0  0.15995954969E+02 -0.28454067158E+01  0.26717449611E+03  0.26767981920E+03  0.25114384803E+01 0.  0.
         22    1    3    3    0    0 -0.15995954969E+02  0.28454067158E+01  0.31069642861E+01  0.16541467342E+02  0.00000000000E+00 0. -1.
         22    1    4    4    0    0  0.64767971626E+01  0.76697677934E-01  0.10860748743E+03  0.10880046465E+03  0.00000000000E+00 0. -1.
         22    1    4    4    0    0  0.95191578066E+01 -0.29221043938E+01  0.15856700868E+03  0.15887935455E+03  0.00000000000E+00 0. -1.
<mgrwt>
<rscale>  0 0.87918553E+02</rscale>
<asrwt>0</asrwt>
<pdfrwt beam="1">  1        2 0.42654060E-01 0.87918553E+02</pdfrwt>
<pdfrwt beam="2">  1       -2 0.10722943E-02 0.87918553E+02</pdfrwt>
<totfact> 0.19222188E+05</totfact>
</mgrwt>
</event>
<event>
 7    1  0.3480999E-009  0.9283242E+02  0.7818608E-02  0.1296134E+00
         -2   -1    0    0    0  501 -0.00000000000E+00  0.00000000000E+00  0.54985927870E+01  0.54985933783E+01  0.25500000000E-02 0.  1.
          2   -1    0    0  501    0  0.00000000000E+00 -0.00000000000E+00 -0.39182109674E+03  0.39182109674E+03  0.25500000000E-02 0. -1.
         23    2    1    2    0    0  0.71054273576E-14  0.00000000000E+00 -0.38632250395E+03  0.39731969012E+03  0.92832424840E+02 0.  0.
    9000005    2    3    3    0    0  0.33847381920E+02 -0.27723610901E+02 -0.25820745682E+03  0.26193982026E+03  0.52091087522E+01 0.  0.
         22    1    3    3    0    0 -0.33847381920E+02  0.27723610901E+02 -0.12811504713E+03  0.13537986987E+03  0.00000000000E+00 0.  1.
         22    1    4    4    0    0  0.94741086499E+00 -0.22499365599E+01 -0.15688909888E+02  0.15877710646E+02  0.00000000000E+00 0.  1.
         22    1    4    4    0    0  0.32899971055E+02 -0.25473674341E+02 -0.24251854693E+03  0.24606210961E+03  0.00000000000E+00 0.  1.
<mgrwt>
<rscale>  0 0.92832425E+02</rscale>
<asrwt>0</asrwt>
<pdfrwt beam="2">  1        2 0.60280147E-01 0.92832425E+02</pdfrwt>
<pdfrwt beam="1">  1       -2 0.84593771E-03 0.92832425E+02</pdfrwt>
<totfact> 0.18889150E+05</totfact>
</mgrwt>
</event>
<event>
 7    1  0.3480999E-009  0.9173695E+02  0.7818608E-02  0.1298699E+00
         -2   -1    0    0    0  501 -0.00000000000E+00  0.00000000000E+00  0.34246138797E+03  0.34246138798E+03  0.25500000000E-02 0.  1.
          2   -1    0    0  501    0  0.00000000000E+00 -0.00000000000E+00 -0.61435157432E+01  0.61435162724E+01  0.25500000000E-02 0. -1.
         23    2    1    2    0    0 -0.17763568394E-14  0.35527136788E-14  0.33631787222E+03  0.34860490425E+03  0.91736950512E+02 0.  0.
    9000005    2    3    3    0    0 -0.94270020651E+01  0.18429047342E+02  0.32323472055E+03  0.32411680486E+03  0.11938193771E+02 0.  0.
         22    1    3    3    0    0  0.94270020651E+01 -0.18429047342E+02  0.13083151672E+02  0.24488099386E+02  0.00000000000E+00 0. -1.
         22    1    4    4    0    0 -0.11453363496E+02  0.18496457353E+02  0.30329957228E+03  0.30407882040E+03  0.00000000000E+00 0.  1.
         22    1    4    4    0    0  0.20263614312E+01 -0.67410011571E-01  0.19935148273E+02  0.20037984465E+02  0.00000000000E+00 0.  1.
<mgrwt>
<rscale>  0 0.91736951E+02</rscale>
<asrwt>0</asrwt>
<pdfrwt beam="2">  1        2 0.94515647E-03 0.91736951E+02</pdfrwt>
<pdfrwt beam="1">  1       -2 0.52686358E-01 0.91736951E+02</pdfrwt>
<totfact> 0.46445843E+04</totfact>
</mgrwt>
</event>
<event>
 7    1  0.3480999E-009  0.8914467E+02  0.7818608E-02  0.1304936E+00
         -2   -1    0    0    0  501 -0.00000000000E+00  0.00000000000E+00  0.76216754104E+01  0.76216758370E+01  0.25500000000E-02 0.  1.
          2   -1    0    0  501    0  0.00000000000E+00 -0.00000000000E+00 -0.26066356841E+03  0.26066356842E+03  0.25500000000E-02 0. -1.
         23    2    1    2    0    0  0.00000000000E+00  0.00000000000E+00 -0.25304189300E+03  0.26828524426E+03  0.89144672721E+02 0.  0.
    9000005    2    3    3    0    0  0.10859343127E+02  0.12604901933E+02 -0.25094416662E+03  0.25151594666E+03  0.32384841180E+01 0.  0.
         22    1    3    3    0    0 -0.10859343127E+02 -0.12604901933E+02 -0.20977263793E+01  0.16769297596E+02  0.00000000000E+00 0.  1.
         22    1    4    4    0    0  0.34862235378E+01  0.19572231610E+01 -0.58395975501E+02  0.58532678324E+02  0.00000000000E+00 0.  1.
         22    1    4    4    0    0  0.73731195892E+01  0.10647678772E+02 -0.19254819112E+03  0.19298326834E+03  0.00000000000E+00 0.  1.
<mgrwt>
<rscale>  0 0.89144673E+02</rscale>
<asrwt>0</asrwt>
<pdfrwt beam="2">  1        2 0.40102081E-01 0.89144673E+02</pdfrwt>
<pdfrwt beam="1">  1       -2 0.11725657E-02 0.89144673E+02</pdfrwt>
<totfact> 0.18106184E+05</totfact>
</mgrwt>
</event>
<event>
 7    1  0.3480999E-009  0.8272907E+02  0.7818608E-02  0.1321480E+00
          2   -1    0    0  501    0  0.00000000000E+00  0.00000000000E+00  0.26303856283E+03  0.26303856284E+03  0.25500000000E-02 0. -1.
         -2   -1    0    0    0  501 -0.00000000000E+00 -0.00000000000E+00 -0.65048435554E+01  0.65048440552E+01  0.25500000000E-02 0.  1.
         23    2    1    2    0    0 -0.17763568394E-14  0.00000000000E+00  0.25653371928E+03  0.26954340690E+03  0.82729070327E+02 0.  0.
    9000005    2    3    3    0    0  0.98277619576E+01  0.21330288499E+01  0.25881763294E+03  0.25923074581E+03  0.10624393324E+02 0.  0.
         22    1    3    3    0    0 -0.98277619576E+01 -0.21330288499E+01 -0.22839136646E+01  0.10312661092E+02  0.00000000000E+00 0.  1.
         22    1    4    4    0    0  0.93879501410E+01  0.54942970417E+01  0.16939840086E+03  0.16974728016E+03  0.00000000000E+00 0. -1.
         22    1    4    4    0    0  0.43981181656E+00 -0.33612681918E+01  0.89419232078E+02  0.89483465644E+02  0.00000000000E+00 0. -1.
<mgrwt>
<rscale>  0 0.82729070E+02</rscale>
<asrwt>0</asrwt>
<pdfrwt beam="1">  1        2 0.40467468E-01 0.82729070E+02</pdfrwt>
<pdfrwt beam="2">  1       -2 0.10007453E-02 0.82729070E+02</pdfrwt>
<totfact> 0.22153698E+05</totfact>
</mgrwt>
</event>
<event>
 7    1  0.3508224E-009  0.8807861E+02  0.7818608E-02  0.1307572E+00
         -2   -1    0    0    0  501 -0.00000000000E+00  0.00000000000E+00  0.16766271269E+02  0.16766271463E+02  0.25500000000E-02 0.  1.
          2   -1    0    0  501    0  0.00000000000E+00 -0.00000000000E+00 -0.11567629787E+03  0.11567629790E+03  0.25500000000E-02 0. -1.
         23    2    1    2    0    0  0.00000000000E+00  0.00000000000E+00 -0.98910026601E+02  0.13244256936E+03  0.88078605897E+02 0.  0.
    9000005    2    3    3    0    0 -0.16911825508E+01  0.22835712794E+02  0.37427126752E+01  0.27266931696E+02  0.14322981140E+02 0.  0.
         22    1    3    3    0    0  0.16911825508E+01 -0.22835712794E+02 -0.10265273928E+03  0.10517563766E+03  0.00000000000E+00 0. -1.
         22    1    4    4    0    0  0.15557953746E+01  0.18912880553E+02 -0.25769382454E+01  0.19150931068E+02  0.00000000000E+00 0. -1.
         22    1    4    4    0    0 -0.32469779255E+01  0.39228322413E+01  0.63196509205E+01  0.81160006284E+01  0.00000000000E+00 0. -1.
<mgrwt>
<rscale>  0 0.88078606E+02</rscale>
<asrwt>0</asrwt>
<pdfrwt beam="2">  1        2 0.17796353E-01 0.88078606E+02</pdfrwt>
<pdfrwt beam="1">  1       -2 0.25794264E-02 0.88078606E+02</pdfrwt>
<totfact> 0.14105312E+05</totfact>
</mgrwt>
</event>
<event>
 7    1  0.3480999E-009  0.9136342E+02  0.7818608E-02  0.1299583E+00
         -2   -1    0    0    0  501 -0.00000000000E+00  0.00000000000E+00  0.20037918324E+03  0.20037918326E+03  0.25500000000E-02 0.  1.
          2   -1    0    0  501    0  0.00000000000E+00 -0.00000000000E+00 -0.10414349371E+02  0.10414349683E+02  0.25500000000E-02 0. -1.
         23    2    1    2    0    0  0.00000000000E+00  0.00000000000E+00  0.18996483387E+03  0.21079353294E+03  0.91363424972E+02 0.  0.
    9000005    2    3    3    0    0  0.33822717570E+02  0.28933129937E+02  0.92497643836E+02  0.10364431286E+03  0.14325754439E+02 0.  0.
         22    1    3    3    0    0 -0.33822717570E+02 -0.28933129937E+02  0.97467190037E+02  0.10714922009E+03  0.00000000000E+00 0. -1.
         22    1    4    4    0    0  0.79067846554E+01  0.14572839751E+02  0.25883956180E+02  0.30738641635E+02  0.00000000000E+00 0. -1.
         22    1    4    4    0    0  0.25915932915E+02  0.14360290187E+02  0.66613687656E+02  0.72905671221E+02  0.00000000000E+00 0. -1.
<mgrwt>
<rscale>  0 0.91363425E+02</rscale>
<asrwt>0</asrwt>
<pdfrwt beam="2">  1        2 0.16022077E-02 0.91363425E+02</pdfrwt>
<pdfrwt beam="1">  1       -2 0.30827565E-01 0.91363425E+02</pdfrwt>
<totfact> 0.61943569E+04</totfact>
</mgrwt>
</event>
<event>
 7    1  0.3480999E-009  0.9069650E+02  0.7818608E-02  0.1301174E+00
         -2   -1    0    0    0  501 -0.00000000000E+00  0.00000000000E+00  0.33895815024E+01  0.33895824616E+01  0.25500000000E-02 0.  1.
          2   -1    0    0  501    0  0.00000000000E+00 -0.00000000000E+00 -0.60670126141E+03  0.60670126142E+03  0.25500000000E-02 0. -1.
         23    2    1    2    0    0 -0.35527136788E-14  0.44408920985E-15 -0.60331167991E+03  0.61009084388E+03  0.90696497559E+02 0.  0.
    9000005    2    3    3    0    0  0.17859215043E+02 -0.21876402201E+01 -0.58105630916E+03  0.58147198893E+03  0.12629416324E+02 0.  0.
         22    1    3    3    0    0 -0.17859215043E+02  0.21876402201E+01 -0.22255370745E+02  0.28618854951E+02  0.00000000000E+00 0.  1.
         22    1    4    4    0    0  0.12446439468E+01 -0.28144930309E+00 -0.46158266259E+01  0.47889672900E+01  0.00000000000E+00 0. -1.
         22    1    4    4    0    0  0.16614571096E+02 -0.19061909170E+01 -0.57644048254E+03  0.57668302164E+03  0.00000000000E+00 0. -1.
<mgrwt>
<rscale>  0 0.90696498E+02</rscale>
<asrwt>0</asrwt>
<pdfrwt beam="2">  1        2 0.93338569E-01 0.90696498E+02</pdfrwt>
<pdfrwt beam="1">  1       -2 0.52147463E-03 0.90696498E+02</pdfrwt>
<totfact> 0.23177358E+05</totfact>
</mgrwt>
</event>
<event>
 7    1  0.3480999E-009  0.9216626E+02  0.7818608E-02  0.1297689E+00
         -2   -1    0    0    0  501 -0.00000000000E+00  0.00000000000E+00  0.17390874001E+01  0.17390892696E+01  0.25500000000E-02 0.  1.
          2   -1    0    0  501    0  0.00000000000E+00 -0.00000000000E+00 -0.12211310253E+04  0.12211310253E+04  0.25500000000E-02 0. -1.
         23    2    1    2    0    0  0.17763568394E-14 -0.35527136788E-14 -0.12193919379E+04  0.12228701146E+04  0.92166256833E+02 0.  0.
    9000005    2    3    3    0    0  0.11653624018E+02 -0.17854257550E+02 -0.11511445253E+04  0.11513698293E+04  0.80115079715E+01 0.  0.
         22    1    3    3    0    0 -0.11653624018E+02  0.17854257550E+02 -0.68247412588E+02  0.71500285247E+02  0.00000000000E+00 0.  1.
         22    1    4    4    0    0  0.86641644940E+01 -0.10210568303E+02 -0.52186263146E+03  0.52203441416E+03  0.00000000000E+00 0. -1.
         22    1    4    4    0    0  0.29894595240E+01 -0.76436892472E+01 -0.62928189384E+03  0.62933541515E+03  0.00000000000E+00 0. -1.
<mgrwt>
<rscale>  0 0.92166257E+02</rscale>
<asrwt>0</asrwt>
<pdfrwt beam="2">  1        2 0.18786563E+00 0.92166257E+02</pdfrwt>
<pdfrwt beam="1">  1       -2 0.26755303E-03 0.92166257E+02</pdfrwt>
<totfact> 0.24121434E+05</totfact>
</mgrwt>
</event>
<event>
 7    1  0.3480999E-009  0.8913861E+02  0.7818608E-02  0.1304951E+00
          2   -1    0    0  501    0  0.00000000000E+00  0.00000000000E+00  0.22189165581E+02  0.22189165727E+02  0.25500000000E-02 0. -1.
         -2   -1    0    0    0  501 -0.00000000000E+00 -0.00000000000E+00 -0.89522207188E+02  0.89522207224E+02  0.25500000000E-02 0.  1.
         23    2    1    2    0    0  0.00000000000E+00  0.00000000000E+00 -0.67333041607E+02  0.11171137295E+03  0.89138613152E+02 0.  0.
    9000005    2    3    3    0    0 -0.20365647167E+02 -0.10775002452E+02  0.13155358250E+02  0.27990152381E+02  0.89176744306E+01 0.  0.
         22    1    3    3    0    0  0.20365647167E+02  0.10775002452E+02 -0.80488399856E+02  0.83721220570E+02  0.00000000000E+00 0.  1.
         22    1    4    4    0    0 -0.71563276655E+01 -0.71659812679E-01  0.13265264097E+01  0.72785873011E+01  0.00000000000E+00 0. -1.
         22    1    4    4    0    0 -0.13209319501E+02 -0.10703342640E+02  0.11828831840E+02  0.20711565080E+02  0.00000000000E+00 0. -1.
<mgrwt>
<rscale>  0 0.89138613E+02</rscale>
<asrwt>0</asrwt>
<pdfrwt beam="1">  1        2 0.34137178E-02 0.89138613E+02</pdfrwt>
<pdfrwt beam="2">  1       -2 0.13772647E-01 0.89138613E+02</pdfrwt>
<totfact> 0.87168221E+04</totfact>
</mgrwt>
</event>
<event>
 7    1  0.3480999E-009  0.9021772E+02  0.7818608E-02  0.1302325E+00
          2   -1    0    0  501    0  0.00000000000E+00  0.00000000000E+00  0.18262189513E+03  0.18262189514E+03  0.25500000000E-02 0. -1.
         -2   -1    0    0    0  501 -0.00000000000E+00 -0.00000000000E+00 -0.11142197680E+02  0.11142197971E+02  0.25500000000E-02 0.  1.
         23    2    1    2    0    0  0.00000000000E+00  0.00000000000E+00  0.17147969745E+03  0.19376409312E+03  0.90217720790E+02 0.  0.
    9000005    2    3    3    0    0 -0.27617205248E+02 -0.30484438031E+02  0.49853008084E+02  0.65369924427E+02  0.97925286240E+01 0.  0.
         22    1    3    3    0    0  0.27617205248E+02  0.30484438031E+02  0.12162668936E+03  0.12839416869E+03  0.00000000000E+00 0.  1.
         22    1    4    4    0    0 -0.24171521082E+02 -0.24056919874E+02  0.45551955428E+02  0.56903237768E+02  0.00000000000E+00 0.  1.
         22    1    4    4    0    0 -0.34456841668E+01 -0.64275181568E+01  0.43010526561E+01  0.84666866591E+01  0.00000000000E+00 0.  1.
<mgrwt>
<rscale>  0 0.90217721E+02</rscale>
<asrwt>0</asrwt>
<pdfrwt beam="1">  1        2 0.28095673E-01 0.90217721E+02</pdfrwt>
<pdfrwt beam="2">  1       -2 0.17141845E-02 0.90217721E+02</pdfrwt>
<totfact> 0.15404321E+05</totfact>
</mgrwt>
</event>
<event>
 7    1  0.3480999E-009  0.9077540E+02  0.7818608E-02  0.1300985E+00
         -2   -1    0    0    0  501 -0.00000000000E+00  0.00000000000E+00  0.39711152782E+02  0.39711152864E+02  0.25500000000E-02 0.  1.
          2   -1    0    0  501    0  0.00000000000E+00 -0.00000000000E+00 -0.51875680795E+02  0.51875680857E+02  0.25500000000E-02 0. -1.
         23    2    1    2    0    0  0.00000000000E+00  0.00000000000E+00 -0.12164528013E+02  0.91586833721E+02  0.90775395176E+02 0.  0.
    9000005    2    3    3    0    0 -0.17766056153E+02 -0.24171639200E+01  0.34439105602E+02  0.41653136695E+02  0.15081656714E+02 0.  0.
         22    1    3    3    0    0  0.17766056153E+02  0.24171639200E+01 -0.46603633614E+02  0.49933697026E+02  0.00000000000E+00 0. -1.
         22    1    4    4    0    0 -0.37662813749E+01 -0.38159236970E+01  0.11088320172E+01  0.54750029679E+01  0.00000000000E+00 0.  1.
         22    1    4    4    0    0 -0.13999774778E+02  0.13987597770E+01  0.33330273585E+02  0.36178133727E+02  0.00000000000E+00 0.  1.
<mgrwt>
<rscale>  0 0.90775395E+02</rscale>
<asrwt>0</asrwt>
<pdfrwt beam="2">  1        2 0.79808740E-02 0.90775395E+02</pdfrwt>
<pdfrwt beam="1">  1       -2 0.61094081E-02 0.90775395E+02</pdfrwt>
<totfact> 0.10334568E+05</totfact>
</mgrwt>
</event>
<event>
 7    1  0.3480999E-009  0.9267879E+02  0.7818608E-02  0.1296491E+00
          2   -1    0    0  501    0  0.00000000000E+00  0.00000000000E+00  0.37732743874E+03  0.37732743875E+03  0.25500000000E-02 0. -1.
         -2   -1    0    0    0  501 -0.00000000000E+00 -0.00000000000E+00 -0.56909183437E+01  0.56909189150E+01  0.25500000000E-02 0.  1.
         23    2    1    2    0    0  0.00000000000E+00  0.00000000000E+00  0.37163652040E+03  0.38301835766E+03  0.92678794851E+02 0.  0.
    9000005    2    3    3    0    0  0.22223465351E+01 -0.32034459621E+02  0.32344226231E+03  0.32510607969E+03  0.69224690262E+01 0.  0.
         22    1    3    3    0    0 -0.22223465351E+01  0.32034459621E+02  0.48194258087E+02  0.57912277972E+02  0.00000000000E+00 0.  1.
         22    1    4    4    0    0 -0.16936591705E+01 -0.11249221968E+02  0.92386622641E+02  0.93084378492E+02  0.00000000000E+00 0.  1.
         22    1    4    4    0    0  0.39160057056E+01 -0.20785237653E+02  0.23105563967E+03  0.23202170120E+03  0.00000000000E+00 0.  1.
<mgrwt>
<rscale>  0 0.92678795E+02</rscale>
<asrwt>0</asrwt>
<pdfrwt beam="1">  1        2 0.58050373E-01 0.92678795E+02</pdfrwt>
<pdfrwt beam="2">  1       -2 0.87552597E-03 0.92678795E+02</pdfrwt>
<totfact> 0.18715531E+05</totfact>
</mgrwt>
</event>
<event>
 7    1  0.3480999E-009  0.8966475E+02  0.7818608E-02  0.1303666E+00
         -2   -1    0    0    0  501 -0.00000000000E+00  0.00000000000E+00  0.45292574188E+01  0.45292581367E+01  0.25500000000E-02 0. -1.
          2   -1    0    0  501    0  0.00000000000E+00 -0.00000000000E+00 -0.44376848961E+03  0.44376848961E+03  0.25500000000E-02 0.  1.
         23    2    1    2    0    0  0.00000000000E+00  0.00000000000E+00 -0.43923923219E+03  0.44829774775E+03  0.89664750852E+02 0.  0.
    9000005    2    3    3    0    0 -0.32073697605E+02 -0.18837206656E+02 -0.34123358598E+03  0.34347089469E+03  0.12179198255E+02 0.  0.
         22    1    3    3    0    0  0.32073697605E+02  0.18837206656E+02 -0.98005646210E+02  0.10482685306E+03  0.00000000000E+00 0. -1.
         22    1    4    4    0    0 -0.31762680458E+02 -0.15181909342E+02 -0.29530552693E+03  0.29739655760E+03  0.00000000000E+00 0. -1.
         22    1    4    4    0    0 -0.31101714673E+00 -0.36552973135E+01 -0.45928059052E+02  0.46074337091E+02  0.00000000000E+00 0. -1.
<mgrwt>
<rscale>  0 0.89664751E+02</rscale>
<asrwt>0</asrwt>
<pdfrwt beam="2">  1        2 0.68272041E-01 0.89664751E+02</pdfrwt>
<pdfrwt beam="1">  1       -2 0.69680924E-03 0.89664751E+02</pdfrwt>
<totfact> 0.21641792E+05</totfact>
</mgrwt>
</event>
<event>
 7    1  0.3621546E-009  0.9129929E+02  0.7818608E-02  0.1299735E+00
          2   -1    0    0  501    0  0.00000000000E+00  0.00000000000E+00  0.19737615007E+04  0.19737615007E+04  0.25500000000E-02 0. -1.
         -2   -1    0    0    0  501 -0.00000000000E+00 -0.00000000000E+00 -0.10557946724E+01  0.10557977519E+01  0.25500000000E-02 0.  1.
         23    2    1    2    0    0  0.17763568394E-14  0.00000000000E+00  0.19727057061E+04  0.19748172985E+04  0.91299286294E+02 0.  0.
    9000005    2    3    3    0    0 -0.86475745127E+01 -0.98227789791E+01  0.19310795297E+04  0.19311823803E+04  0.15032238616E+02 0.  0.
         22    1    3    3    0    0  0.86475745127E+01  0.98227789791E+01  0.41626176358E+02  0.43634918243E+02  0.00000000000E+00 0.  1.
         22    1    4    4    0    0 -0.96660149887E+01 -0.41283241784E+01  0.16928372447E+04  0.16928698745E+04  0.00000000000E+00 0.  1.
         22    1    4    4    0    0  0.10184404759E+01 -0.56944548007E+01  0.23824228500E+03  0.23831250575E+03  0.00000000000E+00 0.  1.
<mgrwt>
<rscale>  0 0.91299286E+02</rscale>
<asrwt>0</asrwt>
<pdfrwt beam="1">  1        2 0.30365228E+00 0.91299286E+02</pdfrwt>
<pdfrwt beam="2">  1       -2 0.16243197E-03 0.91299286E+02</pdfrwt>
<totfact> 0.19849980E+05</totfact>
</mgrwt>
</event>
<event>
 7    1  0.3480999E-009  0.9100086E+02  0.7818608E-02  0.1300446E+00
          2   -1    0    0  501    0  0.00000000000E+00  0.00000000000E+00  0.25122632716E+02  0.25122632845E+02  0.25500000000E-02 0. -1.
         -2   -1    0    0    0  501 -0.00000000000E+00 -0.00000000000E+00 -0.82407334942E+02  0.82407334981E+02  0.25500000000E-02 0.  1.
         23    2    1    2    0    0 -0.35527136788E-14  0.35527136788E-14 -0.57284702226E+02  0.10752996783E+03  0.91000861928E+02 0.  0.
    9000005    2    3    3    0    0  0.19239490977E+02 -0.31329248921E+02  0.14206367280E+01  0.38262394802E+02  0.10502989871E+02 0.  0.
         22    1    3    3    0    0 -0.19239490977E+02  0.31329248921E+02 -0.58705338954E+02  0.69267573024E+02  0.00000000000E+00 0.  1.
         22    1    4    4    0    0  0.14667109026E+01 -0.99554611611E+00 -0.23059578494E+01  0.29085725957E+01  0.00000000000E+00 0. -1.
         22    1    4    4    0    0  0.17772780074E+02 -0.30333702805E+02  0.37265945774E+01  0.35353822206E+02  0.00000000000E+00 0. -1.
<mgrwt>
<rscale>  0 0.91000862E+02</rscale>
<asrwt>0</asrwt>
<pdfrwt beam="1">  1        2 0.38650205E-02 0.91000862E+02</pdfrwt>
<pdfrwt beam="2">  1       -2 0.12678051E-01 0.91000862E+02</pdfrwt>
<totfact> 0.84784531E+04</totfact>
</mgrwt>
</event>
<event>
 7    1  0.3480999E-009  0.9103895E+02  0.7818608E-02  0.1300355E+00
         -2   -1    0    0    0  501 -0.00000000000E+00  0.00000000000E+00  0.71757619615E+01  0.71757624146E+01  0.25500000000E-02 0.  1.
          2   -1    0    0  501    0  0.00000000000E+00 -0.00000000000E+00 -0.28875298323E+03  0.28875298324E+03  0.25500000000E-02 0. -1.
         23    2    1    2    0    0  0.17763568394E-14 -0.35527136788E-14 -0.28157722127E+03  0.29592874565E+03  0.91038953026E+02 0.  0.
    9000005    2    3    3    0    0 -0.13486923205E+02  0.25722108894E+02 -0.25461414931E+03  0.25629881715E+03  0.41466448025E+01 0.  0.
         22    1    3    3    0    0  0.13486923205E+02 -0.25722108894E+02 -0.26963071958E+02  0.39629928500E+02  0.00000000000E+00 0.  1.
         22    1    4    4    0    0 -0.74629442800E+00  0.14962187968E+00 -0.58116317343E+01  0.58612631314E+01  0.00000000000E+00 0. -1.
         22    1    4    4    0    0 -0.12740628777E+02  0.25572487014E+02 -0.24880251757E+03  0.25043755402E+03  0.00000000000E+00 0. -1.
<mgrwt>
<rscale>  0 0.91038953E+02</rscale>
<asrwt>0</asrwt>
<pdfrwt beam="2">  1        2 0.44423527E-01 0.91038953E+02</pdfrwt>
<pdfrwt beam="1">  1       -2 0.11039636E-02 0.91038953E+02</pdfrwt>
<totfact> 0.17783730E+05</totfact>
</mgrwt>
</event>
<event>
 7    1  0.3480999E-009  0.8133549E+02  0.7818608E-02  0.1325304E+00
          2   -1    0    0  501    0  0.00000000000E+00  0.00000000000E+00  0.71089350502E+02  0.71089350548E+02  0.25500000000E-02 0. -1.
         -2   -1    0    0    0  501 -0.00000000000E+00 -0.00000000000E+00 -0.23264603694E+02  0.23264603834E+02  0.25500000000E-02 0.  1.
         23    2    1    2    0    0  0.17763568394E-14  0.17763568394E-14  0.47824746808E+02  0.94353954382E+02  0.81335492254E+02 0.  0.
    9000005    2    3    3    0    0  0.11367255964E+02  0.13218246885E+02 -0.15911602848E+02  0.28276281705E+02  0.15570242226E+02 0.  0.
         22    1    3    3    0    0 -0.11367255964E+02 -0.13218246885E+02  0.63736349656E+02  0.66077672677E+02  0.00000000000E+00 0. -1.
         22    1    4    4    0    0  0.74312492021E+01  0.16302664789E+02 -0.14585777511E+02  0.23102927294E+02  0.00000000000E+00 0. -1.
         22    1    4    4    0    0  0.39360067624E+01 -0.30844179041E+01 -0.13258253369E+01  0.51733544113E+01  0.00000000000E+00 0. -1.
<mgrwt>
<rscale>  0 0.81335492E+02</rscale>
<asrwt>0</asrwt>
<pdfrwt beam="1">  1        2 0.10936823E-01 0.81335492E+02</pdfrwt>
<pdfrwt beam="2">  1       -2 0.35791699E-02 0.81335492E+02</pdfrwt>
<totfact> 0.15239364E+05</totfact>
</mgrwt>
</event>
<event>
 7    1  0.3480999E-009  0.9035694E+02  0.7818608E-02  0.1301990E+00
          2   -1    0    0  501    0  0.00000000000E+00  0.00000000000E+00  0.10181547066E+03  0.10181547069E+03  0.25500000000E-02 0.  1.
         -2   -1    0    0    0  501 -0.00000000000E+00 -0.00000000000E+00 -0.20046992996E+02  0.20046993159E+02  0.25500000000E-02 0. -1.
         23    2    1    2    0    0  0.71054273576E-14  0.00000000000E+00  0.81768477662E+02  0.12186246385E+03  0.90356937510E+02 0.  0.
    9000005    2    3    3    0    0 -0.40009359679E+02  0.17066446220E+02  0.26309407952E+02  0.51380403283E+02  0.74664882136E+01 0.  0.
         22    1    3    3    0    0  0.40009359679E+02 -0.17066446220E+02  0.55459069710E+02  0.70482060566E+02  0.00000000000E+00 0.  1.
         22    1    4    4    0    0 -0.31739341387E+02  0.16149549384E+02  0.19327287410E+02  0.40518363437E+02  0.00000000000E+00 0.  1.
         22    1    4    4    0    0 -0.82700182916E+01  0.91689683625E+00  0.69821205412E+01  0.10862039845E+02  0.00000000000E+00 0.  1.
<mgrwt>
<rscale>  0 0.90356938E+02</rscale>
<asrwt>0</asrwt>
<pdfrwt beam="1">  1        2 0.15663918E-01 0.90356938E+02</pdfrwt>
<pdfrwt beam="2">  1       -2 0.30841528E-02 0.90356938E+02</pdfrwt>
<totfact> 0.12645159E+05</totfact>
</mgrwt>
</event>
<event>
 7    1  0.3480999E-009  0.8812399E+02  0.7818608E-02  0.1307459E+00
          2   -1    0    0  501    0  0.00000000000E+00  0.00000000000E+00  0.13631284969E+04  0.13631284969E+04  0.25500000000E-02 0. -1.
         -2   -1    0    0    0  501 -0.00000000000E+00 -0.00000000000E+00 -0.14242662359E+01  0.14242685187E+01  0.25500000000E-02 0.  1.
         23    2    1    2    0    0  0.00000000000E+00  0.00000000000E+00  0.13617042307E+04  0.13645527655E+04  0.88123991115E+02 0.  0.
    9000005    2    3    3    0    0 -0.23001818022E+02 -0.10458426316E+02  0.12390372643E+04  0.12393104126E+04  0.62043567865E+01 0.  0.
         22    1    3    3    0    0  0.23001818022E+02  0.10458426316E+02  0.12266696640E+03  0.12524235290E+03  0.00000000000E+00 0.  1.
         22    1    4    4    0    0 -0.10710134563E+02 -0.40513587509E+01  0.70646292867E+03  0.70655572326E+03  0.00000000000E+00 0.  1.
         22    1    4    4    0    0 -0.12291683459E+02 -0.64070675654E+01  0.53257433563E+03  0.53275468930E+03  0.00000000000E+00 0.  1.
<mgrwt>
<rscale>  0 0.88123991E+02</rscale>
<asrwt>0</asrwt>
<pdfrwt beam="1">  1        2 0.20971216E+00 0.88123991E+02</pdfrwt>
<pdfrwt beam="2">  1       -2 0.21911798E-03 0.88123991E+02</pdfrwt>
<totfact> 0.26590439E+05</totfact>
</mgrwt>
</event>
<event>
 7    1  0.3480999E-009  0.9228725E+02  0.7818608E-02  0.1297405E+00
         -2   -1    0    0    0  501 -0.00000000000E+00  0.00000000000E+00  0.34483706330E+01  0.34483715758E+01  0.25500000000E-02 0.  1.
          2   -1    0    0  501    0  0.00000000000E+00 -0.00000000000E+00 -0.61746085529E+03  0.61746085529E+03  0.25500000000E-02 0. -1.
         23    2    1    2    0    0  0.00000000000E+00  0.00000000000E+00 -0.61401248465E+03  0.62090922687E+03  0.92287251010E+02 0.  0.
    9000005    2    3    3    0    0 -0.80000485715E+01 -0.37479422415E+02 -0.47617269601E+03  0.47784100812E+03  0.11085338783E+02 0.  0.
         22    1    3    3    0    0  0.80000485715E+01  0.37479422415E+02 -0.13783978864E+03  0.14306821874E+03  0.00000000000E+00 0.  1.
         22    1    4    4    0    0 -0.95267007738E+01 -0.37111383945E+02 -0.45526285782E+03  0.45687228254E+03  0.00000000000E+00 0. -1.
         22    1    4    4    0    0  0.15266522022E+01 -0.36803847010E+00 -0.20909838196E+02  0.20968725584E+02  0.00000000000E+00 0. -1.
<mgrwt>
<rscale>  0 0.92287251E+02</rscale>
<asrwt>0</asrwt>
<pdfrwt beam="2">  1        2 0.94993890E-01 0.92287251E+02</pdfrwt>
<pdfrwt beam="1">  1       -2 0.53051912E-03 0.92287251E+02</pdfrwt>
<totfact> 0.22245010E+05</totfact>
</mgrwt>
</event>
<event>
 7    1  0.3480999E-009  0.9271703E+02  0.7818608E-02  0.1296402E+00
          2   -1    0    0  501    0  0.00000000000E+00  0.00000000000E+00  0.27045246235E+01  0.27045258256E+01  0.25500000000E-02 0. -1.
         -2   -1    0    0    0  501 -0.00000000000E+00 -0.00000000000E+00 -0.79463555214E+03  0.79463555215E+03  0.25500000000E-02 0.  1.
         23    2    1    2    0    0  0.00000000000E+00  0.00000000000E+00 -0.79193102752E+03  0.79734007797E+03  0.92717029684E+02 0.  0.
    9000005    2    3    3    0    0  0.83519822345E+01 -0.36468891461E+02 -0.62930731915E+03  0.63046825238E+03  0.79233626823E+01 0.  0.
         22    1    3    3    0    0 -0.83519822345E+01  0.36468891461E+02 -0.16262370837E+03  0.16687182559E+03  0.00000000000E+00 0. -1.
         22    1    4    4    0    0  0.63236174005E+00 -0.72079396298E+00 -0.49151564809E+02  0.49160916880E+02  0.00000000000E+00 0.  1.
         22    1    4    4    0    0  0.77196204944E+01 -0.35748097498E+02 -0.58015575434E+03  0.58130733550E+03  0.00000000000E+00 0.  1.
<mgrwt>
<rscale>  0 0.92717030E+02</rscale>
<asrwt>0</asrwt>
<pdfrwt beam="1">  1        2 0.41608144E-03 0.92717030E+02</pdfrwt>
<pdfrwt beam="2">  1       -2 0.12225144E+00 0.92717030E+02</pdfrwt>
<totfact> 0.22985992E+04</totfact>
</mgrwt>
</event>
<event>
 7    1  0.3480999E-009  0.9260187E+02  0.7818608E-02  0.1296670E+00
         -2   -1    0    0    0  501 -0.00000000000E+00  0.00000000000E+00  0.66402629379E+03  0.66402629379E+03  0.25500000000E-02 0.  1.
          2   -1    0    0  501    0  0.00000000000E+00 -0.00000000000E+00 -0.32284508659E+01  0.32284518730E+01  0.25500000000E-02 0. -1.
         23    2    1    2    0    0  0.00000000000E+00  0.00000000000E+00  0.66079784292E+03  0.66725474567E+03  0.92601870409E+02 0.  0.
    9000005    2    3    3    0    0 -0.38365138038E+02 -0.17955536217E+02  0.45471467103E+03  0.45686330375E+03  0.12820341609E+02 0.  0.
         22    1    3    3    0    0  0.38365138038E+02  0.17955536217E+02  0.20608317189E+03  0.21039144192E+03  0.00000000000E+00 0. -1.
         22    1    4    4    0    0 -0.18886679382E+02 -0.19134041999E+01  0.18576657837E+03  0.18673400712E+03  0.00000000000E+00 0. -1.
         22    1    4    4    0    0 -0.19478458656E+02 -0.16042132017E+02  0.26894809266E+03  0.27012929663E+03  0.00000000000E+00 0. -1.
<mgrwt>
<rscale>  0 0.92601870E+02</rscale>
<asrwt>0</asrwt>
<pdfrwt beam="2">  1        2 0.49668472E-03 0.92601870E+02</pdfrwt>
<pdfrwt beam="1">  1       -2 0.10215791E+00 0.92601870E+02</pdfrwt>
<totfact> 0.27431491E+04</totfact>
</mgrwt>
</event>
<event>
 7    1  0.3480999E-009  0.9103783E+02  0.7818608E-02  0.1300358E+00
          2   -1    0    0  501    0  0.00000000000E+00  0.00000000000E+00  0.11328092469E+03  0.11328092472E+03  0.25500000000E-02 0. -1.
         -2   -1    0    0    0  501 -0.00000000000E+00 -0.00000000000E+00 -0.18290561905E+02  0.18290562083E+02  0.25500000000E-02 0.  1.
         23    2    1    2    0    0  0.00000000000E+00  0.00000000000E+00  0.94990362788E+02  0.13157148680E+03  0.91037833440E+02 0.  0.
    9000005    2    3    3    0    0  0.24466916466E+01 -0.31612266054E+02  0.93603745377E+02  0.99834373311E+02  0.14139281482E+02 0.  0.
         22    1    3    3    0    0 -0.24466916466E+01  0.31612266054E+02  0.13866174113E+01  0.31737113494E+02  0.00000000000E+00 0.  1.
         22    1    4    4    0    0 -0.48742367690E+00 -0.18163816073E+02  0.32846214627E+02  0.37537123111E+02  0.00000000000E+00 0. -1.
         22    1    4    4    0    0  0.29341153235E+01 -0.13448449981E+02  0.60757530750E+02  0.62297250200E+02  0.00000000000E+00 0. -1.
<mgrwt>
<rscale>  0 0.91037833E+02</rscale>
<asrwt>0</asrwt>
<pdfrwt beam="1">  1        2 0.17427835E-01 0.91037833E+02</pdfrwt>
<pdfrwt beam="2">  1       -2 0.28139326E-02 0.91037833E+02</pdfrwt>
<totfact> 0.12804322E+05</totfact>
</mgrwt>
</event>
<event>
 7    1  0.3480999E-009  0.9244366E+02  0.7818608E-02  0.1297040E+00
          2   -1    0    0  501    0  0.00000000000E+00  0.00000000000E+00  0.12255041995E+03  0.12255041997E+03  0.25500000000E-02 0. -1.
         -2   -1    0    0    0  501 -0.00000000000E+00 -0.00000000000E+00 -0.17433295215E+02  0.17433295401E+02  0.25500000000E-02 0.  1.
         23    2    1    2    0    0  0.35527136788E-14  0.00000000000E+00  0.10511712473E+03  0.13998371538E+03  0.92443662077E+02 0.  0.
    9000005    2    3    3    0    0 -0.27923707149E+02  0.35439565600E+02  0.66441983396E+02  0.80557603368E+02  0.62684983808E+01 0.  0.
         22    1    3    3    0    0  0.27923707149E+02 -0.35439565600E+02  0.38675141337E+02  0.59426112008E+02  0.00000000000E+00 0.  1.
         22    1    4    4    0    0 -0.23252646955E+02  0.32656707032E+02  0.57601347082E+02  0.70178780912E+02  0.00000000000E+00 0. -1.
         22    1    4    4    0    0 -0.46710601942E+01  0.27828585683E+01  0.88406363141E+01  0.10378822457E+02  0.00000000000E+00 0. -1.
<mgrwt>
<rscale>  0 0.92443662E+02</rscale>
<asrwt>0</asrwt>
<pdfrwt beam="1">  1        2 0.18853911E-01 0.92443662E+02</pdfrwt>
<pdfrwt beam="2">  1       -2 0.26820454E-02 0.92443662E+02</pdfrwt>
<totfact> 0.12589929E+05</totfact>
</mgrwt>
</event>
<event>
 7    1  0.3480999E-009  0.9034618E+02  0.7818608E-02  0.1302016E+00
         -2   -1    0    0    0  501 -0.00000000000E+00  0.00000000000E+00  0.18286552711E+02  0.18286552889E+02  0.25500000000E-02 0.  1.
          2   -1    0    0  501    0  0.00000000000E+00 -0.00000000000E+00 -0.11159062371E+03  0.11159062374E+03  0.25500000000E-02 0. -1.
         23    2    1    2    0    0  0.00000000000E+00  0.00000000000E+00 -0.93304070999E+02  0.12987717663E+03  0.90346175038E+02 0.  0.
    9000005    2    3    3    0    0  0.20599175303E+02 -0.32043795381E+02 -0.79230882588E+02  0.89267011920E+02  0.15489861716E+02 0.  0.
         22    1    3    3    0    0 -0.20599175303E+02  0.32043795381E+02 -0.14073188411E+02  0.40610164708E+02  0.00000000000E+00 0.  1.
         22    1    4    4    0    0  0.12148954913E+02 -0.22573814139E+02 -0.66589394162E+02  0.71353497498E+02  0.00000000000E+00 0. -1.
         22    1    4    4    0    0  0.84502203901E+01 -0.94699812413E+01 -0.12641488425E+02  0.17913514422E+02  0.00000000000E+00 0. -1.
<mgrwt>
<rscale>  0 0.90346175E+02</rscale>
<asrwt>0</asrwt>
<pdfrwt beam="2">  1        2 0.17167788E-01 0.90346175E+02</pdfrwt>
<pdfrwt beam="1">  1       -2 0.28133159E-02 0.90346175E+02</pdfrwt>
<totfact> 0.13012722E+05</totfact>
</mgrwt>
</event>
<event>
 7    1  0.3480999E-009  0.9621747E+02  0.7818608E-02  0.1288457E+00
         -2   -1    0    0    0  501 -0.00000000000E+00  0.00000000000E+00  0.85080602585E+01  0.85080606407E+01  0.25500000000E-02 0.  1.
          2   -1    0    0  501    0  0.00000000000E+00 -0.00000000000E+00 -0.27203032586E+03  0.27203032587E+03  0.25500000000E-02 0. -1.
         23    2    1    2    0    0 -0.71054273576E-14  0.35527136788E-14 -0.26352226560E+03  0.28053838651E+03  0.96217471591E+02 0.  0.
    9000005    2    3    3    0    0 -0.38427716434E+02  0.23732470577E+02 -0.87324476728E+02  0.98643965614E+02  0.80714413993E+01 0.  0.
         22    1    3    3    0    0  0.38427716434E+02 -0.23732470577E+02 -0.17619778888E+03  0.18189442090E+03  0.00000000000E+00 0. -1.
         22    1    4    4    0    0 -0.31008818682E+02  0.16092241207E+02 -0.71368225968E+02  0.79460246293E+02  0.00000000000E+00 0.  1.
         22    1    4    4    0    0 -0.74188977528E+01  0.76402293701E+01 -0.15956250760E+02  0.19183719322E+02  0.00000000000E+00 0.  1.
<mgrwt>
<rscale>  0 0.96217472E+02</rscale>
<asrwt>0</asrwt>
<pdfrwt beam="2">  1        2 0.41850813E-01 0.96217472E+02</pdfrwt>
<pdfrwt beam="1">  1       -2 0.13089326E-02 0.96217472E+02</pdfrwt>
<totfact> 0.14993361E+05</totfact>
</mgrwt>
</event>
<event>
 7    1  0.3480999E-009  0.9107943E+02  0.7818608E-02  0.1300259E+00
         -2   -1    0    0    0  501 -0.00000000000E+00  0.00000000000E+00  0.66107508660E+01  0.66107513578E+01  0.25500000000E-02 0.  1.
          2   -1    0    0  501    0  0.00000000000E+00 -0.00000000000E+00 -0.31371107911E+03  0.31371107912E+03  0.25500000000E-02 0. -1.
         23    2    1    2    0    0  0.00000000000E+00  0.35527136788E-14 -0.30710032824E+03  0.32032183048E+03  0.91079434963E+02 0.  0.
    9000005    2    3    3    0    0  0.23130473646E+02 -0.20366794022E+02 -0.27059923722E+03  0.27254992707E+03  0.10473320792E+02 0.  0.
         22    1    3    3    0    0 -0.23130473646E+02  0.20366794022E+02 -0.36501091020E+02  0.47771903411E+02  0.00000000000E+00 0.  1.
         22    1    4    4    0    0  0.40421167285E+01  0.62719438735E+00 -0.41185207504E+02  0.41387841181E+02  0.00000000000E+00 0. -1.
         22    1    4    4    0    0  0.19088356918E+02 -0.20993988409E+02 -0.22941402972E+03  0.23116208588E+03  0.00000000000E+00 0. -1.
<mgrwt>
<rscale>  0 0.91079435E+02</rscale>
<asrwt>0</asrwt>
<pdfrwt beam="2">  1        2 0.48263231E-01 0.91079435E+02</pdfrwt>
<pdfrwt beam="1">  1       -2 0.10170389E-02 0.91079435E+02</pdfrwt>
<totfact> 0.18319205E+05</totfact>
</mgrwt>
</event>
<event>
 7    1  0.3480999E-009  0.8054448E+02  0.7818608E-02  0.1327513E+00
          2   -1    0    0  501    0  0.00000000000E+00  0.00000000000E+00  0.38197750677E+03  0.38197750678E+03  0.25500000000E-02 0. -1.
         -2   -1    0    0    0  501 -0.00000000000E+00 -0.00000000000E+00 -0.42459386839E+01  0.42459394497E+01  0.25500000000E-02 0.  1.
         23    2    1    2    0    0  0.35527136788E-14  0.00000000000E+00  0.37773156808E+03  0.38622344623E+03  0.80544477697E+02 0.  0.
    9000005    2    3    3    0    0  0.30179857727E+02  0.26051162420E+02  0.19809742525E+03  0.20221825025E+03  0.77552541045E+01 0.  0.
         22    1    3    3    0    0 -0.30179857727E+02 -0.26051162420E+02  0.17963414283E+03  0.18400519598E+03  0.00000000000E+00 0. -1.
         22    1    4    4    0    0  0.72437435999E+01  0.27164902727E+01  0.45424313268E+02  0.46078404667E+02  0.00000000000E+00 0.  1.
         22    1    4    4    0    0  0.22936114127E+02  0.23334672147E+02  0.15267311198E+03  0.15613984558E+03  0.00000000000E+00 0.  1.
<mgrwt>
<rscale>  0 0.80544478E+02</rscale>
<asrwt>0</asrwt>
<pdfrwt beam="1">  1        2 0.58765813E-01 0.80544478E+02</pdfrwt>
<pdfrwt beam="2">  1       -2 0.65322092E-03 0.80544478E+02</pdfrwt>
<totfact> 0.27232663E+05</totfact>
</mgrwt>
</event>
<event>
 7    1  0.3480999E-009  0.9156033E+02  0.7818608E-02  0.1299117E+00
          2   -1    0    0  501    0  0.00000000000E+00  0.00000000000E+00  0.28102252342E+03  0.28102252343E+03  0.25500000000E-02 0. -1.
         -2   -1    0    0    0  501 -0.00000000000E+00 -0.00000000000E+00 -0.74578489248E+01  0.74578493607E+01  0.25500000000E-02 0.  1.
         23    2    1    2    0    0  0.88817841970E-15  0.00000000000E+00  0.27356467450E+03  0.28848037279E+03  0.91560331775E+02 0.  0.
    9000005    2    3    3    0    0  0.48753795491E+01  0.37852682605E+02  0.59045022107E+02  0.70592153361E+02  0.63515804609E+01 0.  0.
         22    1    3    3    0    0 -0.48753795491E+01 -0.37852682605E+02  0.21451965239E+03  0.21788821943E+03  0.00000000000E+00 0. -1.
         22    1    4    4    0    0  0.11270190648E+01  0.28095972457E+02  0.45429863263E+02  0.53427767278E+02  0.00000000000E+00 0. -1.
         22    1    4    4    0    0  0.37483604843E+01  0.97567101488E+01  0.13615158845E+02  0.17164386083E+02  0.00000000000E+00 0. -1.
<mgrwt>
<rscale>  0 0.91560332E+02</rscale>
<asrwt>0</asrwt>
<pdfrwt beam="1">  1        2 0.43234225E-01 0.91560332E+02</pdfrwt>
<pdfrwt beam="2">  1       -2 0.11473617E-02 0.91560332E+02</pdfrwt>
<totfact> 0.17337853E+05</totfact>
</mgrwt>
</event>
<event>
 7    1  0.3480999E-009  0.9084880E+02  0.7818608E-02  0.1300809E+00
         -2   -1    0    0    0  501 -0.00000000000E+00  0.00000000000E+00  0.11112409000E+01  0.11112438258E+01  0.25500000000E-02 0.  1.
          2   -1    0    0  501    0  0.00000000000E+00 -0.00000000000E+00 -0.18568191251E+04  0.18568191251E+04  0.25500000000E-02 0. -1.
         23    2    1    2    0    0  0.00000000000E+00  0.00000000000E+00 -0.18557078842E+04  0.18579303689E+04  0.90848799119E+02 0.  0.
    9000005    2    3    3    0    0  0.20469707123E+01  0.14613266598E+02 -0.18062453945E+04  0.18063137482E+04  0.54031530713E+01 0.  0.
         22    1    3    3    0    0 -0.20469707123E+01 -0.14613266598E+02 -0.49462489635E+02  0.51616620682E+02  0.00000000000E+00 0.  1.
         22    1    4    4    0    0  0.21300972598E+01  0.12492365389E+02 -0.16995354811E+04  0.16995827276E+04  0.00000000000E+00 0. -1.
         22    1    4    4    0    0 -0.83126547567E-01  0.21209012094E+01 -0.10670991347E+03  0.10673102063E+03  0.00000000000E+00 0. -1.
<mgrwt>
<rscale>  0 0.90848799E+02</rscale>
<asrwt>0</asrwt>
<pdfrwt beam="2">  1        2 0.28566200E+00 0.90848799E+02</pdfrwt>
<pdfrwt beam="1">  1       -2 0.17096185E-03 0.90848799E+02</pdfrwt>
<totfact> 0.21154859E+05</totfact>
</mgrwt>
</event>
<event>
 7    1  0.3480999E-009  0.9150313E+02  0.7818608E-02  0.1299252E+00
         -2   -1    0    0    0  501 -0.00000000000E+00  0.00000000000E+00  0.44803722751E+01  0.44803730008E+01  0.25500000000E-02 0. -1.
          2   -1    0    0  501    0  0.00000000000E+00 -0.00000000000E+00 -0.46719453967E+03  0.46719453968E+03  0.25500000000E-02 0.  1.
         23    2    1    2    0    0  0.00000000000E+00  0.00000000000E+00 -0.46271416739E+03  0.47167491268E+03  0.91503128589E+02 0.  0.
    9000005    2    3    3    0    0 -0.36914605680E+02  0.92557194144E+01 -0.35775833948E+03  0.36003225834E+03  0.13558802420E+02 0.  0.
         22    1    3    3    0    0  0.36914605680E+02 -0.92557194144E+01 -0.10495582792E+03  0.11164265434E+03  0.00000000000E+00 0. -1.
         22    1    4    4    0    0 -0.25166454430E+02  0.24551353883E+01 -0.18164150457E+03  0.18339305957E+03  0.00000000000E+00 0. -1.
         22    1    4    4    0    0 -0.11748151250E+02  0.68005840261E+01 -0.17611683491E+03  0.17663919877E+03  0.00000000000E+00 0. -1.
<mgrwt>
<rscale>  0 0.91503129E+02</rscale>
<asrwt>0</asrwt>
<pdfrwt beam="2">  1        2 0.71876044E-01 0.91503129E+02</pdfrwt>
<pdfrwt beam="1">  1       -2 0.68928847E-03 0.91503129E+02</pdfrwt>
<totfact> 0.20872280E+05</totfact>
</mgrwt>
</event>
<event>
 7    1  0.3480999E-009  0.9323773E+02  0.7818608E-02  0.1295195E+00
         -2   -1    0    0    0  501 -0.00000000000E+00  0.00000000000E+00  0.90231370668E+01  0.90231374271E+01  0.25500000000E-02 0.  1.
          2   -1    0    0  501    0  0.00000000000E+00 -0.00000000000E+00 -0.24086062138E+03  0.24086062140E+03  0.25500000000E-02 0. -1.
         23    2    1    2    0    0  0.00000000000E+00  0.00000000000E+00 -0.23183748432E+03  0.24988375882E+03  0.93237727287E+02 0.  0.
    9000005    2    3    3    0    0 -0.29739646330E+01 -0.43453507094E+02 -0.15302490777E+03  0.15983669354E+03  0.15300145729E+02 0.  0.
         22    1    3    3    0    0  0.29739646330E+01  0.43453507094E+02 -0.78812576548E+02  0.90047065285E+02  0.00000000000E+00 0.  1.
         22    1    4    4    0    0  0.52424556629E+01 -0.79961073592E+01 -0.38369871883E+02  0.39543243957E+02  0.00000000000E+00 0.  1.
         22    1    4    4    0    0 -0.82164202958E+01 -0.35457399735E+02 -0.11465503588E+03  0.12029344958E+03  0.00000000000E+00 0.  1.
<mgrwt>
<rscale>  0 0.93237727E+02</rscale>
<asrwt>0</asrwt>
<pdfrwt beam="2">  1        2 0.37055475E-01 0.93237727E+02</pdfrwt>
<pdfrwt beam="1">  1       -2 0.13881751E-02 0.93237727E+02</pdfrwt>
<totfact> 0.15591961E+05</totfact>
</mgrwt>
</event>
<event>
 7    1  0.3480999E-009  0.9548026E+02  0.7818608E-02  0.1290098E+00
         -2   -1    0    0    0  501 -0.00000000000E+00  0.00000000000E+00  0.21474035700E+01  0.21474050841E+01  0.25500000000E-02 0.  1.
          2   -1    0    0  501    0  0.00000000000E+00 -0.00000000000E+00 -0.10613371076E+04  0.10613371077E+04  0.25500000000E-02 0. -1.
         23    2    1    2    0    0  0.35527136788E-14  0.00000000000E+00 -0.10591897041E+04  0.10634845127E+04  0.95480257659E+02 0.  0.
    9000005    2    3    3    0    0 -0.26711468371E+02 -0.17310131057E+02 -0.92582441051E+03  0.92637344569E+03  0.19438596866E+01 0.  0.
         22    1    3    3    0    0  0.26711468371E+02  0.17310131057E+02 -0.13336529357E+03  0.13711106705E+03  0.00000000000E+00 0.  1.
         22    1    4    4    0    0 -0.16731573303E+02 -0.11854725190E+02 -0.60652226637E+03  0.60686879937E+03  0.00000000000E+00 0.  1.
         22    1    4    4    0    0 -0.99798950678E+01 -0.54554058672E+01 -0.31930214414E+03  0.31950464631E+03  0.00000000000E+00 0.  1.
<mgrwt>
<rscale>  0 0.95480258E+02</rscale>
<asrwt>0</asrwt>
<pdfrwt beam="2">  1        2 0.16328221E+00 0.95480258E+02</pdfrwt>
<pdfrwt beam="1">  1       -2 0.33037074E-03 0.95480258E+02</pdfrwt>
<totfact> 0.22164952E+05</totfact>
</mgrwt>
</event>
<event>
 7    1  0.4000449E-009  0.9063358E+02  0.7818608E-02  0.1301325E+00
         -2   -1    0    0    0  501 -0.00000000000E+00  0.00000000000E+00  0.50482275762E+01  0.50482282202E+01  0.25500000000E-02 0.  1.
          2   -1    0    0  501    0  0.00000000000E+00 -0.00000000000E+00 -0.40679848706E+03  0.40679848707E+03  0.25500000000E-02 0. -1.
         23    2    1    2    0    0 -0.88817841970E-15  0.00000000000E+00 -0.40175025948E+03  0.41184671529E+03  0.90633580413E+02 0.  0.
    9000005    2    3    3    0    0 -0.44112920443E+01  0.25231171749E+02 -0.36963616649E+03  0.37076890505E+03  0.13513469111E+02 0.  0.
         22    1    3    3    0    0  0.44112920443E+01 -0.25231171749E+02 -0.32114092993E+02  0.41077810240E+02  0.00000000000E+00 0.  1.
         22    1    4    4    0    0 -0.58021108304E+01  0.25839486060E+02 -0.36284389618E+03  0.36380906603E+03  0.00000000000E+00 0.  1.
         22    1    4    4    0    0  0.13908187861E+01 -0.60831431109E+00 -0.67922703073E+01  0.69598390156E+01  0.00000000000E+00 0.  1.
<mgrwt>
<rscale>  0 0.90633580E+02</rscale>
<asrwt>0</asrwt>
<pdfrwt beam="2">  1        2 0.62584357E-01 0.90633580E+02</pdfrwt>
<pdfrwt beam="1">  1       -2 0.77665077E-03 0.90633580E+02</pdfrwt>
<totfact> 0.20403730E+05</totfact>
</mgrwt>
</event>
<event>
 7    1  0.3480999E-009  0.8386343E+02  0.7818608E-02  0.1318432E+00
         -2   -1    0    0    0  501 -0.00000000000E+00  0.00000000000E+00  0.50443672778E+02  0.50443672843E+02  0.25500000000E-02 0.  1.
          2   -1    0    0  501    0  0.00000000000E+00 -0.00000000000E+00 -0.34856080902E+02  0.34856080995E+02  0.25500000000E-02 0. -1.
         23    2    1    2    0    0  0.00000000000E+00  0.00000000000E+00  0.15587591876E+02  0.85299753838E+02  0.83863430554E+02 0.  0.
    9000005    2    3    3    0    0  0.15772696008E+02 -0.76935270785E+01 -0.29191011622E+02  0.37205142606E+02  0.14971278454E+02 0.  0.
         22    1    3    3    0    0 -0.15772696008E+02  0.76935270785E+01  0.44778603498E+02  0.48094611232E+02  0.00000000000E+00 0.  1.
         22    1    4    4    0    0  0.58970609046E+01 -0.10082149065E+02 -0.21479072697E+02  0.24449450321E+02  0.00000000000E+00 0.  1.
         22    1    4    4    0    0  0.98756351032E+01  0.23886219865E+01 -0.77119389256E+01  0.12755692285E+02  0.00000000000E+00 0.  1.
<mgrwt>
<rscale>  0 0.83863431E+02</rscale>
<asrwt>0</asrwt>
<pdfrwt beam="2">  1        2 0.53624740E-02 0.83863431E+02</pdfrwt>
<pdfrwt beam="1">  1       -2 0.77605650E-02 0.83863431E+02</pdfrwt>
<totfact> 0.11728049E+05</totfact>
</mgrwt>
</event>
<event>
 7    1  0.3480999E-009  0.8100265E+02  0.7818608E-02  0.1326230E+00
         -2   -1    0    0    0  501 -0.00000000000E+00  0.00000000000E+00  0.95284903469E+01  0.95284906881E+01  0.25500000000E-02 0. -1.
          2   -1    0    0  501    0  0.00000000000E+00 -0.00000000000E+00 -0.17215292125E+03  0.17215292127E+03  0.25500000000E-02 0.  1.
         23    2    1    2    0    0  0.00000000000E+00  0.00000000000E+00 -0.16262443090E+03  0.18168141195E+03  0.81002653808E+02 0.  0.
    9000005    2    3    3    0    0  0.20076227212E+02  0.14455226956E+02 -0.15294457791E+03  0.15511624605E+03  0.75496617530E+01 0.  0.
         22    1    3    3    0    0 -0.20076227212E+02 -0.14455226956E+02 -0.96798529913E+01  0.26565165901E+02  0.00000000000E+00 0. -1.
         22    1    4    4    0    0  0.17266345467E+02  0.14947402668E+02 -0.12944180102E+03  0.13144098061E+03  0.00000000000E+00 0.  1.
         22    1    4    4    0    0  0.28098817441E+01 -0.49217571168E+00 -0.23502776891E+02  0.23675265446E+02  0.00000000000E+00 0.  1.
<mgrwt>
<rscale>  0 0.81002654E+02</rscale>
<asrwt>0</asrwt>
<pdfrwt beam="2">  1        2 0.26485063E-01 0.81002654E+02</pdfrwt>
<pdfrwt beam="1">  1       -2 0.14659217E-02 0.81002654E+02</pdfrwt>
<totfact> 0.20138217E+05</totfact>
</mgrwt>
</event>
<event>
 7    1  0.3480999E-009  0.8462806E+02  0.7818608E-02  0.1316408E+00
         -2   -1    0    0    0  501 -0.00000000000E+00  0.00000000000E+00  0.94800029437E+00  0.94800372395E+00  0.25500000000E-02 0.  1.
          2   -1    0    0  501    0  0.00000000000E+00 -0.00000000000E+00 -0.18886851716E+04  0.18886851716E+04  0.25500000000E-02 0. -1.
         23    2    1    2    0    0  0.17763568394E-14  0.00000000000E+00 -0.18877371713E+04  0.18896331753E+04  0.84628064862E+02 0.  0.
    9000005    2    3    3    0    0  0.15336377582E+02 -0.96040181657E+01 -0.17948716990E+04  0.17950211381E+04  0.14457824722E+02 0.  0.
         22    1    3    3    0    0 -0.15336377582E+02  0.96040181657E+01 -0.92865472286E+02  0.94612037211E+02  0.00000000000E+00 0.  1.
         22    1    4    4    0    0  0.73802521080E+01 -0.79138834516E+00 -0.26656161579E+03  0.26666493851E+03  0.00000000000E+00 0.  1.
         22    1    4    4    0    0  0.79561254738E+01 -0.88126298205E+01 -0.15283100832E+04  0.15283561996E+04  0.00000000000E+00 0.  1.
<mgrwt>
<rscale>  0 0.84628065E+02</rscale>
<asrwt>0</asrwt>
<pdfrwt beam="2">  1        2 0.29056394E+00 0.84628065E+02</pdfrwt>
<pdfrwt beam="1">  1       -2 0.14584798E-03 0.84628065E+02</pdfrwt>
<totfact> 0.25162490E+05</totfact>
</mgrwt>
</event>
<event>
 7    1  0.3480999E-009  0.9469324E+02  0.7818608E-02  0.1291868E+00
          2   -1    0    0  501    0  0.00000000000E+00  0.00000000000E+00  0.62348896425E+01  0.62348901639E+01  0.25500000000E-02 0. -1.
         -2   -1    0    0    0  501 -0.00000000000E+00 -0.00000000000E+00 -0.35954165244E+03  0.35954165244E+03  0.25500000000E-02 0.  1.
         23    2    1    2    0    0  0.00000000000E+00  0.00000000000E+00 -0.35330676279E+03  0.36577654261E+03  0.94693244148E+02 0.  0.
    9000005    2    3    3    0    0 -0.46488044747E+01 -0.10834463476E+02 -0.35362672981E+03  0.35398250340E+03  0.10618460174E+02 0.  0.
         22    1    3    3    0    0  0.46488044747E+01  0.10834463476E+02  0.31996701991E+00  0.11794039204E+02  0.00000000000E+00 0. -1.
         22    1    4    4    0    0  0.32008776063E+01 -0.30906721248E+01 -0.14084429186E+03  0.14091455717E+03  0.00000000000E+00 0. -1.
         22    1    4    4    0    0 -0.78496820810E+01 -0.77437913509E+01 -0.21278243795E+03  0.21306794624E+03  0.00000000000E+00 0. -1.
<mgrwt>
<rscale>  0 0.94693244E+02</rscale>
<asrwt>0</asrwt>
<pdfrwt beam="1">  1        2 0.95921411E-03 0.94693244E+02</pdfrwt>
<pdfrwt beam="2">  1       -2 0.55314084E-01 0.94693244E+02</pdfrwt>
<totfact> 0.41509936E+04</totfact>
</mgrwt>
</event>
<event>
 7    1  0.3480999E-009  0.9061725E+02  0.7818608E-02  0.1301364E+00
          2   -1    0    0  501    0  0.00000000000E+00  0.00000000000E+00  0.10747080115E+03  0.10747080118E+03  0.25500000000E-02 0. -1.
         -2   -1    0    0    0  501 -0.00000000000E+00 -0.00000000000E+00 -0.19101665881E+02  0.19101666051E+02  0.25500000000E-02 0.  1.
         23    2    1    2    0    0 -0.35527136788E-14  0.00000000000E+00  0.88369135264E+02  0.12657246723E+03  0.90617246661E+02 0.  0.
    9000005    2    3    3    0    0  0.24014975424E+02  0.37220996165E+02  0.51686093779E+02  0.69059276282E+02  0.11645159950E+02 0.  0.
         22    1    3    3    0    0 -0.24014975424E+02 -0.37220996165E+02  0.36683041485E+02  0.57513190945E+02  0.00000000000E+00 0. -1.
         22    1    4    4    0    0  0.22851978298E+02  0.26884897835E+02  0.41900870972E+02  0.54778587349E+02  0.00000000000E+00 0.  1.
         22    1    4    4    0    0  0.11629971256E+01  0.10336098330E+02  0.97852228076E+01  0.14280688933E+02  0.00000000000E+00 0.  1.
<mgrwt>
<rscale>  0 0.90617247E+02</rscale>
<asrwt>0</asrwt>
<pdfrwt beam="1">  1        2 0.16533969E-01 0.90617247E+02</pdfrwt>
<pdfrwt beam="2">  1       -2 0.29387179E-02 0.90617247E+02</pdfrwt>
<totfact> 0.12756124E+05</totfact>
</mgrwt>
</event>
<event>
 7    1  0.3480999E-009  0.9114880E+02  0.7818608E-02  0.1300093E+00
          2   -1    0    0  501    0  0.00000000000E+00  0.00000000000E+00  0.18877579178E+02  0.18877579351E+02  0.25500000000E-02 0. -1.
         -2   -1    0    0    0  501 -0.00000000000E+00 -0.00000000000E+00 -0.11002607150E+03  0.11002607153E+03  0.25500000000E-02 0.  1.
         23    2    1    2    0    0  0.00000000000E+00  0.00000000000E+00 -0.91148492322E+02  0.12890365088E+03  0.91148798992E+02 0.  0.
    9000005    2    3    3    0    0 -0.68671062587E+01  0.16301366992E+02 -0.10474879659E+03  0.10659087449E+03  0.87414198993E+01 0.  0.
         22    1    3    3    0    0  0.68671062587E+01 -0.16301366992E+02  0.13600304271E+02  0.22312776395E+02  0.00000000000E+00 0. -1.
         22    1    4    4    0    0 -0.59095608828E+01  0.51919368369E+01 -0.29964060438E+02  0.30979413098E+02  0.00000000000E+00 0.  1.
         22    1    4    4    0    0 -0.95754537589E+00  0.11109430155E+02 -0.74784736155E+02  0.75611461388E+02  0.00000000000E+00 0.  1.
<mgrwt>
<rscale>  0 0.91148799E+02</rscale>
<asrwt>0</asrwt>
<pdfrwt beam="1">  1        2 0.29042430E-02 0.91148799E+02</pdfrwt>
<pdfrwt beam="2">  1       -2 0.16927088E-01 0.91148799E+02</pdfrwt>
<totfact> 0.77579003E+04</totfact>
</mgrwt>
</event>
<event>
 7    1  0.3480999E-009  0.8071347E+02  0.7818608E-02  0.1327039E+00
         -2   -1    0    0    0  501 -0.00000000000E+00  0.00000000000E+00  0.44148931358E+01  0.44148938723E+01  0.25500000000E-02 0.  1.
          2   -1    0    0  501    0  0.00000000000E+00 -0.00000000000E+00 -0.36890270240E+03  0.36890270241E+03  0.25500000000E-02 0. -1.
         23    2    1    2    0    0 -0.88817841970E-15  0.00000000000E+00 -0.36448780927E+03  0.37331759628E+03  0.80713472177E+02 0.  0.
    9000005    2    3    3    0    0  0.45942133082E+01 -0.18623489837E+02 -0.34590025077E+03  0.34660732671E+03  0.11032419505E+02 0.  0.
         22    1    3    3    0    0 -0.45942133082E+01  0.18623489837E+02 -0.18587558501E+02  0.26710269573E+02  0.00000000000E+00 0.  1.
         22    1    4    4    0    0  0.53879367140E+01 -0.10643874893E+02 -0.12669041019E+03  0.12725086235E+03  0.00000000000E+00 0. -1.
         22    1    4    4    0    0 -0.79372340575E+00 -0.79796149439E+01 -0.21920984058E+03  0.21935646436E+03  0.00000000000E+00 0. -1.
<mgrwt>
<rscale>  0 0.80713472E+02</rscale>
<asrwt>0</asrwt>
<pdfrwt beam="2">  1        2 0.56754238E-01 0.80713472E+02</pdfrwt>
<pdfrwt beam="1">  1       -2 0.67921468E-03 0.80713472E+02</pdfrwt>
<totfact> 0.26747851E+05</totfact>
</mgrwt>
</event>
<event>
 7    1  0.3480999E-009  0.9206029E+02  0.7818608E-02  0.1297938E+00
         -2   -1    0    0    0  501 -0.00000000000E+00  0.00000000000E+00  0.54248648094E+02  0.54248648154E+02  0.25500000000E-02 0.  1.
          2   -1    0    0  501    0  0.00000000000E+00 -0.00000000000E+00 -0.39056719648E+02  0.39056719732E+02  0.25500000000E-02 0. -1.
         23    2    1    2    0    0 -0.71054273576E-14  0.00000000000E+00  0.15191928445E+02  0.93305367885E+02  0.92060289954E+02 0.  0.
    9000005    2    3    3    0    0 -0.33632580625E+02  0.23047112407E+02  0.26332699191E+02  0.51039108971E+02  0.15787961493E+02 0.  0.
         22    1    3    3    0    0  0.33632580625E+02 -0.23047112407E+02 -0.11140770745E+02  0.42266258914E+02  0.00000000000E+00 0. -1.
         22    1    4    4    0    0 -0.17766754773E+02  0.29565123756E+01  0.12673410537E+02  0.22023030564E+02  0.00000000000E+00 0.  1.
         22    1    4    4    0    0 -0.15865825852E+02  0.20090600031E+02  0.13659288654E+02  0.29016078407E+02  0.00000000000E+00 0.  1.
<mgrwt>
<rscale>  0 0.92060290E+02</rscale>
<asrwt>0</asrwt>
<pdfrwt beam="2">  1        2 0.60087261E-02 0.92060290E+02</pdfrwt>
<pdfrwt beam="1">  1       -2 0.83459459E-02 0.92060290E+02</pdfrwt>
<totfact> 0.92179695E+04</totfact>
</mgrwt>
</event>
<event>
 7    1  0.3480999E-009  0.9115374E+02  0.7818608E-02  0.1300082E+00
          2   -1    0    0  501    0  0.00000000000E+00  0.00000000000E+00  0.47738544398E+02  0.47738544466E+02  0.25500000000E-02 0. -1.
         -2   -1    0    0    0  501 -0.00000000000E+00 -0.00000000000E+00 -0.43513082308E+02  0.43513082382E+02  0.25500000000E-02 0.  1.
         23    2    1    2    0    0  0.00000000000E+00  0.00000000000E+00  0.42254620904E+01  0.91251626848E+02  0.91153743053E+02 0.  0.
    9000005    2    3    3    0    0 -0.31334584790E+01  0.36547423919E+02  0.27202277622E+02  0.47968064043E+02  0.14677823511E+02 0.  0.
         22    1    3    3    0    0  0.31334584790E+01 -0.36547423919E+02 -0.22976815532E+02  0.43283562806E+02  0.00000000000E+00 0.  1.
         22    1    4    4    0    0 -0.82971892920E+01  0.27082447208E+02  0.22637682071E+02  0.36259715201E+02  0.00000000000E+00 0.  1.
         22    1    4    4    0    0  0.51637308129E+01  0.94649767113E+01  0.45645955508E+01  0.11708348842E+02  0.00000000000E+00 0.  1.
<mgrwt>
<rscale>  0 0.91153743E+02</rscale>
<asrwt>0</asrwt>
<pdfrwt beam="1">  1        2 0.73443915E-02 0.91153743E+02</pdfrwt>
<pdfrwt beam="2">  1       -2 0.66943204E-02 0.91153743E+02</pdfrwt>
<totfact> 0.99936327E+04</totfact>
</mgrwt>
</event>
<event>
 7    1  0.3480999E-009  0.1217151E+03  0.7818608E-02  0.1240294E+00
          2   -1    0    0  501    0  0.00000000000E+00  0.00000000000E+00  0.18961941501E+03  0.18961941503E+03  0.25500000000E-02 0. -1.
         -2   -1    0    0    0  501 -0.00000000000E+00 -0.00000000000E+00 -0.19531972808E+02  0.19531972974E+02  0.25500000000E-02 0.  1.
         23    2    1    2    0    0 -0.35527136788E-14  0.44408920985E-15  0.17008744220E+03  0.20915138800E+03  0.12171509811E+03 0.  0.
    9000005    2    3    3    0    0 -0.17492507386E+02  0.25010403841E+01  0.18504314237E+03  0.18600152871E+03  0.65849166961E+01 0.  0.
         22    1    3    3    0    0  0.17492507386E+02 -0.25010403841E+01 -0.14955700166E+02  0.23149859289E+02  0.00000000000E+00 0.  1.
         22    1    4    4    0    0 -0.16350152529E+02  0.23152440414E+01  0.18196907995E+03  0.18271681340E+03  0.00000000000E+00 0. -1.
         22    1    4    4    0    0 -0.11423548575E+01  0.18579634263E+00  0.30740624200E+01  0.32847153094E+01  0.00000000000E+00 0. -1.
<mgrwt>
<rscale>  0 0.12171510E+03</rscale>
<asrwt>0</asrwt>
<pdfrwt beam="1">  1        2 0.29172218E-01 0.12171510E+03</pdfrwt>
<pdfrwt beam="2">  1       -2 0.30049188E-02 0.12171510E+03</pdfrwt>
<totfact> 0.68614191E+04</totfact>
</mgrwt>
</event>
<event>
 7    1  0.3480999E-009  0.8929773E+02  0.7818608E-02  0.1304561E+00
          2   -1    0    0  501    0  0.00000000000E+00  0.00000000000E+00  0.37983386124E+01  0.37983394684E+01  0.25500000000E-02 0.  1.
         -2   -1    0    0    0  501 -0.00000000000E+00 -0.00000000000E+00 -0.52484021023E+03  0.52484021024E+03  0.25500000000E-02 0. -1.
         23    2    1    2    0    0  0.00000000000E+00  0.88817841970E-15 -0.52104187162E+03  0.52863854971E+03  0.89297728163E+02 0.  0.
    9000005    2    3    3    0    0 -0.43142742989E+02 -0.69234584962E+01 -0.29005317904E+03  0.29355344459E+03  0.11556279966E+02 0.  0.
         22    1    3    3    0    0  0.43142742989E+02  0.69234584962E+01 -0.23098869258E+03  0.23508510512E+03  0.00000000000E+00 0.  1.
         22    1    4    4    0    0 -0.29977719978E+02  0.63857411821E+00 -0.18741553040E+03  0.18979897921E+03  0.00000000000E+00 0.  1.
         22    1    4    4    0    0 -0.13165023011E+02 -0.75620326144E+01 -0.10263764864E+03  0.10375446538E+03  0.00000000000E+00 0.  1.
<mgrwt>
<rscale>  0 0.89297728E+02</rscale>
<asrwt>0</asrwt>
<pdfrwt beam="1">  1        2 0.58436027E-03 0.89297728E+02</pdfrwt>
<pdfrwt beam="2">  1       -2 0.80744590E-01 0.89297728E+02</pdfrwt>
<totfact> 0.36876488E+04</totfact>
</mgrwt>
</event>
<event>
 7    1  0.3480999E-009  0.9079663E+02  0.7818608E-02  0.1300934E+00
         -2   -1    0    0    0  501 -0.00000000000E+00  0.00000000000E+00  0.30841990815E+02  0.30841990920E+02  0.25500000000E-02 0.  1.
          2   -1    0    0  501    0  0.00000000000E+00 -0.00000000000E+00 -0.66824712919E+02  0.66824712968E+02  0.25500000000E-02 0. -1.
         23    2    1    2    0    0  0.00000000000E+00 -0.71054273576E-14 -0.35982722104E+02  0.97666703888E+02  0.90796634069E+02 0.  0.
    9000005    2    3    3    0    0  0.88580787173E+01  0.34903011023E+02  0.10743673507E+02  0.38674824922E+02  0.91449344053E+01 0.  0.
         22    1    3    3    0    0 -0.88580787173E+01 -0.34903011023E+02 -0.46726395611E+02  0.58991878966E+02  0.00000000000E+00 0. -1.
         22    1    4    4    0    0  0.54764805501E+01  0.72196369381E+01  0.43992142198E+01  0.10073136676E+02  0.00000000000E+00 0.  1.
         22    1    4    4    0    0  0.33815981672E+01  0.27683374085E+02  0.63444592874E+01  0.28601688247E+02  0.00000000000E+00 0.  1.
<mgrwt>
<rscale>  0 0.90796634E+02</rscale>
<asrwt>0</asrwt>
<pdfrwt beam="2">  1        2 0.10280725E-01 0.90796634E+02</pdfrwt>
<pdfrwt beam="1">  1       -2 0.47449217E-02 0.90796634E+02</pdfrwt>
<totfact> 0.11049987E+05</totfact>
</mgrwt>
</event>
<event>
 7    1  0.3480999E-009  0.9102082E+02  0.7818608E-02  0.1300398E+00
          2   -1    0    0  501    0  0.00000000000E+00  0.00000000000E+00  0.26361247479E+02  0.26361247602E+02  0.25500000000E-02 0.  1.
         -2   -1    0    0    0  501 -0.00000000000E+00 -0.00000000000E+00 -0.78569786910E+02  0.78569786951E+02  0.25500000000E-02 0. -1.
         23    2    1    2    0    0  0.17763568394E-14  0.00000000000E+00 -0.52208539432E+02  0.10493103455E+03  0.91020824117E+02 0.  0.
    9000005    2    3    3    0    0  0.14280881446E+02 -0.19865940106E+02  0.17250178404E+02  0.31289248626E+02  0.91021576238E+01 0.  0.
         22    1    3    3    0    0 -0.14280881446E+02  0.19865940106E+02 -0.69458717836E+02  0.73641785927E+02  0.00000000000E+00 0. -1.
         22    1    4    4    0    0  0.20007716012E+01 -0.73651200760E+01  0.93441241600E+01  0.12064855451E+02  0.00000000000E+00 0. -1.
         22    1    4    4    0    0  0.12280109845E+02 -0.12500820030E+02  0.79060542444E+01  0.19224393175E+02  0.00000000000E+00 0. -1.
<mgrwt>
<rscale>  0 0.91020824E+02</rscale>
<asrwt>0</asrwt>
<pdfrwt beam="1">  1        2 0.40555766E-02 0.91020824E+02</pdfrwt>
<pdfrwt beam="2">  1       -2 0.12087659E-01 0.91020824E+02</pdfrwt>
<totfact> 0.85863107E+04</totfact>
</mgrwt>
</event>
<event>
 7    1  0.3480999E-009  0.8955672E+02  0.7818608E-02  0.1303929E+00
          2   -1    0    0  501    0  0.00000000000E+00  0.00000000000E+00  0.95652285704E+02  0.95652285738E+02  0.25500000000E-02 0. -1.
         -2   -1    0    0    0  501 -0.00000000000E+00 -0.00000000000E+00 -0.20962400991E+02  0.20962401146E+02  0.25500000000E-02 0.  1.
         23    2    1    2    0    0  0.00000000000E+00  0.35527136788E-14  0.74689884713E+02  0.11661468688E+03  0.89556721237E+02 0.  0.
    9000005    2    3    3    0    0  0.60790240614E+01 -0.27186687201E+02 -0.60989524601E+01  0.31157640912E+02  0.12551130293E+02 0.  0.
         22    1    3    3    0    0 -0.60790240614E+01  0.27186687201E+02  0.80788837173E+02  0.85457045972E+02  0.00000000000E+00 0. -1.
         22    1    4    4    0    0  0.89217583553E+01 -0.11209760453E+02 -0.27957425625E+01  0.14597009215E+02  0.00000000000E+00 0.  1.
         22    1    4    4    0    0 -0.28427342939E+01 -0.15976926748E+02 -0.33032098977E+01  0.16560631697E+02  0.00000000000E+00 0.  1.
<mgrwt>
<rscale>  0 0.89556721E+02</rscale>
<asrwt>0</asrwt>
<pdfrwt beam="1">  1        2 0.14715736E-01 0.89556721E+02</pdfrwt>
<pdfrwt beam="2">  1       -2 0.32249848E-02 0.89556721E+02</pdfrwt>
<totfact> 0.12715902E+05</totfact>
</mgrwt>
</event>
<event>
 7    1  0.3480999E-009  0.8977131E+02  0.7818608E-02  0.1303406E+00
          2   -1    0    0  501    0  0.00000000000E+00  0.00000000000E+00  0.23948082844E+02  0.23948082980E+02  0.25500000000E-02 0. -1.
         -2   -1    0    0    0  501 -0.00000000000E+00 -0.00000000000E+00 -0.84128732263E+02  0.84128732301E+02  0.25500000000E-02 0.  1.
         23    2    1    2    0    0  0.71054273576E-14  0.00000000000E+00 -0.60180649419E+02  0.10807681528E+03  0.89771306312E+02 0.  0.
    9000005    2    3    3    0    0 -0.35656383330E+02 -0.21516025738E+02 -0.46558924153E+02  0.64260511980E+02  0.15078559147E+02 0.  0.
         22    1    3    3    0    0  0.35656383330E+02  0.21516025738E+02 -0.13621725266E+02  0.43816303301E+02  0.00000000000E+00 0. -1.
         22    1    4    4    0    0 -0.32251863507E+02 -0.19603589372E+02 -0.47058265599E+02  0.60323824291E+02  0.00000000000E+00 0. -1.
         22    1    4    4    0    0 -0.34045198233E+01 -0.19124363662E+01  0.49934144614E+00  0.39366876891E+01  0.00000000000E+00 0. -1.
<mgrwt>
<rscale>  0 0.89771306E+02</rscale>
<asrwt>0</asrwt>
<pdfrwt beam="1">  1        2 0.36843205E-02 0.89771306E+02</pdfrwt>
<pdfrwt beam="2">  1       -2 0.12942882E-01 0.89771306E+02</pdfrwt>
<totfact> 0.87168315E+04</totfact>
</mgrwt>
</event>
<event>
 7    1  0.3480999E-009  0.9174815E+02  0.7818608E-02  0.1298673E+00
         -2   -1    0    0    0  501 -0.00000000000E+00  0.00000000000E+00  0.21660165049E+03  0.21660165051E+03  0.25500000000E-02 0. -1.
          2   -1    0    0  501    0  0.00000000000E+00 -0.00000000000E+00 -0.97156722170E+01  0.97156725517E+01  0.25500000000E-02 0.  1.
         23    2    1    2    0    0 -0.17763568394E-14  0.00000000000E+00  0.20688597828E+03  0.22631732306E+03  0.91748148263E+02 0.  0.
    9000005    2    3    3    0    0 -0.10544702525E+02  0.40550503753E+02  0.14676191720E+03  0.15303405876E+03  0.11172676259E+02 0.  0.
         22    1    3    3    0    0  0.10544702525E+02 -0.40550503753E+02  0.60124061078E+02  0.73283264300E+02  0.00000000000E+00 0.  1.
         22    1    4    4    0    0 -0.10534895536E+02  0.34497227687E+02  0.13583485132E+03  0.14054234086E+03  0.00000000000E+00 0.  1.
         22    1    4    4    0    0 -0.98069888418E-02  0.60532760661E+01  0.10927065878E+02  0.12491717897E+02  0.00000000000E+00 0.  1.
<mgrwt>
<rscale>  0 0.91748148E+02</rscale>
<asrwt>0</asrwt>
<pdfrwt beam="2">  1        2 0.14947190E-02 0.91748148E+02</pdfrwt>
<pdfrwt beam="1">  1       -2 0.33323326E-01 0.91748148E+02</pdfrwt>
<totfact> 0.59196909E+04</totfact>
</mgrwt>
</event>
<event>
 7    1  0.3480999E-009  0.9171993E+02  0.7818608E-02  0.1298739E+00
         -2   -1    0    0    0  501 -0.00000000000E+00  0.00000000000E+00  0.60418819897E+01  0.60418825278E+01  0.25500000000E-02 0.  1.
          2   -1    0    0  501    0  0.00000000000E+00 -0.00000000000E+00 -0.34809292923E+03  0.34809292924E+03  0.25500000000E-02 0. -1.
         23    2    1    2    0    0 -0.35527136788E-14  0.00000000000E+00 -0.34205104724E+03  0.35413481176E+03  0.91719932332E+02 0.  0.
    9000005    2    3    3    0    0  0.28882536489E+02 -0.32147019630E+02 -0.11425983419E+03  0.12228039942E+03  0.54364130069E+01 0.  0.
         22    1    3    3    0    0 -0.28882536489E+02  0.32147019630E+02 -0.22779121304E+03  0.23185441235E+03  0.00000000000E+00 0. -1.
         22    1    4    4    0    0  0.19761741873E+01 -0.21786425319E+01 -0.46148606205E+01  0.54725392869E+01  0.00000000000E+00 0.  1.
         22    1    4    4    0    0  0.26906362302E+02 -0.29968377098E+02 -0.10964497357E+03  0.11680786013E+03  0.00000000000E+00 0.  1.
<mgrwt>
<rscale>  0 0.91719932E+02</rscale>
<asrwt>0</asrwt>
<pdfrwt beam="2">  1        2 0.53552743E-01 0.91719932E+02</pdfrwt>
<pdfrwt beam="1">  1       -2 0.92952062E-03 0.91719932E+02</pdfrwt>
<totfact> 0.18683811E+05</totfact>
</mgrwt>
</event>
<event>
 7    1  0.3480999E-009  0.9172837E+02  0.7818608E-02  0.1298719E+00
          2   -1    0    0  501    0  0.00000000000E+00  0.00000000000E+00  0.53047314496E+03  0.53047314496E+03  0.25500000000E-02 0.  1.
         -2   -1    0    0    0  501 -0.00000000000E+00 -0.00000000000E+00 -0.39653720021E+01  0.39653728220E+01  0.25500000000E-02 0. -1.
         23    2    1    2    0    0  0.00000000000E+00  0.00000000000E+00  0.52650777296E+03  0.53443851779E+03  0.91728372440E+02 0.  0.
    9000005    2    3    3    0    0 -0.22501417278E+02  0.33868694271E+02  0.38117539028E+03  0.38352495416E+03  0.11971218803E+02 0.  0.
         22    1    3    3    0    0  0.22501417278E+02 -0.33868694271E+02  0.14533238268E+03  0.15091356363E+03  0.00000000000E+00 0. -1.
         22    1    4    4    0    0 -0.17020903150E+02  0.14996648295E+02  0.21357993322E+03  0.21478128056E+03  0.00000000000E+00 0.  1.
         22    1    4    4    0    0 -0.54805141282E+01  0.18872045976E+02  0.16759545706E+03  0.16874367360E+03  0.00000000000E+00 0.  1.
<mgrwt>
<rscale>  0 0.91728372E+02</rscale>
<asrwt>0</asrwt>
<pdfrwt beam="1">  1        2 0.81611232E-01 0.91728372E+02</pdfrwt>
<pdfrwt beam="2">  1       -2 0.61005745E-03 0.91728372E+02</pdfrwt>
<totfact> 0.21612653E+05</totfact>
</mgrwt>
</event>
<event>
 7    1  0.3480999E-009  0.9010939E+02  0.7818608E-02  0.1302587E+00
         -2   -1    0    0    0  501 -0.00000000000E+00  0.00000000000E+00  0.63880877030E+02  0.63880877081E+02  0.25500000000E-02 0. -1.
          2   -1    0    0  501    0  0.00000000000E+00 -0.00000000000E+00 -0.31776735830E+02  0.31776735932E+02  0.25500000000E-02 0.  1.
         23    2    1    2    0    0  0.00000000000E+00  0.00000000000E+00  0.32104141200E+02  0.95657613012E+02  0.90109394877E+02 0.  0.
    9000005    2    3    3    0    0  0.31710976212E+02  0.46402865528E+01 -0.15414225571E+02  0.38341703771E+02  0.14330723167E+02 0.  0.
         22    1    3    3    0    0 -0.31710976212E+02 -0.46402865528E+01  0.47518366771E+02  0.57315909242E+02  0.00000000000E+00 0. -1.
         22    1    4    4    0    0  0.26216848630E+02  0.81324263902E+01 -0.16055812680E+02  0.31800135721E+02  0.00000000000E+00 0. -1.
         22    1    4    4    0    0  0.54941275822E+01 -0.34921398374E+01  0.64158710890E+00  0.65415680499E+01  0.00000000000E+00 0. -1.
<mgrwt>
<rscale>  0 0.90109395E+02</rscale>
<asrwt>0</asrwt>
<pdfrwt beam="2">  1        2 0.48887286E-02 0.90109395E+02</pdfrwt>
<pdfrwt beam="1">  1       -2 0.98278272E-02 0.90109395E+02</pdfrwt>
<totfact> 0.93000010E+04</totfact>
</mgrwt>
</event>
<event>
 7    1  0.3480999E-009  0.7345855E+02  0.7818608E-02  0.1348712E+00
         -2   -1    0    0    0  501 -0.00000000000E+00  0.00000000000E+00  0.51667678852E+02  0.51667678915E+02  0.25500000000E-02 0.  1.
          2   -1    0    0  501    0  0.00000000000E+00 -0.00000000000E+00 -0.26109930992E+02  0.26109931117E+02  0.25500000000E-02 0. -1.
         23    2    1    2    0    0  0.00000000000E+00  0.00000000000E+00  0.25557747860E+02  0.77777610031E+02  0.73458547130E+02 0.  0.
    9000005    2    3    3    0    0  0.40254640136E+01 -0.34203217421E+02  0.28647218232E+01  0.36533969634E+02  0.11851576420E+02 0.  0.
         22    1    3    3    0    0 -0.40254640136E+01  0.34203217421E+02  0.22693026037E+02  0.41243640397E+02  0.00000000000E+00 0.  1.
         22    1    4    4    0    0  0.25074691027E+01 -0.69196219127E+01 -0.39755868099E+01  0.83650379077E+01  0.00000000000E+00 0. -1.
         22    1    4    4    0    0  0.15179949109E+01 -0.27283595509E+02  0.68403086330E+01  0.28168931727E+02  0.00000000000E+00 0. -1.
<mgrwt>
<rscale>  0 0.73458547E+02</rscale>
<asrwt>0</asrwt>
<pdfrwt beam="2">  1        2 0.40169125E-02 0.73458547E+02</pdfrwt>
<pdfrwt beam="1">  1       -2 0.79488737E-02 0.73458547E+02</pdfrwt>
<totfact> 0.16029976E+05</totfact>
</mgrwt>
</event>
<event>
 7    1  0.3480999E-009  0.8988162E+02  0.7818608E-02  0.1303139E+00
          2   -1    0    0  501    0  0.00000000000E+00  0.00000000000E+00  0.39324615318E+02  0.39324615400E+02  0.25500000000E-02 0. -1.
         -2   -1    0    0    0  501 -0.00000000000E+00 -0.00000000000E+00 -0.51359085936E+02  0.51359085999E+02  0.25500000000E-02 0.  1.
         23    2    1    2    0    0 -0.35527136788E-14  0.00000000000E+00 -0.12034470618E+02  0.90683701399E+02  0.89881617789E+02 0.  0.
    9000005    2    3    3    0    0 -0.20666525829E+02  0.22168373851E+02  0.25916999967E+02  0.42115643907E+02  0.13546013633E+02 0.  0.
         22    1    3    3    0    0  0.20666525829E+02 -0.22168373851E+02 -0.37951470585E+02  0.48568057493E+02  0.00000000000E+00 0.  1.
         22    1    4    4    0    0 -0.20156395772E+02  0.13856956629E+02  0.16295508074E+02  0.29391140177E+02  0.00000000000E+00 0.  1.
         22    1    4    4    0    0 -0.51013005710E+00  0.83114172217E+01  0.96214918931E+01  0.12724503729E+02  0.00000000000E+00 0.  1.
<mgrwt>
<rscale>  0 0.89881618E+02</rscale>
<asrwt>0</asrwt>
<pdfrwt beam="1">  1        2 0.60499408E-02 0.89881618E+02</pdfrwt>
<pdfrwt beam="2">  1       -2 0.79013979E-02 0.89881618E+02</pdfrwt>
<totfact> 0.98983180E+04</totfact>
</mgrwt>
</event>
<event>
 7    1  0.3480999E-009  0.9155483E+02  0.7818608E-02  0.1299130E+00
         -2   -1    0    0    0  501 -0.00000000000E+00  0.00000000000E+00  0.12008862681E+02  0.12008862952E+02  0.25500000000E-02 0.  1.
          2   -1    0    0  501    0  0.00000000000E+00 -0.00000000000E+00 -0.17450209997E+03  0.17450209999E+03  0.25500000000E-02 0. -1.
         23    2    1    2    0    0  0.00000000000E+00  0.00000000000E+00 -0.16249323729E+03  0.18651096294E+03  0.91554831291E+02 0.  0.
    9000005    2    3    3    0    0  0.97247448050E+01  0.43448686525E+02 -0.77607626803E+02  0.90657293789E+02  0.14609659715E+02 0.  0.
         22    1    3    3    0    0 -0.97247448050E+01 -0.43448686525E+02 -0.84885610488E+02  0.95853669154E+02  0.00000000000E+00 0. -1.
         22    1    4    4    0    0  0.76828606770E+01  0.27059294464E+02 -0.34625480317E+02  0.44611160625E+02  0.00000000000E+00 0.  1.
         22    1    4    4    0    0  0.20418841279E+01  0.16389392061E+02 -0.42982146485E+02  0.46046133165E+02  0.00000000000E+00 0.  1.
<mgrwt>
<rscale>  0 0.91554831E+02</rscale>
<asrwt>0</asrwt>
<pdfrwt beam="2">  1        2 0.26846475E-01 0.91554831E+02</pdfrwt>
<pdfrwt beam="1">  1       -2 0.18475175E-02 0.91554831E+02</pdfrwt>
<totfact> 0.14568295E+05</totfact>
</mgrwt>
</event>
<event>
 7    1  0.3480999E-009  0.9079494E+02  0.7818608E-02  0.1300938E+00
          2   -1    0    0  501    0  0.00000000000E+00  0.00000000000E+00  0.10603857756E+02  0.10603858063E+02  0.25500000000E-02 0. -1.
         -2   -1    0    0    0  501 -0.00000000000E+00 -0.00000000000E+00 -0.19435665036E+03  0.19435665038E+03  0.25500000000E-02 0.  1.
         23    2    1    2    0    0 -0.35527136788E-14  0.00000000000E+00 -0.18375279260E+03  0.20496050844E+03  0.90794940553E+02 0.  0.
    9000005    2    3    3    0    0 -0.26699214538E+02  0.34504585353E+02 -0.69474515924E+02  0.82637415819E+02  0.99408079652E+01 0.  0.
         22    1    3    3    0    0  0.26699214538E+02 -0.34504585353E+02 -0.11427827668E+03  0.12232309262E+03  0.00000000000E+00 0.  1.
         22    1    4    4    0    0 -0.11713843450E+02  0.20415764844E+02 -0.30059119828E+02  0.38178112413E+02  0.00000000000E+00 0. -1.
         22    1    4    4    0    0 -0.14985371088E+02  0.14088820509E+02 -0.39415396096E+02  0.44459303406E+02  0.00000000000E+00 0. -1.
<mgrwt>
<rscale>  0 0.90794941E+02</rscale>
<asrwt>0</asrwt>
<pdfrwt beam="1">  1        2 0.16313629E-02 0.90794941E+02</pdfrwt>
<pdfrwt beam="2">  1       -2 0.29901021E-01 0.90794941E+02</pdfrwt>
<totfact> 0.63768610E+04</totfact>
</mgrwt>
</event>
<event>
 7    1  0.3480999E-009  0.9125013E+02  0.7818608E-02  0.1299852E+00
          2   -1    0    0  501    0  0.00000000000E+00  0.00000000000E+00  0.72590250320E+03  0.72590250320E+03  0.25500000000E-02 0. -1.
         -2   -1    0    0    0  501 -0.00000000000E+00 -0.00000000000E+00 -0.28676664565E+01  0.28676675903E+01  0.25500000000E-02 0.  1.
         23    2    1    2    0    0  0.00000000000E+00 -0.35527136788E-14  0.72303483674E+03  0.72877017079E+03  0.91250132578E+02 0.  0.
    9000005    2    3    3    0    0  0.28693032332E+01  0.27385062609E+02  0.65204612957E+03  0.65262838791E+03  0.12178093975E+01 0.  0.
         22    1    3    3    0    0 -0.28693032332E+01 -0.27385062609E+02  0.70988707170E+02  0.76141782884E+02  0.00000000000E+00 0.  1.
         22    1    4    4    0    0 -0.15467322804E-01  0.38934135405E+01  0.91000720565E+02  0.91083972529E+02  0.00000000000E+00 0.  1.
         22    1    4    4    0    0  0.28847705560E+01  0.23491649068E+02  0.56104540901E+03  0.56154441538E+03  0.00000000000E+00 0.  1.
<mgrwt>
<rscale>  0 0.91250133E+02</rscale>
<asrwt>0</asrwt>
<pdfrwt beam="1">  1        2 0.11167727E+00 0.91250133E+02</pdfrwt>
<pdfrwt beam="2">  1       -2 0.44117971E-03 0.91250133E+02</pdfrwt>
<totfact> 0.23859135E+05</totfact>
</mgrwt>
</event>
<event>
 7    1  0.3480999E-009  0.9047610E+02  0.7818608E-02  0.1301703E+00
          2   -1    0    0  501    0  0.00000000000E+00  0.00000000000E+00  0.21393767823E+03  0.21393767825E+03  0.25500000000E-02 0. -1.
         -2   -1    0    0    0  501 -0.00000000000E+00 -0.00000000000E+00 -0.95657822285E+01  0.95657825684E+01  0.25500000000E-02 0.  1.
         23    2    1    2    0    0  0.00000000000E+00  0.00000000000E+00  0.20437189600E+03  0.22350346082E+03  0.90476102483E+02 0.  0.
    9000005    2    3    3    0    0  0.36488493400E+02 -0.25666479681E+02  0.11914820160E+03  0.12730961269E+03  0.46114215193E+01 0.  0.
         22    1    3    3    0    0 -0.36488493400E+02  0.25666479681E+02  0.85223694406E+02  0.96193848130E+02  0.00000000000E+00 0.  1.
         22    1    4    4    0    0  0.29282440190E+02 -0.22382467892E+02  0.10072512135E+03  0.10725663729E+03  0.00000000000E+00 0.  1.
         22    1    4    4    0    0  0.72060532103E+01 -0.32840117897E+01  0.18423080250E+02  0.20052975395E+02  0.00000000000E+00 0.  1.
<mgrwt>
<rscale>  0 0.90476102E+02</rscale>
<asrwt>0</asrwt>
<pdfrwt beam="1">  1        2 0.32913489E-01 0.90476102E+02</pdfrwt>
<pdfrwt beam="2">  1       -2 0.14716588E-02 0.90476102E+02</pdfrwt>
<totfact> 0.16183104E+05</totfact>
</mgrwt>
</event>
<event>
 7    1  0.3480999E-009  0.8896075E+02  0.7818608E-02  0.1305388E+00
         -2   -1    0    0    0  501 -0.00000000000E+00  0.00000000000E+00  0.72999744341E+01  0.72999748795E+01  0.25500000000E-02 0.  1.
          2   -1    0    0  501    0  0.00000000000E+00 -0.00000000000E+00 -0.27102884002E+03  0.27102884003E+03  0.25500000000E-02 0. -1.
         23    2    1    2    0    0  0.00000000000E+00  0.00000000000E+00 -0.26372886559E+03  0.27832881491E+03  0.88960747899E+02 0.  0.
    9000005    2    3    3    0    0  0.25418310904E+01 -0.40757757672E+02 -0.18279477880E+03  0.18767572826E+03  0.11857154184E+02 0.  0.
         22    1    3    3    0    0 -0.25418310904E+01  0.40757757672E+02 -0.80934086787E+02  0.90653086654E+02  0.00000000000E+00 0.  1.
         22    1    4    4    0    0  0.49896661247E+01 -0.66467139974E+01 -0.37654210014E+02  0.38560538207E+02  0.00000000000E+00 0.  1.
         22    1    4    4    0    0 -0.24478350343E+01 -0.34111043674E+02 -0.14514056879E+03  0.14911519005E+03  0.00000000000E+00 0.  1.
<mgrwt>
<rscale>  0 0.88960748E+02</rscale>
<asrwt>0</asrwt>
<pdfrwt beam="2">  1        2 0.41696737E-01 0.88960748E+02</pdfrwt>
<pdfrwt beam="1">  1       -2 0.11230732E-02 0.88960748E+02</pdfrwt>
<totfact> 0.18472006E+05</totfact>
</mgrwt>
</event>
<event>
 7    1  0.3480999E-009  0.9129861E+02  0.7818608E-02  0.1299737E+00
          2   -1    0    0  501    0  0.00000000000E+00  0.00000000000E+00  0.24258267795E+03  0.24258267796E+03  0.25500000000E-02 0. -1.
         -2   -1    0    0    0  501 -0.00000000000E+00 -0.00000000000E+00 -0.85903037918E+01  0.85903041703E+01  0.25500000000E-02 0.  1.
         23    2    1    2    0    0 -0.71054273576E-14  0.00000000000E+00  0.23399237416E+03  0.25117298213E+03  0.91298607819E+02 0.  0.
    9000005    2    3    3    0    0 -0.35604632026E+02 -0.35171799926E+01  0.19341306258E+03  0.19707362072E+03  0.12220426823E+02 0.  0.
         22    1    3    3    0    0  0.35604632026E+02  0.35171799926E+01  0.40579311578E+02  0.54099361410E+02  0.00000000000E+00 0.  1.
         22    1    4    4    0    0 -0.20296329331E+01 -0.53384266161E-01  0.37211184260E+02  0.37266533160E+02  0.00000000000E+00 0.  1.
         22    1    4    4    0    0 -0.33574999093E+02 -0.34637957265E+01  0.15620187832E+03  0.15980708756E+03  0.00000000000E+00 0.  1.
<mgrwt>
<rscale>  0 0.91298608E+02</rscale>
<asrwt>0</asrwt>
<pdfrwt beam="1">  1        2 0.37320406E-01 0.91298608E+02</pdfrwt>
<pdfrwt beam="2">  1       -2 0.13215854E-02 0.91298608E+02</pdfrwt>
<totfact> 0.16540847E+05</totfact>
</mgrwt>
</event>
<event>
 7    1  0.3480999E-009  0.9171007E+02  0.7818608E-02  0.1298763E+00
         -2   -1    0    0    0  501 -0.00000000000E+00  0.00000000000E+00  0.21465837574E+02  0.21465837726E+02  0.25500000000E-02 0.  1.
          2   -1    0    0  501    0  0.00000000000E+00 -0.00000000000E+00 -0.97954901861E+02  0.97954901894E+02  0.25500000000E-02 0. -1.
         23    2    1    2    0    0  0.00000000000E+00  0.00000000000E+00 -0.76489064287E+02  0.11942073962E+03  0.91710065401E+02 0.  0.
    9000005    2    3    3    0    0  0.39833013790E+02 -0.18681155081E+02 -0.29320841517E+02  0.54918834361E+02  0.14856381711E+02 0.  0.
         22    1    3    3    0    0 -0.39833013790E+02  0.18681155081E+02 -0.47168222770E+02  0.64501905259E+02  0.00000000000E+00 0. -1.
         22    1    4    4    0    0  0.25743005555E+02 -0.19467938209E+02 -0.19224320393E+02  0.37566972831E+02  0.00000000000E+00 0. -1.
         22    1    4    4    0    0  0.14090008234E+02  0.78678312785E+00 -0.10096521124E+02  0.17351861530E+02  0.00000000000E+00 0. -1.
<mgrwt>
<rscale>  0 0.91710065E+02</rscale>
<asrwt>0</asrwt>
<pdfrwt beam="2">  1        2 0.15069985E-01 0.91710065E+02</pdfrwt>
<pdfrwt beam="1">  1       -2 0.33024366E-02 0.91710065E+02</pdfrwt>
<totfact> 0.11996331E+05</totfact>
</mgrwt>
</event>
<event>
 7    1  0.3480999E-009  0.9120514E+02  0.7818608E-02  0.1299959E+00
         -2   -1    0    0    0  501 -0.00000000000E+00  0.00000000000E+00  0.14600483661E+02  0.14600483884E+02  0.25500000000E-02 0.  1.
          2   -1    0    0  501    0  0.00000000000E+00 -0.00000000000E+00 -0.14243325215E+03  0.14243325217E+03  0.25500000000E-02 0. -1.
         23    2    1    2    0    0  0.00000000000E+00  0.00000000000E+00 -0.12783276848E+03  0.15703373605E+03  0.91205139988E+02 0.  0.
    9000005    2    3    3    0    0 -0.20975831085E+02  0.40280455468E+02 -0.69632003416E+02  0.83210774604E+02  0.35939571557E+01 0.  0.
         22    1    3    3    0    0  0.20975831085E+02 -0.40280455468E+02 -0.58200765069E+02  0.73822961449E+02  0.00000000000E+00 0.  1.
         22    1    4    4    0    0 -0.13436133065E+02  0.22011753972E+02 -0.38819710510E+02  0.46604902196E+02  0.00000000000E+00 0.  1.
         22    1    4    4    0    0 -0.75396980203E+01  0.18268701496E+02 -0.30812292906E+02  0.36605872407E+02  0.00000000000E+00 0.  1.
<mgrwt>
<rscale>  0 0.91205140E+02</rscale>
<asrwt>0</asrwt>
<pdfrwt beam="2">  1        2 0.21912807E-01 0.91205140E+02</pdfrwt>
<pdfrwt beam="1">  1       -2 0.22462284E-02 0.91205140E+02</pdfrwt>
<totfact> 0.13726864E+05</totfact>
</mgrwt>
</event>
<event>
 7    1  0.3480999E-009  0.9542367E+02  0.7818608E-02  0.1290225E+00
         -2   -1    0    0    0  501 -0.00000000000E+00  0.00000000000E+00  0.12388428374E+02  0.12388428636E+02  0.25500000000E-02 0. -1.
          2   -1    0    0  501    0  0.00000000000E+00 -0.00000000000E+00 -0.18375365640E+03  0.18375365641E+03  0.25500000000E-02 0.  1.
         23    2    1    2    0    0  0.35527136788E-14 -0.44408920985E-15 -0.17136522802E+03  0.19614208505E+03  0.95423666628E+02 0.  0.
    9000005    2    3    3    0    0  0.24307786265E+02 -0.15426677724E+01 -0.16938167148E+03  0.17170476127E+03  0.14111205261E+02 0.  0.
         22    1    3    3    0    0 -0.24307786265E+02  0.15426677724E+01 -0.19835565470E+01  0.24437323780E+02  0.00000000000E+00 0. -1.
         22    1    4    4    0    0  0.24159102536E+02 -0.50100116113E+01 -0.14958607527E+03  0.15160724378E+03  0.00000000000E+00 0.  1.
         22    1    4    4    0    0  0.14868372951E+00  0.34673438389E+01 -0.19795596203E+02  0.20097517488E+02  0.00000000000E+00 0.  1.
<mgrwt>
<rscale>  0 0.95423667E+02</rscale>
<asrwt>0</asrwt>
<pdfrwt beam="2">  1        2 0.28269791E-01 0.95423667E+02</pdfrwt>
<pdfrwt beam="1">  1       -2 0.19059122E-02 0.95423667E+02</pdfrwt>
<totfact> 0.13264296E+05</totfact>
</mgrwt>
</event>
<event>
 7    1  0.3480999E-009  0.9035746E+02  0.7818608E-02  0.1301988E+00
         -2   -1    0    0    0  501 -0.00000000000E+00  0.00000000000E+00  0.75340678065E+01  0.75340682380E+01  0.25500000000E-02 0. -1.
          2   -1    0    0  501    0  0.00000000000E+00 -0.00000000000E+00 -0.27091841180E+03  0.27091841181E+03  0.25500000000E-02 0.  1.
         23    2    1    2    0    0  0.00000000000E+00  0.00000000000E+00 -0.26338434399E+03  0.27845248005E+03  0.90357462254E+02 0.  0.
    9000005    2    3    3    0    0  0.15859363892E+01 -0.40360942738E+02 -0.70961134640E+02  0.81835562185E+02  0.54823093480E+01 0.  0.
         22    1    3    3    0    0 -0.15859363892E+01  0.40360942738E+02 -0.19242320935E+03  0.19661691786E+03  0.00000000000E+00 0.  1.
         22    1    4    4    0    0 -0.20806131026E+00 -0.29761464616E+02 -0.55930206289E+02  0.63355947165E+02  0.00000000000E+00 0.  1.
         22    1    4    4    0    0  0.17939976995E+01 -0.10599478122E+02 -0.15030928351E+02  0.18479615020E+02  0.00000000000E+00 0.  1.
<mgrwt>
<rscale>  0 0.90357462E+02</rscale>
<asrwt>0</asrwt>
<pdfrwt beam="2">  1        2 0.41679748E-01 0.90357462E+02</pdfrwt>
<pdfrwt beam="1">  1       -2 0.11590876E-02 0.90357462E+02</pdfrwt>
<totfact> 0.17717646E+05</totfact>
</mgrwt>
</event>
<event>
 7    1  0.3480999E-009  0.9362124E+02  0.7818608E-02  0.1294312E+00
         -2   -1    0    0    0  501 -0.00000000000E+00  0.00000000000E+00  0.67684542802E+01  0.67684547605E+01  0.25500000000E-02 0.  1.
          2   -1    0    0  501    0  0.00000000000E+00 -0.00000000000E+00 -0.32374215443E+03  0.32374215444E+03  0.25500000000E-02 0. -1.
         23    2    1    2    0    0  0.00000000000E+00  0.00000000000E+00 -0.31697370015E+03  0.33051060920E+03  0.93621238015E+02 0.  0.
    9000005    2    3    3    0    0  0.42518454625E+02 -0.19262731617E+01 -0.22516564356E+03  0.22931649491E+03  0.86578453757E+01 0.  0.
         22    1    3    3    0    0 -0.42518454625E+02  0.19262731617E+01 -0.91808056589E+02  0.10119411429E+03  0.00000000000E+00 0.  1.
         22    1    4    4    0    0  0.28999141218E+02  0.23264822763E+01 -0.16059478623E+03  0.16320860294E+03  0.00000000000E+00 0. -1.
         22    1    4    4    0    0  0.13519313407E+02 -0.42527554379E+01 -0.64570857334E+02  0.66107891970E+02  0.00000000000E+00 0. -1.
<mgrwt>
<rscale>  0 0.93621238E+02</rscale>
<asrwt>0</asrwt>
<pdfrwt beam="2">  1        2 0.49806473E-01 0.93621238E+02</pdfrwt>
<pdfrwt beam="1">  1       -2 0.10413009E-02 0.93621238E+02</pdfrwt>
<totfact> 0.17221019E+05</totfact>
</mgrwt>
</event>
<event>
 7    1  0.3480999E-009  0.9310976E+02  0.7818608E-02  0.1295491E+00
          2   -1    0    0  501    0  0.00000000000E+00  0.00000000000E+00  0.18551427360E+03  0.18551427362E+03  0.25500000000E-02 0.  1.
         -2   -1    0    0    0  501 -0.00000000000E+00 -0.00000000000E+00 -0.11682965452E+02  0.11682965730E+02  0.25500000000E-02 0. -1.
         23    2    1    2    0    0  0.00000000000E+00  0.00000000000E+00  0.17383130815E+03  0.19719723935E+03  0.93109760574E+02 0.  0.
    9000005    2    3    3    0    0 -0.21228222211E+02  0.33421874439E+02  0.39539229548E+02  0.57190019949E+02  0.11818993159E+02 0.  0.
         22    1    3    3    0    0  0.21228222211E+02 -0.33421874439E+02  0.13429207860E+03  0.14000721940E+03  0.00000000000E+00 0.  1.
         22    1    4    4    0    0 -0.14878502949E+02  0.26875235188E+02  0.23264985856E+02  0.38534499910E+02  0.00000000000E+00 0.  1.
         22    1    4    4    0    0 -0.63497192610E+01  0.65466392501E+01  0.16274243692E+02  0.18655520039E+02  0.00000000000E+00 0.  1.
<mgrwt>
<rscale>  0 0.93109761E+02</rscale>
<asrwt>0</asrwt>
<pdfrwt beam="1">  1        2 0.28540655E-01 0.93109761E+02</pdfrwt>
<pdfrwt beam="2">  1       -2 0.17973795E-02 0.93109761E+02</pdfrwt>
<totfact> 0.14225583E+05</totfact>
</mgrwt>
</event>
<event>
 7    1  0.3480999E-009  0.9464726E+02  0.7818608E-02  0.1291973E+00
          2   -1    0    0  501    0  0.00000000000E+00  0.00000000000E+00  0.77273387762E+02  0.77273387804E+02  0.25500000000E-02 0. -1.
         -2   -1    0    0    0  501 -0.00000000000E+00 -0.00000000000E+00 -0.28981855165E+02  0.28981855278E+02  0.25500000000E-02 0.  1.
         23    2    1    2    0    0  0.00000000000E+00  0.00000000000E+00  0.48291532597E+02  0.10625524308E+03  0.94647263890E+02 0.  0.
    9000005    2    3    3    0    0 -0.32403129079E+02  0.10357273515E+02  0.59664319954E+02  0.70386368260E+02  0.15400450398E+02 0.  0.
         22    1    3    3    0    0  0.32403129079E+02 -0.10357273515E+02 -0.11372787357E+02  0.35868874822E+02  0.00000000000E+00 0.  1.
         22    1    4    4    0    0 -0.14627672752E+02  0.47228102633E+01  0.41906108113E+02  0.44636259298E+02  0.00000000000E+00 0. -1.
         22    1    4    4    0    0 -0.17775456327E+02  0.56344632519E+01  0.17758211840E+02  0.25750108962E+02  0.00000000000E+00 0. -1.
<mgrwt>
<rscale>  0 0.94647264E+02</rscale>
<asrwt>0</asrwt>
<pdfrwt beam="1">  1        2 0.11888213E-01 0.94647264E+02</pdfrwt>
<pdfrwt beam="2">  1       -2 0.44587470E-02 0.94647264E+02</pdfrwt>
<totfact> 0.10245182E+05</totfact>
</mgrwt>
</event>
<event>
 7    1  0.3480999E-009  0.8917693E+02  0.7818608E-02  0.1304857E+00
         -2   -1    0    0    0  501 -0.00000000000E+00  0.00000000000E+00  0.70633021034E+01  0.70633025637E+01  0.25500000000E-02 0. -1.
          2   -1    0    0  501    0  0.00000000000E+00 -0.00000000000E+00 -0.28147333670E+03  0.28147333671E+03  0.25500000000E-02 0.  1.
         23    2    1    2    0    0  0.44408920985E-15 -0.71054273576E-14 -0.27441003459E+03  0.28853663927E+03  0.89176931528E+02 0.  0.
    9000005    2    3    3    0    0 -0.25497015112E+01  0.42395016605E+02 -0.17437728111E+03  0.17986102021E+03  0.11777606298E+02 0.  0.
         22    1    3    3    0    0  0.25497015112E+01 -0.42395016605E+02 -0.10003275348E+03  0.10867561906E+03  0.00000000000E+00 0. -1.
         22    1    4    4    0    0 -0.62987308625E+01  0.16490157404E+02 -0.61087083133E+02  0.63586405995E+02  0.00000000000E+00 0.  1.
         22    1    4    4    0    0  0.37490293513E+01  0.25904859200E+02 -0.11329019798E+03  0.11627461421E+03  0.00000000000E+00 0.  1.
<mgrwt>
<rscale>  0 0.89176932E+02</rscale>
<asrwt>0</asrwt>
<pdfrwt beam="2">  1        2 0.43303582E-01 0.89176932E+02</pdfrwt>
<pdfrwt beam="1">  1       -2 0.10866621E-02 0.89176932E+02</pdfrwt>
<totfact> 0.18612933E+05</totfact>
</mgrwt>
</event>
<event>
 7    1  0.3480999E-009  0.9018179E+02  0.7818608E-02  0.1302412E+00
         -2   -1    0    0    0  501 -0.00000000000E+00  0.00000000000E+00  0.87853404904E+02  0.87853404941E+02  0.25500000000E-02 0.  1.
          2   -1    0    0  501    0  0.00000000000E+00 -0.00000000000E+00 -0.23142968705E+02  0.23142968845E+02  0.25500000000E-02 0. -1.
         23    2    1    2    0    0  0.00000000000E+00  0.00000000000E+00  0.64710436199E+02  0.11099637379E+03  0.90181785526E+02 0.  0.
    9000005    2    3    3    0    0  0.35076011966E+02  0.13830741687E+02  0.29992389706E+01  0.38678409943E+02  0.80875169413E+01 0.  0.
         22    1    3    3    0    0 -0.35076011966E+02 -0.13830741687E+02  0.61711197229E+02  0.72317963843E+02  0.00000000000E+00 0. -1.
         22    1    4    4    0    0  0.53856973084E+01  0.74008327618E+00  0.30434765001E+01  0.62302654807E+01  0.00000000000E+00 0. -1.
         22    1    4    4    0    0  0.29690314658E+02  0.13090658411E+02 -0.44237529514E-01  0.32448144462E+02  0.00000000000E+00 0. -1.
<mgrwt>
<rscale>  0 0.90181786E+02</rscale>
<asrwt>0</asrwt>
<pdfrwt beam="2">  1        2 0.35604567E-02 0.90181786E+02</pdfrwt>
<pdfrwt beam="1">  1       -2 0.13515909E-01 0.90181786E+02</pdfrwt>
<totfact> 0.85150710E+04</totfact>
</mgrwt>
</event>
<event>
 7    1  0.3480999E-009  0.9870056E+02  0.7818608E-02  0.1283052E+00
          2   -1    0    0  501    0  0.00000000000E+00  0.00000000000E+00  0.38522680488E+02  0.38522680572E+02  0.25500000000E-02 0. -1.
         -2   -1    0    0    0  501 -0.00000000000E+00 -0.00000000000E+00 -0.63221203208E+02  0.63221203260E+02  0.25500000000E-02 0.  1.
         23    2    1    2    0    0 -0.88817841970E-15  0.00000000000E+00 -0.24698522720E+02  0.10174388383E+03  0.98700561663E+02 0.  0.
    9000005    2    3    3    0    0 -0.50581224322E+01  0.34933967853E+02 -0.47845904434E+02  0.59532890089E+02  0.29946149695E+01 0.  0.
         22    1    3    3    0    0  0.50581224322E+01 -0.34933967853E+02  0.23147381713E+02  0.42210993742E+02  0.00000000000E+00 0. -1.
         22    1    4    4    0    0 -0.19861312006E+01  0.58626197490E+01 -0.81262170782E+01  0.10215205895E+02  0.00000000000E+00 0. -1.
         22    1    4    4    0    0 -0.30719912317E+01  0.29071348104E+02 -0.39719687356E+02  0.49317684195E+02  0.00000000000E+00 0. -1.
<mgrwt>
<rscale>  0 0.98700562E+02</rscale>
<asrwt>0</asrwt>
<pdfrwt beam="1">  1        2 0.59265663E-02 0.98700562E+02</pdfrwt>
<pdfrwt beam="2">  1       -2 0.97263389E-02 0.98700562E+02</pdfrwt>
<totfact> 0.74858008E+04</totfact>
</mgrwt>
</event>
<event>
 7    1  0.3480999E-009  0.9365241E+02  0.7818608E-02  0.1294240E+00
         -2   -1    0    0    0  501 -0.00000000000E+00  0.00000000000E+00  0.50914568791E+01  0.50914575177E+01  0.25500000000E-02 0.  1.
          2   -1    0    0  501    0  0.00000000000E+00 -0.00000000000E+00 -0.43066131331E+03  0.43066131332E+03  0.25500000000E-02 0. -1.
         23    2    1    2    0    0  0.00000000000E+00 -0.35527136788E-14 -0.42556985643E+03  0.43575277084E+03  0.93652413679E+02 0.  0.
    9000005    2    3    3    0    0 -0.39796960593E+02  0.23763933321E+02 -0.19130803727E+03  0.19694924800E+03  0.64589911295E+01 0.  0.
         22    1    3    3    0    0  0.39796960593E+02 -0.23763933321E+02 -0.23426181917E+03  0.23880352284E+03  0.00000000000E+00 0.  1.
         22    1    4    4    0    0 -0.94651613278E+01  0.27172758730E+01 -0.37303625392E+02  0.38581515452E+02  0.00000000000E+00 0. -1.
         22    1    4    4    0    0 -0.30331799265E+02  0.21046657448E+02 -0.15400441187E+03  0.15836773255E+03  0.00000000000E+00 0. -1.
<mgrwt>
<rscale>  0 0.93652414E+02</rscale>
<asrwt>0</asrwt>
<pdfrwt beam="2">  1        2 0.66255558E-01 0.93652414E+02</pdfrwt>
<pdfrwt beam="1">  1       -2 0.78330144E-03 0.93652414E+02</pdfrwt>
<totfact> 0.19082550E+05</totfact>
</mgrwt>
</event>
<event>
 7    1  0.3480999E-009  0.9114745E+02  0.7818608E-02  0.1300097E+00
         -2   -1    0    0    0  501 -0.00000000000E+00  0.00000000000E+00  0.12598610301E+02  0.12598610559E+02  0.25500000000E-02 0.  1.
          2   -1    0    0  501    0  0.00000000000E+00 -0.00000000000E+00 -0.16485663628E+03  0.16485663630E+03  0.25500000000E-02 0. -1.
         23    2    1    2    0    0  0.00000000000E+00  0.00000000000E+00 -0.15225802598E+03  0.17745524686E+03  0.91147452859E+02 0.  0.
    9000005    2    3    3    0    0  0.15552840461E+01 -0.33819688178E+02 -0.13436231429E+03  0.13916103432E+03  0.12898517560E+02 0.  0.
         22    1    3    3    0    0 -0.15552840461E+01  0.33819688178E+02 -0.17895711688E+02  0.38294212536E+02  0.00000000000E+00 0.  1.
         22    1    4    4    0    0  0.25679279233E+01 -0.90248430815E+01 -0.60948390625E+02  0.61666428195E+02  0.00000000000E+00 0. -1.
         22    1    4    4    0    0 -0.10126438772E+01 -0.24794845096E+02 -0.73413923666E+02  0.77494606129E+02  0.00000000000E+00 0. -1.
<mgrwt>
<rscale>  0 0.91147453E+02</rscale>
<asrwt>0</asrwt>
<pdfrwt beam="2">  1        2 0.25362558E-01 0.91147453E+02</pdfrwt>
<pdfrwt beam="1">  1       -2 0.19382479E-02 0.91147453E+02</pdfrwt>
<totfact> 0.14455000E+05</totfact>
</mgrwt>
</event>
<event>
 7    1  0.3480999E-009  0.8944668E+02  0.7818608E-02  0.1304197E+00
         -2   -1    0    0    0  501 -0.00000000000E+00  0.00000000000E+00  0.13595755421E+02  0.13595755661E+02  0.25500000000E-02 0.  1.
          2   -1    0    0  501    0  0.00000000000E+00 -0.00000000000E+00 -0.14711775610E+03  0.14711775612E+03  0.25500000000E-02 0. -1.
         23    2    1    2    0    0  0.00000000000E+00 -0.44408920985E-15 -0.13352200067E+03  0.16071351178E+03  0.89446677993E+02 0.  0.
    9000005    2    3    3    0    0  0.32403768683E+02 -0.32745175687E+01 -0.15439850936E+02  0.38222202793E+02  0.12720892236E+02 0.  0.
         22    1    3    3    0    0 -0.32403768683E+02  0.32745175687E+01 -0.11808214974E+03  0.12249130898E+03  0.00000000000E+00 0. -1.
         22    1    4    4    0    0  0.13045096815E+02  0.39672334676E+01 -0.25731575997E+01  0.13875684932E+02  0.00000000000E+00 0. -1.
         22    1    4    4    0    0  0.19358671867E+02 -0.72417510363E+01 -0.12866693337E+02  0.24346517861E+02  0.00000000000E+00 0. -1.
<mgrwt>
<rscale>  0 0.89446678E+02</rscale>
<asrwt>0</asrwt>
<pdfrwt beam="2">  1        2 0.22633500E-01 0.89446678E+02</pdfrwt>
<pdfrwt beam="1">  1       -2 0.20916548E-02 0.89446678E+02</pdfrwt>
<totfact> 0.14629511E+05</totfact>
</mgrwt>
</event>
<event>
 7    1  0.3480999E-009  0.9229592E+02  0.7818608E-02  0.1297385E+00
         -2   -1    0    0    0  501 -0.00000000000E+00  0.00000000000E+00  0.31698483706E+03  0.31698483708E+03  0.25500000000E-02 0.  1.
          2   -1    0    0  501    0  0.00000000000E+00 -0.00000000000E+00 -0.67184099297E+01  0.67184104136E+01  0.25500000000E-02 0. -1.
         23    2    1    2    0    0  0.17763568394E-14  0.00000000000E+00  0.31026642714E+03  0.32370324749E+03  0.92295918802E+02 0.  0.
    9000005    2    3    3    0    0 -0.12154215405E+02 -0.32353015148E+02  0.25957003515E+03  0.26234718257E+03  0.15968672984E+02 0.  0.
         22    1    3    3    0    0  0.12154215405E+02  0.32353015148E+02  0.50696391989E+02  0.61356064916E+02  0.00000000000E+00 0. -1.
         22    1    4    4    0    0 -0.72579784562E+01 -0.31242610186E+02  0.24041381048E+03  0.24254397377E+03  0.00000000000E+00 0.  1.
         22    1    4    4    0    0 -0.48962369489E+01 -0.11104049622E+01  0.19156224666E+02  0.19803208803E+02  0.00000000000E+00 0.  1.
<mgrwt>
<rscale>  0 0.92295919E+02</rscale>
<asrwt>0</asrwt>
<pdfrwt beam="2">  1        2 0.10336014E-02 0.92295919E+02</pdfrwt>
<pdfrwt beam="1">  1       -2 0.48766904E-01 0.92295919E+02</pdfrwt>
<totfact> 0.47887112E+04</totfact>
</mgrwt>
</event>
<event>
 7    1  0.3480999E-009  0.9178182E+02  0.7818608E-02  0.1298593E+00
         -2   -1    0    0    0  501 -0.00000000000E+00  0.00000000000E+00  0.68032976522E+01  0.68032981301E+01  0.25500000000E-02 0.  1.
          2   -1    0    0  501    0  0.00000000000E+00 -0.00000000000E+00 -0.30955216663E+03  0.30955216664E+03  0.25500000000E-02 0. -1.
         23    2    1    2    0    0  0.00000000000E+00  0.71054273576E-14 -0.30274886898E+03  0.31635546477E+03  0.91781819675E+02 0.  0.
    9000005    2    3    3    0    0 -0.10015289391E+02  0.38212856246E+02 -0.85236351852E+02  0.95284834631E+02  0.15919661728E+02 0.  0.
         22    1    3    3    0    0  0.10015289391E+02 -0.38212856246E+02 -0.21751251713E+03  0.22107063014E+03  0.00000000000E+00 0. -1.
         22    1    4    4    0    0 -0.40171380018E+01  0.34470844340E+02 -0.76806087368E+02  0.84282569752E+02  0.00000000000E+00 0.  1.
         22    1    4    4    0    0 -0.59981513892E+01  0.37420119059E+01 -0.84302644841E+01  0.11002264879E+02  0.00000000000E+00 0.  1.
<mgrwt>
<rscale>  0 0.91781820E+02</rscale>
<asrwt>0</asrwt>
<pdfrwt beam="2">  1        2 0.47623399E-01 0.91781820E+02</pdfrwt>
<pdfrwt beam="1">  1       -2 0.10466615E-02 0.91781820E+02</pdfrwt>
<totfact> 0.17858672E+05</totfact>
</mgrwt>
</event>
<event>
 7    1  0.3480999E-009  0.9044021E+02  0.7818608E-02  0.1301789E+00
         -2   -1    0    0    0  501 -0.00000000000E+00  0.00000000000E+00  0.16831274029E+03  0.16831274031E+03  0.25500000000E-02 0.  1.
          2   -1    0    0  501    0  0.00000000000E+00 -0.00000000000E+00 -0.12149156452E+02  0.12149156720E+02  0.25500000000E-02 0. -1.
         23    2    1    2    0    0  0.00000000000E+00  0.00000000000E+00  0.15616358384E+03  0.18046189703E+03  0.90440208770E+02 0.  0.
    9000005    2    3    3    0    0  0.35512145819E+02  0.26304599223E+02  0.64384059892E+02  0.78596665195E+02  0.88929281291E+01 0.  0.
         22    1    3    3    0    0 -0.35512145819E+02 -0.26304599223E+02  0.91779523944E+02  0.10186523183E+03  0.00000000000E+00 0.  1.
         22    1    4    4    0    0  0.22312565360E+02  0.19768453398E+02  0.48546692976E+02  0.56968620499E+02  0.00000000000E+00 0.  1.
         22    1    4    4    0    0  0.13199580459E+02  0.65361458247E+01  0.15837366916E+02  0.21628044696E+02  0.00000000000E+00 0.  1.
<mgrwt>
<rscale>  0 0.90440209E+02</rscale>
<asrwt>0</asrwt>
<pdfrwt beam="2">  1        2 0.18691011E-02 0.90440209E+02</pdfrwt>
<pdfrwt beam="1">  1       -2 0.25894266E-01 0.90440209E+02</pdfrwt>
<totfact> 0.68285656E+04</totfact>
</mgrwt>
</event>
<event>
 7    1  0.3480999E-009  0.8847008E+02  0.7818608E-02  0.1306599E+00
         -2   -1    0    0    0  501 -0.00000000000E+00  0.00000000000E+00  0.13488625071E+02  0.13488625312E+02  0.25500000000E-02 0.  1.
          2   -1    0    0  501    0  0.00000000000E+00 -0.00000000000E+00 -0.14506584273E+03  0.14506584275E+03  0.25500000000E-02 0. -1.
         23    2    1    2    0    0  0.35527136788E-14  0.00000000000E+00 -0.13157721766E+03  0.15855446806E+03  0.88470080458E+02 0.  0.
    9000005    2    3    3    0    0  0.23165993675E+02 -0.36647239625E+02 -0.78695580706E+02  0.90172080260E+02  0.76371591968E+01 0.  0.
         22    1    3    3    0    0 -0.23165993675E+02  0.36647239625E+02 -0.52881636949E+02  0.68382387802E+02  0.00000000000E+00 0.  1.
         22    1    4    4    0    0  0.64625751176E+01 -0.47868439373E+01 -0.15011466582E+02  0.17030058162E+02  0.00000000000E+00 0.  1.
         22    1    4    4    0    0  0.16703418557E+02 -0.31860395687E+02 -0.63684114124E+02  0.73142022098E+02  0.00000000000E+00 0.  1.
<mgrwt>
<rscale>  0 0.88470080E+02</rscale>
<asrwt>0</asrwt>
<pdfrwt beam="2">  1        2 0.22317821E-01 0.88470080E+02</pdfrwt>
<pdfrwt beam="1">  1       -2 0.20751732E-02 0.88470080E+02</pdfrwt>
<totfact> 0.14999617E+05</totfact>
</mgrwt>
</event>
<event>
 7    1  0.3480999E-009  0.1018147E+03  0.7818608E-02  0.1276525E+00
          2   -1    0    0  501    0  0.00000000000E+00  0.00000000000E+00  0.89656543998E+02  0.89656544034E+02  0.25500000000E-02 0. -1.
         -2   -1    0    0    0  501 -0.00000000000E+00 -0.00000000000E+00 -0.28905414491E+02  0.28905414603E+02  0.25500000000E-02 0.  1.
         23    2    1    2    0    0  0.00000000000E+00  0.00000000000E+00  0.60751129507E+02  0.11856195864E+03  0.10181472536E+03 0.  0.
    9000005    2    3    3    0    0  0.14072041832E+02 -0.30576947873E+02  0.73650042027E+02  0.82515404756E+02  0.15858474987E+02 0.  0.
         22    1    3    3    0    0 -0.14072041832E+02  0.30576947873E+02 -0.12898912520E+02  0.36046553881E+02  0.00000000000E+00 0.  1.
         22    1    4    4    0    0  0.11365149867E+01 -0.96168017552E+01  0.37792742177E+02  0.39013663037E+02  0.00000000000E+00 0.  1.
         22    1    4    4    0    0  0.12935526845E+02 -0.20960146117E+02  0.35857299850E+02  0.43501741719E+02  0.00000000000E+00 0.  1.
<mgrwt>
<rscale>  0 0.10181473E+03</rscale>
<asrwt>0</asrwt>
<pdfrwt beam="1">  1        2 0.13793314E-01 0.10181473E+03</pdfrwt>
<pdfrwt beam="2">  1       -2 0.44469869E-02 0.10181473E+03</pdfrwt>
<totfact> 0.87251315E+04</totfact>
</mgrwt>
</event>
<event>
 7    1  0.3480999E-009  0.8919349E+02  0.7818608E-02  0.1304817E+00
          2   -1    0    0  501    0  0.00000000000E+00  0.00000000000E+00  0.94440171531E+03  0.94440171531E+03  0.25500000000E-02 0. -1.
         -2   -1    0    0    0  501 -0.00000000000E+00 -0.00000000000E+00 -0.21059563751E+01  0.21059579189E+01  0.25500000000E-02 0.  1.
         23    2    1    2    0    0  0.00000000000E+00  0.00000000000E+00  0.94229575893E+03  0.94650767323E+03  0.89193487324E+02 0.  0.
    9000005    2    3    3    0    0 -0.21482661005E+02  0.23370600303E+02  0.79703444607E+03  0.79781826978E+03  0.15568997973E+02 0.  0.
         22    1    3    3    0    0  0.21482661005E+02 -0.23370600303E+02  0.14526131286E+03  0.14868940344E+03  0.00000000000E+00 0.  1.
         22    1    4    4    0    0 -0.20336201708E+02  0.18275076996E+02  0.74935314477E+03  0.74985176876E+03  0.00000000000E+00 0.  1.
         22    1    4    4    0    0 -0.11464592969E+01  0.50955233064E+01  0.47681301300E+02  0.47966501022E+02  0.00000000000E+00 0.  1.
<mgrwt>
<rscale>  0 0.89193487E+02</rscale>
<asrwt>0</asrwt>
<pdfrwt beam="1">  1        2 0.14529239E+00 0.89193487E+02</pdfrwt>
<pdfrwt beam="2">  1       -2 0.32399382E-03 0.89193487E+02</pdfrwt>
<totfact> 0.26394641E+05</totfact>
</mgrwt>
</event>
<event>
 7    1  0.3480999E-009  0.9178824E+02  0.7818608E-02  0.1298578E+00
          2   -1    0    0  501    0  0.00000000000E+00  0.00000000000E+00  0.29811913289E+03  0.29811913290E+03  0.25500000000E-02 0. -1.
         -2   -1    0    0    0  501 -0.00000000000E+00 -0.00000000000E+00 -0.70651965270E+01  0.70651969872E+01  0.25500000000E-02 0.  1.
         23    2    1    2    0    0  0.17763568394E-14  0.00000000000E+00  0.29105393636E+03  0.30518432989E+03  0.91788241823E+02 0.  0.
    9000005    2    3    3    0    0  0.14876933691E+02 -0.32942961590E+02  0.23912033733E+03  0.24190984386E+03  0.59392721923E+01 0.  0.
         22    1    3    3    0    0 -0.14876933691E+02  0.32942961590E+02  0.51933599030E+02  0.63274486032E+02  0.00000000000E+00 0.  1.
         22    1    4    4    0    0  0.77918870801E+00 -0.65671169662E+01  0.51018500436E+02  0.51445325804E+02  0.00000000000E+00 0.  1.
         22    1    4    4    0    0  0.14097744983E+02 -0.26375844624E+02  0.18810183690E+03  0.19046451805E+03  0.00000000000E+00 0.  1.
<mgrwt>
<rscale>  0 0.91788242E+02</rscale>
<asrwt>0</asrwt>
<pdfrwt beam="1">  1        2 0.45864465E-01 0.91788242E+02</pdfrwt>
<pdfrwt beam="2">  1       -2 0.10869538E-02 0.91788242E+02</pdfrwt>
<totfact> 0.17606828E+05</totfact>
</mgrwt>
</event>
<event>
 7    1  0.3480999E-009  0.9174814E+02  0.7818608E-02  0.1298673E+00
          2   -1    0    0  501    0  0.00000000000E+00  0.00000000000E+00  0.69515131061E+02  0.69515131108E+02  0.25500000000E-02 0. -1.
         -2   -1    0    0    0  501 -0.00000000000E+00 -0.00000000000E+00 -0.30272982829E+02  0.30272982936E+02  0.25500000000E-02 0.  1.
         23    2    1    2    0    0  0.00000000000E+00  0.00000000000E+00  0.39242148232E+02  0.99788114044E+02  0.91748141707E+02 0.  0.
    9000005    2    3    3    0    0  0.10052172750E+02 -0.29335728536E+02  0.54933432593E+02  0.65034012839E+02  0.15814855791E+02 0.  0.
         22    1    3    3    0    0 -0.10052172750E+02  0.29335728536E+02 -0.15691284361E+02  0.34754101206E+02  0.00000000000E+00 0.  1.
         22    1    4    4    0    0 -0.89364072196E+00 -0.75184896660E+01  0.40214498784E+01  0.85731172698E+01  0.00000000000E+00 0.  1.
         22    1    4    4    0    0  0.10945813472E+02 -0.21817238870E+02  0.50911982715E+02  0.56460895569E+02  0.00000000000E+00 0.  1.
<mgrwt>
<rscale>  0 0.91748142E+02</rscale>
<asrwt>0</asrwt>
<pdfrwt beam="1">  1        2 0.10694636E-01 0.91748142E+02</pdfrwt>
<pdfrwt beam="2">  1       -2 0.46573820E-02 0.91748142E+02</pdfrwt>
<totfact> 0.10849075E+05</totfact>
</mgrwt>
</event>
<event>
 7    1  0.3480999E-009  0.9102815E+02  0.7818608E-02  0.1300381E+00
         -2   -1    0    0    0  501 -0.00000000000E+00  0.00000000000E+00  0.20349167746E+01  0.20349183723E+01  0.25500000000E-02 0.  1.
          2   -1    0    0  501    0  0.00000000000E+00 -0.00000000000E+00 -0.10179925340E+04  0.10179925340E+04  0.25500000000E-02 0. -1.
         23    2    1    2    0    0  0.00000000000E+00 -0.44408920985E-15 -0.10159576172E+04  0.10200274524E+04  0.91028147302E+02 0.  0.
    9000005    2    3    3    0    0  0.10096594076E+02 -0.21423367221E+01 -0.10045864024E+04  0.10046705209E+04  0.79047318908E+01 0.  0.
         22    1    3    3    0    0 -0.10096594076E+02  0.21423367221E+01 -0.11371214788E+02  0.15356931475E+02  0.00000000000E+00 0.  1.
         22    1    4    4    0    0  0.95299132477E+01  0.33987370214E+00 -0.90965440132E+03  0.90970438308E+03  0.00000000000E+00 0. -1.
         22    1    4    4    0    0  0.56668082829E+00 -0.24822104243E+01 -0.94932001124E+02  0.94966137824E+02  0.00000000000E+00 0. -1.
<mgrwt>
<rscale>  0 0.91028147E+02</rscale>
<asrwt>0</asrwt>
<pdfrwt beam="2">  1        2 0.15661383E+00 0.91028147E+02</pdfrwt>
<pdfrwt beam="1">  1       -2 0.31306506E-03 0.91028147E+02</pdfrwt>
<totfact> 0.25125647E+05</totfact>
</mgrwt>
</event>
<event>
 7    1  0.3480999E-009  0.9349200E+02  0.7818608E-02  0.1294609E+00
         -2   -1    0    0    0  501 -0.00000000000E+00  0.00000000000E+00  0.16143703742E+02  0.16143703944E+02  0.25500000000E-02 0.  1.
          2   -1    0    0  501    0  0.00000000000E+00 -0.00000000000E+00 -0.13535856351E+03  0.13535856353E+03  0.25500000000E-02 0. -1.
         23    2    1    2    0    0 -0.71054273576E-14  0.00000000000E+00 -0.11921485977E+03  0.15150226748E+03  0.93492001056E+02 0.  0.
    9000005    2    3    3    0    0 -0.38144413291E+02  0.10287105634E+02 -0.98069506268E+02  0.10669214828E+03  0.14309634447E+02 0.  0.
         22    1    3    3    0    0  0.38144413291E+02 -0.10287105634E+02 -0.21145353501E+02  0.44810119195E+02  0.00000000000E+00 0.  1.
         22    1    4    4    0    0  0.48520484672E+00  0.22988775753E+01 -0.33980730783E+01  0.41312422460E+01  0.00000000000E+00 0.  1.
         22    1    4    4    0    0 -0.38629618138E+02  0.79882280584E+01 -0.94671433189E+02  0.10256090604E+03  0.00000000000E+00 0.  1.
<mgrwt>
<rscale>  0 0.93492001E+02</rscale>
<asrwt>0</asrwt>
<pdfrwt beam="2">  1        2 0.20824394E-01 0.93492001E+02</pdfrwt>
<pdfrwt beam="1">  1       -2 0.24836468E-02 0.93492001E+02</pdfrwt>
<totfact> 0.12613248E+05</totfact>
</mgrwt>
</event>
<event>
 7    1  0.3480999E-009  0.9018438E+02  0.7818608E-02  0.1302406E+00
          2   -1    0    0  501    0  0.00000000000E+00  0.00000000000E+00  0.48009093439E+02  0.48009093507E+02  0.25500000000E-02 0.  1.
         -2   -1    0    0    0  501 -0.00000000000E+00 -0.00000000000E+00 -0.42352508074E+02  0.42352508150E+02  0.25500000000E-02 0. -1.
         23    2    1    2    0    0  0.17763568394E-14  0.35527136788E-14  0.56565853658E+01  0.90361601658E+02  0.90184378338E+02 0.  0.
    9000005    2    3    3    0    0 -0.15089229563E+02  0.18627783002E+02 -0.34985697859E+02  0.43176070676E+02  0.80928904579E+01 0.  0.
         22    1    3    3    0    0  0.15089229563E+02 -0.18627783002E+02  0.40642283224E+02  0.47185530982E+02  0.00000000000E+00 0.  1.
         22    1    4    4    0    0 -0.26797246042E+01  0.19019492696E+00 -0.17927871980E+01  0.32297343547E+01  0.00000000000E+00 0. -1.
         22    1    4    4    0    0 -0.12409504959E+02  0.18437588075E+02 -0.33192910661E+02  0.39946336321E+02  0.00000000000E+00 0. -1.
<mgrwt>
<rscale>  0 0.90184378E+02</rscale>
<asrwt>0</asrwt>
<pdfrwt beam="1">  1        2 0.73860144E-02 0.90184378E+02</pdfrwt>
<pdfrwt beam="2">  1       -2 0.65157705E-02 0.90184378E+02</pdfrwt>
<totfact> 0.10318501E+05</totfact>
</mgrwt>
</event>
<event>
 7    1  0.3480999E-009  0.8933873E+02  0.7818608E-02  0.1304461E+00
         -2   -1    0    0    0  501 -0.00000000000E+00  0.00000000000E+00  0.21361802419E+02  0.21361802571E+02  0.25500000000E-02 0.  1.
          2   -1    0    0  501    0  0.00000000000E+00 -0.00000000000E+00 -0.93407472717E+02  0.93407472752E+02  0.25500000000E-02 0. -1.
         23    2    1    2    0    0  0.00000000000E+00  0.00000000000E+00 -0.72045670298E+02  0.11476927532E+03  0.89338725923E+02 0.  0.
    9000005    2    3    3    0    0 -0.30886748314E+02  0.29874020282E+02 -0.26141724819E+02  0.51891453162E+02  0.12762633956E+02 0.  0.
         22    1    3    3    0    0  0.30886748314E+02 -0.29874020282E+02 -0.45903945479E+02  0.62877822161E+02  0.00000000000E+00 0. -1.
         22    1    4    4    0    0 -0.17037180313E+01 -0.14373542524E+00  0.10161111039E+01  0.19889184945E+01  0.00000000000E+00 0. -1.
         22    1    4    4    0    0 -0.29183030283E+02  0.30017755708E+02 -0.27157835923E+02  0.49902534667E+02  0.00000000000E+00 0. -1.
<mgrwt>
<rscale>  0 0.89338726E+02</rscale>
<asrwt>0</asrwt>
<pdfrwt beam="2">  1        2 0.14370380E-01 0.89338726E+02</pdfrwt>
<pdfrwt beam="1">  1       -2 0.32864312E-02 0.89338726E+02</pdfrwt>
<totfact> 0.12711216E+05</totfact>
</mgrwt>
</event>
<event>
 7    1  0.3480999E-009  0.9450459E+02  0.7818608E-02  0.1292296E+00
          2   -1    0    0  501    0  0.00000000000E+00  0.00000000000E+00  0.14580865958E+04  0.14580865958E+04  0.25500000000E-02 0. -1.
         -2   -1    0    0    0  501 -0.00000000000E+00 -0.00000000000E+00 -0.15313066206E+01  0.15313087438E+01  0.25500000000E-02 0.  1.
         23    2    1    2    0    0 -0.17763568394E-14  0.00000000000E+00  0.14565552892E+04  0.14596179046E+04  0.94504586319E+02 0.  0.
    9000005    2    3    3    0    0 -0.12944613146E+02 -0.24784617468E+02  0.13163808115E+04  0.13166818193E+04  0.32759919932E+01 0.  0.
         22    1    3    3    0    0  0.12944613146E+02  0.24784617468E+02  0.14017447776E+03  0.14293608532E+03  0.00000000000E+00 0.  1.
         22    1    4    4    0    0 -0.30624488354E+01 -0.56232190605E+01  0.24188517318E+03  0.24196990762E+03  0.00000000000E+00 0.  1.
         22    1    4    4    0    0 -0.98821643109E+01 -0.19161398407E+02  0.10744956383E+04  0.10747119117E+04  0.00000000000E+00 0.  1.
<mgrwt>
<rscale>  0 0.94504586E+02</rscale>
<asrwt>0</asrwt>
<pdfrwt beam="1">  1        2 0.22432133E+00 0.94504586E+02</pdfrwt>
<pdfrwt beam="2">  1       -2 0.23558547E-03 0.94504586E+02</pdfrwt>
<totfact> 0.21685805E+05</totfact>
</mgrwt>
</event>
<event>
 7    1  0.3480999E-009  0.8970121E+02  0.7818608E-02  0.1303577E+00
         -2   -1    0    0    0  501 -0.00000000000E+00  0.00000000000E+00  0.83687834486E+01  0.83687838371E+01  0.25500000000E-02 0.  1.
          2   -1    0    0  501    0  0.00000000000E+00 -0.00000000000E+00 -0.24036667068E+03  0.24036667070E+03  0.25500000000E-02 0. -1.
         23    2    1    2    0    0  0.00000000000E+00 -0.33306690739E-15 -0.23199788724E+03  0.24873545453E+03  0.89701207689E+02 0.  0.
    9000005    2    3    3    0    0  0.40014044765E+02  0.57294938138E+00 -0.16882335232E+03  0.17395260950E+03  0.12519345615E+02 0.  0.
         22    1    3    3    0    0 -0.40014044765E+02 -0.57294938138E+00 -0.63174534917E+02  0.74782845034E+02  0.00000000000E+00 0.  1.
         22    1    4    4    0    0  0.19952824673E+02  0.63480087493E+01 -0.78057518220E+02  0.80817006739E+02  0.00000000000E+00 0.  1.
         22    1    4    4    0    0  0.20061220091E+02 -0.57750593679E+01 -0.90765834098E+02  0.93135602761E+02  0.00000000000E+00 0.  1.
<mgrwt>
<rscale>  0 0.89701208E+02</rscale>
<asrwt>0</asrwt>
<pdfrwt beam="2">  1        2 0.36979483E-01 0.89701208E+02</pdfrwt>
<pdfrwt beam="1">  1       -2 0.12875054E-02 0.89701208E+02</pdfrwt>
<totfact> 0.17282457E+05</totfact>
</mgrwt>
</event>
<event>
 7    1  0.3480999E-009  0.8765247E+02  0.7818608E-02  0.1308638E+00
          2   -1    0    0  501    0  0.00000000000E+00  0.00000000000E+00  0.67470918255E+02  0.67470918303E+02  0.25500000000E-02 0. -1.
         -2   -1    0    0    0  501 -0.00000000000E+00 -0.00000000000E+00 -0.28467658396E+02  0.28467658510E+02  0.25500000000E-02 0.  1.
         23    2    1    2    0    0  0.17763568394E-14 -0.17763568394E-14  0.39003259859E+02  0.95938576813E+02  0.87652474245E+02 0.  0.
    9000005    2    3    3    0    0  0.14805391374E+02 -0.13122938396E+02 -0.23094337365E+02  0.30765555502E+02  0.46647466283E+01 0.  0.
         22    1    3    3    0    0 -0.14805391374E+02  0.13122938396E+02  0.62097597224E+02  0.65173021311E+02  0.00000000000E+00 0. -1.
         22    1    4    4    0    0  0.12181382432E+01 -0.24945092282E+00 -0.31498042216E+00  0.12826921723E+01  0.00000000000E+00 0.  1.
         22    1    4    4    0    0  0.13587253131E+02 -0.12873487473E+02 -0.22779356943E+02  0.29482863329E+02  0.00000000000E+00 0.  1.
<mgrwt>
<rscale>  0 0.87652474E+02</rscale>
<asrwt>0</asrwt>
<pdfrwt beam="1">  1        2 0.10380141E-01 0.87652474E+02</pdfrwt>
<pdfrwt beam="2">  1       -2 0.43796398E-02 0.87652474E+02</pdfrwt>
<totfact> 0.12223902E+05</totfact>
</mgrwt>
</event>
<event>
 7    1  0.3480999E-009  0.8991620E+02  0.7818608E-02  0.1303055E+00
         -2   -1    0    0    0  501 -0.00000000000E+00  0.00000000000E+00  0.37055439970E+03  0.37055439971E+03  0.25500000000E-02 0.  1.
          2   -1    0    0  501    0  0.00000000000E+00 -0.00000000000E+00 -0.54546120871E+01  0.54546126831E+01  0.25500000000E-02 0. -1.
         23    2    1    2    0    0  0.00000000000E+00  0.35527136788E-14  0.36509978762E+03  0.37600901240E+03  0.89916197012E+02 0.  0.
    9000005    2    3    3    0    0 -0.29911056853E+02  0.29951320827E+02  0.13211844063E+03  0.13921361340E+03  0.11549669268E+02 0.  0.
         22    1    3    3    0    0  0.29911056853E+02 -0.29951320827E+02  0.23298134699E+03  0.23679539900E+03  0.00000000000E+00 0.  1.
         22    1    4    4    0    0 -0.17401966323E+02  0.20809048948E+02  0.67126473007E+02  0.72400333759E+02  0.00000000000E+00 0.  1.
         22    1    4    4    0    0 -0.12509090530E+02  0.91422718796E+01  0.64991967622E+02  0.66813279641E+02  0.00000000000E+00 0.  1.
<mgrwt>
<rscale>  0 0.89916197E+02</rscale>
<asrwt>0</asrwt>
<pdfrwt beam="2">  1        2 0.83917117E-03 0.89916197E+02</pdfrwt>
<pdfrwt beam="1">  1       -2 0.57008367E-01 0.89916197E+02</pdfrwt>
<totfact> 0.46545510E+04</totfact>
</mgrwt>
</event>
<event>
 7    1  0.3480999E-009  0.9139684E+02  0.7818608E-02  0.1299504E+00
          2   -1    0    0  501    0  0.00000000000E+00  0.00000000000E+00  0.21278286222E+02  0.21278286375E+02  0.25500000000E-02 0. -1.
         -2   -1    0    0    0  501 -0.00000000000E+00 -0.00000000000E+00 -0.98144453193E+02  0.98144453226E+02  0.25500000000E-02 0.  1.
         23    2    1    2    0    0  0.00000000000E+00  0.00000000000E+00 -0.76866166971E+02  0.11942273960E+03  0.91396844086E+02 0.  0.
    9000005    2    3    3    0    0  0.27454935558E+02 -0.14421112643E+02  0.44986969158E+01  0.32348156331E+02  0.80263919459E+01 0.  0.
         22    1    3    3    0    0 -0.27454935558E+02  0.14421112643E+02 -0.81364863886E+02  0.87074583270E+02  0.00000000000E+00 0.  1.
         22    1    4    4    0    0  0.20032406510E+02 -0.69835499305E+01  0.87371950120E+00  0.21232773394E+02  0.00000000000E+00 0. -1.
         22    1    4    4    0    0  0.74225290480E+01 -0.74375627130E+01  0.36249774146E+01  0.11115382937E+02  0.00000000000E+00 0. -1.
<mgrwt>
<rscale>  0 0.91396844E+02</rscale>
<asrwt>0</asrwt>
<pdfrwt beam="1">  1        2 0.32735826E-02 0.91396844E+02</pdfrwt>
<pdfrwt beam="2">  1       -2 0.15099146E-01 0.91396844E+02</pdfrwt>
<totfact> 0.79772012E+04</totfact>
</mgrwt>
</event>
<event>
 7    1  0.3480999E-009  0.9120567E+02  0.7818608E-02  0.1299958E+00
         -2   -1    0    0    0  501 -0.00000000000E+00  0.00000000000E+00  0.36910577433E+01  0.36910586241E+01  0.25500000000E-02 0.  1.
          2   -1    0    0  501    0  0.00000000000E+00 -0.00000000000E+00 -0.56342073518E+03  0.56342073518E+03  0.25500000000E-02 0. -1.
         23    2    1    2    0    0  0.00000000000E+00  0.00000000000E+00 -0.55972967743E+03  0.56711179381E+03  0.91205673479E+02 0.  0.
    9000005    2    3    3    0    0  0.30517273877E+02 -0.44904019470E+01 -0.48592655621E+03  0.48712199185E+03  0.14551604743E+02 0.  0.
         22    1    3    3    0    0 -0.30517273877E+02  0.44904019470E+01 -0.73803121224E+02  0.79989801956E+02  0.00000000000E+00 0.  1.
         22    1    4    4    0    0  0.17577306163E+02 -0.27921723915E+01 -0.37641337862E+03  0.37683390177E+03  0.00000000000E+00 0.  1.
         22    1    4    4    0    0  0.12939967714E+02 -0.16982295555E+01 -0.10951317759E+03  0.11028809008E+03  0.00000000000E+00 0.  1.
<mgrwt>
<rscale>  0 0.91205673E+02</rscale>
<asrwt>0</asrwt>
<pdfrwt beam="2">  1        2 0.86680045E-01 0.91205673E+02</pdfrwt>
<pdfrwt beam="1">  1       -2 0.56785555E-03 0.91205673E+02</pdfrwt>
<totfact> 0.22351689E+05</totfact>
</mgrwt>
</event>
<event>
 7    1  0.3480999E-009  0.9101143E+02  0.7818608E-02  0.1300421E+00
          2   -1    0    0  501    0  0.00000000000E+00  0.00000000000E+00  0.19024958728E+03  0.19024958730E+03  0.25500000000E-02 0. -1.
         -2   -1    0    0    0  501 -0.00000000000E+00 -0.00000000000E+00 -0.10884492408E+02  0.10884492706E+02  0.25500000000E-02 0.  1.
         23    2    1    2    0    0  0.35527136788E-14 -0.35527136788E-14  0.17936509488E+03  0.20113408001E+03  0.91011432690E+02 0.  0.
    9000005    2    3    3    0    0  0.22335927851E+02 -0.21307195544E+02  0.16348908449E+03  0.16642186370E+03  0.38295844300E+01 0.  0.
         22    1    3    3    0    0 -0.22335927851E+02  0.21307195544E+02  0.15876010390E+02  0.34712216305E+02  0.00000000000E+00 0.  1.
         22    1    4    4    0    0  0.91220010394E+01 -0.88303012849E+01  0.57386195599E+02  0.58773808529E+02  0.00000000000E+00 0. -1.
         22    1    4    4    0    0  0.13213926812E+02 -0.12476894259E+02  0.10610288889E+03  0.10764805517E+03  0.00000000000E+00 0. -1.
<mgrwt>
<rscale>  0 0.91011433E+02</rscale>
<asrwt>0</asrwt>
<pdfrwt beam="1">  1        2 0.29269169E-01 0.91011433E+02</pdfrwt>
<pdfrwt beam="2">  1       -2 0.16745372E-02 0.91011433E+02</pdfrwt>
<totfact> 0.15266583E+05</totfact>
</mgrwt>
</event>
<event>
 7    1  0.3480999E-009  0.8623573E+02  0.7818608E-02  0.1312232E+00
         -2   -1    0    0    0  501 -0.00000000000E+00  0.00000000000E+00  0.33809598157E+02  0.33809598254E+02  0.25500000000E-02 0.  1.
          2   -1    0    0  501    0  0.00000000000E+00 -0.00000000000E+00 -0.54988828824E+02  0.54988828883E+02  0.25500000000E-02 0. -1.
         23    2    1    2    0    0  0.35527136788E-14  0.00000000000E+00 -0.21179230666E+02  0.88798427137E+02  0.86235728386E+02 0.  0.
    9000005    2    3    3    0    0  0.17881522376E+02  0.17832601892E+02  0.24168894970E+02  0.36892714239E+02  0.11797726354E+02 0.  0.
         22    1    3    3    0    0 -0.17881522376E+02 -0.17832601892E+02 -0.45348125637E+02  0.51905712898E+02  0.00000000000E+00 0. -1.
         22    1    4    4    0    0  0.12293723272E+02  0.39585279514E+01  0.11370824622E+02  0.17207592162E+02  0.00000000000E+00 0. -1.
         22    1    4    4    0    0  0.55877991031E+01  0.13874073940E+02  0.12798070348E+02  0.19685122076E+02  0.00000000000E+00 0. -1.
<mgrwt>
<rscale>  0 0.86235728E+02</rscale>
<asrwt>0</asrwt>
<pdfrwt beam="2">  1        2 0.84598198E-02 0.86235728E+02</pdfrwt>
<pdfrwt beam="1">  1       -2 0.52014767E-02 0.86235728E+02</pdfrwt>
<totfact> 0.12125431E+05</totfact>
</mgrwt>
</event>
<event>
 7    1  0.3480999E-009  0.8986649E+02  0.7818608E-02  0.1303175E+00
          2   -1    0    0  501    0  0.00000000000E+00  0.00000000000E+00  0.11692241867E+02  0.11692242145E+02  0.25500000000E-02 0. -1.
         -2   -1    0    0    0  501 -0.00000000000E+00 -0.00000000000E+00 -0.17267831075E+03  0.17267831077E+03  0.25500000000E-02 0.  1.
         23    2    1    2    0    0  0.00000000000E+00  0.00000000000E+00 -0.16098606888E+03  0.18437055291E+03  0.89866492128E+02 0.  0.
    9000005    2    3    3    0    0 -0.23445953434E+02  0.35499037319E+02 -0.10706967981E+03  0.11569106985E+03  0.10517267984E+02 0.  0.
         22    1    3    3    0    0  0.23445953434E+02 -0.35499037319E+02 -0.53916389073E+02  0.68679483062E+02  0.00000000000E+00 0. -1.
         22    1    4    4    0    0  0.19702613465E-01  0.20769333902E+01 -0.12638316572E+02  0.12807852524E+02  0.00000000000E+00 0.  1.
         22    1    4    4    0    0 -0.23465656047E+02  0.33422103929E+02 -0.94431363236E+02  0.10288321733E+03  0.00000000000E+00 0.  1.
<mgrwt>
<rscale>  0 0.89866492E+02</rscale>
<asrwt>0</asrwt>
<pdfrwt beam="1">  1        2 0.17988066E-02 0.89866492E+02</pdfrwt>
<pdfrwt beam="2">  1       -2 0.26565892E-01 0.89866492E+02</pdfrwt>
<totfact> 0.68706475E+04</totfact>
</mgrwt>
</event>
<event>
 7    1  0.3480999E-009  0.9011535E+02  0.7818608E-02  0.1302573E+00
          2   -1    0    0  501    0  0.00000000000E+00  0.00000000000E+00  0.17307183584E+03  0.17307183585E+03  0.25500000000E-02 0. -1.
         -2   -1    0    0    0  501 -0.00000000000E+00 -0.00000000000E+00 -0.11730353802E+02  0.11730354079E+02  0.25500000000E-02 0.  1.
         23    2    1    2    0    0  0.00000000000E+00  0.00000000000E+00  0.16134148203E+03  0.18480218993E+03  0.90115345972E+02 0.  0.
    9000005    2    3    3    0    0  0.10113703326E+02 -0.18889256588E+02  0.16160410972E+03  0.16337417130E+03  0.10776852911E+02 0.  0.
         22    1    3    3    0    0 -0.10113703326E+02  0.18889256588E+02 -0.26262768789E+00  0.21428018637E+02  0.00000000000E+00 0.  1.
         22    1    4    4    0    0  0.75640753045E+01 -0.13964698548E+02  0.14502950424E+03  0.14589648776E+03  0.00000000000E+00 0. -1.
         22    1    4    4    0    0  0.25496280219E+01 -0.49245580396E+01  0.16574605484E+02  0.17477683539E+02  0.00000000000E+00 0. -1.
<mgrwt>
<rscale>  0 0.90115346E+02</rscale>
<asrwt>0</asrwt>
<pdfrwt beam="1">  1        2 0.26626437E-01 0.90115346E+02</pdfrwt>
<pdfrwt beam="2">  1       -2 0.18046698E-02 0.90115346E+02</pdfrwt>
<totfact> 0.15161419E+05</totfact>
</mgrwt>
</event>
<event>
 7    1  0.3480999E-009  0.9646822E+02  0.7818608E-02  0.1287903E+00
         -2   -1    0    0    0  501 -0.00000000000E+00  0.00000000000E+00  0.29840503024E+03  0.29840503025E+03  0.25500000000E-02 0.  1.
          2   -1    0    0  501    0  0.00000000000E+00 -0.00000000000E+00 -0.77965477292E+01  0.77965481462E+01  0.25500000000E-02 0. -1.
         23    2    1    2    0    0  0.00000000000E+00  0.00000000000E+00  0.29060848251E+03  0.30620157840E+03  0.96468215002E+02 0.  0.
    9000005    2    3    3    0    0  0.33906027492E+02 -0.21767867300E+02  0.66461069669E+02  0.78461548032E+02  0.10755556282E+02 0.  0.
         22    1    3    3    0    0 -0.33906027492E+02  0.21767867300E+02  0.22414741284E+03  0.22774003036E+03  0.00000000000E+00 0.  1.
         22    1    4    4    0    0  0.73139010535E+01  0.72369794727E-02  0.10777437899E+02  0.13024836608E+02  0.00000000000E+00 0. -1.
         22    1    4    4    0    0  0.26592126438E+02 -0.21775104280E+02  0.55683631770E+02  0.65436711424E+02  0.00000000000E+00 0. -1.
<mgrwt>
<rscale>  0 0.96468215E+02</rscale>
<asrwt>0</asrwt>
<pdfrwt beam="2">  1        2 0.11994688E-02 0.96468215E+02</pdfrwt>
<pdfrwt beam="1">  1       -2 0.45908470E-01 0.96468215E+02</pdfrwt>
<totfact> 0.44226091E+04</totfact>
</mgrwt>
</event>
<event>
 7    1  0.3480999E-009  0.8904128E+02  0.7818608E-02  0.1305190E+00
          2   -1    0    0  501    0  0.00000000000E+00  0.00000000000E+00  0.25221590825E+02  0.25221590954E+02  0.25500000000E-02 0. -1.
         -2   -1    0    0    0  501 -0.00000000000E+00 -0.00000000000E+00 -0.78586934844E+02  0.78586934885E+02  0.25500000000E-02 0.  1.
         23    2    1    2    0    0 -0.35527136788E-14  0.17763568394E-14 -0.53365344019E+02  0.10380852584E+03  0.89041283092E+02 0.  0.
    9000005    2    3    3    0    0  0.30322181060E+02 -0.10772251277E+02  0.62115281304E+01  0.36096785669E+02  0.15130062527E+02 0.  0.
         22    1    3    3    0    0 -0.30322181060E+02  0.10772251277E+02 -0.59576872149E+02  0.67711740170E+02  0.00000000000E+00 0.  1.
         22    1    4    4    0    0  0.17633987767E+02  0.23349471784E+00 -0.13288739357E+01  0.17685529403E+02  0.00000000000E+00 0. -1.
         22    1    4    4    0    0  0.12688193294E+02 -0.11005745995E+02  0.75404020661E+01  0.18411256265E+02  0.00000000000E+00 0. -1.
<mgrwt>
<rscale>  0 0.89041283E+02</rscale>
<asrwt>0</asrwt>
<pdfrwt beam="1">  1        2 0.38802448E-02 0.89041283E+02</pdfrwt>
<pdfrwt beam="2">  1       -2 0.12090298E-01 0.89041283E+02</pdfrwt>
<totfact> 0.90615580E+04</totfact>
</mgrwt>
</event>
<event>
 7    1  0.3480999E-009  0.8857643E+02  0.7818608E-02  0.1306336E+00
         -2   -1    0    0    0  501 -0.00000000000E+00  0.00000000000E+00  0.93842812173E+02  0.93842812208E+02  0.25500000000E-02 0.  1.
          2   -1    0    0  501    0  0.00000000000E+00 -0.00000000000E+00 -0.20901399454E+02  0.20901399610E+02  0.25500000000E-02 0. -1.
         23    2    1    2    0    0  0.00000000000E+00  0.00000000000E+00  0.72941412719E+02  0.11474421182E+03  0.88576432849E+02 0.  0.
    9000005    2    3    3    0    0  0.13965938346E+02  0.30271668002E+02  0.73275572708E+00  0.35211127745E+02  0.11307752587E+02 0.  0.
         22    1    3    3    0    0 -0.13965938346E+02 -0.30271668002E+02  0.72208656992E+02  0.79533084072E+02  0.00000000000E+00 0.  1.
         22    1    4    4    0    0  0.14798509472E+01  0.95110315629E+01  0.46171073714E+01  0.10675549667E+02  0.00000000000E+00 0.  1.
         22    1    4    4    0    0  0.12486087399E+02  0.20760636440E+02 -0.38843516444E+01  0.24535578078E+02  0.00000000000E+00 0.  1.
<mgrwt>
<rscale>  0 0.88576433E+02</rscale>
<asrwt>0</asrwt>
<pdfrwt beam="2">  1        2 0.32155999E-02 0.88576433E+02</pdfrwt>
<pdfrwt beam="1">  1       -2 0.14437356E-01 0.88576433E+02</pdfrwt>
<totfact> 0.87361360E+04</totfact>
</mgrwt>
</event>
<event>
 7    1  0.3480999E-009  0.9493554E+02  0.7818608E-02  0.1291321E+00
         -2   -1    0    0    0  501 -0.00000000000E+00  0.00000000000E+00  0.78374800596E+02  0.78374800638E+02  0.25500000000E-02 0.  1.
          2   -1    0    0  501    0  0.00000000000E+00 -0.00000000000E+00 -0.28748898277E+02  0.28748898390E+02  0.25500000000E-02 0. -1.
         23    2    1    2    0    0  0.35527136788E-14 -0.71054273576E-14  0.49625902319E+02  0.10712369903E+03  0.94935539775E+02 0.  0.
    9000005    2    3    3    0    0  0.31835851152E+02 -0.32014900326E+02  0.14422708025E+02  0.49872147521E+02  0.15515841264E+02 0.  0.
         22    1    3    3    0    0 -0.31835851152E+02  0.32014900326E+02  0.35203194294E+02  0.57251551507E+02  0.00000000000E+00 0.  1.
         22    1    4    4    0    0  0.29943676115E+02 -0.33696352623E+02  0.14458940846E+02  0.47340562837E+02  0.00000000000E+00 0. -1.
         22    1    4    4    0    0  0.18921750365E+01  0.16814522964E+01 -0.36232820699E-01  0.25315846838E+01  0.00000000000E+00 0. -1.
<mgrwt>
<rscale>  0 0.94935540E+02</rscale>
<asrwt>0</asrwt>
<pdfrwt beam="2">  1        2 0.44229075E-02 0.94935540E+02</pdfrwt>
<pdfrwt beam="1">  1       -2 0.12057661E-01 0.94935540E+02</pdfrwt>
<totfact> 0.77486502E+04</totfact>
</mgrwt>
</event>
<event>
 7    1  0.3480999E-009  0.9147873E+02  0.7818608E-02  0.1299310E+00
          2   -1    0    0  501    0  0.00000000000E+00  0.00000000000E+00  0.99042588064E+03  0.99042588064E+03  0.25500000000E-02 0. -1.
         -2   -1    0    0    0  501 -0.00000000000E+00 -0.00000000000E+00 -0.21123123099E+01  0.21123138490E+01  0.25500000000E-02 0.  1.
         23    2    1    2    0    0  0.00000000000E+00  0.17763568394E-14  0.98831356833E+03  0.99253819449E+03  0.91478730755E+02 0.  0.
    9000005    2    3    3    0    0  0.83198455222E+01  0.12060853474E+02  0.96418806273E+03  0.96431189406E+03  0.49116884651E+01 0.  0.
         22    1    3    3    0    0 -0.83198455222E+01 -0.12060853474E+02  0.24125505596E+02  0.28226300435E+02  0.00000000000E+00 0.  1.
         22    1    4    4    0    0  0.17398228952E+01  0.20242379230E+00  0.75209589271E+02  0.75229982569E+02  0.00000000000E+00 0. -1.
         22    1    4    4    0    0  0.65800226269E+01  0.11858429682E+02  0.88897847346E+03  0.88908191149E+03  0.00000000000E+00 0. -1.
<mgrwt>
<rscale>  0 0.91478731E+02</rscale>
<asrwt>0</asrwt>
<pdfrwt beam="1">  1        2 0.15237306E+00 0.91478731E+02</pdfrwt>
<pdfrwt beam="2">  1       -2 0.32497157E-03 0.91478731E+02</pdfrwt>
<totfact> 0.24773503E+05</totfact>
</mgrwt>
</event>
<event>
 7    1  0.3480999E-009  0.9085276E+02  0.7818608E-02  0.1300800E+00
          2   -1    0    0  501    0  0.00000000000E+00  0.00000000000E+00  0.99047249351E+02  0.99047249384E+02  0.25500000000E-02 0. -1.
         -2   -1    0    0    0  501 -0.00000000000E+00 -0.00000000000E+00 -0.20834054791E+02  0.20834054947E+02  0.25500000000E-02 0.  1.
         23    2    1    2    0    0 -0.44408920985E-15  0.00000000000E+00  0.78213194560E+02  0.11988130433E+03  0.90852756286E+02 0.  0.
    9000005    2    3    3    0    0 -0.39513422813E+01 -0.39450013630E+02  0.12118302594E+02  0.42806980298E+02  0.10661501921E+02 0.  0.
         22    1    3    3    0    0  0.39513422813E+01  0.39450013630E+02  0.66094891966E+02  0.77074324034E+02  0.00000000000E+00 0. -1.
         22    1    4    4    0    0 -0.33600982733E+01 -0.25037447121E+02  0.12892355271E+02  0.28361538096E+02  0.00000000000E+00 0.  1.
         22    1    4    4    0    0 -0.59124400804E+00 -0.14412566509E+02 -0.77405267654E+00  0.14445442202E+02  0.00000000000E+00 0.  1.
<mgrwt>
<rscale>  0 0.90852756E+02</rscale>
<asrwt>0</asrwt>
<pdfrwt beam="1">  1        2 0.15238038E-01 0.90852756E+02</pdfrwt>
<pdfrwt beam="2">  1       -2 0.32052392E-02 0.90852756E+02</pdfrwt>
<totfact> 0.12352456E+05</totfact>
</mgrwt>
</event>
<event>
 7    1  0.3480999E-009  0.9162382E+02  0.7818608E-02  0.1298966E+00
         -2   -1    0    0    0  501 -0.00000000000E+00  0.00000000000E+00  0.54481061395E+01  0.54481067363E+01  0.25500000000E-02 0. -1.
          2   -1    0    0  501    0  0.00000000000E+00 -0.00000000000E+00 -0.38522213609E+03  0.38522213610E+03  0.25500000000E-02 0.  1.
         23    2    1    2    0    0  0.00000000000E+00  0.00000000000E+00 -0.37977402995E+03  0.39067024284E+03  0.91623822294E+02 0.  0.
    9000005    2    3    3    0    0  0.86707694323E+01 -0.20428809896E+02 -0.36040582596E+03  0.36121441417E+03  0.95380870879E+01 0.  0.
         22    1    3    3    0    0 -0.86707694323E+01  0.20428809896E+02 -0.19368203995E+02  0.29455828665E+02  0.00000000000E+00 0. -1.
         22    1    4    4    0    0  0.55361355132E+01 -0.20053461025E+02 -0.32642381746E+03  0.32708607231E+03  0.00000000000E+00 0. -1.
         22    1    4    4    0    0  0.31346339191E+01 -0.37534887145E+00 -0.33982008498E+02  0.34128341860E+02  0.00000000000E+00 0. -1.
<mgrwt>
<rscale>  0 0.91623822E+02</rscale>
<asrwt>0</asrwt>
<pdfrwt beam="2">  1        2 0.59264923E-01 0.91623822E+02</pdfrwt>
<pdfrwt beam="1">  1       -2 0.83817053E-03 0.91623822E+02</pdfrwt>
<totfact> 0.19439870E+05</totfact>
</mgrwt>
</event>
<event>
 7    1  0.3480999E-009  0.9213722E+02  0.7818608E-02  0.1297757E+00
          2   -1    0    0  501    0  0.00000000000E+00  0.00000000000E+00  0.35997680243E+03  0.35997680244E+03  0.25500000000E-02 0. -1.
         -2   -1    0    0    0  501 -0.00000000000E+00 -0.00000000000E+00 -0.58957047098E+01  0.58957052613E+01  0.25500000000E-02 0.  1.
         23    2    1    2    0    0 -0.17763568394E-14  0.00000000000E+00  0.35408109772E+03  0.36587250770E+03  0.92137224444E+02 0.  0.
    9000005    2    3    3    0    0 -0.11041134318E+02  0.18334367123E+02  0.33901438373E+03  0.33969882750E+03  0.25466379236E+01 0.  0.
         22    1    3    3    0    0  0.11041134318E+02 -0.18334367123E+02  0.15066713995E+02  0.26173680204E+02  0.00000000000E+00 0.  1.
         22    1    4    4    0    0 -0.11089393753E+02  0.18170723106E+02  0.33804170711E+03  0.33871130122E+03  0.00000000000E+00 0.  1.
         22    1    4    4    0    0  0.48259435060E-01  0.16364401680E+00  0.97267662285E+00  0.98752627811E+00  0.00000000000E+00 0.  1.
<mgrwt>
<rscale>  0 0.92137224E+02</rscale>
<asrwt>0</asrwt>
<pdfrwt beam="1">  1        2 0.55381064E-01 0.92137224E+02</pdfrwt>
<pdfrwt beam="2">  1       -2 0.90703125E-03 0.92137224E+02</pdfrwt>
<totfact> 0.18687231E+05</totfact>
</mgrwt>
</event>
<event>
 7    1  0.7672238E-009  0.9644550E+02  0.7818608E-02  0.1287953E+00
         -2   -1    0    0    0  501 -0.00000000000E+00  0.00000000000E+00  0.49489687937E+01  0.49489694506E+01  0.25500000000E-02 0. -1.
          2   -1    0    0  501    0  0.00000000000E+00 -0.00000000000E+00 -0.46988242437E+03  0.46988242438E+03  0.25500000000E-02 0.  1.
         23    2    1    2    0    0  0.44408920985E-15  0.00000000000E+00 -0.46493345558E+03  0.47483139383E+03  0.96445499896E+02 0.  0.
    9000005    2    3    3    0    0  0.39013962674E+01  0.39997734505E+02 -0.35793943692E+03  0.36053896325E+03  0.15895403825E+02 0.  0.
         22    1    3    3    0    0 -0.39013962674E+01 -0.39997734505E+02 -0.10699401866E+03  0.11429243058E+03  0.00000000000E+00 0.  1.
         22    1    4    4    0    0  0.86460585022E+01  0.35965149425E+02 -0.30682013103E+03  0.30904180803E+03  0.00000000000E+00 0.  1.
         22    1    4    4    0    0 -0.47446622348E+01  0.40325850807E+01 -0.51119305886E+02  0.51497155226E+02  0.00000000000E+00 0.  1.
<mgrwt>
<rscale>  0 0.96445500E+02</rscale>
<asrwt>0</asrwt>
<pdfrwt beam="2">  1        2 0.72289569E-01 0.96445500E+02</pdfrwt>
<pdfrwt beam="1">  1       -2 0.76138023E-03 0.96445500E+02</pdfrwt>
<totfact> 0.18183689E+05</totfact>
</mgrwt>
</event>
<event>
 7    1  0.3480999E-009  0.9164377E+02  0.7818608E-02  0.1298919E+00
         -2   -1    0    0    0  501 -0.00000000000E+00  0.00000000000E+00  0.33529785645E+02  0.33529785742E+02  0.25500000000E-02 0.  1.
          2   -1    0    0  501    0  0.00000000000E+00 -0.00000000000E+00 -0.62620290875E+02  0.62620290927E+02  0.25500000000E-02 0. -1.
         23    2    1    2    0    0  0.00000000000E+00  0.00000000000E+00 -0.29090505230E+02  0.96150076669E+02  0.91643765467E+02 0.  0.
    9000005    2    3    3    0    0  0.36078092853E+02 -0.21442169803E+02  0.46302300874E+01  0.42312511530E+02  0.27411989229E+01 0.  0.
         22    1    3    3    0    0 -0.36078092853E+02  0.21442169803E+02 -0.33720735317E+02  0.53837565139E+02  0.00000000000E+00 0. -1.
         22    1    4    4    0    0  0.24322284327E+02 -0.14145754900E+02  0.43694564505E+01  0.28473988941E+02  0.00000000000E+00 0.  1.
         22    1    4    4    0    0  0.11755808526E+02 -0.72964149030E+01  0.26077363694E+00  0.13838522588E+02  0.00000000000E+00 0.  1.
<mgrwt>
<rscale>  0 0.91643765E+02</rscale>
<asrwt>0</asrwt>
<pdfrwt beam="2">  1        2 0.96338909E-02 0.91643765E+02</pdfrwt>
<pdfrwt beam="1">  1       -2 0.51584286E-02 0.91643765E+02</pdfrwt>
<totfact> 0.10576431E+05</totfact>
</mgrwt>
</event>
<event>
 7    1  0.3480999E-009  0.9246908E+02  0.7818608E-02  0.1296980E+00
          2   -1    0    0  501    0  0.00000000000E+00  0.00000000000E+00  0.58942764144E+02  0.58942764199E+02  0.25500000000E-02 0. -1.
         -2   -1    0    0    0  501 -0.00000000000E+00 -0.00000000000E+00 -0.36266243674E+02  0.36266243763E+02  0.25500000000E-02 0.  1.
         23    2    1    2    0    0  0.00000000000E+00  0.00000000000E+00  0.22676520470E+02  0.95209007962E+02  0.92469079245E+02 0.  0.
    9000005    2    3    3    0    0  0.35300233933E+02  0.28980034859E+02  0.10113077561E+02  0.47840357634E+02  0.10023798911E+02 0.  0.
         22    1    3    3    0    0 -0.35300233933E+02 -0.28980034859E+02  0.12563442909E+02  0.47368650328E+02  0.00000000000E+00 0.  1.
         22    1    4    4    0    0  0.20166323287E+02  0.21318940208E+02  0.31873354772E+01  0.29518416522E+02  0.00000000000E+00 0.  1.
         22    1    4    4    0    0  0.15133910647E+02  0.76610946509E+01  0.69257420841E+01  0.18321941112E+02  0.00000000000E+00 0.  1.
<mgrwt>
<rscale>  0 0.92469079E+02</rscale>
<asrwt>0</asrwt>
<pdfrwt beam="1">  1        2 0.90681174E-02 0.92469079E+02</pdfrwt>
<pdfrwt beam="2">  1       -2 0.55794222E-02 0.92469079E+02</pdfrwt>
<totfact> 0.10144390E+05</totfact>
</mgrwt>
</event>
<event>
 7    1  0.3480999E-009  0.8289395E+02  0.7818608E-02  0.1321034E+00
         -2   -1    0    0    0  501 -0.00000000000E+00  0.00000000000E+00  0.27951493341E+03  0.27951493342E+03  0.25500000000E-02 0. -1.
          2   -1    0    0  501    0  0.00000000000E+00 -0.00000000000E+00 -0.61458312426E+01  0.61458317717E+01  0.25500000000E-02 0.  1.
         23    2    1    2    0    0  0.00000000000E+00  0.88817841970E-15  0.27336910217E+03  0.28566076519E+03  0.82893948820E+02 0.  0.
    9000005    2    3    3    0    0 -0.34162503048E+02  0.74687841628E+01  0.65037634757E+02  0.74414795611E+02  0.92091541219E+01 0.  0.
         22    1    3    3    0    0  0.34162503048E+02 -0.74687841628E+01  0.20833146741E+03  0.21124596958E+03  0.00000000000E+00 0. -1.
         22    1    4    4    0    0 -0.29197045274E+02  0.48713931595E+01  0.59889108691E+02  0.66804964366E+02  0.00000000000E+00 0. -1.
         22    1    4    4    0    0 -0.49654577743E+01  0.25973910033E+01  0.51485260651E+01  0.76098312448E+01  0.00000000000E+00 0. -1.
<mgrwt>
<rscale>  0 0.82893949E+02</rscale>
<asrwt>0</asrwt>
<pdfrwt beam="2">  1        2 0.94551248E-03 0.82893949E+02</pdfrwt>
<pdfrwt beam="1">  1       -2 0.43002300E-01 0.82893949E+02</pdfrwt>
<totfact> 0.67694419E+04</totfact>
</mgrwt>
</event>
<event>
 7    1  0.4494102E-009  0.9043130E+02  0.7818608E-02  0.1301811E+00
          2   -1    0    0  501    0  0.00000000000E+00  0.00000000000E+00  0.12307670806E+03  0.12307670808E+03  0.25500000000E-02 0. -1.
         -2   -1    0    0    0  501 -0.00000000000E+00 -0.00000000000E+00 -0.16611226972E+02  0.16611227168E+02  0.25500000000E-02 0.  1.
         23    2    1    2    0    0 -0.71054273576E-14  0.00000000000E+00  0.10646548109E+03  0.13968793525E+03  0.90431303166E+02 0.  0.
    9000005    2    3    3    0    0  0.34820399751E+02  0.78145500782E+01  0.94369602503E+02  0.10200720131E+03  0.15043929368E+02 0.  0.
         22    1    3    3    0    0 -0.34820399751E+02 -0.78145500782E+01  0.12095878582E+02  0.37680733942E+02  0.00000000000E+00 0.  1.
         22    1    4    4    0    0  0.19083759478E+02 -0.27748849383E+01  0.55534279875E+02  0.58787295426E+02  0.00000000000E+00 0. -1.
         22    1    4    4    0    0  0.15736640272E+02  0.10589435016E+02  0.38835322628E+02  0.43219905884E+02  0.00000000000E+00 0. -1.
<mgrwt>
<rscale>  0 0.90431303E+02</rscale>
<asrwt>0</asrwt>
<pdfrwt beam="1">  1        2 0.18934878E-01 0.90431303E+02</pdfrwt>
<pdfrwt beam="2">  1       -2 0.25555735E-02 0.90431303E+02</pdfrwt>
<totfact> 0.13389213E+05</totfact>
</mgrwt>
</event>
<event>
 7    1  0.3480999E-009  0.9250492E+02  0.7818608E-02  0.1296897E+00
          2   -1    0    0  501    0  0.00000000000E+00  0.00000000000E+00  0.16210456072E+03  0.16210456074E+03  0.25500000000E-02 0. -1.
         -2   -1    0    0    0  501 -0.00000000000E+00 -0.00000000000E+00 -0.13196975001E+02  0.13196975247E+02  0.25500000000E-02 0.  1.
         23    2    1    2    0    0  0.00000000000E+00  0.17763568394E-14  0.14890758572E+03  0.17530153599E+03  0.92504915732E+02 0.  0.
    9000005    2    3    3    0    0 -0.10797304327E+01 -0.14510037232E+02  0.15719313684E+03  0.15855766082E+03  0.14803463731E+02 0.  0.
         22    1    3    3    0    0  0.10797304327E+01  0.14510037232E+02 -0.82855511162E+01  0.16743875166E+02  0.00000000000E+00 0.  1.
         22    1    4    4    0    0 -0.48054143378E+01 -0.12049811610E+02  0.14488791920E+03  0.14546751904E+03  0.00000000000E+00 0. -1.
         22    1    4    4    0    0  0.37256839051E+01 -0.24602256221E+01  0.12305217640E+02  0.13090141781E+02  0.00000000000E+00 0. -1.
<mgrwt>
<rscale>  0 0.92504916E+02</rscale>
<asrwt>0</asrwt>
<pdfrwt beam="1">  1        2 0.24939163E-01 0.92504916E+02</pdfrwt>
<pdfrwt beam="2">  1       -2 0.20303039E-02 0.92504916E+02</pdfrwt>
<totfact> 0.13806044E+05</totfact>
</mgrwt>
</event>
<event>
 7    1  0.3480999E-009  0.9108616E+02  0.7818608E-02  0.1300243E+00
          2   -1    0    0  501    0  0.00000000000E+00  0.00000000000E+00  0.41653031660E+02  0.41653031738E+02  0.25500000000E-02 0. -1.
         -2   -1    0    0    0  501 -0.00000000000E+00 -0.00000000000E+00 -0.49796422258E+02  0.49796422324E+02  0.25500000000E-02 0.  1.
         23    2    1    2    0    0 -0.44408920985E-15  0.00000000000E+00 -0.81433905987E+01  0.91449454061E+02  0.91086156125E+02 0.  0.
    9000005    2    3    3    0    0 -0.29329552804E+01  0.30146580244E+02 -0.37503701573E+02  0.49265969288E+02  0.10158226771E+02 0.  0.
         22    1    3    3    0    0  0.29329552804E+01 -0.30146580244E+02  0.29360310974E+02  0.42183484773E+02  0.00000000000E+00 0. -1.
         22    1    4    4    0    0 -0.84315719178E+00  0.29385268800E+02 -0.36383408356E+02  0.46775606251E+02  0.00000000000E+00 0.  1.
         22    1    4    4    0    0 -0.20897980886E+01  0.76131144378E+00 -0.11202932167E+01  0.24903630372E+01  0.00000000000E+00 0.  1.
<mgrwt>
<rscale>  0 0.91086156E+02</rscale>
<asrwt>0</asrwt>
<pdfrwt beam="1">  1        2 0.64081588E-02 0.91086156E+02</pdfrwt>
<pdfrwt beam="2">  1       -2 0.76609880E-02 0.91086156E+02</pdfrwt>
<totfact> 0.96671018E+04</totfact>
</mgrwt>
</event>
<event>
 7    1  0.3480999E-009  0.9110462E+02  0.7818608E-02  0.1300199E+00
          2   -1    0    0  501    0  0.00000000000E+00  0.00000000000E+00  0.13293748810E+02  0.13293749055E+02  0.25500000000E-02 0.  1.
         -2   -1    0    0    0  501 -0.00000000000E+00 -0.00000000000E+00 -0.15608938594E+03  0.15608938596E+03  0.25500000000E-02 0. -1.
         23    2    1    2    0    0  0.35527136788E-14 -0.17763568394E-14 -0.14279563713E+03  0.16938313501E+03  0.91104623615E+02 0.  0.
    9000005    2    3    3    0    0 -0.24100870817E+02  0.15562916388E+02 -0.59775303519E+01  0.29589534722E+02  0.40930862797E+01 0.  0.
         22    1    3    3    0    0  0.24100870817E+02 -0.15562916388E+02 -0.13681810678E+03  0.13979360029E+03  0.00000000000E+00 0. -1.
         22    1    4    4    0    0 -0.21236671747E+02  0.15130838185E+02 -0.51803137898E+01  0.26585224130E+02  0.00000000000E+00 0. -1.
         22    1    4    4    0    0 -0.28641990698E+01  0.43207820343E+00 -0.79721656212E+00  0.30043105918E+01  0.00000000000E+00 0. -1.
<mgrwt>
<rscale>  0 0.91104624E+02</rscale>
<asrwt>0</asrwt>
<pdfrwt beam="1">  1        2 0.20451923E-02 0.91104624E+02</pdfrwt>
<pdfrwt beam="2">  1       -2 0.24013750E-01 0.91104624E+02</pdfrwt>
<totfact> 0.68979249E+04</totfact>
</mgrwt>
</event>
<event>
 7    1  0.3480999E-009  0.8968463E+02  0.7818608E-02  0.1303617E+00
          2   -1    0    0  501    0  0.00000000000E+00  0.00000000000E+00  0.67589999504E+02  0.67589999552E+02  0.25500000000E-02 0. -1.
         -2   -1    0    0    0  501 -0.00000000000E+00 -0.00000000000E+00 -0.29750457434E+02  0.29750457543E+02  0.25500000000E-02 0.  1.
         23    2    1    2    0    0 -0.88817841970E-15  0.00000000000E+00  0.37839542070E+02  0.97340457095E+02  0.89684634378E+02 0.  0.
    9000005    2    3    3    0    0 -0.39169723191E+01  0.14400377032E+02 -0.26750794140E+02  0.31048488784E+02  0.50685439610E+01 0.  0.
         22    1    3    3    0    0  0.39169723191E+01 -0.14400377032E+02  0.64590336210E+02  0.66291968311E+02  0.00000000000E+00 0. -1.
         22    1    4    4    0    0 -0.48958944400E+01  0.12836020588E+02 -0.24878657999E+02  0.28419726085E+02  0.00000000000E+00 0.  1.
         22    1    4    4    0    0  0.97892212095E+00  0.15643564435E+01 -0.18721361411E+01  0.26287626998E+01  0.00000000000E+00 0.  1.
<mgrwt>
<rscale>  0 0.89684634E+02</rscale>
<asrwt>0</asrwt>
<pdfrwt beam="1">  1        2 0.10398461E-01 0.89684634E+02</pdfrwt>
<pdfrwt beam="2">  1       -2 0.45769936E-02 0.89684634E+02</pdfrwt>
<totfact> 0.11472935E+05</totfact>
</mgrwt>
</event>
<event>
 7    1  0.3480999E-009  0.9029135E+02  0.7818608E-02  0.1302148E+00
         -2   -1    0    0    0  501 -0.00000000000E+00  0.00000000000E+00  0.17237892538E+02  0.17237892727E+02  0.25500000000E-02 0.  1.
          2   -1    0    0  501    0  0.00000000000E+00 -0.00000000000E+00 -0.11823557421E+03  0.11823557424E+03  0.25500000000E-02 0. -1.
         23    2    1    2    0    0  0.00000000000E+00  0.00000000000E+00 -0.10099768167E+03  0.13547346697E+03  0.90291353674E+02 0.  0.
    9000005    2    3    3    0    0 -0.16867402956E+02 -0.25316063072E+02 -0.10024558117E+03  0.10504358055E+03  0.77178325907E+01 0.  0.
         22    1    3    3    0    0  0.16867402956E+02  0.25316063072E+02 -0.75210050727E+00  0.30429886413E+02  0.00000000000E+00 0.  1.
         22    1    4    4    0    0 -0.70564798534E+01 -0.14306682835E+02 -0.62915837153E+02  0.64906684142E+02  0.00000000000E+00 0. -1.
         22    1    4    4    0    0 -0.98109231025E+01 -0.11009380238E+02 -0.37329744013E+02  0.40136896410E+02  0.00000000000E+00 0. -1.
<mgrwt>
<rscale>  0 0.90291354E+02</rscale>
<asrwt>0</asrwt>
<pdfrwt beam="2">  1        2 0.18190088E-01 0.90291354E+02</pdfrwt>
<pdfrwt beam="1">  1       -2 0.26519836E-02 0.90291354E+02</pdfrwt>
<totfact> 0.13274310E+05</totfact>
</mgrwt>
</event>
<event>
 7    1  0.3480999E-009  0.9052072E+02  0.7818608E-02  0.1301596E+00
          2   -1    0    0  501    0  0.00000000000E+00  0.00000000000E+00  0.60078213222E+03  0.60078213222E+03  0.25500000000E-02 0. -1.
         -2   -1    0    0    0  501 -0.00000000000E+00 -0.00000000000E+00 -0.34097217565E+01  0.34097227100E+01  0.25500000000E-02 0.  1.
         23    2    1    2    0    0  0.35527136788E-14  0.00000000000E+00  0.59737241046E+03  0.60419185493E+03  0.90520720210E+02 0.  0.
    9000005    2    3    3    0    0 -0.18527706601E+02 -0.36917275658E+02  0.41048070149E+03  0.41278999486E+03  0.13964684541E+02 0.  0.
         22    1    3    3    0    0  0.18527706601E+02  0.36917275658E+02  0.18689170898E+03  0.19140186007E+03  0.00000000000E+00 0.  1.
         22    1    4    4    0    0 -0.14426538150E+02 -0.21674557445E+02  0.19477803828E+03  0.19651054842E+03  0.00000000000E+00 0.  1.
         22    1    4    4    0    0 -0.41011684511E+01 -0.15242718213E+02  0.21570266320E+03  0.21627944644E+03  0.00000000000E+00 0.  1.
<mgrwt>
<rscale>  0 0.90520720E+02</rscale>
<asrwt>0</asrwt>
<pdfrwt beam="1">  1        2 0.92428038E-01 0.90520720E+02</pdfrwt>
<pdfrwt beam="2">  1       -2 0.52457255E-03 0.90520720E+02</pdfrwt>
<totfact> 0.23232104E+05</totfact>
</mgrwt>
</event>
<event>
 7    1  0.3480999E-009  0.9050090E+02  0.7818608E-02  0.1301643E+00
         -2   -1    0    0    0  501 -0.00000000000E+00  0.00000000000E+00  0.62507374308E+02  0.62507374360E+02  0.25500000000E-02 0.  1.
          2   -1    0    0  501    0  0.00000000000E+00 -0.00000000000E+00 -0.32757787922E+02  0.32757788021E+02  0.25500000000E-02 0. -1.
         23    2    1    2    0    0  0.71054273576E-14  0.00000000000E+00  0.29749586386E+02  0.95265162381E+02  0.90500902059E+02 0.  0.
    9000005    2    3    3    0    0 -0.36205045720E+02 -0.99601184251E+01 -0.95246725554E+01  0.40928464745E+02  0.13206458439E+02 0.  0.
         22    1    3    3    0    0  0.36205045720E+02  0.99601184251E+01  0.39274258941E+02  0.54336697636E+02  0.00000000000E+00 0.  1.
         22    1    4    4    0    0 -0.23484193084E+02 -0.98875970904E+01 -0.11672920127E+02  0.28027289654E+02  0.00000000000E+00 0. -1.
         22    1    4    4    0    0 -0.12720852636E+02 -0.72521334690E-01  0.21482475711E+01  0.12901175092E+02  0.00000000000E+00 0. -1.
<mgrwt>
<rscale>  0 0.90500902E+02</rscale>
<asrwt>0</asrwt>
<pdfrwt beam="2">  1        2 0.50396598E-02 0.90500902E+02</pdfrwt>
<pdfrwt beam="1">  1       -2 0.96165190E-02 0.90500902E+02</pdfrwt>
<totfact> 0.92555196E+04</totfact>
</mgrwt>
</event>
<event>
 7    1  0.3480999E-009  0.9073145E+02  0.7818608E-02  0.1301090E+00
         -2   -1    0    0    0  501 -0.00000000000E+00  0.00000000000E+00  0.16898293501E+01  0.16898312742E+01  0.25500000000E-02 0.  1.
          2   -1    0    0  501    0  0.00000000000E+00 -0.00000000000E+00 -0.12179027249E+04  0.12179027250E+04  0.25500000000E-02 0. -1.
         23    2    1    2    0    0 -0.35527136788E-14  0.44408920985E-15 -0.12162128956E+04  0.12195925562E+04  0.90731448685E+02 0.  0.
    9000005    2    3    3    0    0 -0.16718438533E+02  0.13119183601E+01 -0.11733125190E+04  0.11735309710E+04  0.15213331484E+02 0.  0.
         22    1    3    3    0    0  0.16718438533E+02 -0.13119183601E+01 -0.42900376628E+02  0.46061585205E+02  0.00000000000E+00 0.  1.
         22    1    4    4    0    0 -0.15330922739E+02 -0.32381688151E+01 -0.61988144902E+03  0.62007945763E+03  0.00000000000E+00 0. -1.
         22    1    4    4    0    0 -0.13875157944E+01  0.45500871752E+01 -0.55343106995E+03  0.55345151339E+03  0.00000000000E+00 0. -1.
<mgrwt>
<rscale>  0 0.90731449E+02</rscale>
<asrwt>0</asrwt>
<pdfrwt beam="2">  1        2 0.18736895E+00 0.90731449E+02</pdfrwt>
<pdfrwt beam="1">  1       -2 0.25997487E-03 0.90731449E+02</pdfrwt>
<totfact> 0.25147355E+05</totfact>
</mgrwt>
</event>
<event>
 7    1  0.3480999E-009  0.8433760E+02  0.7818608E-02  0.1317174E+00
         -2   -1    0    0    0  501 -0.00000000000E+00  0.00000000000E+00  0.22815739339E+02  0.22815739482E+02  0.25500000000E-02 0.  1.
          2   -1    0    0  501    0  0.00000000000E+00 -0.00000000000E+00 -0.77937762730E+02  0.77937762772E+02  0.25500000000E-02 0. -1.
         23    2    1    2    0    0  0.00000000000E+00  0.00000000000E+00 -0.55122023391E+02  0.10075350225E+03  0.84337599880E+02 0.  0.
    9000005    2    3    3    0    0 -0.31440439069E+02 -0.17260236207E+01 -0.60075818925E+02  0.68878426463E+02  0.11985543213E+02 0.  0.
         22    1    3    3    0    0  0.31440439069E+02  0.17260236207E+01  0.49537955342E+01  0.31875075790E+02  0.00000000000E+00 0.  1.
         22    1    4    4    0    0 -0.90595445429E+01 -0.50886953672E+01 -0.12979680799E+02  0.16626553506E+02  0.00000000000E+00 0. -1.
         22    1    4    4    0    0 -0.22380894527E+02  0.33626717465E+01 -0.47096138126E+02  0.52251872957E+02  0.00000000000E+00 0. -1.
<mgrwt>
<rscale>  0 0.84337600E+02</rscale>
<asrwt>0</asrwt>
<pdfrwt beam="2">  1        2 0.11990425E-01 0.84337600E+02</pdfrwt>
<pdfrwt beam="1">  1       -2 0.35101138E-02 0.84337600E+02</pdfrwt>
<totfact> 0.14141547E+05</totfact>
</mgrwt>
</event>
<event>
 7    1  0.3480999E-009  0.8913876E+02  0.7818608E-02  0.1304951E+00
          2   -1    0    0  501    0  0.00000000000E+00  0.00000000000E+00  0.67287326151E+01  0.67287330982E+01  0.25500000000E-02 0. -1.
         -2   -1    0    0    0  501 -0.00000000000E+00 -0.00000000000E+00 -0.29521603771E+03  0.29521603772E+03  0.25500000000E-02 0.  1.
         23    2    1    2    0    0 -0.17763568394E-14  0.00000000000E+00 -0.28848730510E+03  0.30194477082E+03  0.89138764991E+02 0.  0.
    9000005    2    3    3    0    0 -0.12397942335E+02 -0.16623306735E+02 -0.27769520783E+03  0.27856716050E+03  0.74156021702E+01 0.  0.
         22    1    3    3    0    0  0.12397942335E+02  0.16623306735E+02 -0.10792097265E+02  0.23377610321E+02  0.00000000000E+00 0. -1.
         22    1    4    4    0    0 -0.27417546552E+01 -0.94923023023E+00 -0.19288678810E+02  0.19505675760E+02  0.00000000000E+00 0.  1.
         22    1    4    4    0    0 -0.96561876796E+01 -0.15674076505E+02 -0.25840652902E+03  0.25906148474E+03  0.00000000000E+00 0.  1.
<mgrwt>
<rscale>  0 0.89138765E+02</rscale>
<asrwt>0</asrwt>
<pdfrwt beam="1">  1        2 0.10351899E-02 0.89138765E+02</pdfrwt>
<pdfrwt beam="2">  1       -2 0.45417842E-01 0.89138765E+02</pdfrwt>
<totfact> 0.54542234E+04</totfact>
</mgrwt>
</event>
<event>
 7    1  0.3480999E-009  0.9058145E+02  0.7818608E-02  0.1301450E+00
          2   -1    0    0  501    0  0.00000000000E+00  0.00000000000E+00  0.15808131565E+03  0.15808131567E+03  0.25500000000E-02 0.  1.
         -2   -1    0    0    0  501 -0.00000000000E+00 -0.00000000000E+00 -0.12975914184E+02  0.12975914434E+02  0.25500000000E-02 0. -1.
         23    2    1    2    0    0  0.00000000000E+00  0.00000000000E+00  0.14510540146E+03  0.17105723010E+03  0.90581446424E+02 0.  0.
    9000005    2    3    3    0    0 -0.26310818980E+02  0.33546866201E+02  0.96965670386E+02  0.10675260246E+03  0.13271227239E+02 0.  0.
         22    1    3    3    0    0  0.26310818980E+02 -0.33546866201E+02  0.48139731077E+02  0.64304627637E+02  0.00000000000E+00 0.  1.
         22    1    4    4    0    0 -0.15610040838E+02  0.94079484803E+01  0.41231704437E+02  0.45080331857E+02  0.00000000000E+00 0. -1.
         22    1    4    4    0    0 -0.10700778142E+02  0.24138917720E+02  0.55733965949E+02  0.61672270608E+02  0.00000000000E+00 0. -1.
<mgrwt>
<rscale>  0 0.90581446E+02</rscale>
<asrwt>0</asrwt>
<pdfrwt beam="1">  1        2 0.24320204E-01 0.90581446E+02</pdfrwt>
<pdfrwt beam="2">  1       -2 0.19962944E-02 0.90581446E+02</pdfrwt>
<totfact> 0.14489056E+05</totfact>
</mgrwt>
</event>
<event>
 7    1  0.3480999E-009  0.9312809E+02  0.7818608E-02  0.1295449E+00
          2   -1    0    0  501    0  0.00000000000E+00  0.00000000000E+00  0.38582441880E+02  0.38582441964E+02  0.25500000000E-02 0. -1.
         -2   -1    0    0    0  501 -0.00000000000E+00 -0.00000000000E+00 -0.56196809557E+02  0.56196809615E+02  0.25500000000E-02 0.  1.
         23    2    1    2    0    0  0.00000000000E+00  0.00000000000E+00 -0.17614367678E+02  0.94779251579E+02  0.93128086962E+02 0.  0.
    9000005    2    3    3    0    0  0.26624228291E+02 -0.30565769436E+02 -0.31657035338E+02  0.51880390192E+02  0.68037641644E+01 0.  0.
         22    1    3    3    0    0 -0.26624228291E+02  0.30565769436E+02  0.14042667660E+02  0.42898861387E+02  0.00000000000E+00 0. -1.
         22    1    4    4    0    0  0.25340767131E+02 -0.26815220803E+02 -0.26746834456E+02  0.45569767379E+02  0.00000000000E+00 0.  1.
         22    1    4    4    0    0  0.12834611598E+01 -0.37505486329E+01 -0.49102008817E+01  0.63106228136E+01  0.00000000000E+00 0.  1.
<mgrwt>
<rscale>  0 0.93128087E+02</rscale>
<asrwt>0</asrwt>
<pdfrwt beam="1">  1        2 0.59357603E-02 0.93128087E+02</pdfrwt>
<pdfrwt beam="2">  1       -2 0.86456630E-02 0.93128087E+02</pdfrwt>
<totfact> 0.88846296E+04</totfact>
</mgrwt>
</event>
<event>
 7    1  0.3480999E-009  0.9155793E+02  0.7818608E-02  0.1299122E+00
          2   -1    0    0  501    0  0.00000000000E+00  0.00000000000E+00  0.40529600956E+02  0.40529601036E+02  0.25500000000E-02 0.  1.
         -2   -1    0    0    0  501 -0.00000000000E+00 -0.00000000000E+00 -0.51708222629E+02  0.51708222691E+02  0.25500000000E-02 0. -1.
         23    2    1    2    0    0  0.00000000000E+00  0.71054273576E-14 -0.11178621673E+02  0.92237823728E+02  0.91557929987E+02 0.  0.
    9000005    2    3    3    0    0 -0.25442007254E+02 -0.36967250265E+02  0.15297239355E+01  0.45596904211E+02  0.79287005932E+01 0.  0.
         22    1    3    3    0    0  0.25442007254E+02  0.36967250265E+02 -0.12708345608E+02  0.46640919516E+02  0.00000000000E+00 0. -1.
         22    1    4    4    0    0 -0.15710622068E+02 -0.15845435077E+02  0.54878024385E+00  0.22320452915E+02  0.00000000000E+00 0. -1.
         22    1    4    4    0    0 -0.97313851857E+01 -0.21121815187E+02  0.98094369168E+00  0.23276451297E+02  0.00000000000E+00 0. -1.
<mgrwt>
<rscale>  0 0.91557930E+02</rscale>
<asrwt>0</asrwt>
<pdfrwt beam="1">  1        2 0.62353232E-02 0.91557930E+02</pdfrwt>
<pdfrwt beam="2">  1       -2 0.79551113E-02 0.91557930E+02</pdfrwt>
<totfact> 0.94563753E+04</totfact>
</mgrwt>
</event>
<event>
 7    1  0.3480999E-009  0.9368995E+02  0.7818608E-02  0.1294154E+00
         -2   -1    0    0    0  501 -0.00000000000E+00  0.00000000000E+00  0.64360139089E+02  0.64360139139E+02  0.25500000000E-02 0.  1.
          2   -1    0    0  501    0  0.00000000000E+00 -0.00000000000E+00 -0.34096437249E+02  0.34096437344E+02  0.25500000000E-02 0. -1.
         23    2    1    2    0    0  0.00000000000E+00  0.35527136788E-14  0.30263701840E+02  0.98456576484E+02  0.93689945052E+02 0.  0.
    9000005    2    3    3    0    0  0.38446409320E+02 -0.23317790046E+02  0.28644749926E+02  0.53462502124E+02  0.39839318224E+01 0.  0.
         22    1    3    3    0    0 -0.38446409320E+02  0.23317790046E+02  0.16189519141E+01  0.44994074360E+02  0.00000000000E+00 0. -1.
         22    1    4    4    0    0  0.27193641205E+01 -0.25623691588E+01  0.33363378794E+01  0.50091743203E+01  0.00000000000E+00 0. -1.
         22    1    4    4    0    0  0.35727045200E+02 -0.20755420887E+02  0.25308412046E+02  0.48453327803E+02  0.00000000000E+00 0. -1.
<mgrwt>
<rscale>  0 0.93689945E+02</rscale>
<asrwt>0</asrwt>
<pdfrwt beam="2">  1        2 0.52456058E-02 0.93689945E+02</pdfrwt>
<pdfrwt beam="1">  1       -2 0.99015597E-02 0.93689945E+02</pdfrwt>
<totfact> 0.84463852E+04</totfact>
</mgrwt>
</event>
<event>
 7    1  0.3480999E-009  0.9159988E+02  0.7818608E-02  0.1299023E+00
          2   -1    0    0  501    0  0.00000000000E+00  0.00000000000E+00  0.15605672622E+02  0.15605672830E+02  0.25500000000E-02 0. -1.
         -2   -1    0    0    0  501 -0.00000000000E+00 -0.00000000000E+00 -0.13441487214E+03  0.13441487216E+03  0.25500000000E-02 0.  1.
         23    2    1    2    0    0  0.00000000000E+00  0.11102230246E-15 -0.11880919952E+03  0.15002054499E+03  0.91599880078E+02 0.  0.
    9000005    2    3    3    0    0 -0.14686786902E+02 -0.88052778406E+00 -0.13016171185E+03  0.13143677317E+03  0.10820215864E+02 0.  0.
         22    1    3    3    0    0  0.14686786902E+02  0.88052778406E+00  0.11352512336E+02  0.18583771819E+02  0.00000000000E+00 0. -1.
         22    1    4    4    0    0 -0.11797473958E+02 -0.98078781180E-01 -0.12426492043E+03  0.12482371754E+03  0.00000000000E+00 0.  1.
         22    1    4    4    0    0 -0.28893129433E+01 -0.78244900288E+00 -0.58967914224E+01  0.66130556331E+01  0.00000000000E+00 0.  1.
<mgrwt>
<rscale>  0 0.91599880E+02</rscale>
<asrwt>0</asrwt>
<pdfrwt beam="1">  1        2 0.24008728E-02 0.91599880E+02</pdfrwt>
<pdfrwt beam="2">  1       -2 0.20679210E-01 0.91599880E+02</pdfrwt>
<totfact> 0.71774577E+04</totfact>
</mgrwt>
</event>
<event>
 7    1  0.3480999E-009  0.8914917E+02  0.7818608E-02  0.1304925E+00
         -2   -1    0    0    0  501 -0.00000000000E+00  0.00000000000E+00  0.19686431155E+02  0.19686431320E+02  0.25500000000E-02 0.  1.
          2   -1    0    0  501    0  0.00000000000E+00 -0.00000000000E+00 -0.10092706927E+03  0.10092706930E+03  0.25500000000E-02 0. -1.
         23    2    1    2    0    0  0.00000000000E+00  0.00000000000E+00 -0.81240638112E+02  0.12061350062E+03  0.89149174145E+02 0.  0.
    9000005    2    3    3    0    0  0.43038882423E+02 -0.37188231627E+01 -0.31363492221E+02  0.54629375800E+02  0.11598491718E+02 0.  0.
         22    1    3    3    0    0 -0.43038882423E+02  0.37188231627E+01 -0.49877145891E+02  0.65984124819E+02  0.00000000000E+00 0. -1.
         22    1    4    4    0    0  0.41876953374E+02 -0.11889324930E+01 -0.28742392063E+02  0.50805687534E+02  0.00000000000E+00 0. -1.
         22    1    4    4    0    0  0.11619290485E+01 -0.25298906697E+01 -0.26211001582E+01  0.38236882657E+01  0.00000000000E+00 0. -1.
<mgrwt>
<rscale>  0 0.89149174E+02</rscale>
<asrwt>0</asrwt>
<pdfrwt beam="2">  1        2 0.15527241E-01 0.89149174E+02</pdfrwt>
<pdfrwt beam="1">  1       -2 0.30286818E-02 0.89149174E+02</pdfrwt>
<totfact> 0.13085682E+05</totfact>
</mgrwt>
</event>
<event>
 7    1  0.3480999E-009  0.1084963E+03  0.7818608E-02  0.1263380E+00
         -2   -1    0    0    0  501 -0.00000000000E+00  0.00000000000E+00  0.16451898138E+03  0.16451898140E+03  0.25500000000E-02 0.  1.
          2   -1    0    0  501    0  0.00000000000E+00 -0.00000000000E+00 -0.17887661084E+02  0.17887661266E+02  0.25500000000E-02 0. -1.
         23    2    1    2    0    0  0.71054273576E-14  0.00000000000E+00  0.14663132030E+03  0.18240664267E+03  0.10849626352E+03 0.  0.
    9000005    2    3    3    0    0 -0.45751393418E+02  0.24591685380E+02  0.47644862438E+02  0.70619971597E+02  0.43825200623E+01 0.  0.
         22    1    3    3    0    0  0.45751393418E+02 -0.24591685380E+02  0.98986457862E+02  0.11178667107E+03  0.00000000000E+00 0. -1.
         22    1    4    4    0    0 -0.36320445055E+02  0.17926973577E+02  0.38604126076E+02  0.55953817213E+02  0.00000000000E+00 0. -1.
         22    1    4    4    0    0 -0.94309483626E+01  0.66647118032E+01  0.90407363620E+01  0.14666154384E+02  0.00000000000E+00 0. -1.
<mgrwt>
<rscale>  0 0.10849626E+03</rscale>
<asrwt>0</asrwt>
<pdfrwt beam="2">  1        2 0.27519478E-02 0.10849626E+03</pdfrwt>
<pdfrwt beam="1">  1       -2 0.25310613E-01 0.10849626E+03</pdfrwt>
<totfact> 0.43373129E+04</totfact>
</mgrwt>
</event>
<event>
 7    1  0.3480999E-009  0.9557063E+02  0.7818608E-02  0.1289896E+00
         -2   -1    0    0    0  501 -0.00000000000E+00  0.00000000000E+00  0.12195758107E+03  0.12195758109E+03  0.25500000000E-02 0.  1.
          2   -1    0    0  501    0  0.00000000000E+00 -0.00000000000E+00 -0.18723199585E+02  0.18723199759E+02  0.25500000000E-02 0. -1.
         23    2    1    2    0    0  0.00000000000E+00  0.00000000000E+00  0.10323438148E+03  0.14068078085E+03  0.95570626142E+02 0.  0.
    9000005    2    3    3    0    0  0.23924041911E+02 -0.32546136301E+02  0.18505456903E+02  0.46815976853E+02  0.14753744745E+02 0.  0.
         22    1    3    3    0    0 -0.23924041911E+02  0.32546136301E+02  0.84728924578E+02  0.93864803998E+02  0.00000000000E+00 0.  1.
         22    1    4    4    0    0  0.66894127672E+01 -0.11680200651E+02 -0.93725469139E+00  0.13492730516E+02  0.00000000000E+00 0. -1.
         22    1    4    4    0    0  0.17234629144E+02 -0.20865935651E+02  0.19442711594E+02  0.33323246337E+02  0.00000000000E+00 0. -1.
<mgrwt>
<rscale>  0 0.95570626E+02</rscale>
<asrwt>0</asrwt>
<pdfrwt beam="2">  1        2 0.28804923E-02 0.95570626E+02</pdfrwt>
<pdfrwt beam="1">  1       -2 0.18762704E-01 0.95570626E+02</pdfrwt>
<totfact> 0.66653137E+04</totfact>
</mgrwt>
</event>
<event>
 7    1  0.3480999E-009  0.9076891E+02  0.7818608E-02  0.1301000E+00
          2   -1    0    0  501    0  0.00000000000E+00  0.00000000000E+00  0.31590908301E+03  0.31590908302E+03  0.25500000000E-02 0. -1.
         -2   -1    0    0    0  501 -0.00000000000E+00 -0.00000000000E+00 -0.65200673885E+01  0.65200678871E+01  0.25500000000E-02 0.  1.
         23    2    1    2    0    0  0.17763568394E-14  0.00000000000E+00  0.30938901562E+03  0.32242915091E+03  0.90768906392E+02 0.  0.
    9000005    2    3    3    0    0  0.14430297858E+02  0.14117339066E+02  0.29850755500E+03  0.29949579215E+03  0.13543868124E+02 0.  0.
         22    1    3    3    0    0 -0.14430297858E+02 -0.14117339066E+02  0.10881460614E+02  0.22933358752E+02  0.00000000000E+00 0.  1.
         22    1    4    4    0    0  0.56989129607E+00  0.30228748098E+00  0.10484833416E+03  0.10485031870E+03  0.00000000000E+00 0. -1.
         22    1    4    4    0    0  0.13860406562E+02  0.13815051585E+02  0.19365922084E+03  0.19464547346E+03  0.00000000000E+00 0. -1.
<mgrwt>
<rscale>  0 0.90768906E+02</rscale>
<asrwt>0</asrwt>
<pdfrwt beam="1">  1        2 0.48601405E-01 0.90768906E+02</pdfrwt>
<pdfrwt beam="2">  1       -2 0.10030872E-02 0.90768906E+02</pdfrwt>
<totfact> 0.18534565E+05</totfact>
</mgrwt>
</event>
<event>
 7    1  0.3480999E-009  0.9323986E+02  0.7818608E-02  0.1295190E+00
         -2   -1    0    0    0  501 -0.00000000000E+00  0.00000000000E+00  0.29394933094E+01  0.29394944155E+01  0.25500000000E-02 0.  1.
          2   -1    0    0  501    0  0.00000000000E+00 -0.00000000000E+00 -0.73938504886E+03  0.73938504887E+03  0.25500000000E-02 0. -1.
         23    2    1    2    0    0  0.00000000000E+00  0.35527136788E-14 -0.73644555555E+03  0.74232454328E+03  0.93239858781E+02 0.  0.
    9000005    2    3    3    0    0 -0.93607864093E+01  0.26058735184E+02 -0.66520829555E+03  0.66589530009E+03  0.12156982248E+02 0.  0.
         22    1    3    3    0    0  0.93607864093E+01 -0.26058735184E+02 -0.71237260007E+02  0.76429243192E+02  0.00000000000E+00 0.  1.
         22    1    4    4    0    0 -0.11255940142E+02  0.25004222495E+02 -0.56657860698E+03  0.56724176963E+03  0.00000000000E+00 0. -1.
         22    1    4    4    0    0  0.18951537322E+01  0.10545126890E+01 -0.98629688567E+02  0.98653530456E+02  0.00000000000E+00 0. -1.
<mgrwt>
<rscale>  0 0.93239859E+02</rscale>
<asrwt>0</asrwt>
<pdfrwt beam="2">  1        2 0.11375140E+00 0.93239859E+02</pdfrwt>
<pdfrwt beam="1">  1       -2 0.45223041E-03 0.93239859E+02</pdfrwt>
<totfact> 0.22627619E+05</totfact>
</mgrwt>
</event>
<event>
 7    1  0.3480999E-009  0.9074139E+02  0.7818608E-02  0.1301066E+00
          2   -1    0    0  501    0  0.00000000000E+00  0.00000000000E+00  0.20774206261E+03  0.20774206263E+03  0.25500000000E-02 0. -1.
         -2   -1    0    0    0  501 -0.00000000000E+00 -0.00000000000E+00 -0.99089214006E+01  0.99089217287E+01  0.25500000000E-02 0.  1.
         23    2    1    2    0    0  0.00000000000E+00  0.00000000000E+00  0.19783314121E+03  0.21765098436E+03  0.90741386532E+02 0.  0.
    9000005    2    3    3    0    0  0.39939559818E+02  0.56872285805E+01  0.58959029055E+02  0.73035867461E+02  0.15184130574E+02 0.  0.
         22    1    3    3    0    0 -0.39939559818E+02 -0.56872285805E+01  0.13887411216E+03  0.14461511690E+03  0.00000000000E+00 0. -1.
         22    1    4    4    0    0  0.22447488037E+02  0.94057094733E+01  0.26529007213E+02  0.36002018187E+02  0.00000000000E+00 0.  1.
         22    1    4    4    0    0  0.17492071782E+02 -0.37184808928E+01  0.32430021842E+02  0.37033849274E+02  0.00000000000E+00 0.  1.
<mgrwt>
<rscale>  0 0.90741387E+02</rscale>
<asrwt>0</asrwt>
<pdfrwt beam="1">  1        2 0.31960314E-01 0.90741387E+02</pdfrwt>
<pdfrwt beam="2">  1       -2 0.15244496E-02 0.90741387E+02</pdfrwt>
<totfact> 0.15885604E+05</totfact>
</mgrwt>
</event>
<event>
 7    1  0.3480999E-009  0.9368815E+02  0.7818608E-02  0.1294158E+00
         -2   -1    0    0    0  501 -0.00000000000E+00  0.00000000000E+00  0.14493058092E+02  0.14493058316E+02  0.25500000000E-02 0. -1.
          2   -1    0    0  501    0  0.00000000000E+00 -0.00000000000E+00 -0.15140818028E+03  0.15140818030E+03  0.25500000000E-02 0.  1.
         23    2    1    2    0    0  0.00000000000E+00 -0.35527136788E-14 -0.13691512219E+03  0.16590123862E+03  0.93688154487E+02 0.  0.
    9000005    2    3    3    0    0 -0.36024132597E+02  0.21508810512E+02 -0.36479914591E+02  0.57054566717E+02  0.12809073176E+02 0.  0.
         22    1    3    3    0    0  0.36024132597E+02 -0.21508810512E+02 -0.10043520759E+03  0.10884667190E+03  0.00000000000E+00 0.  1.
         22    1    4    4    0    0  0.37136253356E+00 -0.81896318613E+00 -0.72224081134E-02  0.89925691253E+00  0.00000000000E+00 0.  1.
         22    1    4    4    0    0 -0.36395495130E+02  0.22327773699E+02 -0.36472692183E+02  0.56155309804E+02  0.00000000000E+00 0.  1.
<mgrwt>
<rscale>  0 0.93688154E+02</rscale>
<asrwt>0</asrwt>
<pdfrwt beam="2">  1        2 0.23293565E-01 0.93688154E+02</pdfrwt>
<pdfrwt beam="1">  1       -2 0.22297014E-02 0.93688154E+02</pdfrwt>
<totfact> 0.13026223E+05</totfact>
</mgrwt>
</event>
<event>
 7    1  0.3480999E-009  0.9490295E+02  0.7818608E-02  0.1291395E+00
         -2   -1    0    0    0  501 -0.00000000000E+00  0.00000000000E+00  0.15233249961E+03  0.15233249963E+03  0.25500000000E-02 0.  1.
          2   -1    0    0  501    0  0.00000000000E+00 -0.00000000000E+00 -0.14781102938E+02  0.14781103158E+02  0.25500000000E-02 0. -1.
         23    2    1    2    0    0  0.00000000000E+00  0.71054273576E-14  0.13755139668E+03  0.16711360279E+03  0.94902947851E+02 0.  0.
    9000005    2    3    3    0    0 -0.22883146714E+02  0.34874656551E+02  0.10845803759E+03  0.11625788909E+03  0.35875875831E+01 0.  0.
         22    1    3    3    0    0  0.22883146714E+02 -0.34874656551E+02  0.29093359081E+02  0.50855713698E+02  0.00000000000E+00 0. -1.
         22    1    4    4    0    0 -0.70835704158E+01  0.11381201772E+02  0.30420663265E+02  0.33243427578E+02  0.00000000000E+00 0.  1.
         22    1    4    4    0    0 -0.15799576299E+02  0.23493454779E+02  0.78037374328E+02  0.83014461516E+02  0.00000000000E+00 0.  1.
<mgrwt>
<rscale>  0 0.94902948E+02</rscale>
<asrwt>0</asrwt>
<pdfrwt beam="2">  1        2 0.22740156E-02 0.94902948E+02</pdfrwt>
<pdfrwt beam="1">  1       -2 0.23435771E-01 0.94902948E+02</pdfrwt>
<totfact> 0.62755169E+04</totfact>
</mgrwt>
</event>
<event>
 7    1  0.3480999E-009  0.9183108E+02  0.7818608E-02  0.1298477E+00
         -2   -1    0    0    0  501 -0.00000000000E+00  0.00000000000E+00  0.25267720650E+01  0.25267733517E+01  0.25500000000E-02 0.  1.
          2   -1    0    0  501    0  0.00000000000E+00 -0.00000000000E+00 -0.83435949318E+03  0.83435949318E+03  0.25500000000E-02 0. -1.
         23    2    1    2    0    0  0.00000000000E+00  0.00000000000E+00 -0.83183272112E+03  0.83688626654E+03  0.91831079697E+02 0.  0.
    9000005    2    3    3    0    0 -0.24719825253E+02  0.16414058694E+02 -0.73463816752E+03  0.73526307858E+03  0.61698015185E+01 0.  0.
         22    1    3    3    0    0  0.24719825253E+02 -0.16414058694E+02 -0.97194553592E+02  0.10162318796E+03  0.00000000000E+00 0.  1.
         22    1    4    4    0    0 -0.23369107540E+02  0.13554846829E+02 -0.63421115279E+03  0.63478629112E+03  0.00000000000E+00 0.  1.
         22    1    4    4    0    0 -0.13507177124E+01  0.28592118650E+01 -0.10042701473E+03  0.10047678746E+03  0.00000000000E+00 0.  1.
<mgrwt>
<rscale>  0 0.91831080E+02</rscale>
<asrwt>0</asrwt>
<pdfrwt beam="2">  1        2 0.12836278E+00 0.91831080E+02</pdfrwt>
<pdfrwt beam="1">  1       -2 0.38873493E-03 0.91831080E+02</pdfrwt>
<totfact> 0.24085646E+05</totfact>
</mgrwt>
</event>
<event>
 7    1  0.3480999E-009  0.8901190E+02  0.7818608E-02  0.1305262E+00
         -2   -1    0    0    0  501 -0.00000000000E+00  0.00000000000E+00  0.13391931624E+02  0.13391931867E+02  0.25500000000E-02 0.  1.
          2   -1    0    0  501    0  0.00000000000E+00 -0.00000000000E+00 -0.14790844513E+03  0.14790844515E+03  0.25500000000E-02 0. -1.
         23    2    1    2    0    0  0.00000000000E+00  0.35527136788E-14 -0.13451651351E+03  0.16130037702E+03  0.89011904938E+02 0.  0.
    9000005    2    3    3    0    0  0.47224374626E+01 -0.28542025193E+02 -0.12775432578E+03  0.13159051669E+03  0.12567724971E+02 0.  0.
         22    1    3    3    0    0 -0.47224374626E+01  0.28542025193E+02 -0.67621877278E+01  0.29709860326E+02  0.00000000000E+00 0.  1.
         22    1    4    4    0    0 -0.19797481537E+01 -0.14989363868E+02 -0.82594061327E+02  0.83966537373E+02  0.00000000000E+00 0. -1.
         22    1    4    4    0    0  0.67021856162E+01 -0.13552661325E+02 -0.45160264451E+02  0.47623979321E+02  0.00000000000E+00 0. -1.
<mgrwt>
<rscale>  0 0.89011905E+02</rscale>
<asrwt>0</asrwt>
<pdfrwt beam="2">  1        2 0.22755144E-01 0.89011905E+02</pdfrwt>
<pdfrwt beam="1">  1       -2 0.20602973E-02 0.89011905E+02</pdfrwt>
<totfact> 0.14850473E+05</totfact>
</mgrwt>
</event>
<event>
 7    1  0.3480999E-009  0.9273902E+02  0.7818608E-02  0.1296351E+00
          2   -1    0    0  501    0  0.00000000000E+00  0.00000000000E+00  0.19857283782E+03  0.19857283784E+03  0.25500000000E-02 0. -1.
         -2   -1    0    0    0  501 -0.00000000000E+00 -0.00000000000E+00 -0.10827923786E+02  0.10827924086E+02  0.25500000000E-02 0.  1.
         23    2    1    2    0    0 -0.88817841970E-15 -0.71054273576E-14  0.18774491403E+03  0.20940076192E+03  0.92739022791E+02 0.  0.
    9000005    2    3    3    0    0 -0.66173280909E+01 -0.34965600721E+02  0.32480443064E+02  0.50110340960E+02  0.13772611398E+02 0.  0.
         22    1    3    3    0    0  0.66173280909E+01  0.34965600721E+02  0.15526447097E+03  0.15929042096E+03  0.00000000000E+00 0. -1.
         22    1    4    4    0    0 -0.73931941224E+01 -0.28589316652E+02  0.32186332244E+02  0.43680296808E+02  0.00000000000E+00 0.  1.
         22    1    4    4    0    0  0.77586603151E+00 -0.63762840687E+01  0.29411082019E+00  0.64300441521E+01  0.00000000000E+00 0.  1.
<mgrwt>
<rscale>  0 0.92739023E+02</rscale>
<asrwt>0</asrwt>
<pdfrwt beam="1">  1        2 0.30549664E-01 0.92739023E+02</pdfrwt>
<pdfrwt beam="2">  1       -2 0.16658347E-02 0.92739023E+02</pdfrwt>
<totfact> 0.14736892E+05</totfact>
</mgrwt>
</event>
<event>
 7    1  0.3480999E-009  0.8875999E+02  0.7818608E-02  0.1305883E+00
         -2   -1    0    0    0  501 -0.00000000000E+00  0.00000000000E+00  0.49304625715E+01  0.49304632309E+01  0.25500000000E-02 0. -1.
          2   -1    0    0  501    0  0.00000000000E+00 -0.00000000000E+00 -0.39947245344E+03  0.39947245344E+03  0.25500000000E-02 0.  1.
         23    2    1    2    0    0  0.00000000000E+00 -0.44408920985E-15 -0.39454199087E+03  0.40440291668E+03  0.88759993578E+02 0.  0.
    9000005    2    3    3    0    0 -0.35707809737E+02  0.31898879374E+01 -0.31395933041E+03  0.31620547778E+03  0.11411396378E+02 0.  0.
         22    1    3    3    0    0  0.35707809737E+02 -0.31898879374E+01 -0.80582660459E+02  0.88197438897E+02  0.00000000000E+00 0. -1.
         22    1    4    4    0    0 -0.56441800382E+01  0.23451395324E+01 -0.94144847932E+02  0.94343038110E+02  0.00000000000E+00 0. -1.
         22    1    4    4    0    0 -0.30063629699E+02  0.84474840491E+00 -0.21981448247E+03  0.22186243967E+03  0.00000000000E+00 0. -1.
<mgrwt>
<rscale>  0 0.88759994E+02</rscale>
<asrwt>0</asrwt>
<pdfrwt beam="2">  1        2 0.61457275E-01 0.88759994E+02</pdfrwt>
<pdfrwt beam="1">  1       -2 0.75853307E-03 0.88759994E+02</pdfrwt>
<totfact> 0.21425312E+05</totfact>
</mgrwt>
</event>
<event>
 7    1  0.3480999E-009  0.9272097E+02  0.7818608E-02  0.1296393E+00
         -2   -1    0    0    0  501 -0.00000000000E+00  0.00000000000E+00  0.20136207748E+02  0.20136207910E+02  0.25500000000E-02 0.  1.
          2   -1    0    0  501    0  0.00000000000E+00 -0.00000000000E+00 -0.10673781215E+03  0.10673781219E+03  0.25500000000E-02 0. -1.
         23    2    1    2    0    0  0.00000000000E+00 -0.35527136788E-14 -0.86601604407E+02  0.12687402009E+03  0.92720974376E+02 0.  0.
    9000005    2    3    3    0    0  0.36765636967E+02 -0.16854671232E+02 -0.73293413165E+02  0.84295857170E+02  0.99032882790E+01 0.  0.
         22    1    3    3    0    0 -0.36765636967E+02  0.16854671232E+02 -0.13308191242E+02  0.42578162925E+02  0.00000000000E+00 0.  1.
         22    1    4    4    0    0  0.32665877663E+02 -0.17217319210E+02 -0.60723211819E+02  0.71069009406E+02  0.00000000000E+00 0.  1.
         22    1    4    4    0    0  0.40997593040E+01  0.36264797837E+00 -0.12570201345E+02  0.13226847764E+02  0.00000000000E+00 0.  1.
<mgrwt>
<rscale>  0 0.92720974E+02</rscale>
<asrwt>0</asrwt>
<pdfrwt beam="2">  1        2 0.16421202E-01 0.92720974E+02</pdfrwt>
<pdfrwt beam="1">  1       -2 0.30978782E-02 0.92720974E+02</pdfrwt>
<totfact> 0.11950672E+05</totfact>
</mgrwt>
</event>
<event>
 7    1  0.3480999E-009  0.9141819E+02  0.7818608E-02  0.1299453E+00
          2   -1    0    0  501    0  0.00000000000E+00  0.00000000000E+00  0.38147674046E+01  0.38147682569E+01  0.25500000000E-02 0.  1.
         -2   -1    0    0    0  501 -0.00000000000E+00 -0.00000000000E+00 -0.54769290967E+03  0.54769290967E+03  0.25500000000E-02 0. -1.
         23    2    1    2    0    0 -0.88817841970E-15  0.00000000000E+00 -0.54387814226E+03  0.55150767793E+03  0.91418188479E+02 0.  0.
    9000005    2    3    3    0    0  0.59031722586E+01 -0.25265352041E+02 -0.49842895139E+03  0.49917399463E+03  0.83708946939E+01 0.  0.
         22    1    3    3    0    0 -0.59031722586E+01  0.25265352041E+02 -0.45449190874E+02  0.52333683298E+02  0.00000000000E+00 0.  1.
         22    1    4    4    0    0  0.38194576324E+01 -0.21125963252E+02 -0.33989331412E+03  0.34057063814E+03  0.00000000000E+00 0. -1.
         22    1    4    4    0    0  0.20837146261E+01 -0.41393887885E+01 -0.15853563726E+03  0.15860335649E+03  0.00000000000E+00 0. -1.
<mgrwt>
<rscale>  0 0.91418188E+02</rscale>
<asrwt>0</asrwt>
<pdfrwt beam="1">  1        2 0.58688779E-03 0.91418188E+02</pdfrwt>
<pdfrwt beam="2">  1       -2 0.84260386E-01 0.91418188E+02</pdfrwt>
<totfact> 0.33525190E+04</totfact>
</mgrwt>
</event>
<event>
 7    1  0.3480999E-009  0.9149553E+02  0.7818608E-02  0.1299270E+00
          2   -1    0    0  501    0  0.00000000000E+00  0.00000000000E+00  0.51496019964E+02  0.51496020027E+02  0.25500000000E-02 0. -1.
         -2   -1    0    0    0  501 -0.00000000000E+00 -0.00000000000E+00 -0.40641158113E+02  0.40641158193E+02  0.25500000000E-02 0.  1.
         23    2    1    2    0    0  0.35527136788E-14  0.00000000000E+00  0.10854861851E+02  0.92137178220E+02  0.91495527676E+02 0.  0.
    9000005    2    3    3    0    0  0.27399484803E+02 -0.11114700517E+02  0.40407066270E+02  0.50332858813E+02  0.51378338518E+01 0.  0.
         22    1    3    3    0    0 -0.27399484803E+02  0.11114700517E+02 -0.29552204420E+02  0.41804319407E+02  0.00000000000E+00 0.  1.
         22    1    4    4    0    0  0.46272363220E+01 -0.41864078121E+00  0.43410176671E+01  0.63585383910E+01  0.00000000000E+00 0.  1.
         22    1    4    4    0    0  0.22772248481E+02 -0.10696059735E+02  0.36066048603E+02  0.43974320422E+02  0.00000000000E+00 0.  1.
<mgrwt>
<rscale>  0 0.91495528E+02</rscale>
<asrwt>0</asrwt>
<pdfrwt beam="1">  1        2 0.79224646E-02 0.91495528E+02</pdfrwt>
<pdfrwt beam="2">  1       -2 0.62524859E-02 0.91495528E+02</pdfrwt>
<totfact> 0.10085244E+05</totfact>
</mgrwt>
</event>
<event>
 7    1  0.3480999E-009  0.9056831E+02  0.7818608E-02  0.1301481E+00
         -2   -1    0    0    0  501 -0.00000000000E+00  0.00000000000E+00  0.96544861522E+01  0.96544864890E+01  0.25500000000E-02 0. -1.
          2   -1    0    0  501    0  0.00000000000E+00 -0.00000000000E+00 -0.21240433710E+03  0.21240433712E+03  0.25500000000E-02 0.  1.
         23    2    1    2    0    0  0.00000000000E+00 -0.22204460493E-15 -0.20274985095E+03  0.22205882360E+03  0.90568311683E+02 0.  0.
    9000005    2    3    3    0    0 -0.40440966085E+02  0.13313660380E+01 -0.14916389069E+03  0.15491197401E+03  0.10517087676E+02 0.  0.
         22    1    3    3    0    0  0.40440966085E+02 -0.13313660380E+01 -0.53585960262E+02  0.67146849596E+02  0.00000000000E+00 0. -1.
         22    1    4    4    0    0 -0.25941773479E+02 -0.36493523119E+01 -0.10246868307E+03  0.10576447605E+03  0.00000000000E+00 0. -1.
         22    1    4    4    0    0 -0.14499192607E+02  0.49807183499E+01 -0.46695207617E+02  0.49147497962E+02  0.00000000000E+00 0. -1.
<mgrwt>
<rscale>  0 0.90568312E+02</rscale>
<asrwt>0</asrwt>
<pdfrwt beam="2">  1        2 0.32677587E-01 0.90568312E+02</pdfrwt>
<pdfrwt beam="1">  1       -2 0.14853058E-02 0.90568312E+02</pdfrwt>
<totfact> 0.16096681E+05</totfact>
</mgrwt>
</event>
<event>
 7    1  0.3480999E-009  0.9037371E+02  0.7818608E-02  0.1301949E+00
         -2   -1    0    0    0  501 -0.00000000000E+00  0.00000000000E+00  0.10396071425E+01  0.10396102699E+01  0.25500000000E-02 0.  1.
          2   -1    0    0  501    0  0.00000000000E+00 -0.00000000000E+00 -0.19640582795E+04  0.19640582795E+04  0.25500000000E-02 0. -1.
         23    2    1    2    0    0  0.00000000000E+00 -0.44408920985E-15 -0.19630186723E+04  0.19650978897E+04  0.90373714984E+02 0.  0.
    9000005    2    3    3    0    0  0.20172316151E+02 -0.38105913630E+01 -0.18544060032E+04  0.18545621270E+04  0.12554494441E+02 0.  0.
         22    1    3    3    0    0 -0.20172316151E+02  0.38105913630E+01 -0.10861266918E+03  0.11053576277E+03  0.00000000000E+00 0.  1.
         22    1    4    4    0    0  0.11955574979E+01  0.23329525160E+00 -0.63978248912E+03  0.63978364872E+03  0.00000000000E+00 0.  1.
         22    1    4    4    0    0  0.18976758653E+02 -0.40438866146E+01 -0.12146235140E+04  0.12147784783E+04  0.00000000000E+00 0.  1.
<mgrwt>
<rscale>  0 0.90373715E+02</rscale>
<asrwt>0</asrwt>
<pdfrwt beam="2">  1        2 0.30215984E+00 0.90373715E+02</pdfrwt>
<pdfrwt beam="1">  1       -2 0.15994137E-03 0.90373715E+02</pdfrwt>
<totfact> 0.20481779E+05</totfact>
</mgrwt>
</event>
<event>
 7    1  0.3480999E-009  0.8985524E+02  0.7818608E-02  0.1303203E+00
         -2   -1    0    0    0  501 -0.00000000000E+00  0.00000000000E+00  0.20757308108E+02  0.20757308265E+02  0.25500000000E-02 0. -1.
          2   -1    0    0  501    0  0.00000000000E+00 -0.00000000000E+00 -0.97242436770E+02  0.97242436804E+02  0.25500000000E-02 0.  1.
         23    2    1    2    0    0  0.71054273576E-14  0.44408920985E-15 -0.76485128662E+02  0.11799974507E+03  0.89855244308E+02 0.  0.
    9000005    2    3    3    0    0 -0.39602501013E+02 -0.34399841371E+01 -0.63133741652E+02  0.76065855284E+02  0.14830826940E+02 0.  0.
         22    1    3    3    0    0  0.39602501013E+02  0.34399841371E+01 -0.13351387011E+02  0.41933889785E+02  0.00000000000E+00 0. -1.
         22    1    4    4    0    0 -0.34235348099E+02 -0.47084533360E+00 -0.42702417520E+02  0.54733693616E+02  0.00000000000E+00 0. -1.
         22    1    4    4    0    0 -0.53671529137E+01 -0.29691388035E+01 -0.20431324132E+02  0.21332161668E+02  0.00000000000E+00 0. -1.
<mgrwt>
<rscale>  0 0.89855244E+02</rscale>
<asrwt>0</asrwt>
<pdfrwt beam="2">  1        2 0.14960375E-01 0.89855244E+02</pdfrwt>
<pdfrwt beam="1">  1       -2 0.31934321E-02 0.89855244E+02</pdfrwt>
<totfact> 0.12662559E+05</totfact>
</mgrwt>
</event>
<event>
 7    1  0.3480999E-009  0.9124005E+02  0.7818608E-02  0.1299876E+00
         -2   -1    0    0    0  501 -0.00000000000E+00  0.00000000000E+00  0.86557259601E+00  0.86557635218E+00  0.25500000000E-02 0.  1.
          2   -1    0    0  501    0  0.00000000000E+00 -0.00000000000E+00 -0.24043991389E+04  0.24043991389E+04  0.25500000000E-02 0. -1.
         23    2    1    2    0    0  0.00000000000E+00  0.00000000000E+00 -0.24035335663E+04  0.24052647153E+04  0.91240046547E+02 0.  0.
    9000005    2    3    3    0    0 -0.11003486393E+02 -0.71521364755E+01 -0.23530050691E+04  0.23530597461E+04  0.92240988879E+01 0.  0.
         22    1    3    3    0    0  0.11003486393E+02  0.71521364755E+01 -0.50528497256E+02  0.52204969149E+02  0.00000000000E+00 0.  1.
         22    1    4    4    0    0 -0.10185280068E+02 -0.21438511332E+01 -0.12640176766E+04  0.12640605297E+04  0.00000000000E+00 0.  1.
         22    1    4    4    0    0 -0.81820632469E+00 -0.50082853423E+01 -0.10889873925E+04  0.10889992165E+04  0.00000000000E+00 0.  1.
<mgrwt>
<rscale>  0 0.91240047E+02</rscale>
<asrwt>0</asrwt>
<pdfrwt beam="2">  1        2 0.36990221E+00 0.91240047E+02</pdfrwt>
<pdfrwt beam="1">  1       -2 0.13316723E-03 0.91240047E+02</pdfrwt>
<totfact> 0.15762487E+05</totfact>
</mgrwt>
</event>
<event>
 7    1  0.3480999E-009  0.9164478E+02  0.7818608E-02  0.1298917E+00
          2   -1    0    0  501    0  0.00000000000E+00  0.00000000000E+00  0.19623248566E+02  0.19623248731E+02  0.25500000000E-02 0. -1.
         -2   -1    0    0    0  501 -0.00000000000E+00 -0.00000000000E+00 -0.10700018795E+03  0.10700018798E+03  0.25500000000E-02 0.  1.
         23    2    1    2    0    0  0.00000000000E+00 -0.17763568394E-14 -0.87376939380E+02  0.12662343671E+03  0.91644777200E+02 0.  0.
    9000005    2    3    3    0    0 -0.25508436006E+02  0.12935780268E+02 -0.91998365663E+02  0.97651514100E+02  0.15940646248E+02 0.  0.
         22    1    3    3    0    0  0.25508436006E+02 -0.12935780268E+02  0.46214262837E+01  0.28971922606E+02  0.00000000000E+00 0. -1.
         22    1    4    4    0    0 -0.26597143279E+02  0.14906872134E+02 -0.85921516819E+02  0.91170883071E+02  0.00000000000E+00 0.  1.
         22    1    4    4    0    0  0.10887072730E+01 -0.19710918654E+01 -0.60768488437E+01  0.64806310293E+01  0.00000000000E+00 0.  1.
<mgrwt>
<rscale>  0 0.91644777E+02</rscale>
<asrwt>0</asrwt>
<pdfrwt beam="1">  1        2 0.30189614E-02 0.91644777E+02</pdfrwt>
<pdfrwt beam="2">  1       -2 0.16461567E-01 0.91644777E+02</pdfrwt>
<totfact> 0.77195439E+04</totfact>
</mgrwt>
</event>
<event>
 7    1  0.3480999E-009  0.9148879E+02  0.7818608E-02  0.1299286E+00
         -2   -1    0    0    0  501 -0.00000000000E+00  0.00000000000E+00  0.93165116568E+01  0.93165120058E+01  0.25500000000E-02 0.  1.
          2   -1    0    0  501    0  0.00000000000E+00 -0.00000000000E+00 -0.22460654304E+03  0.22460654305E+03  0.25500000000E-02 0. -1.
         23    2    1    2    0    0 -0.17763568394E-14 -0.35527136788E-14 -0.21529003138E+03  0.23392305506E+03  0.91488786612E+02 0.  0.
    9000005    2    3    3    0    0 -0.12659494717E+02 -0.23865456869E+02 -0.20181441861E+03  0.20373340489E+03  0.69582949382E+01 0.  0.
         22    1    3    3    0    0  0.12659494717E+02  0.23865456869E+02 -0.13475612769E+02  0.30189650173E+02  0.00000000000E+00 0.  1.
         22    1    4    4    0    0 -0.69780202429E+01 -0.62709070334E+01 -0.63830392451E+02  0.64516168842E+02  0.00000000000E+00 0. -1.
         22    1    4    4    0    0 -0.56814744743E+01 -0.17594549835E+02 -0.13798402616E+03  0.13921723604E+03  0.00000000000E+00 0. -1.
<mgrwt>
<rscale>  0 0.91488787E+02</rscale>
<asrwt>0</asrwt>
<pdfrwt beam="2">  1        2 0.34554849E-01 0.91488787E+02</pdfrwt>
<pdfrwt beam="1">  1       -2 0.14333097E-02 0.91488787E+02</pdfrwt>
<totfact> 0.15988713E+05</totfact>
</mgrwt>
</event>
<event>
 7    1  0.3480999E-009  0.1131894E+03  0.7818608E-02  0.1254775E+00
         -2   -1    0    0    0  501 -0.00000000000E+00  0.00000000000E+00  0.27845548712E+02  0.27845548828E+02  0.25500000000E-02 0.  1.
          2   -1    0    0  501    0  0.00000000000E+00 -0.00000000000E+00 -0.11502583473E+03  0.11502583476E+03  0.25500000000E-02 0. -1.
         23    2    1    2    0    0  0.00000000000E+00 -0.71054273576E-14 -0.87180286022E+02  0.14287138359E+03  0.11318935453E+03 0.  0.
    9000005    2    3    3    0    0  0.40347676817E+02 -0.36334108000E+02 -0.29559641235E+02  0.63699159077E+02  0.15352786342E+02 0.  0.
         22    1    3    3    0    0 -0.40347676817E+02  0.36334108000E+02 -0.57620644787E+02  0.79172224513E+02  0.00000000000E+00 0.  1.
         22    1    4    4    0    0  0.11848482124E+02 -0.11375039713E+02 -0.17362586284E+02  0.23900574462E+02  0.00000000000E+00 0.  1.
         22    1    4    4    0    0  0.28499194693E+02 -0.24959068287E+02 -0.12197054950E+02  0.39798584615E+02  0.00000000000E+00 0.  1.
<mgrwt>
<rscale>  0 0.11318935E+03</rscale>
<asrwt>0</asrwt>
<pdfrwt beam="2">  1        2 0.17696282E-01 0.11318935E+03</pdfrwt>
<pdfrwt beam="1">  1       -2 0.42839307E-02 0.11318935E+03</pdfrwt>
<totfact> 0.70179856E+04</totfact>
</mgrwt>
</event>
<event>
 7    1  0.3480999E-009  0.9726181E+02  0.7818608E-02  0.1286162E+00
          2   -1    0    0  501    0  0.00000000000E+00  0.00000000000E+00  0.29505907527E+02  0.29505907638E+02  0.25500000000E-02 0. -1.
         -2   -1    0    0    0  501 -0.00000000000E+00 -0.00000000000E+00 -0.80152255944E+02  0.80152255984E+02  0.25500000000E-02 0.  1.
         23    2    1    2    0    0  0.00000000000E+00  0.00000000000E+00 -0.50646348416E+02  0.10965816362E+03  0.97261812861E+02 0.  0.
    9000005    2    3    3    0    0  0.20707625157E+02 -0.35372531417E+02  0.28096821178E+01  0.42296684133E+02  0.10054524183E+02 0.  0.
         22    1    3    3    0    0 -0.20707625157E+02  0.35372531417E+02 -0.53456030534E+02  0.67361479489E+02  0.00000000000E+00 0.  1.
         22    1    4    4    0    0  0.15440339021E+02 -0.16591278665E+02  0.67634081167E+00  0.22674479789E+02  0.00000000000E+00 0. -1.
         22    1    4    4    0    0  0.52672861364E+01 -0.18781252752E+02  0.21333413061E+01  0.19622204344E+02  0.00000000000E+00 0. -1.
<mgrwt>
<rscale>  0 0.97261813E+02</rscale>
<asrwt>0</asrwt>
<pdfrwt beam="1">  1        2 0.45393704E-02 0.97261813E+02</pdfrwt>
<pdfrwt beam="2">  1       -2 0.12331116E-01 0.97261813E+02</pdfrwt>
<totfact> 0.72559519E+04</totfact>
</mgrwt>
</event>
<event>
 7    1  0.3480999E-009  0.9055129E+02  0.7818608E-02  0.1301522E+00
         -2   -1    0    0    0  501 -0.00000000000E+00  0.00000000000E+00  0.30612372445E+03  0.30612372446E+03  0.25500000000E-02 0.  1.
          2   -1    0    0  501    0  0.00000000000E+00 -0.00000000000E+00 -0.66962590483E+01  0.66962595339E+01  0.25500000000E-02 0. -1.
         23    2    1    2    0    0  0.00000000000E+00  0.17763568394E-14  0.29942746540E+03  0.31281998399E+03  0.90551285741E+02 0.  0.
    9000005    2    3    3    0    0 -0.15219464898E+02 -0.15918995649E+02  0.28564778474E+03  0.28684064348E+03  0.14065962217E+02 0.  0.
         22    1    3    3    0    0  0.15219464898E+02  0.15918995649E+02  0.13779680663E+02  0.25979340512E+02  0.00000000000E+00 0. -1.
         22    1    4    4    0    0 -0.17480687679E+02 -0.13033869911E+02  0.21636689536E+03  0.21746284651E+03  0.00000000000E+00 0.  1.
         22    1    4    4    0    0  0.22612227811E+01 -0.28851257378E+01  0.69280889378E+02  0.69377796967E+02  0.00000000000E+00 0.  1.
<mgrwt>
<rscale>  0 0.90551286E+02</rscale>
<asrwt>0</asrwt>
<pdfrwt beam="2">  1        2 0.10301939E-02 0.90551286E+02</pdfrwt>
<pdfrwt beam="1">  1       -2 0.47095948E-01 0.90551286E+02</pdfrwt>
<totfact> 0.51322916E+04</totfact>
</mgrwt>
</event>
<event>
 7    1  0.3480999E-009  0.9599414E+02  0.7818608E-02  0.1288953E+00
         -2   -1    0    0    0  501 -0.00000000000E+00  0.00000000000E+00  0.22974773382E+01  0.22974787533E+01  0.25500000000E-02 0.  1.
          2   -1    0    0  501    0  0.00000000000E+00 -0.00000000000E+00 -0.10027163200E+04  0.10027163200E+04  0.25500000000E-02 0. -1.
         23    2    1    2    0    0  0.00000000000E+00  0.00000000000E+00 -0.10004188427E+04  0.10050137988E+04  0.95994140126E+02 0.  0.
    9000005    2    3    3    0    0 -0.23461785033E+02 -0.15491268919E+02 -0.90547667375E+03  0.90599637500E+03  0.12287800464E+02 0.  0.
         22    1    3    3    0    0  0.23461785033E+02  0.15491268919E+02 -0.94942168935E+02  0.99017423779E+02  0.00000000000E+00 0.  1.
         22    1    4    4    0    0 -0.21678271346E+02 -0.93683886090E+01 -0.62240072035E+03  0.62284859384E+03  0.00000000000E+00 0. -1.
         22    1    4    4    0    0 -0.17835136876E+01 -0.61228803096E+01 -0.28307595341E+03  0.28314778117E+03  0.00000000000E+00 0. -1.
<mgrwt>
<rscale>  0 0.95994140E+02</rscale>
<asrwt>0</asrwt>
<pdfrwt beam="2">  1        2 0.15426370E+00 0.95994140E+02</pdfrwt>
<pdfrwt beam="1">  1       -2 0.35345896E-03 0.95994140E+02</pdfrwt>
<totfact> 0.21826687E+05</totfact>
</mgrwt>
</event>
<event>
 7    1  0.3480999E-009  0.8988032E+02  0.7818608E-02  0.1303142E+00
         -2   -1    0    0    0  501 -0.00000000000E+00  0.00000000000E+00  0.32654897251E+02  0.32654897351E+02  0.25500000000E-02 0.  1.
          2   -1    0    0  501    0  0.00000000000E+00 -0.00000000000E+00 -0.61847316427E+02  0.61847316480E+02  0.25500000000E-02 0. -1.
         23    2    1    2    0    0  0.00000000000E+00 -0.35527136788E-14 -0.29192419176E+02  0.94502213831E+02  0.89880315317E+02 0.  0.
    9000005    2    3    3    0    0 -0.29073469821E+01  0.24725286820E+02  0.24093373253E+02  0.35687520517E+02  0.85624769273E+01 0.  0.
         22    1    3    3    0    0  0.29073469821E+01 -0.24725286820E+02 -0.53285792429E+02  0.58814693314E+02  0.00000000000E+00 0. -1.
         22    1    4    4    0    0  0.98586394143E+00 -0.10874462629E+00  0.19512561548E+01  0.21888704134E+01  0.00000000000E+00 0. -1.
         22    1    4    4    0    0 -0.38932109235E+01  0.24834031446E+02  0.22142117098E+02  0.33498650103E+02  0.00000000000E+00 0. -1.
<mgrwt>
<rscale>  0 0.89880315E+02</rscale>
<asrwt>0</asrwt>
<pdfrwt beam="2">  1        2 0.95149718E-02 0.89880315E+02</pdfrwt>
<pdfrwt beam="1">  1       -2 0.50238304E-02 0.89880315E+02</pdfrwt>
<totfact> 0.11133013E+05</totfact>
</mgrwt>
</event>
<event>
 7    1  0.3480999E-009  0.1094436E+03  0.7818608E-02  0.1261604E+00
          2   -1    0    0  501    0  0.00000000000E+00  0.00000000000E+00  0.31381453153E+03  0.31381453154E+03  0.25500000000E-02 0. -1.
         -2   -1    0    0    0  501 -0.00000000000E+00 -0.00000000000E+00 -0.95421843922E+01  0.95421847330E+01  0.25500000000E-02 0.  1.
         23    2    1    2    0    0 -0.17763568394E-14 -0.35527136788E-14  0.30427234714E+03  0.32335671628E+03  0.10944361437E+03 0.  0.
    9000005    2    3    3    0    0  0.13452321612E+02 -0.24964579981E+02  0.29006833896E+03  0.29164001628E+03  0.10491073257E+02 0.  0.
         22    1    3    3    0    0 -0.13452321612E+02  0.24964579981E+02  0.14204008184E+02  0.31716700000E+02  0.00000000000E+00 0.  1.
         22    1    4    4    0    0  0.51836525812E+01 -0.16715298795E+01  0.45016464067E+02  0.45344749457E+02  0.00000000000E+00 0.  1.
         22    1    4    4    0    0  0.82686690312E+01 -0.23293050102E+02  0.24505187489E+03  0.24629526682E+03  0.00000000000E+00 0.  1.
<mgrwt>
<rscale>  0 0.10944361E+03</rscale>
<asrwt>0</asrwt>
<pdfrwt beam="1">  1        2 0.48279156E-01 0.10944361E+03</pdfrwt>
<pdfrwt beam="2">  1       -2 0.14680285E-02 0.10944361E+03</pdfrwt>
<totfact> 0.11171244E+05</totfact>
</mgrwt>
</event>
<event>
 7    1  0.3480999E-009  0.9092866E+02  0.7818608E-02  0.1300618E+00
         -2   -1    0    0    0  501 -0.00000000000E+00  0.00000000000E+00  0.24971752679E+01  0.24971765699E+01  0.25500000000E-02 0.  1.
          2   -1    0    0  501    0  0.00000000000E+00 -0.00000000000E+00 -0.82773722541E+03  0.82773722541E+03  0.25500000000E-02 0. -1.
         23    2    1    2    0    0  0.00000000000E+00  0.00000000000E+00 -0.82524005014E+03  0.83023440198E+03  0.90928663681E+02 0.  0.
    9000005    2    3    3    0    0  0.28605096740E+02 -0.14681265445E+02 -0.70317066701E+03  0.70400157974E+03  0.11638136088E+02 0.  0.
         22    1    3    3    0    0 -0.28605096740E+02  0.14681265445E+02 -0.12206938313E+03  0.12623282225E+03  0.00000000000E+00 0.  1.
         22    1    4    4    0    0  0.21610174495E+02 -0.14680757384E+02 -0.46955592853E+03  0.47028214329E+03  0.00000000000E+00 0. -1.
         22    1    4    4    0    0  0.69949222458E+01 -0.50806101560E-03 -0.23361473848E+03  0.23371943644E+03  0.00000000000E+00 0. -1.
<mgrwt>
<rscale>  0 0.90928664E+02</rscale>
<asrwt>0</asrwt>
<pdfrwt beam="2">  1        2 0.12734397E+00 0.90928664E+02</pdfrwt>
<pdfrwt beam="1">  1       -2 0.38418157E-03 0.90928664E+02</pdfrwt>
<totfact> 0.24689945E+05</totfact>
</mgrwt>
</event>
<event>
 7    1  0.3480999E-009  0.9033281E+02  0.7818608E-02  0.1302048E+00
          2   -1    0    0  501    0  0.00000000000E+00  0.00000000000E+00  0.80875113479E+01  0.80875117499E+01  0.25500000000E-02 0. -1.
         -2   -1    0    0    0  501 -0.00000000000E+00 -0.00000000000E+00 -0.25224124164E+03  0.25224124166E+03  0.25500000000E-02 0.  1.
         23    2    1    2    0    0  0.71054273576E-14  0.00000000000E+00 -0.24415373029E+03  0.26032875341E+03  0.90332805961E+02 0.  0.
    9000005    2    3    3    0    0 -0.32321258251E+02 -0.10904388642E+02 -0.20652959711E+03  0.20954347183E+03  0.95090839731E+01 0.  0.
         22    1    3    3    0    0  0.32321258251E+02  0.10904388642E+02 -0.37624133182E+02  0.50785281572E+02  0.00000000000E+00 0. -1.
         22    1    4    4    0    0 -0.22590970003E+02 -0.91821038402E+01 -0.12009018059E+03  0.12254107243E+03  0.00000000000E+00 0. -1.
         22    1    4    4    0    0 -0.97302882484E+01 -0.17222848022E+01 -0.86439416520E+02  0.87002399408E+02  0.00000000000E+00 0. -1.
<mgrwt>
<rscale>  0 0.90332806E+02</rscale>
<asrwt>0</asrwt>
<pdfrwt beam="1">  1        2 0.12442327E-02 0.90332806E+02</pdfrwt>
<pdfrwt beam="2">  1       -2 0.38806339E-01 0.90332806E+02</pdfrwt>
<totfact> 0.57276878E+04</totfact>
</mgrwt>
</event>
<event>
 7    1  0.3480999E-009  0.8755195E+02  0.7818608E-02  0.1308891E+00
          2   -1    0    0  501    0  0.00000000000E+00  0.00000000000E+00  0.39602336844E+03  0.39602336845E+03  0.25500000000E-02 0. -1.
         -2   -1    0    0    0  501 -0.00000000000E+00 -0.00000000000E+00 -0.48389466432E+01  0.48389473151E+01  0.25500000000E-02 0.  1.
         23    2    1    2    0    0  0.00000000000E+00  0.35527136788E-14  0.39118442180E+03  0.40086231576E+03  0.87551952250E+02 0.  0.
    9000005    2    3    3    0    0  0.31373813541E+02  0.28664765571E+02  0.15337656980E+03  0.15928715265E+03  0.64838163756E+01 0.  0.
         22    1    3    3    0    0 -0.31373813541E+02 -0.28664765571E+02  0.23780785200E+03  0.24157516311E+03  0.00000000000E+00 0.  1.
         22    1    4    4    0    0  0.14701736138E+02  0.93885293213E+01  0.66458049226E+02  0.68709226711E+02  0.00000000000E+00 0. -1.
         22    1    4    4    0    0  0.16672077403E+02  0.19276236249E+02  0.86918520575E+02  0.90577925941E+02  0.00000000000E+00 0. -1.
<mgrwt>
<rscale>  0 0.87551952E+02</rscale>
<asrwt>0</asrwt>
<pdfrwt beam="1">  1        2 0.60926669E-01 0.87551952E+02</pdfrwt>
<pdfrwt beam="2">  1       -2 0.74445342E-03 0.87551952E+02</pdfrwt>
<totfact> 0.22147362E+05</totfact>
</mgrwt>
</event>
<event>
 7    1  0.3480999E-009  0.9118453E+02  0.7818608E-02  0.1300008E+00
          2   -1    0    0  501    0  0.00000000000E+00  0.00000000000E+00  0.12249398706E+03  0.12249398709E+03  0.25500000000E-02 0. -1.
         -2   -1    0    0    0  501 -0.00000000000E+00 -0.00000000000E+00 -0.16969442775E+02  0.16969442967E+02  0.25500000000E-02 0.  1.
         23    2    1    2    0    0  0.00000000000E+00  0.00000000000E+00  0.10552454429E+03  0.13946343006E+03  0.91184531999E+02 0.  0.
    9000005    2    3    3    0    0  0.37844634852E+02 -0.15369473808E+02  0.83277321176E+02  0.92951323585E+02  0.60331767628E+01 0.  0.
         22    1    3    3    0    0 -0.37844634852E+02  0.15369473808E+02  0.22247223112E+02  0.46512106471E+02  0.00000000000E+00 0.  1.
         22    1    4    4    0    0  0.18451351647E+02 -0.97289846570E+01  0.37366799961E+02  0.42794663913E+02  0.00000000000E+00 0.  1.
         22    1    4    4    0    0  0.19393283204E+02 -0.56404891507E+01  0.45910521214E+02  0.50156659672E+02  0.00000000000E+00 0.  1.
<mgrwt>
<rscale>  0 0.91184532E+02</rscale>
<asrwt>0</asrwt>
<pdfrwt beam="1">  1        2 0.18845229E-01 0.91184532E+02</pdfrwt>
<pdfrwt beam="2">  1       -2 0.26106835E-02 0.91184532E+02</pdfrwt>
<totfact> 0.13069528E+05</totfact>
</mgrwt>
</event>
<event>
 7    1  0.3480999E-009  0.9039277E+02  0.7818608E-02  0.1301903E+00
         -2   -1    0    0    0  501 -0.00000000000E+00  0.00000000000E+00  0.66206599022E+01  0.66206603933E+01  0.25500000000E-02 0.  1.
          2   -1    0    0  501    0  0.00000000000E+00 -0.00000000000E+00 -0.30853620491E+03  0.30853620492E+03  0.25500000000E-02 0. -1.
         23    2    1    2    0    0  0.00000000000E+00  0.00000000000E+00 -0.30191554501E+03  0.31515686531E+03  0.90392773146E+02 0.  0.
    9000005    2    3    3    0    0 -0.10582579710E+02  0.16046470670E+02 -0.29294394313E+03  0.29394437243E+03  0.14753306420E+02 0.  0.
         22    1    3    3    0    0  0.10582579710E+02 -0.16046470670E+02 -0.89716018792E+01  0.21212492889E+02  0.00000000000E+00 0.  1.
         22    1    4    4    0    0 -0.10846914599E+02  0.44149072324E+01 -0.10754958384E+03  0.10818530374E+03  0.00000000000E+00 0.  1.
         22    1    4    4    0    0  0.26433488866E+00  0.11631563437E+02 -0.18539435929E+03  0.18575906868E+03  0.00000000000E+00 0.  1.
<mgrwt>
<rscale>  0 0.90392773E+02</rscale>
<asrwt>0</asrwt>
<pdfrwt beam="2">  1        2 0.47467097E-01 0.90392773E+02</pdfrwt>
<pdfrwt beam="1">  1       -2 0.10185633E-02 0.90392773E+02</pdfrwt>
<totfact> 0.18577136E+05</totfact>
</mgrwt>
</event>
<event>
 7    1  0.3480999E-009  0.8989663E+02  0.7818608E-02  0.1303102E+00
         -2   -1    0    0    0  501 -0.00000000000E+00  0.00000000000E+00  0.75468464310E+01  0.75468468618E+01  0.25500000000E-02 0.  1.
          2   -1    0    0  501    0  0.00000000000E+00 -0.00000000000E+00 -0.26770795581E+03  0.26770795583E+03  0.25500000000E-02 0. -1.
         23    2    1    2    0    0  0.00000000000E+00  0.00000000000E+00 -0.26016110938E+03  0.27525480269E+03  0.89896627119E+02 0.  0.
    9000005    2    3    3    0    0  0.39434568496E+02 -0.13141025274E+02 -0.18143382369E+03  0.18622808057E+03  0.59071040218E+01 0.  0.
         22    1    3    3    0    0 -0.39434568496E+02  0.13141025274E+02 -0.78727285693E+02  0.89026722114E+02  0.00000000000E+00 0.  1.
         22    1    4    4    0    0  0.28670131123E+02 -0.10056685175E+02 -0.12031408772E+03  0.12409106753E+03  0.00000000000E+00 0.  1.
         22    1    4    4    0    0  0.10764437373E+02 -0.30843400991E+01 -0.61119735966E+02  0.62137013047E+02  0.00000000000E+00 0.  1.
<mgrwt>
<rscale>  0 0.89896627E+02</rscale>
<asrwt>0</asrwt>
<pdfrwt beam="2">  1        2 0.41185832E-01 0.89896627E+02</pdfrwt>
<pdfrwt beam="1">  1       -2 0.11610535E-02 0.89896627E+02</pdfrwt>
<totfact> 0.17881471E+05</totfact>
</mgrwt>
</event>
<event>
 7    1  0.3480999E-009  0.9209417E+02  0.7818608E-02  0.1297858E+00
          2   -1    0    0  501    0  0.00000000000E+00  0.00000000000E+00  0.20550682480E+02  0.20550682638E+02  0.25500000000E-02 0. -1.
         -2   -1    0    0    0  501 -0.00000000000E+00 -0.00000000000E+00 -0.10317585119E+03  0.10317585122E+03  0.25500000000E-02 0.  1.
         23    2    1    2    0    0  0.00000000000E+00  0.00000000000E+00 -0.82625168712E+02  0.12372653386E+03  0.92094172871E+02 0.  0.
    9000005    2    3    3    0    0 -0.51502145369E+01 -0.28521341260E+02 -0.88505502698E+02  0.94153405099E+02  0.13843701342E+02 0.  0.
         22    1    3    3    0    0  0.51502145369E+01  0.28521341260E+02  0.58803339858E+01  0.29573128763E+02  0.00000000000E+00 0. -1.
         22    1    4    4    0    0  0.26598703845E+01 -0.21337645164E+02 -0.58482217989E+02  0.62310029951E+02  0.00000000000E+00 0.  1.
         22    1    4    4    0    0 -0.78100849214E+01 -0.71836960963E+01 -0.30023284708E+02  0.31843375147E+02  0.00000000000E+00 0.  1.
<mgrwt>
<rscale>  0 0.92094173E+02</rscale>
<asrwt>0</asrwt>
<pdfrwt beam="1">  1        2 0.31616435E-02 0.92094173E+02</pdfrwt>
<pdfrwt beam="2">  1       -2 0.15873208E-01 0.92094173E+02</pdfrwt>
<totfact> 0.77110654E+04</totfact>
</mgrwt>
</event>
<event>
 7    1  0.3480999E-009  0.1008181E+03  0.7818608E-02  0.1278585E+00
          2   -1    0    0  501    0  0.00000000000E+00  0.00000000000E+00  0.14211387468E+03  0.14211387470E+03  0.25500000000E-02 0. -1.
         -2   -1    0    0    0  501 -0.00000000000E+00 -0.00000000000E+00 -0.17880540893E+02  0.17880541075E+02  0.25500000000E-02 0.  1.
         23    2    1    2    0    0  0.00000000000E+00  0.88817841970E-15  0.12423333379E+03  0.15999441578E+03  0.10081811274E+03 0.  0.
    9000005    2    3    3    0    0  0.36702631316E+02  0.76777941952E+01  0.11472574190E+02  0.41162515288E+02  0.12518028484E+02 0.  0.
         22    1    3    3    0    0 -0.36702631316E+02 -0.76777941952E+01  0.11276075960E+03  0.11883190049E+03  0.00000000000E+00 0. -1.
         22    1    4    4    0    0  0.15722276706E+02  0.55622188040E+01  0.11172394225E+02  0.20073630851E+02  0.00000000000E+00 0.  1.
         22    1    4    4    0    0  0.20980354610E+02  0.21155753912E+01  0.30017996519E+00  0.21088884437E+02  0.00000000000E+00 0.  1.
<mgrwt>
<rscale>  0 0.10081811E+03</rscale>
<asrwt>0</asrwt>
<pdfrwt beam="1">  1        2 0.21863672E-01 0.10081811E+03</pdfrwt>
<pdfrwt beam="2">  1       -2 0.27508525E-02 0.10081811E+03</pdfrwt>
<totfact> 0.10424647E+05</totfact>
</mgrwt>
</event>
<event>
 7    1  0.3480999E-009  0.8697414E+02  0.7818608E-02  0.1310349E+00
         -2   -1    0    0    0  501 -0.00000000000E+00  0.00000000000E+00  0.20144885708E+01  0.20144901847E+01  0.25500000000E-02 0.  1.
          2   -1    0    0  501    0  0.00000000000E+00 -0.00000000000E+00 -0.93876157801E+03  0.93876157801E+03  0.25500000000E-02 0. -1.
         23    2    1    2    0    0 -0.17763568394E-14  0.00000000000E+00 -0.93674708944E+03  0.94077606819E+03  0.86974139384E+02 0.  0.
    9000005    2    3    3    0    0  0.15924836186E+02 -0.23438234707E+02 -0.82101443899E+03  0.82162491364E+03  0.14136421820E+02 0.  0.
         22    1    3    3    0    0 -0.15924836186E+02  0.23438234707E+02 -0.11573265045E+03  0.11915115456E+03  0.00000000000E+00 0.  1.
         22    1    4    4    0    0  0.52087724125E+01 -0.18480355211E+02 -0.58542408458E+03  0.58573886131E+03  0.00000000000E+00 0. -1.
         22    1    4    4    0    0  0.10716063773E+02 -0.49578794961E+01 -0.23559035441E+03  0.23588605233E+03  0.00000000000E+00 0. -1.
<mgrwt>
<rscale>  0 0.86974139E+02</rscale>
<asrwt>0</asrwt>
<pdfrwt beam="2">  1        2 0.14442451E+00 0.86974139E+02</pdfrwt>
<pdfrwt beam="1">  1       -2 0.30992219E-03 0.86974139E+02</pdfrwt>
<totfact> 0.28184728E+05</totfact>
</mgrwt>
</event>
<event>
 7    1  0.3480999E-009  0.9292486E+02  0.7818608E-02  0.1295919E+00
          2   -1    0    0  501    0  0.00000000000E+00  0.00000000000E+00  0.33805886834E+03  0.33805886835E+03  0.25500000000E-02 0. -1.
         -2   -1    0    0    0  501 -0.00000000000E+00 -0.00000000000E+00 -0.63857434212E+01  0.63857439303E+01  0.25500000000E-02 0.  1.
         23    2    1    2    0    0  0.00000000000E+00 -0.44408920985E-15  0.33167312492E+03  0.34444461228E+03  0.92924857467E+02 0.  0.
    9000005    2    3    3    0    0 -0.41721566116E+02  0.38094431490E+01  0.10135008826E+03  0.11034227963E+03  0.12181024074E+02 0.  0.
         22    1    3    3    0    0  0.41721566116E+02 -0.38094431490E+01  0.23032303665E+03  0.23410233265E+03  0.00000000000E+00 0. -1.
         22    1    4    4    0    0 -0.89967364989E+01 -0.41188375235E+01  0.25598732841E+02  0.27444511532E+02  0.00000000000E+00 0. -1.
         22    1    4    4    0    0 -0.32724829617E+02  0.79282806724E+01  0.75751355423E+02  0.82897768102E+02  0.00000000000E+00 0. -1.
<mgrwt>
<rscale>  0 0.92924857E+02</rscale>
<asrwt>0</asrwt>
<pdfrwt beam="1">  1        2 0.52009085E-01 0.92924857E+02</pdfrwt>
<pdfrwt beam="2">  1       -2 0.98242158E-03 0.92924857E+02</pdfrwt>
<totfact> 0.17851646E+05</totfact>
</mgrwt>
</event>
<event>
 7    1  0.3480999E-009  0.8846761E+02  0.7818608E-02  0.1306606E+00
          2   -1    0    0  501    0  0.00000000000E+00  0.00000000000E+00  0.51861237703E+03  0.51861237703E+03  0.25500000000E-02 0.  1.
         -2   -1    0    0    0  501 -0.00000000000E+00 -0.00000000000E+00 -0.37728165361E+01  0.37728173978E+01  0.25500000000E-02 0. -1.
         23    2    1    2    0    0  0.35527136788E-14  0.00000000000E+00  0.51483956049E+03  0.52238519443E+03  0.88467611669E+02 0.  0.
    9000005    2    3    3    0    0  0.29163136896E+02 -0.12421782496E+01  0.45109639334E+03  0.45227654362E+03  0.14631618578E+02 0.  0.
         22    1    3    3    0    0 -0.29163136896E+02  0.12421782496E+01  0.63743167151E+02  0.70108650813E+02  0.00000000000E+00 0. -1.
         22    1    4    4    0    0  0.16966697567E+02  0.25246381268E+01  0.16357933601E+03  0.16447626514E+03  0.00000000000E+00 0.  1.
         22    1    4    4    0    0  0.12196439329E+02 -0.37668163763E+01  0.28751705733E+03  0.28780027848E+03  0.00000000000E+00 0.  1.
<mgrwt>
<rscale>  0 0.88467612E+02</rscale>
<asrwt>0</asrwt>
<pdfrwt beam="1">  1        2 0.79786476E-01 0.88467612E+02</pdfrwt>
<pdfrwt beam="2">  1       -2 0.58043370E-03 0.88467612E+02</pdfrwt>
<totfact> 0.23611948E+05</totfact>
</mgrwt>
</event>
<event>
 7    1  0.3480999E-009  0.8587488E+02  0.7818608E-02  0.1313160E+00
         -2   -1    0    0    0  501 -0.00000000000E+00  0.00000000000E+00  0.26695879951E+03  0.26695879952E+03  0.25500000000E-02 0.  1.
          2   -1    0    0  501    0  0.00000000000E+00 -0.00000000000E+00 -0.69060230317E+01  0.69060235025E+01  0.25500000000E-02 0. -1.
         23    2    1    2    0    0  0.00000000000E+00  0.00000000000E+00  0.26005277648E+03  0.27386482303E+03  0.85874878377E+02 0.  0.
    9000005    2    3    3    0    0  0.13446779983E+02 -0.38937629898E+02  0.15884431386E+03  0.16459402262E+03  0.12756226908E+02 0.  0.
         22    1    3    3    0    0 -0.13446779983E+02  0.38937629898E+02  0.10120846262E+03  0.10927080040E+03  0.00000000000E+00 0. -1.
         22    1    4    4    0    0  0.74384815761E+00 -0.20932990372E+02  0.70730028069E+02  0.73766389817E+02  0.00000000000E+00 0. -1.
         22    1    4    4    0    0  0.12702931826E+02 -0.18004639526E+02  0.88114285787E+02  0.90827632806E+02  0.00000000000E+00 0. -1.
<mgrwt>
<rscale>  0 0.85874878E+02</rscale>
<asrwt>0</asrwt>
<pdfrwt beam="2">  1        2 0.10624651E-02 0.85874878E+02</pdfrwt>
<pdfrwt beam="1">  1       -2 0.41070585E-01 0.85874878E+02</pdfrwt>
<totfact> 0.63351247E+04</totfact>
</mgrwt>
</event>
<event>
 7    1  0.3480999E-009  0.9161591E+02  0.7818608E-02  0.1298985E+00
         -2   -1    0    0    0  501 -0.00000000000E+00  0.00000000000E+00  0.11284459409E+02  0.11284459697E+02  0.25500000000E-02 0.  1.
          2   -1    0    0  501    0  0.00000000000E+00 -0.00000000000E+00 -0.18595207764E+03  0.18595207766E+03  0.25500000000E-02 0. -1.
         23    2    1    2    0    0  0.00000000000E+00  0.88817841970E-15 -0.17466761823E+03  0.19723653735E+03  0.91615909148E+02 0.  0.
    9000005    2    3    3    0    0 -0.38655052438E+02  0.40408142621E+01 -0.13711447173E+03  0.14319229556E+03  0.13896542432E+02 0.  0.
         22    1    3    3    0    0  0.38655052438E+02 -0.40408142621E+01 -0.37553146503E+02  0.54044241794E+02  0.00000000000E+00 0.  1.
         22    1    4    4    0    0 -0.17280087612E+02 -0.27124572024E+01 -0.42503855562E+02  0.45962338818E+02  0.00000000000E+00 0. -1.
         22    1    4    4    0    0 -0.21374964826E+02  0.67532714645E+01 -0.94610616166E+02  0.97229956742E+02  0.00000000000E+00 0. -1.
<mgrwt>
<rscale>  0 0.91615909E+02</rscale>
<asrwt>0</asrwt>
<pdfrwt beam="2">  1        2 0.28608010E-01 0.91615909E+02</pdfrwt>
<pdfrwt beam="1">  1       -2 0.17360708E-02 0.91615909E+02</pdfrwt>
<totfact> 0.14874033E+05</totfact>
</mgrwt>
</event>
<event>
 7    1  0.3480999E-009  0.9050994E+02  0.7818608E-02  0.1301621E+00
          2   -1    0    0  501    0  0.00000000000E+00  0.00000000000E+00  0.21393806399E+02  0.21393806551E+02  0.25500000000E-02 0. -1.
         -2   -1    0    0    0  501 -0.00000000000E+00 -0.00000000000E+00 -0.95729223208E+02  0.95729223242E+02  0.25500000000E-02 0.  1.
         23    2    1    2    0    0  0.00000000000E+00  0.00000000000E+00 -0.74335416809E+02  0.11712302979E+03  0.90509943739E+02 0.  0.
    9000005    2    3    3    0    0 -0.40880253540E+02  0.48337018991E+01 -0.60067274137E+02  0.73555384701E+02  0.10380625836E+02 0.  0.
         22    1    3    3    0    0  0.40880253540E+02 -0.48337018991E+01 -0.14268142672E+02  0.43567645092E+02  0.00000000000E+00 0. -1.
         22    1    4    4    0    0 -0.25765219919E+02  0.72310436189E+00 -0.29254542664E+02  0.38989712795E+02  0.00000000000E+00 0.  1.
         22    1    4    4    0    0 -0.15115033621E+02  0.41105975372E+01 -0.30812731472E+02  0.34565671905E+02  0.00000000000E+00 0.  1.
<mgrwt>
<rscale>  0 0.90509944E+02</rscale>
<asrwt>0</asrwt>
<pdfrwt beam="1">  1        2 0.32913549E-02 0.90509944E+02</pdfrwt>
<pdfrwt beam="2">  1       -2 0.14727573E-01 0.90509944E+02</pdfrwt>
<totfact> 0.82329680E+04</totfact>
</mgrwt>
</event>
<event>
 7    1  0.3480999E-009  0.9337092E+02  0.7818608E-02  0.1294888E+00
         -2   -1    0    0    0  501 -0.00000000000E+00  0.00000000000E+00  0.20595568905E+02  0.20595569063E+02  0.25500000000E-02 0.  1.
          2   -1    0    0  501    0  0.00000000000E+00 -0.00000000000E+00 -0.10582529287E+03  0.10582529290E+03  0.25500000000E-02 0. -1.
         23    2    1    2    0    0 -0.71054273576E-14  0.00000000000E+00 -0.85229723961E+02  0.12642086196E+03  0.93370918879E+02 0.  0.
    9000005    2    3    3    0    0 -0.43963627209E+02 -0.57688553492E+01 -0.24256203694E+02  0.51029546922E+02  0.70406698609E+01 0.  0.
         22    1    3    3    0    0  0.43963627209E+02  0.57688553492E+01 -0.60973520267E+02  0.75391315038E+02  0.00000000000E+00 0. -1.
         22    1    4    4    0    0 -0.98896472509E+01  0.86027046506E+00 -0.77400885382E+01  0.12587857586E+02  0.00000000000E+00 0. -1.
         22    1    4    4    0    0 -0.34073979958E+02 -0.66291258142E+01 -0.16516115156E+02  0.38441689337E+02  0.00000000000E+00 0. -1.
<mgrwt>
<rscale>  0 0.93370919E+02</rscale>
<asrwt>0</asrwt>
<pdfrwt beam="2">  1        2 0.16280814E-01 0.93370919E+02</pdfrwt>
<pdfrwt beam="1">  1       -2 0.31685491E-02 0.93370919E+02</pdfrwt>
<totfact> 0.11691388E+05</totfact>
</mgrwt>
</event>
<event>
 7    1  0.3480999E-009  0.9219226E+02  0.7818608E-02  0.1297628E+00
          2   -1    0    0  501    0  0.00000000000E+00  0.00000000000E+00  0.54021247058E+03  0.54021247058E+03  0.25500000000E-02 0. -1.
         -2   -1    0    0    0  501 -0.00000000000E+00 -0.00000000000E+00 -0.39333656403E+01  0.39333664669E+01  0.25500000000E-02 0.  1.
         23    2    1    2    0    0  0.00000000000E+00 -0.17763568394E-14  0.53627910494E+03  0.54414583705E+03  0.92192264247E+02 0.  0.
    9000005    2    3    3    0    0  0.59385195628E+01 -0.11520470069E+02  0.52894248164E+03  0.52925243963E+03  0.12649455664E+02 0.  0.
         22    1    3    3    0    0 -0.59385195628E+01  0.11520470069E+02  0.73366232959E+01  0.14893397416E+02  0.00000000000E+00 0.  1.
         22    1    4    4    0    0  0.26331355464E+00 -0.22028697407E+01  0.33239242348E+03  0.33239982725E+03  0.00000000000E+00 0. -1.
         22    1    4    4    0    0  0.56752060081E+01 -0.93176003285E+01  0.19655005816E+03  0.19685261238E+03  0.00000000000E+00 0. -1.
<mgrwt>
<rscale>  0 0.92192264E+02</rscale>
<asrwt>0</asrwt>
<pdfrwt beam="1">  1        2 0.83109537E-01 0.92192264E+02</pdfrwt>
<pdfrwt beam="2">  1       -2 0.60513378E-03 0.92192264E+02</pdfrwt>
<totfact> 0.21447053E+05</totfact>
</mgrwt>
</event>
<event>
 7    1  0.3480999E-009  0.9016808E+02  0.7818608E-02  0.1302445E+00
         -2   -1    0    0    0  501 -0.00000000000E+00  0.00000000000E+00  0.13873217779E+02  0.13873218014E+02  0.25500000000E-02 0.  1.
          2   -1    0    0  501    0  0.00000000000E+00 -0.00000000000E+00 -0.14651038428E+03  0.14651038430E+03  0.25500000000E-02 0. -1.
         23    2    1    2    0    0  0.00000000000E+00  0.00000000000E+00 -0.13263716650E+03  0.16038360231E+03  0.90168076137E+02 0.  0.
    9000005    2    3    3    0    0  0.41604036261E+02  0.10280961756E+02 -0.84091876415E+02  0.95628377064E+02  0.15386643979E+02 0.  0.
         22    1    3    3    0    0 -0.41604036261E+02 -0.10280961756E+02 -0.48545290082E+02  0.64755225248E+02  0.00000000000E+00 0. -1.
         22    1    4    4    0    0  0.35660987973E+01  0.61799154779E+01 -0.16135899412E+02  0.17643006143E+02  0.00000000000E+00 0. -1.
         22    1    4    4    0    0  0.38037937464E+02  0.41010462781E+01 -0.67955977004E+02  0.77985370921E+02  0.00000000000E+00 0. -1.
<mgrwt>
<rscale>  0 0.90168076E+02</rscale>
<asrwt>0</asrwt>
<pdfrwt beam="2">  1        2 0.22540058E-01 0.90168076E+02</pdfrwt>
<pdfrwt beam="1">  1       -2 0.21343413E-02 0.90168076E+02</pdfrwt>
<totfact> 0.14294718E+05</totfact>
</mgrwt>
</event>
<event>
 7    1  0.3480999E-009  0.9550596E+02  0.7818608E-02  0.1290041E+00
         -2   -1    0    0    0  501 -0.00000000000E+00  0.00000000000E+00  0.18323797564E+02  0.18323797742E+02  0.25500000000E-02 0. -1.
          2   -1    0    0  501    0  0.00000000000E+00 -0.00000000000E+00 -0.12444730684E+03  0.12444730686E+03  0.25500000000E-02 0.  1.
         23    2    1    2    0    0  0.00000000000E+00  0.00000000000E+00 -0.10612350927E+03  0.14277110460E+03  0.95505963635E+02 0.  0.
    9000005    2    3    3    0    0  0.39903702146E+02  0.16633578871E+02 -0.27042365016E+02  0.52644478306E+02  0.13083202952E+02 0.  0.
         22    1    3    3    0    0 -0.39903702146E+02 -0.16633578871E+02 -0.79081144257E+02  0.90126626299E+02  0.00000000000E+00 0.  1.
         22    1    4    4    0    0  0.40632473358E+02  0.14918536006E+02 -0.25603458173E+02  0.50290134999E+02  0.00000000000E+00 0. -1.
         22    1    4    4    0    0 -0.72877121220E+00  0.17150428646E+01 -0.14389068431E+01  0.23543433077E+01  0.00000000000E+00 0. -1.
<mgrwt>
<rscale>  0 0.95505964E+02</rscale>
<asrwt>0</asrwt>
<pdfrwt beam="2">  1        2 0.19145739E-01 0.95505964E+02</pdfrwt>
<pdfrwt beam="1">  1       -2 0.28190459E-02 0.95505964E+02</pdfrwt>
<totfact> 0.11570598E+05</totfact>
</mgrwt>
</event>
<event>
 7    1  0.3480999E-009  0.8396995E+02  0.7818608E-02  0.1318148E+00
         -2   -1    0    0    0  501 -0.00000000000E+00  0.00000000000E+00  0.13191032013E+02  0.13191032260E+02  0.25500000000E-02 0. -1.
          2   -1    0    0  501    0  0.00000000000E+00 -0.00000000000E+00 -0.13363155470E+03  0.13363155472E+03  0.25500000000E-02 0.  1.
         23    2    1    2    0    0 -0.33306690739E-15  0.00000000000E+00 -0.12044052268E+03  0.14682258698E+03  0.83969950241E+02 0.  0.
    9000005    2    3    3    0    0 -0.36751051591E+00  0.27830482814E+02 -0.77430868048E+01  0.30739070101E+02  0.10500676156E+02 0.  0.
         22    1    3    3    0    0  0.36751051591E+00 -0.27830482814E+02 -0.11269743588E+03  0.11608351688E+03  0.00000000000E+00 0.  1.
         22    1    4    4    0    0 -0.40977458762E+01  0.14911791134E+02 -0.77383037436E+01  0.17292610587E+02  0.00000000000E+00 0.  1.
         22    1    4    4    0    0  0.37302353603E+01  0.12918691680E+02 -0.47830612401E-02  0.13446459513E+02  0.00000000000E+00 0.  1.
<mgrwt>
<rscale>  0 0.83969950E+02</rscale>
<asrwt>0</asrwt>
<pdfrwt beam="2">  1        2 0.20558700E-01 0.83969950E+02</pdfrwt>
<pdfrwt beam="1">  1       -2 0.20293896E-02 0.83969950E+02</pdfrwt>
<totfact> 0.16808514E+05</totfact>
</mgrwt>
</event>
<event>
 7    1  0.3480999E-009  0.9101047E+02  0.7818608E-02  0.1300423E+00
         -2   -1    0    0    0  501 -0.00000000000E+00  0.00000000000E+00  0.20067342706E+01  0.20067358908E+01  0.25500000000E-02 0.  1.
          2   -1    0    0  501    0  0.00000000000E+00 -0.00000000000E+00 -0.10318882300E+04  0.10318882300E+04  0.25500000000E-02 0. -1.
         23    2    1    2    0    0  0.00000000000E+00 -0.27755575616E-16 -0.10298814957E+04  0.10338949659E+04  0.91010467832E+02 0.  0.
    9000005    2    3    3    0    0 -0.16636255077E+02  0.24487328652E+00 -0.99606582014E+03  0.99620776832E+03  0.24443095987E+01 0.  0.
         22    1    3    3    0    0  0.16636255077E+02 -0.24487328652E+00 -0.33815675585E+02  0.37687197577E+02  0.00000000000E+00 0.  1.
         22    1    4    4    0    0 -0.12429456933E+02  0.12067672621E+01 -0.72251300980E+03  0.72262092208E+03  0.00000000000E+00 0. -1.
         22    1    4    4    0    0 -0.42067981445E+01 -0.96189397556E+00 -0.27355281034E+03  0.27358684624E+03  0.00000000000E+00 0. -1.
<mgrwt>
<rscale>  0 0.91010468E+02</rscale>
<asrwt>0</asrwt>
<pdfrwt beam="2">  1        2 0.15875161E+00 0.91010468E+02</pdfrwt>
<pdfrwt beam="1">  1       -2 0.30872930E-03 0.91010468E+02</pdfrwt>
<totfact> 0.25147172E+05</totfact>
</mgrwt>
</event>
<event>
 7    1  0.3480999E-009  0.9097063E+02  0.7818608E-02  0.1300518E+00
          2   -1    0    0  501    0  0.00000000000E+00  0.00000000000E+00  0.17550769515E+03  0.17550769517E+03  0.25500000000E-02 0.  1.
         -2   -1    0    0    0  501 -0.00000000000E+00 -0.00000000000E+00 -0.11788166718E+02  0.11788166993E+02  0.25500000000E-02 0. -1.
         23    2    1    2    0    0  0.00000000000E+00  0.00000000000E+00  0.16371952843E+03  0.18729586216E+03  0.90970632585E+02 0.  0.
    9000005    2    3    3    0    0 -0.93614733933E+01 -0.37471928134E+02  0.39570657362E+02  0.57277691238E+02  0.14937014673E+02 0.  0.
         22    1    3    3    0    0  0.93614733933E+01  0.37471928134E+02  0.12414887107E+03  0.13001817092E+03  0.00000000000E+00 0.  1.
         22    1    4    4    0    0 -0.88302075109E+01 -0.89886803487E+01  0.89581199899E+01  0.15460169884E+02  0.00000000000E+00 0. -1.
         22    1    4    4    0    0 -0.53126588238E+00 -0.28483247786E+02  0.30612537372E+02  0.41817521354E+02  0.00000000000E+00 0. -1.
<mgrwt>
<rscale>  0 0.90970633E+02</rscale>
<asrwt>0</asrwt>
<pdfrwt beam="1">  1        2 0.27001181E-01 0.90970633E+02</pdfrwt>
<pdfrwt beam="2">  1       -2 0.18135643E-02 0.90970633E+02</pdfrwt>
<totfact> 0.14852638E+05</totfact>
</mgrwt>
</event>
<event>
 7    1  0.3480999E-009  0.9558019E+02  0.7818608E-02  0.1289875E+00
          2   -1    0    0  501    0  0.00000000000E+00  0.00000000000E+00  0.46609617431E+03  0.46609617431E+03  0.25500000000E-02 0. -1.
         -2   -1    0    0    0  501 -0.00000000000E+00 -0.00000000000E+00 -0.49000470898E+01  0.49000477533E+01  0.25500000000E-02 0.  1.
         23    2    1    2    0    0  0.00000000000E+00  0.00000000000E+00  0.46119612722E+03  0.47099622207E+03  0.95580193772E+02 0.  0.
    9000005    2    3    3    0    0  0.37609348625E+02 -0.27686152248E+02  0.24576541813E+03  0.25056170447E+03  0.14125893539E+02 0.  0.
         22    1    3    3    0    0 -0.37609348625E+02  0.27686152248E+02  0.21543070909E+03  0.22043451760E+03  0.00000000000E+00 0. -1.
         22    1    4    4    0    0  0.11061007140E+02 -0.11996036842E+02  0.11824169462E+03  0.11936226006E+03  0.00000000000E+00 0. -1.
         22    1    4    4    0    0  0.26548341485E+02 -0.15690115406E+02  0.12752372351E+03  0.13119944441E+03  0.00000000000E+00 0. -1.
<mgrwt>
<rscale>  0 0.95580194E+02</rscale>
<asrwt>0</asrwt>
<pdfrwt beam="1">  1        2 0.71707140E-01 0.95580194E+02</pdfrwt>
<pdfrwt beam="2">  1       -2 0.75385307E-03 0.95580194E+02</pdfrwt>
<totfact> 0.18574610E+05</totfact>
</mgrwt>
</event>
<event>
 7    1  0.3480999E-009  0.9614266E+02  0.7818608E-02  0.1288623E+00
          2   -1    0    0  501    0  0.00000000000E+00  0.00000000000E+00  0.67508724599E+01  0.67508729415E+01  0.25500000000E-02 0. -1.
         -2   -1    0    0    0  501 -0.00000000000E+00 -0.00000000000E+00 -0.34230429798E+03  0.34230429799E+03  0.25500000000E-02 0.  1.
         23    2    1    2    0    0 -0.71054273576E-14  0.44408920985E-15 -0.33555342552E+03  0.34905517093E+03  0.96142659497E+02 0.  0.
    9000005    2    3    3    0    0 -0.45895294974E+02 -0.28231045858E+01 -0.21490471119E+03  0.21994103426E+03  0.86991744802E+01 0.  0.
         22    1    3    3    0    0  0.45895294974E+02  0.28231045858E+01 -0.12064871432E+03  0.12911413667E+03  0.00000000000E+00 0.  1.
         22    1    4    4    0    0 -0.86858418749E+01 -0.17412838034E+01 -0.28094728256E+02  0.29458270046E+02  0.00000000000E+00 0.  1.
         22    1    4    4    0    0 -0.37209453100E+02 -0.10818207823E+01 -0.18680998294E+03  0.19048276421E+03  0.00000000000E+00 0.  1.
<mgrwt>
<rscale>  0 0.96142659E+02</rscale>
<asrwt>0</asrwt>
<pdfrwt beam="1">  1        2 0.10385961E-02 0.96142659E+02</pdfrwt>
<pdfrwt beam="2">  1       -2 0.52662186E-01 0.96142659E+02</pdfrwt>
<totfact> 0.41152679E+04</totfact>
</mgrwt>
</event>
<event>
 7    1  0.3480999E-009  0.9694327E+02  0.7818608E-02  0.1286858E+00
         -2   -1    0    0    0  501 -0.00000000000E+00  0.00000000000E+00  0.12427951925E+03  0.12427951928E+03  0.25500000000E-02 0.  1.
          2   -1    0    0  501    0  0.00000000000E+00 -0.00000000000E+00 -0.18904960860E+02  0.18904961032E+02  0.25500000000E-02 0. -1.
         23    2    1    2    0    0  0.00000000000E+00  0.71054273576E-14  0.10537455839E+03  0.14318448031E+03  0.96943271275E+02 0.  0.
    9000005    2    3    3    0    0  0.28530807159E+02 -0.38647891591E+02  0.58199473589E+02  0.75855770923E+02  0.76975823937E+01 0.  0.
         22    1    3    3    0    0 -0.28530807159E+02  0.38647891591E+02  0.47175084805E+02  0.67328709389E+02  0.00000000000E+00 0.  1.
         22    1    4    4    0    0  0.17862568774E+02 -0.28903335406E+02  0.44061024311E+02  0.55640345291E+02  0.00000000000E+00 0.  1.
         22    1    4    4    0    0  0.10668238385E+02 -0.97445561847E+01  0.14138449278E+02  0.20215425632E+02  0.00000000000E+00 0.  1.
<mgrwt>
<rscale>  0 0.96943271E+02</rscale>
<asrwt>0</asrwt>
<pdfrwt beam="2">  1        2 0.29084555E-02 0.96943271E+02</pdfrwt>
<pdfrwt beam="1">  1       -2 0.19119926E-01 0.96943271E+02</pdfrwt>
<totfact> 0.63902975E+04</totfact>
</mgrwt>
</event>
<event>
 7    1  0.3480999E-009  0.9096193E+02  0.7818608E-02  0.1300539E+00
         -2   -1    0    0    0  501 -0.00000000000E+00  0.00000000000E+00  0.28122828601E+03  0.28122828602E+03  0.25500000000E-02 0. -1.
          2   -1    0    0  501    0  0.00000000000E+00 -0.00000000000E+00 -0.73552988637E+01  0.73552993057E+01  0.25500000000E-02 0.  1.
         23    2    1    2    0    0  0.35527136788E-14 -0.35527136788E-14  0.27387298714E+03  0.28858358533E+03  0.90961929574E+02 0.  0.
    9000005    2    3    3    0    0  0.28948409414E+02 -0.23469099952E+02  0.62573444087E+02  0.74022857426E+02  0.13233988685E+02 0.  0.
         22    1    3    3    0    0 -0.28948409414E+02  0.23469099952E+02  0.21129954306E+03  0.21456072790E+03  0.00000000000E+00 0. -1.
         22    1    4    4    0    0  0.16041614871E+01 -0.61840489807E+01  0.55509838328E+01  0.84634045977E+01  0.00000000000E+00 0.  1.
         22    1    4    4    0    0  0.27344247927E+02 -0.17285050971E+02  0.57022460254E+02  0.65559452829E+02  0.00000000000E+00 0.  1.
<mgrwt>
<rscale>  0 0.90961930E+02</rscale>
<asrwt>0</asrwt>
<pdfrwt beam="2">  1        2 0.11315847E-02 0.90961930E+02</pdfrwt>
<pdfrwt beam="1">  1       -2 0.43265883E-01 0.90961930E+02</pdfrwt>
<totfact> 0.53170425E+04</totfact>
</mgrwt>
</event>
<event>
 7    1  0.3480999E-009  0.9218127E+02  0.7818608E-02  0.1297654E+00
         -2   -1    0    0    0  501 -0.00000000000E+00  0.00000000000E+00  0.12178799995E+02  0.12178800262E+02  0.25500000000E-02 0.  1.
          2   -1    0    0  501    0  0.00000000000E+00 -0.00000000000E+00 -0.17442987592E+03  0.17442987594E+03  0.25500000000E-02 0. -1.
         23    2    1    2    0    0  0.00000000000E+00  0.00000000000E+00 -0.16225107592E+03  0.18660867620E+03  0.92181269219E+02 0.  0.
    9000005    2    3    3    0    0 -0.43589365100E+02  0.12795618026E+02 -0.73172784383E+02  0.86615163339E+02  0.91743967362E+01 0.  0.
         22    1    3    3    0    0  0.43589365100E+02 -0.12795618026E+02 -0.89078291540E+02  0.99993512860E+02  0.00000000000E+00 0.  1.
         22    1    4    4    0    0 -0.24830413284E+02  0.43066792402E+01 -0.33537677762E+02  0.41950837174E+02  0.00000000000E+00 0.  1.
         22    1    4    4    0    0 -0.18758951815E+02  0.84889387862E+01 -0.39635106621E+02  0.44664326165E+02  0.00000000000E+00 0.  1.
<mgrwt>
<rscale>  0 0.92181269E+02</rscale>
<asrwt>0</asrwt>
<pdfrwt beam="2">  1        2 0.26835364E-01 0.92181269E+02</pdfrwt>
<pdfrwt beam="1">  1       -2 0.18736617E-02 0.92181269E+02</pdfrwt>
<totfact> 0.14299793E+05</totfact>
</mgrwt>
</event>
<event>
 7    1  0.3480999E-009  0.9340321E+02  0.7818608E-02  0.1294813E+00
         -2   -1    0    0    0  501 -0.00000000000E+00  0.00000000000E+00  0.28184959202E+02  0.28184959318E+02  0.25500000000E-02 0.  1.
          2   -1    0    0  501    0  0.00000000000E+00 -0.00000000000E+00 -0.77383110983E+02  0.77383111025E+02  0.25500000000E-02 0. -1.
         23    2    1    2    0    0  0.00000000000E+00  0.00000000000E+00 -0.49198151781E+02  0.10556807034E+03  0.93403208388E+02 0.  0.
    9000005    2    3    3    0    0  0.12937576381E+02 -0.40591274799E+02 -0.42579276467E+01  0.43643469273E+02  0.84610868056E+01 0.  0.
         22    1    3    3    0    0 -0.12937576381E+02  0.40591274799E+02 -0.44940224134E+02  0.61924601070E+02  0.00000000000E+00 0.  1.
         22    1    4    4    0    0  0.82916976154E+01 -0.34788703583E+02 -0.52419293515E+01  0.36145317396E+02  0.00000000000E+00 0. -1.
         22    1    4    4    0    0  0.46458787651E+01 -0.58025712163E+01  0.98400170484E+00  0.74981518773E+01  0.00000000000E+00 0. -1.
<mgrwt>
<rscale>  0 0.93403208E+02</rscale>
<asrwt>0</asrwt>
<pdfrwt beam="2">  1        2 0.11905094E-01 0.93403208E+02</pdfrwt>
<pdfrwt beam="1">  1       -2 0.43361476E-02 0.93403208E+02</pdfrwt>
<totfact> 0.10636253E+05</totfact>
</mgrwt>
</event>
<event>
 7    1  0.3480999E-009  0.9139671E+02  0.7818608E-02  0.1299504E+00
         -2   -1    0    0    0  501 -0.00000000000E+00  0.00000000000E+00  0.62743421560E+01  0.62743426742E+01  0.25500000000E-02 0.  1.
          2   -1    0    0  501    0  0.00000000000E+00 -0.00000000000E+00 -0.33283801870E+03  0.33283801871E+03  0.25500000000E-02 0. -1.
         23    2    1    2    0    0 -0.71054273576E-14  0.00000000000E+00 -0.32656367655E+03  0.33911236139E+03  0.91396711131E+02 0.  0.
    9000005    2    3    3    0    0 -0.44585681311E+02 -0.84200042856E+01 -0.16768286632E+03  0.17387952171E+03  0.76003264273E+01 0.  0.
         22    1    3    3    0    0  0.44585681311E+02  0.84200042856E+01 -0.15888081022E+03  0.16523283967E+03  0.00000000000E+00 0.  1.
         22    1    4    4    0    0  0.78174070500E-01  0.83457666235E-01  0.25726422545E-01  0.11721013680E+00  0.00000000000E+00 0.  1.
         22    1    4    4    0    0 -0.44663855381E+02 -0.85034619518E+01 -0.16770859275E+03  0.17376231158E+03  0.00000000000E+00 0.  1.
<mgrwt>
<rscale>  0 0.91396711E+02</rscale>
<asrwt>0</asrwt>
<pdfrwt beam="2">  1        2 0.51205835E-01 0.91396711E+02</pdfrwt>
<pdfrwt beam="1">  1       -2 0.96528371E-03 0.91396711E+02</pdfrwt>
<totfact> 0.18552089E+05</totfact>
</mgrwt>
</event>
<event>
 7    1  0.3480999E-009  0.9211376E+02  0.7818608E-02  0.1297812E+00
         -2   -1    0    0    0  501 -0.00000000000E+00  0.00000000000E+00  0.35637177818E+01  0.35637186941E+01  0.25500000000E-02 0. -1.
          2   -1    0    0  501    0  0.00000000000E+00 -0.00000000000E+00 -0.59523120958E+03  0.59523120959E+03  0.25500000000E-02 0.  1.
         23    2    1    2    0    0  0.35527136788E-14 -0.88817841970E-15 -0.59166749180E+03  0.59879492828E+03  0.92113762720E+02 0.  0.
    9000005    2    3    3    0    0  0.23100187197E+02 -0.48663782321E+01 -0.55168153506E+03  0.55236027504E+03  0.13858464028E+02 0.  0.
         22    1    3    3    0    0 -0.23100187197E+02  0.48663782321E+01 -0.39985956739E+02  0.46434653245E+02  0.00000000000E+00 0. -1.
         22    1    4    4    0    0  0.20475354006E+02 -0.86031260604E+01 -0.49365055969E+03  0.49414990537E+03  0.00000000000E+00 0. -1.
         22    1    4    4    0    0  0.26248331910E+01  0.37367478283E+01 -0.58030975373E+02  0.58210369663E+02  0.00000000000E+00 0. -1.
<mgrwt>
<rscale>  0 0.92113763E+02</rscale>
<asrwt>0</asrwt>
<pdfrwt beam="2">  1        2 0.91573953E-01 0.92113763E+02</pdfrwt>
<pdfrwt beam="1">  1       -2 0.54826482E-03 0.92113763E+02</pdfrwt>
<totfact> 0.22127079E+05</totfact>
</mgrwt>
</event>
<event>
 7    1  0.3480999E-009  0.8540272E+02  0.7818608E-02  0.1314383E+00
         -2   -1    0    0    0  501 -0.00000000000E+00  0.00000000000E+00  0.31747795122E+02  0.31747795224E+02  0.25500000000E-02 0.  1.
          2   -1    0    0  501    0  0.00000000000E+00 -0.00000000000E+00 -0.57434100287E+02  0.57434100343E+02  0.25500000000E-02 0. -1.
         23    2    1    2    0    0  0.00000000000E+00  0.00000000000E+00 -0.25686305165E+02  0.89181895568E+02  0.85402717896E+02 0.  0.
    9000005    2    3    3    0    0  0.19520025187E+02 -0.44286982909E+01 -0.51756582481E+02  0.56313915539E+02  0.95848057545E+01 0.  0.
         22    1    3    3    0    0 -0.19520025187E+02  0.44286982909E+01  0.26070277316E+02  0.32867980029E+02  0.00000000000E+00 0.  1.
         22    1    4    4    0    0  0.76578382868E+01  0.23758552144E+01 -0.25173442248E+02  0.26419488448E+02  0.00000000000E+00 0. -1.
         22    1    4    4    0    0  0.11862186900E+02 -0.68045535053E+01 -0.26583140233E+02  0.29894427091E+02  0.00000000000E+00 0. -1.
<mgrwt>
<rscale>  0 0.85402718E+02</rscale>
<asrwt>0</asrwt>
<pdfrwt beam="2">  1        2 0.88360154E-02 0.85402718E+02</pdfrwt>
<pdfrwt beam="1">  1       -2 0.48842762E-02 0.85402718E+02</pdfrwt>
<totfact> 0.12598653E+05</totfact>
</mgrwt>
</event>
<event>
 7    1  0.3480999E-009  0.9013797E+02  0.7818608E-02  0.1302518E+00
         -2   -1    0    0    0  501 -0.00000000000E+00  0.00000000000E+00  0.11831436154E+02  0.11831436429E+02  0.25500000000E-02 0.  1.
          2   -1    0    0  501    0  0.00000000000E+00 -0.00000000000E+00 -0.17167936851E+03  0.17167936853E+03  0.25500000000E-02 0. -1.
         23    2    1    2    0    0  0.00000000000E+00  0.00000000000E+00 -0.15984793236E+03  0.18351080496E+03  0.90137972341E+02 0.  0.
    9000005    2    3    3    0    0 -0.73097468597E+01 -0.24321699634E+02 -0.15521101685E+03  0.15769456089E+03  0.11495099375E+02 0.  0.
         22    1    3    3    0    0  0.73097468597E+01  0.24321699634E+02 -0.46369155008E+01  0.25816244065E+02  0.00000000000E+00 0.  1.
         22    1    4    4    0    0 -0.77035938976E+00 -0.10662443512E+02 -0.36870327759E+02  0.38388829421E+02  0.00000000000E+00 0.  1.
         22    1    4    4    0    0 -0.65393874699E+01 -0.13659256123E+02 -0.11834068910E+03  0.11930573147E+03  0.00000000000E+00 0.  1.
<mgrwt>
<rscale>  0 0.90137972E+02</rscale>
<asrwt>0</asrwt>
<pdfrwt beam="2">  1        2 0.26412209E-01 0.90137972E+02</pdfrwt>
<pdfrwt beam="1">  1       -2 0.18202211E-02 0.90137972E+02</pdfrwt>
<totfact> 0.15108404E+05</totfact>
</mgrwt>
</event>
<event>
 7    1  0.3480999E-009  0.1001143E+03  0.7818608E-02  0.1280056E+00
         -2   -1    0    0    0  501 -0.00000000000E+00  0.00000000000E+00  0.60778520193E+01  0.60778525543E+01  0.25500000000E-02 0.  1.
          2   -1    0    0  501    0  0.00000000000E+00 -0.00000000000E+00 -0.41226999894E+03  0.41226999895E+03  0.25500000000E-02 0. -1.
         23    2    1    2    0    0  0.00000000000E+00  0.00000000000E+00 -0.40619214692E+03  0.41834785150E+03  0.10011425791E+03 0.  0.
    9000005    2    3    3    0    0  0.54749010242E+01 -0.47764396923E+02 -0.15729397719E+03  0.16484891453E+03  0.11061519080E+02 0.  0.
         22    1    3    3    0    0 -0.54749010242E+01  0.47764396923E+02 -0.24889816972E+03  0.25349893697E+03  0.00000000000E+00 0. -1.
         22    1    4    4    0    0 -0.74140763443E+00 -0.28016627757E+02 -0.10289229086E+03  0.10664100822E+03  0.00000000000E+00 0. -1.
         22    1    4    4    0    0  0.62163086587E+01 -0.19747769165E+02 -0.54401686334E+02  0.58207906304E+02  0.00000000000E+00 0. -1.
<mgrwt>
<rscale>  0 0.10011426E+03</rscale>
<asrwt>0</asrwt>
<pdfrwt beam="2">  1        2 0.63426132E-01 0.10011426E+03</pdfrwt>
<pdfrwt beam="1">  1       -2 0.93505452E-03 0.10011426E+03</pdfrwt>
<totfact> 0.15723323E+05</totfact>
</mgrwt>
</event>
<event>
 7    1  0.3480999E-009  0.9255548E+02  0.7818608E-02  0.1296779E+00
          2   -1    0    0  501    0  0.00000000000E+00  0.00000000000E+00  0.67628131511E+02  0.67628131559E+02  0.25500000000E-02 0. -1.
         -2   -1    0    0    0  501 -0.00000000000E+00 -0.00000000000E+00 -0.31667728376E+02  0.31667728478E+02  0.25500000000E-02 0.  1.
         23    2    1    2    0    0  0.00000000000E+00  0.00000000000E+00  0.35960403135E+02  0.99295860037E+02  0.92555481885E+02 0.  0.
    9000005    2    3    3    0    0 -0.27340443674E+02  0.44532319270E+01 -0.21748071900E+02  0.35283367306E+02  0.21462157866E+01 0.  0.
         22    1    3    3    0    0  0.27340443674E+02 -0.44532319270E+01  0.57708475035E+02  0.64012492732E+02  0.00000000000E+00 0. -1.
         22    1    4    4    0    0 -0.20210187246E+02  0.41725113954E+01 -0.16600625802E+02  0.26484755934E+02  0.00000000000E+00 0. -1.
         22    1    4    4    0    0 -0.71302564281E+01  0.28072053162E+00 -0.51474460976E+01  0.87986113719E+01  0.00000000000E+00 0. -1.
<mgrwt>
<rscale>  0 0.92555482E+02</rscale>
<asrwt>0</asrwt>
<pdfrwt beam="1">  1        2 0.10404328E-01 0.92555482E+02</pdfrwt>
<pdfrwt beam="2">  1       -2 0.48719582E-02 0.92555482E+02</pdfrwt>
<totfact> 0.10504940E+05</totfact>
</mgrwt>
</event>
<event>
 7    1  0.3480999E-009  0.9131119E+02  0.7818608E-02  0.1299707E+00
         -2   -1    0    0    0  501 -0.00000000000E+00  0.00000000000E+00  0.14058724997E+01  0.14058748123E+01  0.25500000000E-02 0.  1.
          2   -1    0    0  501    0  0.00000000000E+00 -0.00000000000E+00 -0.14826603579E+04  0.14826603579E+04  0.25500000000E-02 0. -1.
         23    2    1    2    0    0  0.17763568394E-14  0.00000000000E+00 -0.14812544854E+04  0.14840662327E+04  0.91311185322E+02 0.  0.
    9000005    2    3    3    0    0 -0.82006964702E+01  0.63275376170E+01 -0.14629799009E+04  0.14630602909E+04  0.11310839432E+02 0.  0.
         22    1    3    3    0    0  0.82006964702E+01 -0.63275376170E+01 -0.18274584538E+02  0.21005941896E+02  0.00000000000E+00 0.  1.
         22    1    4    4    0    0 -0.62669218558E+01 -0.58446613628E+00 -0.10435674175E+04  0.10435863984E+04  0.00000000000E+00 0. -1.
         22    1    4    4    0    0 -0.19337746144E+01  0.69120037533E+01 -0.41941248337E+03  0.41947389250E+03  0.00000000000E+00 0. -1.
<mgrwt>
<rscale>  0 0.91311185E+02</rscale>
<asrwt>0</asrwt>
<pdfrwt beam="2">  1        2 0.22810034E+00 0.91311185E+02</pdfrwt>
<pdfrwt beam="1">  1       -2 0.21628944E-03 0.91311185E+02</pdfrwt>
<totfact> 0.23606506E+05</totfact>
</mgrwt>
</event>
<event>
 7    1  0.3480999E-009  0.9166939E+02  0.7818608E-02  0.1298859E+00
          2   -1    0    0  501    0  0.00000000000E+00  0.00000000000E+00  0.77420417899E+02  0.77420417941E+02  0.25500000000E-02 0. -1.
         -2   -1    0    0    0  501 -0.00000000000E+00 -0.00000000000E+00 -0.27135207851E+02  0.27135207971E+02  0.25500000000E-02 0.  1.
         23    2    1    2    0    0 -0.35527136788E-14  0.00000000000E+00  0.50285210048E+02  0.10455562591E+03  0.91669387258E+02 0.  0.
    9000005    2    3    3    0    0 -0.17621688628E+02 -0.20878722600E+02 -0.15298171055E+02  0.33508987396E+02  0.11932025441E+02 0.  0.
         22    1    3    3    0    0  0.17621688628E+02  0.20878722600E+02  0.65583381103E+02  0.71046638516E+02  0.00000000000E+00 0. -1.
         22    1    4    4    0    0 -0.12683507481E+02 -0.62506108577E+01 -0.94107537228E+01  0.16985399134E+02  0.00000000000E+00 0.  1.
         22    1    4    4    0    0 -0.49381811476E+01 -0.14628111743E+02 -0.58874173324E+01  0.16523588262E+02  0.00000000000E+00 0.  1.
<mgrwt>
<rscale>  0 0.91669387E+02</rscale>
<asrwt>0</asrwt>
<pdfrwt beam="1">  1        2 0.11910834E-01 0.91669387E+02</pdfrwt>
<pdfrwt beam="2">  1       -2 0.41746474E-02 0.91669387E+02</pdfrwt>
<totfact> 0.11209243E+05</totfact>
</mgrwt>
</event>
<event>
 7    1  0.3480999E-009  0.9148102E+02  0.7818608E-02  0.1299304E+00
          2   -1    0    0  501    0  0.00000000000E+00  0.00000000000E+00  0.28362842279E+03  0.28362842280E+03  0.25500000000E-02 0. -1.
         -2   -1    0    0    0  501 -0.00000000000E+00 -0.00000000000E+00 -0.73765324086E+01  0.73765328493E+01  0.25500000000E-02 0.  1.
         23    2    1    2    0    0  0.00000000000E+00  0.35527136788E-14  0.27625189038E+03  0.29100495565E+03  0.91481021388E+02 0.  0.
    9000005    2    3    3    0    0  0.28465287624E+02  0.23784315967E+02  0.60848842889E+02  0.72431308669E+02  0.12951699081E+02 0.  0.
         22    1    3    3    0    0 -0.28465287624E+02 -0.23784315967E+02  0.21540304750E+03  0.21857364698E+03  0.00000000000E+00 0. -1.
         22    1    4    4    0    0  0.66855684845E+01  0.10604976567E+02  0.29464230882E+02  0.32020356890E+02  0.00000000000E+00 0.  1.
         22    1    4    4    0    0  0.21779719140E+02  0.13179339401E+02  0.31384612007E+02  0.40410951779E+02  0.00000000000E+00 0.  1.
<mgrwt>
<rscale>  0 0.91481021E+02</rscale>
<asrwt>0</asrwt>
<pdfrwt beam="1">  1        2 0.43635134E-01 0.91481021E+02</pdfrwt>
<pdfrwt beam="2">  1       -2 0.11348514E-02 0.91481021E+02</pdfrwt>
<totfact> 0.17438073E+05</totfact>
</mgrwt>
</event>
<event>
 7    1  0.3480999E-009  0.9333621E+02  0.7818608E-02  0.1294968E+00
          2   -1    0    0  501    0  0.00000000000E+00  0.00000000000E+00  0.68926254451E+03  0.68926254451E+03  0.25500000000E-02 0. -1.
         -2   -1    0    0    0  501 -0.00000000000E+00 -0.00000000000E+00 -0.31597711396E+01  0.31597721686E+01  0.25500000000E-02 0.  1.
         23    2    1    2    0    0 -0.35527136788E-14  0.00000000000E+00  0.68610277337E+03  0.69242231668E+03  0.93336214914E+02 0.  0.
    9000005    2    3    3    0    0 -0.31178846345E+02 -0.22299278216E+02  0.53766478697E+03  0.53911473672E+03  0.95863408015E+01 0.  0.
         22    1    3    3    0    0  0.31178846345E+02  0.22299278216E+02  0.14843798640E+03  0.15330757996E+03  0.00000000000E+00 0.  1.
         22    1    4    4    0    0 -0.10309849605E+02 -0.44750271434E+01  0.21098208566E+03  0.21128123281E+03  0.00000000000E+00 0.  1.
         22    1    4    4    0    0 -0.20868996740E+02 -0.17824251072E+02  0.32668270131E+03  0.32783350391E+03  0.00000000000E+00 0.  1.
<mgrwt>
<rscale>  0 0.93336215E+02</rscale>
<asrwt>0</asrwt>
<pdfrwt beam="1">  1        2 0.10604039E+00 0.93336215E+02</pdfrwt>
<pdfrwt beam="2">  1       -2 0.48611874E-03 0.93336215E+02</pdfrwt>
<totfact> 0.22211174E+05</totfact>
</mgrwt>
</event>
<event>
 7    1  0.3480999E-009  0.9041431E+02  0.7818608E-02  0.1301851E+00
         -2   -1    0    0    0  501 -0.00000000000E+00  0.00000000000E+00  0.17017339961E+01  0.17017359067E+01  0.25500000000E-02 0.  1.
          2   -1    0    0  501    0  0.00000000000E+00 -0.00000000000E+00 -0.12009431005E+04  0.12009431005E+04  0.25500000000E-02 0. -1.
         23    2    1    2    0    0  0.35527136788E-14  0.00000000000E+00 -0.11992413665E+04  0.12026448364E+04  0.90414309751E+02 0.  0.
    9000005    2    3    3    0    0 -0.22070520835E+02 -0.13400348815E+02 -0.10927390911E+04  0.10930573740E+04  0.53874414715E+01 0.  0.
         22    1    3    3    0    0  0.22070520835E+02  0.13400348815E+02 -0.10650227538E+03  0.10958746232E+03  0.00000000000E+00 0.  1.
         22    1    4    4    0    0 -0.58217877354E+01 -0.59231746217E+01 -0.28918933378E+03  0.28930856880E+03  0.00000000000E+00 0. -1.
         22    1    4    4    0    0 -0.16248733099E+02 -0.74771741935E+01 -0.80354975731E+03  0.80374880525E+03  0.00000000000E+00 0. -1.
<mgrwt>
<rscale>  0 0.90414310E+02</rscale>
<asrwt>0</asrwt>
<pdfrwt beam="2">  1        2 0.18475980E+00 0.90414310E+02</pdfrwt>
<pdfrwt beam="1">  1       -2 0.26180634E-03 0.90414310E+02</pdfrwt>
<totfact> 0.25422062E+05</totfact>
</mgrwt>
</event>
<event>
 7    1  0.3480999E-009  0.9218719E+02  0.7818608E-02  0.1297640E+00
         -2   -1    0    0    0  501 -0.00000000000E+00  0.00000000000E+00  0.11137695492E+02  0.11137695784E+02  0.25500000000E-02 0.  1.
          2   -1    0    0  501    0  0.00000000000E+00 -0.00000000000E+00 -0.19075932488E+03  0.19075932489E+03  0.25500000000E-02 0. -1.
         23    2    1    2    0    0  0.00000000000E+00  0.00000000000E+00 -0.17962162939E+03  0.20189702068E+03  0.92187185746E+02 0.  0.
    9000005    2    3    3    0    0 -0.39937319308E+02  0.10837084884E+02 -0.13277018826E+03  0.13938710612E+03  0.94026900518E+01 0.  0.
         22    1    3    3    0    0  0.39937319308E+02 -0.10837084884E+02 -0.46851441123E+02  0.62509914554E+02  0.00000000000E+00 0.  1.
         22    1    4    4    0    0 -0.33165405811E+02  0.55638352766E+01 -0.11113877308E+03  0.11611514667E+03  0.00000000000E+00 0. -1.
         22    1    4    4    0    0 -0.67719134969E+01  0.52732496070E+01 -0.21631415184E+02  0.23271959451E+02  0.00000000000E+00 0. -1.
<mgrwt>
<rscale>  0 0.92187186E+02</rscale>
<asrwt>0</asrwt>
<pdfrwt beam="2">  1        2 0.29347586E-01 0.92187186E+02</pdfrwt>
<pdfrwt beam="1">  1       -2 0.17134918E-02 0.92187186E+02</pdfrwt>
<totfact> 0.14760864E+05</totfact>
</mgrwt>
</event>
<event>
 7    1  0.3480999E-009  0.9160153E+02  0.7818608E-02  0.1299019E+00
          2   -1    0    0  501    0  0.00000000000E+00  0.00000000000E+00  0.28609356899E+02  0.28609357012E+02  0.25500000000E-02 0.  1.
         -2   -1    0    0    0  501 -0.00000000000E+00 -0.00000000000E+00 -0.73322523776E+02  0.73322523820E+02  0.25500000000E-02 0. -1.
         23    2    1    2    0    0 -0.44408920985E-15  0.00000000000E+00 -0.44713166877E+02  0.10193188083E+03  0.91601534036E+02 0.  0.
    9000005    2    3    3    0    0 -0.38811099649E+01  0.22911789005E+02  0.19302275240E+02  0.33829091466E+02  0.15225521664E+02 0.  0.
         22    1    3    3    0    0  0.38811099649E+01 -0.22911789005E+02 -0.64015442118E+02  0.68102789367E+02  0.00000000000E+00 0. -1.
         22    1    4    4    0    0  0.10645063647E+00  0.23614615638E+02  0.15313954816E+02  0.28145667794E+02  0.00000000000E+00 0.  1.
         22    1    4    4    0    0 -0.39875606014E+01 -0.70282663227E+00  0.39883204248E+01  0.56834236720E+01  0.00000000000E+00 0.  1.
<mgrwt>
<rscale>  0 0.91601534E+02</rscale>
<asrwt>0</asrwt>
<pdfrwt beam="1">  1        2 0.44014396E-02 0.91601534E+02</pdfrwt>
<pdfrwt beam="2">  1       -2 0.11280388E-01 0.91601534E+02</pdfrwt>
<totfact> 0.86143280E+04</totfact>
</mgrwt>
</event>
<event>
 7    1  0.3480999E-009  0.9154698E+02  0.7818608E-02  0.1299148E+00
          2   -1    0    0  501    0  0.00000000000E+00  0.00000000000E+00  0.24450904375E+03  0.24450904377E+03  0.25500000000E-02 0. -1.
         -2   -1    0    0    0  501 -0.00000000000E+00 -0.00000000000E+00 -0.85690593707E+01  0.85690597502E+01  0.25500000000E-02 0.  1.
         23    2    1    2    0    0  0.71054273576E-14  0.35527136788E-14  0.23593998438E+03  0.25307810352E+03  0.91546983834E+02 0.  0.
    9000005    2    3    3    0    0  0.36915334290E+02  0.24357792429E+02  0.91827284491E+02  0.10233158041E+03  0.91355467932E+01 0.  0.
         22    1    3    3    0    0 -0.36915334290E+02 -0.24357792429E+02  0.14411269989E+03  0.15074652310E+03  0.00000000000E+00 0. -1.
         22    1    4    4    0    0  0.21670148061E+02  0.18530494155E+02  0.64138527682E+02  0.70190635158E+02  0.00000000000E+00 0. -1.
         22    1    4    4    0    0  0.15245186228E+02  0.58272982735E+01  0.27688756809E+02  0.32140945256E+02  0.00000000000E+00 0. -1.
<mgrwt>
<rscale>  0 0.91546984E+02</rscale>
<asrwt>0</asrwt>
<pdfrwt beam="1">  1        2 0.37616776E-01 0.91546984E+02</pdfrwt>
<pdfrwt beam="2">  1       -2 0.13183168E-02 0.91546984E+02</pdfrwt>
<totfact> 0.16468822E+05</totfact>
</mgrwt>
</event>
<event>
 7    1  0.3480999E-009  0.9175908E+02  0.7818608E-02  0.1298647E+00
          2   -1    0    0  501    0  0.00000000000E+00  0.00000000000E+00  0.30628098361E+01  0.30628108976E+01  0.25500000000E-02 0. -1.
         -2   -1    0    0    0  501 -0.00000000000E+00 -0.00000000000E+00 -0.68725515321E+03  0.68725515322E+03  0.25500000000E-02 0.  1.
         23    2    1    2    0    0  0.00000000000E+00  0.00000000000E+00 -0.68419234338E+03  0.69031796411E+03  0.91759080448E+02 0.  0.
    9000005    2    3    3    0    0  0.37107089082E+02 -0.17482605036E+02 -0.48398619421E+03  0.48595289933E+03  0.15000221526E+02 0.  0.
         22    1    3    3    0    0 -0.37107089082E+02  0.17482605036E+02 -0.20020614917E+03  0.20436506478E+03  0.00000000000E+00 0. -1.
         22    1    4    4    0    0  0.11275643119E+02 -0.63739032126E+01 -0.24048251983E+03  0.24083108004E+03  0.00000000000E+00 0.  1.
         22    1    4    4    0    0  0.25831445963E+02 -0.11108701824E+02 -0.24350367438E+03  0.24512181929E+03  0.00000000000E+00 0.  1.
<mgrwt>
<rscale>  0 0.91759080E+02</rscale>
<asrwt>0</asrwt>
<pdfrwt beam="1">  1        2 0.47120214E-03 0.91759080E+02</pdfrwt>
<pdfrwt beam="2">  1       -2 0.10573144E+00 0.91759080E+02</pdfrwt>
<totfact> 0.27204993E+04</totfact>
</mgrwt>
</event>
<event>
 7    1  0.3480999E-009  0.9287239E+02  0.7818608E-02  0.1296041E+00
         -2   -1    0    0    0  501 -0.00000000000E+00  0.00000000000E+00  0.24505067181E+02  0.24505067314E+02  0.25500000000E-02 0.  1.
          2   -1    0    0  501    0  0.00000000000E+00 -0.00000000000E+00 -0.87994877904E+02  0.87994877941E+02  0.25500000000E-02 0. -1.
         23    2    1    2    0    0  0.00000000000E+00  0.00000000000E+00 -0.63489810723E+02  0.11249994525E+03  0.92872394266E+02 0.  0.
    9000005    2    3    3    0    0  0.14811739862E+02  0.37511461906E+02 -0.45465310761E+01  0.41080006669E+02  0.63559885935E+01 0.  0.
         22    1    3    3    0    0 -0.14811739862E+02 -0.37511461906E+02 -0.58943279647E+02  0.71419938586E+02  0.00000000000E+00 0. -1.
         22    1    4    4    0    0  0.53909693029E+01  0.20387324142E+02 -0.35458112727E+00  0.21091023291E+02  0.00000000000E+00 0.  1.
         22    1    4    4    0    0  0.94207705594E+01  0.17124137764E+02 -0.41919499488E+01  0.19988983378E+02  0.00000000000E+00 0.  1.
<mgrwt>
<rscale>  0 0.92872394E+02</rscale>
<asrwt>0</asrwt>
<pdfrwt beam="2">  1        2 0.13537673E-01 0.92872394E+02</pdfrwt>
<pdfrwt beam="1">  1       -2 0.37700104E-02 0.92872394E+02</pdfrwt>
<totfact> 0.11218831E+05</totfact>
</mgrwt>
</event>
<event>
 7    1  0.3480999E-009  0.9135101E+02  0.7818608E-02  0.1299613E+00
         -2   -1    0    0    0  501 -0.00000000000E+00  0.00000000000E+00  0.18314053290E+02  0.18314053468E+02  0.25500000000E-02 0. -1.
          2   -1    0    0  501    0  0.00000000000E+00 -0.00000000000E+00 -0.11391533616E+03  0.11391533619E+03  0.25500000000E-02 0.  1.
         23    2    1    2    0    0  0.00000000000E+00  0.00000000000E+00 -0.95601282867E+02  0.13222938965E+03  0.91351005480E+02 0.  0.
    9000005    2    3    3    0    0  0.27170309681E+02 -0.27977197721E+02 -0.80647276867E+02  0.90461320319E+02  0.12582443611E+02 0.  0.
         22    1    3    3    0    0 -0.27170309681E+02  0.27977197721E+02 -0.14954006000E+02  0.41768069334E+02  0.00000000000E+00 0. -1.
         22    1    4    4    0    0  0.85255595473E+01 -0.17598467096E+02 -0.35658951728E+02  0.40668809277E+02  0.00000000000E+00 0. -1.
         22    1    4    4    0    0  0.18644750134E+02 -0.10378730625E+02 -0.44988325140E+02  0.49792511041E+02  0.00000000000E+00 0. -1.
<mgrwt>
<rscale>  0 0.91351005E+02</rscale>
<asrwt>0</asrwt>
<pdfrwt beam="2">  1        2 0.17525436E-01 0.91351005E+02</pdfrwt>
<pdfrwt beam="1">  1       -2 0.28175467E-02 0.91351005E+02</pdfrwt>
<totfact> 0.12706683E+05</totfact>
</mgrwt>
</event>
<event>
 7    1  0.3480999E-009  0.9196867E+02  0.7818608E-02  0.1298153E+00
          2   -1    0    0  501    0  0.00000000000E+00  0.00000000000E+00  0.35486207434E+03  0.35486207435E+03  0.25500000000E-02 0. -1.
         -2   -1    0    0    0  501 -0.00000000000E+00 -0.00000000000E+00 -0.59588195037E+01  0.59588200493E+01  0.25500000000E-02 0.  1.
         23    2    1    2    0    0  0.00000000000E+00  0.00000000000E+00  0.34890325484E+03  0.36082089440E+03  0.91968671836E+02 0.  0.
    9000005    2    3    3    0    0  0.35849268867E+02 -0.83822829849E+00  0.28444415367E+03  0.28705878740E+03  0.14436002383E+02 0.  0.
         22    1    3    3    0    0 -0.35849268867E+02  0.83822829849E+00  0.64459101175E+02  0.73762107001E+02  0.00000000000E+00 0.  1.
         22    1    4    4    0    0  0.13756289518E+02  0.26626951462E-01  0.61435519862E+02  0.62956805121E+02  0.00000000000E+00 0.  1.
         22    1    4    4    0    0  0.22092979349E+02 -0.86485524995E+00  0.22300863380E+03  0.22410198228E+03  0.00000000000E+00 0.  1.
<mgrwt>
<rscale>  0 0.91968672E+02</rscale>
<asrwt>0</asrwt>
<pdfrwt beam="1">  1        2 0.54594167E-01 0.91968672E+02</pdfrwt>
<pdfrwt beam="2">  1       -2 0.91674148E-03 0.91968672E+02</pdfrwt>
<totfact> 0.18680742E+05</totfact>
</mgrwt>
</event>
<event>
 7    1  0.3480999E-009  0.8337323E+02  0.7818608E-02  0.1319742E+00
         -2   -1    0    0    0  501 -0.00000000000E+00  0.00000000000E+00  0.12208852770E+03  0.12208852773E+03  0.25500000000E-02 0.  1.
          2   -1    0    0  501    0  0.00000000000E+00 -0.00000000000E+00 -0.14233720874E+02  0.14233721102E+02  0.25500000000E-02 0. -1.
         23    2    1    2    0    0  0.00000000000E+00  0.00000000000E+00  0.10785480683E+03  0.13632224883E+03  0.83373234135E+02 0.  0.
    9000005    2    3    3    0    0  0.35230231245E+02 -0.10329430206E+02  0.24397815899E+02  0.45146947038E+02  0.97533114496E+01 0.  0.
         22    1    3    3    0    0 -0.35230231245E+02  0.10329430206E+02  0.83456990927E+02  0.91175301791E+02  0.00000000000E+00 0.  1.
         22    1    4    4    0    0  0.16163830530E+02  0.27475399736E+00  0.10696202544E+02  0.19384366279E+02  0.00000000000E+00 0.  1.
         22    1    4    4    0    0  0.19066400715E+02 -0.10604184203E+02  0.13701613355E+02  0.25762580759E+02  0.00000000000E+00 0.  1.
<mgrwt>
<rscale>  0 0.83373234E+02</rscale>
<asrwt>0</asrwt>
<pdfrwt beam="2">  1        2 0.21898032E-02 0.83373234E+02</pdfrwt>
<pdfrwt beam="1">  1       -2 0.18782851E-01 0.83373234E+02</pdfrwt>
<totfact> 0.93875373E+04</totfact>
</mgrwt>
</event>
<event>
 7    1  0.3480999E-009  0.9017827E+02  0.7818608E-02  0.1302421E+00
         -2   -1    0    0    0  501 -0.00000000000E+00  0.00000000000E+00  0.42618915978E+02  0.42618916054E+02  0.25500000000E-02 0.  1.
          2   -1    0    0  501    0  0.00000000000E+00 -0.00000000000E+00 -0.47702533573E+02  0.47702533641E+02  0.25500000000E-02 0. -1.
         23    2    1    2    0    0  0.00000000000E+00  0.00000000000E+00 -0.50836175948E+01  0.90321449695E+02  0.90178274031E+02 0.  0.
    9000005    2    3    3    0    0  0.12436929093E+02 -0.18857163233E+02  0.36375822020E+02  0.43107522262E+02  0.49787787185E+01 0.  0.
         22    1    3    3    0    0 -0.12436929093E+02  0.18857163233E+02 -0.41459439615E+02  0.47213927433E+02  0.00000000000E+00 0. -1.
         22    1    4    4    0    0  0.59429367328E+01 -0.59864823905E+01  0.10314056567E+02  0.13324272261E+02  0.00000000000E+00 0. -1.
         22    1    4    4    0    0  0.64939923607E+01 -0.12870680842E+02  0.26061765453E+02  0.29783250001E+02  0.00000000000E+00 0. -1.
<mgrwt>
<rscale>  0 0.90178274E+02</rscale>
<asrwt>0</asrwt>
<pdfrwt beam="2">  1        2 0.73388513E-02 0.90178274E+02</pdfrwt>
<pdfrwt beam="1">  1       -2 0.65567563E-02 0.90178274E+02</pdfrwt>
<totfact> 0.10303424E+05</totfact>
</mgrwt>
</event>
<event>
 7    1  0.3480999E-009  0.9083677E+02  0.7818608E-02  0.1300838E+00
         -2   -1    0    0    0  501 -0.00000000000E+00  0.00000000000E+00  0.62846804216E+01  0.62846809389E+01  0.25500000000E-02 0.  1.
          2   -1    0    0  501    0  0.00000000000E+00 -0.00000000000E+00 -0.32823144846E+03  0.32823144847E+03  0.25500000000E-02 0. -1.
         23    2    1    2    0    0  0.00000000000E+00  0.00000000000E+00 -0.32194676804E+03  0.33451612941E+03  0.90836773304E+02 0.  0.
    9000005    2    3    3    0    0 -0.29177070796E+02  0.28353454026E+02 -0.92352832168E+02  0.10134538681E+03  0.93070942204E+01 0.  0.
         22    1    3    3    0    0  0.29177070796E+02 -0.28353454026E+02 -0.22959393587E+03  0.23317074260E+03  0.00000000000E+00 0. -1.
         22    1    4    4    0    0 -0.15349454636E+02  0.17774080868E+02 -0.42751947057E+02  0.48777583842E+02  0.00000000000E+00 0.  1.
         22    1    4    4    0    0 -0.13827616160E+02  0.10579373158E+02 -0.49600885111E+02  0.52567802969E+02  0.00000000000E+00 0.  1.
<mgrwt>
<rscale>  0 0.90836773E+02</rscale>
<asrwt>0</asrwt>
<pdfrwt beam="2">  1        2 0.50497132E-01 0.90836773E+02</pdfrwt>
<pdfrwt beam="1">  1       -2 0.96687421E-03 0.90836773E+02</pdfrwt>
<totfact> 0.18761509E+05</totfact>
</mgrwt>
</event>
<event>
 7    1  0.3480999E-009  0.9184984E+02  0.7818608E-02  0.1298433E+00
          2   -1    0    0  501    0  0.00000000000E+00  0.00000000000E+00  0.26520298704E+03  0.26520298705E+03  0.25500000000E-02 0. -1.
         -2   -1    0    0    0  501 -0.00000000000E+00 -0.00000000000E+00 -0.79527689404E+01  0.79527693492E+01  0.25500000000E-02 0.  1.
         23    2    1    2    0    0  0.00000000000E+00  0.71054273576E-14  0.25725021810E+03  0.27315575640E+03  0.91849836924E+02 0.  0.
    9000005    2    3    3    0    0 -0.25744325719E+02  0.36779890739E+02  0.13135703478E+03  0.13949714547E+03  0.13756901500E+02 0.  0.
         22    1    3    3    0    0  0.25744325719E+02 -0.36779890739E+02  0.12589318332E+03  0.13365861093E+03  0.00000000000E+00 0.  1.
         22    1    4    4    0    0 -0.22598266003E+02  0.27274012163E+02  0.85248457097E+02  0.92313881964E+02  0.00000000000E+00 0. -1.
         22    1    4    4    0    0 -0.31460597156E+01  0.95058785761E+01  0.46108577684E+02  0.47183263509E+02  0.00000000000E+00 0. -1.
<mgrwt>
<rscale>  0 0.91849837E+02</rscale>
<asrwt>0</asrwt>
<pdfrwt beam="1">  1        2 0.40800463E-01 0.91849837E+02</pdfrwt>
<pdfrwt beam="2">  1       -2 0.12235028E-02 0.91849837E+02</pdfrwt>
<totfact> 0.16823926E+05</totfact>
</mgrwt>
</event>
<event>
 7    1  0.3480999E-009  0.9111223E+02  0.7818608E-02  0.1300180E+00
          2   -1    0    0  501    0  0.00000000000E+00  0.00000000000E+00  0.38329770279E+02  0.38329770364E+02  0.25500000000E-02 0. -1.
         -2   -1    0    0    0  501 -0.00000000000E+00 -0.00000000000E+00 -0.54144851535E+02  0.54144851595E+02  0.25500000000E-02 0.  1.
         23    2    1    2    0    0  0.00000000000E+00  0.00000000000E+00 -0.15815081256E+02  0.92474621959E+02  0.91112232501E+02 0.  0.
    9000005    2    3    3    0    0 -0.30138342088E+02 -0.22703865337E+02 -0.31843780701E+02  0.51478227350E+02  0.14566961135E+02 0.  0.
         22    1    3    3    0    0  0.30138342088E+02  0.22703865337E+02  0.16028699445E+02  0.40996394609E+02  0.00000000000E+00 0. -1.
         22    1    4    4    0    0 -0.29286334147E+02 -0.15788519433E+02 -0.28205673100E+02  0.43617963142E+02  0.00000000000E+00 0. -1.
         22    1    4    4    0    0 -0.85200794156E+00 -0.69153459040E+01 -0.36381076012E+01  0.78602642081E+01  0.00000000000E+00 0. -1.
<mgrwt>
<rscale>  0 0.91112233E+02</rscale>
<asrwt>0</asrwt>
<pdfrwt beam="1">  1        2 0.58968877E-02 0.91112233E+02</pdfrwt>
<pdfrwt beam="2">  1       -2 0.83299772E-02 0.91112233E+02</pdfrwt>
<totfact> 0.94535264E+04</totfact>
</mgrwt>
</event>
<event>
 6    1  0.3480999E-009  0.1400589E+03  0.7818608E-02  0.1213250E+00
         -2   -1    0    0    0  501 -0.00000000000E+00  0.00000000000E+00  0.60118403045E+02  0.60118403099E+02  0.25500000000E-02 0.  1.
          2   -1    0    0  501    0  0.00000000000E+00 -0.00000000000E+00 -0.81574397052E+02  0.81574397092E+02  0.25500000000E-02 0. -1.
    9000005    2    1    2    0    0  0.20771980229E+02 -0.15863710894E+02  0.54166404450E+02  0.61681053339E+02  0.13690160117E+02 0.  0.
         22    1    1    2    0    0 -0.20771980229E+02  0.15863710894E+02 -0.75622398457E+02  0.80011746852E+02  0.00000000000E+00 0. -1.
         22    1    3    3    0    0  0.14429410331E+02 -0.12585223697E+02  0.24107461482E+02  0.30785799277E+02  0.00000000000E+00 0.  1.
         22    1    3    3    0    0  0.63425698977E+01 -0.32784871967E+01  0.30058942968E+02  0.30895254062E+02  0.00000000000E+00 0.  1.
<mgrwt>
<rscale>  0 0.14005888E+03</rscale>
<asrwt>0</asrwt>
<pdfrwt beam="2">  1        2 0.12549907E-01 0.14005888E+03</pdfrwt>
<pdfrwt beam="1">  1       -2 0.92489851E-02 0.14005888E+03</pdfrwt>
<totfact> 0.33440239E+04</totfact>
</mgrwt>
</event>
<event>
 7    1  0.3480999E-009  0.9182092E+02  0.7818608E-02  0.1298501E+00
          2   -1    0    0  501    0  0.00000000000E+00  0.00000000000E+00  0.24091158093E+03  0.24091158094E+03  0.25500000000E-02 0. -1.
         -2   -1    0    0    0  501 -0.00000000000E+00 -0.00000000000E+00 -0.87491454490E+01  0.87491458206E+01  0.25500000000E-02 0.  1.
         23    2    1    2    0    0  0.88817841970E-15 -0.71054273576E-14  0.23216243548E+03  0.24966072676E+03  0.91820923759E+02 0.  0.
    9000005    2    3    3    0    0 -0.57418607684E+01  0.42683866593E+02  0.85253045660E+02  0.96568433522E+02  0.14230218769E+02 0.  0.
         22    1    3    3    0    0  0.57418607684E+01 -0.42683866593E+02  0.14690938982E+03  0.15309229324E+03  0.00000000000E+00 0.  1.
         22    1    4    4    0    0 -0.11403743125E+01  0.17485171658E+01  0.24034236890E+00  0.21013163269E+01  0.00000000000E+00 0.  1.
         22    1    4    4    0    0 -0.46014864559E+01  0.40935349428E+02  0.85012703291E+02  0.94467117195E+02  0.00000000000E+00 0.  1.
<mgrwt>
<rscale>  0 0.91820924E+02</rscale>
<asrwt>0</asrwt>
<pdfrwt beam="1">  1        2 0.37063325E-01 0.91820924E+02</pdfrwt>
<pdfrwt beam="2">  1       -2 0.13460222E-02 0.91820924E+02</pdfrwt>
<totfact> 0.16248031E+05</totfact>
</mgrwt>
</event>
<event>
 7    1  0.3480999E-009  0.9756376E+02  0.7818608E-02  0.1285504E+00
          2   -1    0    0  501    0  0.00000000000E+00  0.00000000000E+00  0.64036083006E+02  0.64036083057E+02  0.25500000000E-02 0. -1.
         -2   -1    0    0    0  501 -0.00000000000E+00 -0.00000000000E+00 -0.37161420743E+02  0.37161420831E+02  0.25500000000E-02 0.  1.
         23    2    1    2    0    0  0.71054273576E-14  0.88817841970E-15  0.26874662263E+02  0.10119750389E+03  0.97563760287E+02 0.  0.
    9000005    2    3    3    0    0  0.37519674624E+02  0.67615556321E+01  0.44124754809E+02  0.59352428774E+02  0.11057675883E+02 0.  0.
         22    1    3    3    0    0 -0.37519674624E+02 -0.67615556321E+01 -0.17250092546E+02  0.41845075114E+02  0.00000000000E+00 0.  1.
         22    1    4    4    0    0  0.99531745925E+01  0.66394150817E+01  0.10947868810E+02  0.16217377981E+02  0.00000000000E+00 0. -1.
         22    1    4    4    0    0  0.27566500032E+02  0.12214055035E+00  0.33176885999E+02  0.43135050793E+02  0.00000000000E+00 0. -1.
<mgrwt>
<rscale>  0 0.97563760E+02</rscale>
<asrwt>0</asrwt>
<pdfrwt beam="1">  1        2 0.98517050E-02 0.97563760E+02</pdfrwt>
<pdfrwt beam="2">  1       -2 0.57171417E-02 0.97563760E+02</pdfrwt>
<totfact> 0.89128472E+04</totfact>
</mgrwt>
</event>
<event>
 7    1  0.3480999E-009  0.9192370E+02  0.7818608E-02  0.1298259E+00
         -2   -1    0    0    0  501 -0.00000000000E+00  0.00000000000E+00  0.20009013044E+03  0.20009013045E+03  0.25500000000E-02 0.  1.
          2   -1    0    0  501    0  0.00000000000E+00 -0.00000000000E+00 -0.10557699865E+02  0.10557700173E+02  0.25500000000E-02 0. -1.
         23    2    1    2    0    0  0.00000000000E+00  0.00000000000E+00  0.18953243057E+03  0.21064783063E+03  0.91923698298E+02 0.  0.
    9000005    2    3    3    0    0  0.15496844785E+02  0.42371475200E+02  0.10690772205E+03  0.11650784674E+03  0.10455773881E+02 0.  0.
         22    1    3    3    0    0 -0.15496844785E+02 -0.42371475200E+02  0.82624708520E+02  0.94139983891E+02  0.00000000000E+00 0. -1.
         22    1    4    4    0    0  0.12375942165E+02  0.29558569666E+02  0.63289369860E+02  0.70939532860E+02  0.00000000000E+00 0.  1.
         22    1    4    4    0    0  0.31209026203E+01  0.12812905534E+02  0.43618352193E+02  0.45568313876E+02  0.00000000000E+00 0.  1.
<mgrwt>
<rscale>  0 0.91923698E+02</rscale>
<asrwt>0</asrwt>
<pdfrwt beam="2">  1        2 0.16242617E-02 0.91923698E+02</pdfrwt>
<pdfrwt beam="1">  1       -2 0.30783095E-01 0.91923698E+02</pdfrwt>
<totfact> 0.61021209E+04</totfact>
</mgrwt>
</event>
<event>
 7    1  0.3480999E-009  0.9110380E+02  0.7818608E-02  0.1300200E+00
         -2   -1    0    0    0  501 -0.00000000000E+00  0.00000000000E+00  0.60438007436E+03  0.60438007436E+03  0.25500000000E-02 0.  1.
          2   -1    0    0  501    0  0.00000000000E+00 -0.00000000000E+00 -0.34332293133E+01  0.34332302603E+01  0.25500000000E-02 0. -1.
         23    2    1    2    0    0  0.00000000000E+00  0.71054273576E-14  0.60094684504E+03  0.60781330462E+03  0.91103801832E+02 0.  0.
    9000005    2    3    3    0    0 -0.35644164629E+00  0.40363318416E+02  0.44097770106E+03  0.44283011896E+03  0.28030167139E+01 0.  0.
         22    1    3    3    0    0  0.35644164629E+00 -0.40363318416E+02  0.15996914398E+03  0.16498318566E+03  0.00000000000E+00 0. -1.
         22    1    4    4    0    0  0.19762655646E+00  0.11551686745E+02  0.14010709795E+03  0.14058264266E+03  0.00000000000E+00 0. -1.
         22    1    4    4    0    0 -0.55406820275E+00  0.28811631671E+02  0.30087060311E+03  0.30224747630E+03  0.00000000000E+00 0. -1.
<mgrwt>
<rscale>  0 0.91103802E+02</rscale>
<asrwt>0</asrwt>
<pdfrwt beam="2">  1        2 0.52818927E-03 0.91103802E+02</pdfrwt>
<pdfrwt beam="1">  1       -2 0.92981537E-01 0.91103802E+02</pdfrwt>
<totfact> 0.31130994E+04</totfact>
</mgrwt>
</event>
<event>
 7    1  0.3480999E-009  0.9029378E+02  0.7818608E-02  0.1302142E+00
         -2   -1    0    0    0  501 -0.00000000000E+00  0.00000000000E+00  0.47344649628E+02  0.47344649697E+02  0.25500000000E-02 0.  1.
          2   -1    0    0  501    0  0.00000000000E+00 -0.00000000000E+00 -0.43051147695E+02  0.43051147770E+02  0.25500000000E-02 0. -1.
         23    2    1    2    0    0 -0.35527136788E-14  0.35527136788E-14  0.42935019336E+01  0.90395797467E+02  0.90293776313E+02 0.  0.
    9000005    2    3    3    0    0 -0.30923366809E+02  0.31192430209E+02 -0.42128154565E+01  0.45656779231E+02  0.11729081744E+02 0.  0.
         22    1    3    3    0    0  0.30923366809E+02 -0.31192430209E+02  0.85063173901E+01  0.44739018236E+02  0.00000000000E+00 0. -1.
         22    1    4    4    0    0 -0.98841940527E+00  0.56860333941E+01 -0.25061171721E+01  0.62919450061E+01  0.00000000000E+00 0.  1.
         22    1    4    4    0    0 -0.29934947404E+02  0.25506396815E+02 -0.17066982844E+01  0.39364834225E+02  0.00000000000E+00 0.  1.
<mgrwt>
<rscale>  0 0.90293776E+02</rscale>
<asrwt>0</asrwt>
<pdfrwt beam="2">  1        2 0.66232535E-02 0.90293776E+02</pdfrwt>
<pdfrwt beam="1">  1       -2 0.72837923E-02 0.90293776E+02</pdfrwt>
<totfact> 0.99980714E+04</totfact>
</mgrwt>
</event>
<event>
 7    1  0.3480999E-009  0.7838157E+02  0.7818608E-02  0.1333708E+00
          2   -1    0    0  501    0  0.00000000000E+00  0.00000000000E+00  0.44472107029E+03  0.44472107030E+03  0.25500000000E-02 0. -1.
         -2   -1    0    0    0  501 -0.00000000000E+00 -0.00000000000E+00 -0.34536649331E+01  0.34536658745E+01  0.25500000000E-02 0.  1.
         23    2    1    2    0    0 -0.71054273576E-14 -0.44408920985E-15  0.44126740536E+03  0.44817473618E+03  0.78381573806E+02 0.  0.
    9000005    2    3    3    0    0  0.36438834843E+02  0.27034334418E+01  0.29781048431E+03  0.30013762788E+03  0.75109162939E+01 0.  0.
         22    1    3    3    0    0 -0.36438834843E+02 -0.27034334418E+01  0.14345692105E+03  0.14803710830E+03  0.00000000000E+00 0.  1.
         22    1    4    4    0    0  0.36021429775E+02  0.15304275608E+01  0.28705177098E+03  0.28930711162E+03  0.00000000000E+00 0. -1.
         22    1    4    4    0    0  0.41740506765E+00  0.11730058810E+01  0.10758713331E+02  0.10830516254E+02  0.00000000000E+00 0. -1.
<mgrwt>
<rscale>  0 0.78381574E+02</rscale>
<asrwt>0</asrwt>
<pdfrwt beam="1">  1        2 0.68418630E-01 0.78381574E+02</pdfrwt>
<pdfrwt beam="2">  1       -2 0.53133311E-03 0.78381574E+02</pdfrwt>
<totfact> 0.30835238E+05</totfact>
</mgrwt>
</event>
<event>
 7    1  0.3480999E-009  0.9164726E+02  0.7818608E-02  0.1298911E+00
         -2   -1    0    0    0  501 -0.00000000000E+00  0.00000000000E+00  0.13714935021E+02  0.13714935259E+02  0.25500000000E-02 0.  1.
          2   -1    0    0  501    0  0.00000000000E+00 -0.00000000000E+00 -0.15310352067E+03  0.15310352069E+03  0.25500000000E-02 0. -1.
         23    2    1    2    0    0 -0.88817841970E-15  0.00000000000E+00 -0.13938858564E+03  0.16681845595E+03  0.91647255475E+02 0.  0.
    9000005    2    3    3    0    0 -0.29504257280E+01  0.43541828308E+02 -0.88910204003E+02  0.10009017980E+03  0.14436893431E+02 0.  0.
         22    1    3    3    0    0  0.29504257280E+01 -0.43541828308E+02 -0.50478381642E+02  0.66728276147E+02  0.00000000000E+00 0.  1.
         22    1    4    4    0    0  0.28237144765E+01  0.12190826040E+01 -0.84904314306E+01  0.90303350833E+01  0.00000000000E+00 0.  1.
         22    1    4    4    0    0 -0.57741402045E+01  0.42322745704E+02 -0.80419772572E+02  0.91059844715E+02  0.00000000000E+00 0.  1.
<mgrwt>
<rscale>  0 0.91647255E+02</rscale>
<asrwt>0</asrwt>
<pdfrwt beam="2">  1        2 0.23554387E-01 0.91647255E+02</pdfrwt>
<pdfrwt beam="1">  1       -2 0.21099901E-02 0.91647255E+02</pdfrwt>
<totfact> 0.13883544E+05</totfact>
</mgrwt>
</event>
<event>
 7    1  0.3480999E-009  0.9646735E+02  0.7818608E-02  0.1287905E+00
         -2   -1    0    0    0  501 -0.00000000000E+00  0.00000000000E+00  0.33935290248E+01  0.33935299829E+01  0.25500000000E-02 0.  1.
          2   -1    0    0  501    0  0.00000000000E+00 -0.00000000000E+00 -0.68556571273E+03  0.68556571274E+03  0.25500000000E-02 0. -1.
         23    2    1    2    0    0  0.00000000000E+00  0.00000000000E+00 -0.68217218371E+03  0.68895924272E+03  0.96467351497E+02 0.  0.
    9000005    2    3    3    0    0 -0.19437519190E+02 -0.27387832044E+01 -0.65573552964E+03  0.65603182612E+03  0.18313829394E+01 0.  0.
         22    1    3    3    0    0  0.19437519190E+02  0.27387832044E+01 -0.26436654066E+02  0.32927416599E+02  0.00000000000E+00 0.  1.
         22    1    4    4    0    0 -0.67386082158E+01 -0.89274760757E+00 -0.25688373490E+03  0.25697365447E+03  0.00000000000E+00 0.  1.
         22    1    4    4    0    0 -0.12698910974E+02 -0.18460355969E+01 -0.39885179474E+03  0.39905817165E+03  0.00000000000E+00 0.  1.
<mgrwt>
<rscale>  0 0.96467351E+02</rscale>
<asrwt>0</asrwt>
<pdfrwt beam="2">  1        2 0.10547154E+00 0.96467351E+02</pdfrwt>
<pdfrwt beam="1">  1       -2 0.52208201E-03 0.96467351E+02</pdfrwt>
<totfact> 0.20325684E+05</totfact>
</mgrwt>
</event>
<event>
 7    1  0.3480999E-009  0.9149716E+02  0.7818608E-02  0.1299266E+00
         -2   -1    0    0    0  501 -0.00000000000E+00  0.00000000000E+00  0.40715132648E+02  0.40715132727E+02  0.25500000000E-02 0.  1.
          2   -1    0    0  501    0  0.00000000000E+00 -0.00000000000E+00 -0.51404287377E+02  0.51404287440E+02  0.25500000000E-02 0. -1.
         23    2    1    2    0    0  0.35527136788E-14  0.00000000000E+00 -0.10689154729E+02  0.92119420167E+02  0.91497155929E+02 0.  0.
    9000005    2    3    3    0    0 -0.22936208021E+02 -0.27163817212E+02  0.21790109367E+02  0.43965030958E+02  0.13934578463E+02 0.  0.
         22    1    3    3    0    0  0.22936208021E+02  0.27163817212E+02 -0.32479264097E+02  0.48154389210E+02  0.00000000000E+00 0. -1.
         22    1    4    4    0    0  0.61703462585E+00 -0.33122244453E+00  0.40258569608E+01  0.40863142692E+01  0.00000000000E+00 0. -1.
         22    1    4    4    0    0 -0.23553242647E+02 -0.26832594768E+02  0.17764252407E+02  0.39878716688E+02  0.00000000000E+00 0. -1.
<mgrwt>
<rscale>  0 0.91497156E+02</rscale>
<asrwt>0</asrwt>
<pdfrwt beam="2">  1        2 0.79083519E-02 0.91497156E+02</pdfrwt>
<pdfrwt beam="1">  1       -2 0.62638666E-02 0.91497156E+02</pdfrwt>
<totfact> 0.10080006E+05</totfact>
</mgrwt>
</event>
<event>
 7    1  0.3480999E-009  0.9336176E+02  0.7818608E-02  0.1294909E+00
         -2   -1    0    0    0  501 -0.00000000000E+00  0.00000000000E+00  0.33145396469E+02  0.33145396567E+02  0.25500000000E-02 0.  1.
          2   -1    0    0  501    0  0.00000000000E+00 -0.00000000000E+00 -0.65743813075E+02  0.65743813124E+02  0.25500000000E-02 0. -1.
         23    2    1    2    0    0  0.00000000000E+00  0.17763568394E-14 -0.32598416605E+02  0.98889209691E+02  0.93361764273E+02 0.  0.
    9000005    2    3    3    0    0  0.41441127296E+02 -0.15940146306E+02 -0.30687041353E+02  0.54447015200E+02  0.71643325797E+01 0.  0.
         22    1    3    3    0    0 -0.41441127296E+02  0.15940146306E+02 -0.19113752519E+01  0.44442194491E+02  0.00000000000E+00 0.  1.
         22    1    4    4    0    0  0.44601070167E+01  0.16035259101E-01 -0.48837694650E+01  0.66139259080E+01  0.00000000000E+00 0. -1.
         22    1    4    4    0    0  0.36981020280E+02 -0.15956181565E+02 -0.25803271889E+02  0.47833089292E+02  0.00000000000E+00 0. -1.
<mgrwt>
<rscale>  0 0.93361764E+02</rscale>
<asrwt>0</asrwt>
<pdfrwt beam="2">  1        2 0.10114433E-01 0.93361764E+02</pdfrwt>
<pdfrwt beam="1">  1       -2 0.50992918E-02 0.93361764E+02</pdfrwt>
<totfact> 0.10171516E+05</totfact>
</mgrwt>
</event>
<event>
 7    1  0.3480999E-009  0.9204777E+02  0.7818608E-02  0.1297967E+00
          2   -1    0    0  501    0  0.00000000000E+00  0.00000000000E+00  0.49991358333E+03  0.49991358333E+03  0.25500000000E-02 0. -1.
         -2   -1    0    0    0  501 -0.00000000000E+00 -0.00000000000E+00 -0.42371282497E+01  0.42371290171E+01  0.25500000000E-02 0.  1.
         23    2    1    2    0    0  0.00000000000E+00  0.44408920985E-15  0.49567645508E+03  0.50415071235E+03  0.92047773714E+02 0.  0.
    9000005    2    3    3    0    0 -0.43235234739E+02 -0.12876215378E+01  0.32726974386E+03  0.33027787412E+03  0.10346274371E+02 0.  0.
         22    1    3    3    0    0  0.43235234739E+02  0.12876215378E+01  0.16840671122E+03  0.17387283823E+03  0.00000000000E+00 0.  1.
         22    1    4    4    0    0 -0.34111303386E+02 -0.41029975714E+01  0.27559928463E+03  0.27773257154E+03  0.00000000000E+00 0.  1.
         22    1    4    4    0    0 -0.91239313530E+01  0.28153760336E+01  0.51670459230E+02  0.52545302573E+02  0.00000000000E+00 0.  1.
<mgrwt>
<rscale>  0 0.92047774E+02</rscale>
<asrwt>0</asrwt>
<pdfrwt beam="1">  1        2 0.76909741E-01 0.92047774E+02</pdfrwt>
<pdfrwt beam="2">  1       -2 0.65186629E-03 0.92047774E+02</pdfrwt>
<totfact> 0.21012575E+05</totfact>
</mgrwt>
</event>
<event>
 7    1  0.3480999E-009  0.8955161E+02  0.7818608E-02  0.1303941E+00
         -2   -1    0    0    0  501 -0.00000000000E+00  0.00000000000E+00  0.70853021199E+03  0.70853021199E+03  0.25500000000E-02 0.  1.
          2   -1    0    0  501    0  0.00000000000E+00 -0.00000000000E+00 -0.28296214545E+01  0.28296226035E+01  0.25500000000E-02 0. -1.
         23    2    1    2    0    0 -0.17763568394E-14 -0.88817841970E-15  0.70570059053E+03  0.71135983459E+03  0.89551609685E+02 0.  0.
    9000005    2    3    3    0    0 -0.11338818755E+02 -0.78408117247E+01  0.69111814124E+03  0.69129257353E+03  0.71477219353E+01 0.  0.
         22    1    3    3    0    0  0.11338818755E+02  0.78408117247E+01  0.14582449294E+02  0.20067261065E+02  0.00000000000E+00 0. -1.
         22    1    4    4    0    0 -0.81224458965E+01 -0.16417066753E+01  0.43660062822E+03  0.43667926204E+03  0.00000000000E+00 0. -1.
         22    1    4    4    0    0 -0.32163728582E+01 -0.61991050495E+01  0.25451751301E+03  0.25461331149E+03  0.00000000000E+00 0. -1.
<mgrwt>
<rscale>  0 0.89551610E+02</rscale>
<asrwt>0</asrwt>
<pdfrwt beam="2">  1        2 0.43532619E-03 0.89551610E+02</pdfrwt>
<pdfrwt beam="1">  1       -2 0.10900472E+00 0.89551610E+02</pdfrwt>
<totfact> 0.28154871E+04</totfact>
</mgrwt>
</event>
<event>
 7    1  0.3480999E-009  0.9050016E+02  0.7818608E-02  0.1301645E+00
          2   -1    0    0  501    0  0.00000000000E+00  0.00000000000E+00  0.10615651025E+03  0.10615651028E+03  0.25500000000E-02 0. -1.
         -2   -1    0    0    0  501 -0.00000000000E+00 -0.00000000000E+00 -0.19288217596E+02  0.19288217765E+02  0.25500000000E-02 0.  1.
         23    2    1    2    0    0  0.00000000000E+00 -0.88817841970E-15  0.86868292653E+02  0.12544472804E+03  0.90500163125E+02 0.  0.
    9000005    2    3    3    0    0 -0.37060387895E+02 -0.44074251833E+01  0.10068526557E+02  0.40056779128E+02  0.10501075157E+02 0.  0.
         22    1    3    3    0    0  0.37060387895E+02  0.44074251833E+01  0.76799766097E+02  0.85387948916E+02  0.00000000000E+00 0.  1.
         22    1    4    4    0    0 -0.12223354489E+02 -0.53310468440E+01  0.26198982297E+00  0.13337881919E+02  0.00000000000E+00 0. -1.
         22    1    4    4    0    0 -0.24837033406E+02  0.92362166062E+00  0.98065367338E+01  0.26718897210E+02  0.00000000000E+00 0. -1.
<mgrwt>
<rscale>  0 0.90500163E+02</rscale>
<asrwt>0</asrwt>
<pdfrwt beam="1">  1        2 0.16331771E-01 0.90500163E+02</pdfrwt>
<pdfrwt beam="2">  1       -2 0.29674181E-02 0.90500163E+02</pdfrwt>
<totfact> 0.12752750E+05</totfact>
</mgrwt>
</event>
<event>
 7    1  0.3480999E-009  0.9162355E+02  0.7818608E-02  0.1298967E+00
          2   -1    0    0  501    0  0.00000000000E+00  0.00000000000E+00  0.78550622951E+01  0.78550627090E+01  0.25500000000E-02 0. -1.
         -2   -1    0    0    0  501 -0.00000000000E+00 -0.00000000000E+00 -0.26718042509E+03  0.26718042511E+03  0.25500000000E-02 0.  1.
         23    2    1    2    0    0 -0.88817841970E-15  0.00000000000E+00 -0.25932536280E+03  0.27503548782E+03  0.91623554652E+02 0.  0.
    9000005    2    3    3    0    0  0.71227955713E+01 -0.38167226689E+02 -0.66921230832E+02  0.78752983736E+02  0.14700676899E+02 0.  0.
         22    1    3    3    0    0 -0.71227955713E+01  0.38167226689E+02 -0.19240413197E+03  0.19628250408E+03  0.00000000000E+00 0.  1.
         22    1    4    4    0    0  0.96780534933E+01 -0.28635044378E+02 -0.40404977939E+02  0.50459813002E+02  0.00000000000E+00 0. -1.
         22    1    4    4    0    0 -0.25552579220E+01 -0.95321823106E+01 -0.26516252894E+02  0.28293170734E+02  0.00000000000E+00 0. -1.
<mgrwt>
<rscale>  0 0.91623555E+02</rscale>
<asrwt>0</asrwt>
<pdfrwt beam="1">  1        2 0.12084714E-02 0.91623555E+02</pdfrwt>
<pdfrwt beam="2">  1       -2 0.41104674E-01 0.91623555E+02</pdfrwt>
<totfact> 0.53625676E+04</totfact>
</mgrwt>
</event>
<event>
 7    1  0.3480999E-009  0.8948027E+02  0.7818608E-02  0.1304115E+00
          2   -1    0    0  501    0  0.00000000000E+00  0.00000000000E+00  0.18631896492E+03  0.18631896493E+03  0.25500000000E-02 0. -1.
         -2   -1    0    0    0  501 -0.00000000000E+00 -0.00000000000E+00 -0.10743296229E+02  0.10743296532E+02  0.25500000000E-02 0.  1.
         23    2    1    2    0    0  0.00000000000E+00  0.00000000000E+00  0.17557566869E+03  0.19706226147E+03  0.89480274134E+02 0.  0.
    9000005    2    3    3    0    0  0.29525262032E+02 -0.24279728546E+02  0.41246538310E+02  0.57399948782E+02  0.11499168723E+02 0.  0.
         22    1    3    3    0    0 -0.29525262032E+02  0.24279728546E+02  0.13432913038E+03  0.13966231268E+03  0.00000000000E+00 0. -1.
         22    1    4    4    0    0  0.28747736248E+02 -0.18759464494E+02  0.34898754934E+02  0.48951740965E+02  0.00000000000E+00 0.  1.
         22    1    4    4    0    0  0.77752578384E+00 -0.55202640516E+01  0.63477833757E+01  0.84482078176E+01  0.00000000000E+00 0.  1.
<mgrwt>
<rscale>  0 0.89480274E+02</rscale>
<asrwt>0</asrwt>
<pdfrwt beam="1">  1        2 0.28664456E-01 0.89480274E+02</pdfrwt>
<pdfrwt beam="2">  1       -2 0.16528148E-02 0.89480274E+02</pdfrwt>
<totfact> 0.15861020E+05</totfact>
</mgrwt>
</event>
<event>
 7    1  0.3480999E-009  0.9781326E+02  0.7818608E-02  0.1284963E+00
          2   -1    0    0  501    0  0.00000000000E+00  0.00000000000E+00  0.51081193644E+03  0.51081193645E+03  0.25500000000E-02 0.  1.
         -2   -1    0    0    0  501 -0.00000000000E+00 -0.00000000000E+00 -0.46824632737E+01  0.46824639681E+01  0.25500000000E-02 0. -1.
         23    2    1    2    0    0  0.00000000000E+00  0.00000000000E+00  0.50612947317E+03  0.51549440042E+03  0.97813257032E+02 0.  0.
    9000005    2    3    3    0    0  0.44722440353E+01 -0.48205958379E+02  0.23520401250E+03  0.24027735765E+03  0.82744011229E+01 0.  0.
         22    1    3    3    0    0 -0.44722440353E+01  0.48205958379E+02  0.27092546067E+03  0.27521704277E+03  0.00000000000E+00 0.  1.
         22    1    4    4    0    0  0.61895502409E+01 -0.29816039763E+02  0.13585095030E+03  0.13922207963E+03  0.00000000000E+00 0.  1.
         22    1    4    4    0    0 -0.17173062056E+01 -0.18389918616E+02  0.99353062202E+02  0.10105527802E+03  0.00000000000E+00 0.  1.
<mgrwt>
<rscale>  0 0.97813257E+02</rscale>
<asrwt>0</asrwt>
<pdfrwt beam="1">  1        2 0.78586441E-01 0.97813257E+02</pdfrwt>
<pdfrwt beam="2">  1       -2 0.72037911E-03 0.97813257E+02</pdfrwt>
<totfact> 0.18004614E+05</totfact>
</mgrwt>
</event>
<event>
 7    1  0.3480999E-009  0.9005290E+02  0.7818608E-02  0.1302724E+00
          2   -1    0    0  501    0  0.00000000000E+00  0.00000000000E+00  0.25511142340E+03  0.25511142341E+03  0.25500000000E-02 0. -1.
         -2   -1    0    0    0  501 -0.00000000000E+00 -0.00000000000E+00 -0.79470410411E+01  0.79470414502E+01  0.25500000000E-02 0.  1.
         23    2    1    2    0    0  0.35527136788E-14  0.00000000000E+00  0.24716438235E+03  0.26305846486E+03  0.90052895728E+02 0.  0.
    9000005    2    3    3    0    0 -0.18725133027E+02  0.38750232770E+02  0.10072531444E+03  0.11042618859E+03  0.14005106616E+02 0.  0.
         22    1    3    3    0    0  0.18725133027E+02 -0.38750232770E+02  0.14643906791E+03  0.15263227626E+03  0.00000000000E+00 0. -1.
         22    1    4    4    0    0 -0.80726652036E+01  0.87101318476E+01  0.41540630384E+02  0.43204841082E+02  0.00000000000E+00 0. -1.
         22    1    4    4    0    0 -0.10652467823E+02  0.30040100923E+02  0.59184684059E+02  0.67221347512E+02  0.00000000000E+00 0. -1.
<mgrwt>
<rscale>  0 0.90052896E+02</rscale>
<asrwt>0</asrwt>
<pdfrwt beam="1">  1        2 0.39247908E-01 0.90052896E+02</pdfrwt>
<pdfrwt beam="2">  1       -2 0.12226218E-02 0.90052896E+02</pdfrwt>
<totfact> 0.17482564E+05</totfact>
</mgrwt>
</event>
<event>
 7    1  0.3480999E-009  0.9040079E+02  0.7818608E-02  0.1301884E+00
          2   -1    0    0  501    0  0.00000000000E+00  0.00000000000E+00  0.16757772949E+03  0.16757772951E+03  0.25500000000E-02 0. -1.
         -2   -1    0    0    0  501 -0.00000000000E+00 -0.00000000000E+00 -0.12191808708E+02  0.12191808975E+02  0.25500000000E-02 0.  1.
         23    2    1    2    0    0  0.00000000000E+00  0.00000000000E+00  0.15538592079E+03  0.17976953849E+03  0.90400788657E+02 0.  0.
    9000005    2    3    3    0    0  0.84592489238E+01 -0.34535323234E+02  0.13105971659E+03  0.13668808478E+03  0.15579979617E+02 0.  0.
         22    1    3    3    0    0 -0.84592489238E+01  0.34535323234E+02  0.24326204200E+02  0.43081453713E+02  0.00000000000E+00 0. -1.
         22    1    4    4    0    0 -0.18306647353E+01 -0.10209235069E+02  0.19985935483E+02  0.22517047568E+02  0.00000000000E+00 0. -1.
         22    1    4    4    0    0  0.10289913659E+02 -0.24326088165E+02  0.11107378110E+03  0.11417103721E+03  0.00000000000E+00 0. -1.
<mgrwt>
<rscale>  0 0.90400789E+02</rscale>
<asrwt>0</asrwt>
<pdfrwt beam="1">  1        2 0.25781187E-01 0.90400789E+02</pdfrwt>
<pdfrwt beam="2">  1       -2 0.18756630E-02 0.90400789E+02</pdfrwt>
<totfact> 0.14864290E+05</totfact>
</mgrwt>
</event>
<event>
 7    1  0.3480999E-009  0.9179316E+02  0.7818608E-02  0.1298567E+00
         -2   -1    0    0    0  501 -0.00000000000E+00  0.00000000000E+00  0.29735968226E+01  0.29735979159E+01  0.25500000000E-02 0.  1.
          2   -1    0    0  501    0  0.00000000000E+00 -0.00000000000E+00 -0.70839982578E+03  0.70839982579E+03  0.25500000000E-02 0. -1.
         23    2    1    2    0    0  0.00000000000E+00  0.00000000000E+00 -0.70542622896E+03  0.71137342370E+03  0.91793155771E+02 0.  0.
    9000005    2    3    3    0    0 -0.21026081920E+02 -0.12252176981E+02 -0.65423989655E+03  0.65469668609E+03  0.23867483364E+01 0.  0.
         22    1    3    3    0    0  0.21026081920E+02  0.12252176981E+02 -0.51186332405E+02  0.56676737616E+02  0.00000000000E+00 0.  1.
         22    1    4    4    0    0 -0.13045156777E+02 -0.65932963888E+01 -0.37074108238E+03  0.37102910645E+03  0.00000000000E+00 0.  1.
         22    1    4    4    0    0 -0.79809251433E+01 -0.56588805925E+01 -0.28349881418E+03  0.28366757964E+03  0.00000000000E+00 0.  1.
<mgrwt>
<rscale>  0 0.91793156E+02</rscale>
<asrwt>0</asrwt>
<pdfrwt beam="2">  1        2 0.10898445E+00 0.91793156E+02</pdfrwt>
<pdfrwt beam="1">  1       -2 0.45747708E-03 0.91793156E+02</pdfrwt>
<totfact> 0.23360613E+05</totfact>
</mgrwt>
</event>
<event>
 7    1  0.3480999E-009  0.9182944E+02  0.7818608E-02  0.1298481E+00
          2   -1    0    0  501    0  0.00000000000E+00  0.00000000000E+00  0.10565668865E+03  0.10565668868E+03  0.25500000000E-02 0. -1.
         -2   -1    0    0    0  501 -0.00000000000E+00 -0.00000000000E+00 -0.19952939524E+02  0.19952939687E+02  0.25500000000E-02 0.  1.
         23    2    1    2    0    0  0.00000000000E+00  0.71054273576E-14  0.85703749125E+02  0.12560962837E+03  0.91829440400E+02 0.  0.
    9000005    2    3    3    0    0 -0.13730333135E+02  0.43039834030E+02  0.43173494885E+02  0.63563098349E+02  0.11634751820E+02 0.  0.
         22    1    3    3    0    0  0.13730333135E+02 -0.43039834030E+02  0.42530254240E+02  0.62046530016E+02  0.00000000000E+00 0. -1.
         22    1    4    4    0    0 -0.66700493016E+01  0.93458745557E+01  0.62189384557E+01  0.13057952535E+02  0.00000000000E+00 0. -1.
         22    1    4    4    0    0 -0.70602838338E+01  0.33693959474E+02  0.36954556429E+02  0.50505145814E+02  0.00000000000E+00 0. -1.
<mgrwt>
<rscale>  0 0.91829440E+02</rscale>
<asrwt>0</asrwt>
<pdfrwt beam="1">  1        2 0.16254875E-01 0.91829440E+02</pdfrwt>
<pdfrwt beam="2">  1       -2 0.30696830E-02 0.91829440E+02</pdfrwt>
<totfact> 0.12234107E+05</totfact>
</mgrwt>
</event>
<event>
 7    1  0.3480999E-009  0.9981594E+02  0.7818608E-02  0.1280683E+00
         -2   -1    0    0    0  501 -0.00000000000E+00  0.00000000000E+00  0.80958232597E+02  0.80958232637E+02  0.25500000000E-02 0.  1.
          2   -1    0    0  501    0  0.00000000000E+00 -0.00000000000E+00 -0.30766551872E+02  0.30766551977E+02  0.25500000000E-02 0. -1.
         23    2    1    2    0    0  0.88817841970E-15  0.00000000000E+00  0.50191680725E+02  0.11172478461E+03  0.99815944033E+02 0.  0.
    9000005    2    3    3    0    0  0.64912366533E+01  0.29251103589E+02 -0.18517183512E+02  0.36766988228E+02  0.10543344993E+02 0.  0.
         22    1    3    3    0    0 -0.64912366533E+01 -0.29251103589E+02  0.68708864237E+02  0.74957796387E+02  0.00000000000E+00 0.  1.
         22    1    4    4    0    0  0.37162602129E+01  0.28689542435E+02 -0.17012035831E+02  0.33560539301E+02  0.00000000000E+00 0. -1.
         22    1    4    4    0    0  0.27749764405E+01  0.56156115449E+00 -0.15051476809E+01  0.32064489262E+01  0.00000000000E+00 0. -1.
<mgrwt>
<rscale>  0 0.99815944E+02</rscale>
<asrwt>0</asrwt>
<pdfrwt beam="2">  1        2 0.47333158E-02 0.99815944E+02</pdfrwt>
<pdfrwt beam="1">  1       -2 0.12455112E-01 0.99815944E+02</pdfrwt>
<totfact> 0.67898854E+04</totfact>
</mgrwt>
</event>
<event>
 7    1  0.3480999E-009  0.8908033E+02  0.7818608E-02  0.1305094E+00
         -2   -1    0    0    0  501 -0.00000000000E+00  0.00000000000E+00  0.74247594236E+02  0.74247594279E+02  0.25500000000E-02 0.  1.
          2   -1    0    0  501    0  0.00000000000E+00 -0.00000000000E+00 -0.26719064419E+02  0.26719064541E+02  0.25500000000E-02 0. -1.
         23    2    1    2    0    0  0.71054273576E-14  0.44408920985E-15  0.47528529817E+02  0.10096665882E+03  0.89080329180E+02 0.  0.
    9000005    2    3    3    0    0 -0.43303837856E+02 -0.31390812497E+01  0.24894295149E+02  0.52003562685E+02  0.14126867902E+02 0.  0.
         22    1    3    3    0    0  0.43303837856E+02  0.31390812497E+01  0.22634234667E+02  0.48963096135E+02  0.00000000000E+00 0.  1.
         22    1    4    4    0    0 -0.25194774783E+01 -0.20953103796E+01  0.64408522438E+01  0.72265254429E+01  0.00000000000E+00 0.  1.
         22    1    4    4    0    0 -0.40784360378E+02 -0.10437708702E+01  0.18453442906E+02  0.44777037242E+02  0.00000000000E+00 0.  1.
<mgrwt>
<rscale>  0 0.89080329E+02</rscale>
<asrwt>0</asrwt>
<pdfrwt beam="2">  1        2 0.41106254E-02 0.89080329E+02</pdfrwt>
<pdfrwt beam="1">  1       -2 0.11422707E-01 0.89080329E+02</pdfrwt>
<totfact> 0.91913194E+04</totfact>
</mgrwt>
</event>
<event>
 7    1  0.3480999E-009  0.9109576E+02  0.7818608E-02  0.1300220E+00
          2   -1    0    0  501    0  0.00000000000E+00  0.00000000000E+00  0.29997936183E+01  0.29997947021E+01  0.25500000000E-02 0. -1.
         -2   -1    0    0    0  501 -0.00000000000E+00 -0.00000000000E+00 -0.69158386813E+03  0.69158386813E+03  0.25500000000E-02 0.  1.
         23    2    1    2    0    0  0.00000000000E+00  0.00000000000E+00 -0.68858407451E+03  0.69458366283E+03  0.91095757358E+02 0.  0.
    9000005    2    3    3    0    0  0.89617094613E+01 -0.39422633267E+02 -0.49815193765E+03  0.49990738025E+03  0.10843412687E+02 0.  0.
         22    1    3    3    0    0 -0.89617094613E+01  0.39422633267E+02 -0.19043213686E+03  0.19467628258E+03  0.00000000000E+00 0. -1.
         22    1    4    4    0    0  0.67780322526E+01 -0.10427236528E+02 -0.18017525702E+03  0.18060396515E+03  0.00000000000E+00 0. -1.
         22    1    4    4    0    0  0.21836772088E+01 -0.28995396740E+02 -0.31797668063E+03  0.31930341511E+03  0.00000000000E+00 0. -1.
<mgrwt>
<rscale>  0 0.91095757E+02</rscale>
<asrwt>0</asrwt>
<pdfrwt beam="1">  1        2 0.46150734E-03 0.91095757E+02</pdfrwt>
<pdfrwt beam="2">  1       -2 0.10639739E+00 0.91095757E+02</pdfrwt>
<totfact> 0.27559125E+04</totfact>
</mgrwt>
</event>
<event>
 7    1  0.3480999E-009  0.9452269E+02  0.7818608E-02  0.1292255E+00
          2   -1    0    0  501    0  0.00000000000E+00  0.00000000000E+00  0.25000601454E+02  0.25000601584E+02  0.25500000000E-02 0. -1.
         -2   -1    0    0    0  501 -0.00000000000E+00 -0.00000000000E+00 -0.89343245883E+02  0.89343245919E+02  0.25500000000E-02 0.  1.
         23    2    1    2    0    0  0.00000000000E+00  0.00000000000E+00 -0.64342644429E+02  0.11434384750E+03  0.94522693411E+02 0.  0.
    9000005    2    3    3    0    0  0.44395137875E+02 -0.93012756187E+01 -0.20260377675E+02  0.51092853540E+02  0.11939630827E+02 0.  0.
         22    1    3    3    0    0 -0.44395137875E+02  0.93012756187E+01 -0.44082266755E+02  0.63250993963E+02  0.00000000000E+00 0. -1.
         22    1    4    4    0    0  0.14102886568E+02  0.23517598075E+01 -0.81041368893E+01  0.16434695569E+02  0.00000000000E+00 0. -1.
         22    1    4    4    0    0  0.30292251307E+02 -0.11653035426E+02 -0.12156240785E+02  0.34658157971E+02  0.00000000000E+00 0. -1.
<mgrwt>
<rscale>  0 0.94522693E+02</rscale>
<asrwt>0</asrwt>
<pdfrwt beam="1">  1        2 0.38462464E-02 0.94522693E+02</pdfrwt>
<pdfrwt beam="2">  1       -2 0.13745115E-01 0.94522693E+02</pdfrwt>
<totfact> 0.75442102E+04</totfact>
</mgrwt>
</event>
<event>
 7    1  0.3480999E-009  0.8494013E+02  0.7818608E-02  0.1315589E+00
          2   -1    0    0  501    0  0.00000000000E+00  0.00000000000E+00  0.70178076200E+03  0.70178076201E+03  0.25500000000E-02 0. -1.
         -2   -1    0    0    0  501 -0.00000000000E+00 -0.00000000000E+00 -0.25701845125E+01  0.25701857775E+01  0.25500000000E-02 0.  1.
         23    2    1    2    0    0 -0.35527136788E-14  0.35527136788E-14  0.69921057749E+03  0.70435094778E+03  0.84940131689E+02 0.  0.
    9000005    2    3    3    0    0  0.30874490710E+02  0.19335702852E+02  0.52763282970E+03  0.52894847597E+03  0.79362254418E+01 0.  0.
         22    1    3    3    0    0 -0.30874490710E+02 -0.19335702852E+02  0.17157774779E+03  0.17540247181E+03  0.00000000000E+00 0.  1.
         22    1    4    4    0    0  0.14407544327E+01 -0.50806928322E+00  0.37908610116E+02  0.37939380973E+02  0.00000000000E+00 0. -1.
         22    1    4    4    0    0  0.29433736277E+02  0.19843772135E+02  0.48972421958E+03  0.49100909500E+03  0.00000000000E+00 0. -1.
<mgrwt>
<rscale>  0 0.84940132E+02</rscale>
<asrwt>0</asrwt>
<pdfrwt beam="1">  1        2 0.10796627E+00 0.84940132E+02</pdfrwt>
<pdfrwt beam="2">  1       -2 0.39541309E-03 0.84940132E+02</pdfrwt>
<totfact> 0.28584172E+05</totfact>
</mgrwt>
</event>
<event>
 7    1  0.3480999E-009  0.8989987E+02  0.7818608E-02  0.1303094E+00
          2   -1    0    0  501    0  0.00000000000E+00  0.00000000000E+00  0.18537581442E+03  0.18537581444E+03  0.25500000000E-02 0. -1.
         -2   -1    0    0    0  501 -0.00000000000E+00 -0.00000000000E+00 -0.10899461954E+02  0.10899462253E+02  0.25500000000E-02 0.  1.
         23    2    1    2    0    0 -0.35527136788E-14  0.00000000000E+00  0.17447635247E+03  0.19627527669E+03  0.89899870245E+02 0.  0.
    9000005    2    3    3    0    0  0.30325172868E+02 -0.29825410952E+02  0.11484395991E+03  0.12302779557E+03  0.11727408421E+02 0.  0.
         22    1    3    3    0    0 -0.30325172868E+02  0.29825410952E+02  0.59632392559E+02  0.73247481118E+02  0.00000000000E+00 0.  1.
         22    1    4    4    0    0  0.44506956671E+01 -0.96295501629E+01  0.38324689611E+02  0.39765798899E+02  0.00000000000E+00 0. -1.
         22    1    4    4    0    0  0.25874477200E+02 -0.20195860789E+02  0.76519270296E+02  0.83261996674E+02  0.00000000000E+00 0. -1.
<mgrwt>
<rscale>  0 0.89899870E+02</rscale>
<asrwt>0</asrwt>
<pdfrwt beam="1">  1        2 0.28519355E-01 0.89899870E+02</pdfrwt>
<pdfrwt beam="2">  1       -2 0.16768404E-02 0.89899870E+02</pdfrwt>
<totfact> 0.15634388E+05</totfact>
</mgrwt>
</event>
<event>
 7    1  0.3480999E-009  0.9334775E+02  0.7818608E-02  0.1294941E+00
         -2   -1    0    0    0  501 -0.00000000000E+00  0.00000000000E+00  0.20955739155E+02  0.20955739310E+02  0.25500000000E-02 0.  1.
          2   -1    0    0  501    0  0.00000000000E+00 -0.00000000000E+00 -0.10395484502E+03  0.10395484506E+03  0.25500000000E-02 0. -1.
         23    2    1    2    0    0  0.00000000000E+00  0.71054273576E-14 -0.82999105869E+02  0.12491058437E+03  0.93347750436E+02 0.  0.
    9000005    2    3    3    0    0 -0.22013720128E+02 -0.39315364290E+02 -0.51324415759E+02  0.69832569363E+02  0.14563321997E+02 0.  0.
         22    1    3    3    0    0  0.22013720128E+02  0.39315364290E+02 -0.31674690109E+02  0.55078015003E+02  0.00000000000E+00 0.  1.
         22    1    4    4    0    0 -0.11979590127E+02 -0.33716533184E+02 -0.37040748276E+02  0.51500798270E+02  0.00000000000E+00 0.  1.
         22    1    4    4    0    0 -0.10034130001E+02 -0.55988311067E+01 -0.14283667483E+02  0.18331771093E+02  0.00000000000E+00 0.  1.
<mgrwt>
<rscale>  0 0.93347750E+02</rscale>
<asrwt>0</asrwt>
<pdfrwt beam="2">  1        2 0.15993053E-01 0.93347750E+02</pdfrwt>
<pdfrwt beam="1">  1       -2 0.32239599E-02 0.93347750E+02</pdfrwt>
<totfact> 0.11634660E+05</totfact>
</mgrwt>
</event>
<event>
 7    1  0.3480999E-009  0.9324916E+02  0.7818608E-02  0.1295169E+00
         -2   -1    0    0    0  501 -0.00000000000E+00  0.00000000000E+00  0.51049582875E+01  0.51049589243E+01  0.25500000000E-02 0.  1.
          2   -1    0    0  501    0  0.00000000000E+00 -0.00000000000E+00 -0.42583139572E+03  0.42583139572E+03  0.25500000000E-02 0. -1.
         23    2    1    2    0    0  0.00000000000E+00  0.88817841970E-15 -0.42072643743E+03  0.43093635465E+03  0.93249164103E+02 0.  0.
    9000005    2    3    3    0    0  0.43648148333E+02 -0.76068962617E+01 -0.16924225929E+03  0.17557911944E+03  0.14901648464E+02 0.  0.
         22    1    3    3    0    0 -0.43648148333E+02  0.76068962617E+01 -0.25148417813E+03  0.25535723521E+03  0.00000000000E+00 0.  1.
         22    1    4    4    0    0  0.22619902740E+02 -0.35353145158E+01 -0.59221956739E+02  0.63493295777E+02  0.00000000000E+00 0.  1.
         22    1    4    4    0    0  0.21028245593E+02 -0.40715817459E+01 -0.11002030256E+03  0.11208582366E+03  0.00000000000E+00 0.  1.
<mgrwt>
<rscale>  0 0.93249164E+02</rscale>
<asrwt>0</asrwt>
<pdfrwt beam="2">  1        2 0.65512495E-01 0.93249164E+02</pdfrwt>
<pdfrwt beam="1">  1       -2 0.78537858E-03 0.93249164E+02</pdfrwt>
<totfact> 0.19226693E+05</totfact>
</mgrwt>
</event>
<event>
 7    1  0.3480999E-009  0.8812766E+02  0.7818608E-02  0.1307450E+00
         -2   -1    0    0    0  501 -0.00000000000E+00  0.00000000000E+00  0.29050363790E+02  0.29050363902E+02  0.25500000000E-02 0.  1.
          2   -1    0    0  501    0  0.00000000000E+00 -0.00000000000E+00 -0.66836377077E+02  0.66836377126E+02  0.25500000000E-02 0. -1.
         23    2    1    2    0    0  0.00000000000E+00  0.00000000000E+00 -0.37786013287E+02  0.95886741028E+02  0.88127659136E+02 0.  0.
    9000005    2    3    3    0    0 -0.13252966323E+02  0.36993214110E+02 -0.38118799511E+02  0.56589797721E+02  0.14325617729E+02 0.  0.
         22    1    3    3    0    0  0.13252966323E+02 -0.36993214110E+02  0.33278622378E+00  0.39296943307E+02  0.00000000000E+00 0.  1.
         22    1    4    4    0    0 -0.63432741454E+01  0.48713693819E+01 -0.31202721705E+01  0.85850722162E+01  0.00000000000E+00 0.  1.
         22    1    4    4    0    0 -0.69096921776E+01  0.32121844729E+02 -0.34998527341E+02  0.48004725505E+02  0.00000000000E+00 0.  1.
<mgrwt>
<rscale>  0 0.88127659E+02</rscale>
<asrwt>0</asrwt>
<pdfrwt beam="2">  1        2 0.10282520E-01 0.88127659E+02</pdfrwt>
<pdfrwt beam="1">  1       -2 0.44692868E-02 0.88127659E+02</pdfrwt>
<totfact> 0.12010689E+05</totfact>
</mgrwt>
</event>
<event>
 7    1  0.3480999E-009  0.9165203E+02  0.7818608E-02  0.1298900E+00
          2   -1    0    0  501    0  0.00000000000E+00  0.00000000000E+00  0.54684410757E+03  0.54684410758E+03  0.25500000000E-02 0. -1.
         -2   -1    0    0    0  501 -0.00000000000E+00 -0.00000000000E+00 -0.38402593733E+01  0.38402602199E+01  0.25500000000E-02 0.  1.
         23    2    1    2    0    0  0.00000000000E+00  0.00000000000E+00  0.54300384820E+03  0.55068436780E+03  0.91652025501E+02 0.  0.
    9000005    2    3    3    0    0 -0.12308825817E+02  0.34013460129E+02  0.43949634831E+03  0.44103845955E+03  0.70327774794E+01 0.  0.
         22    1    3    3    0    0  0.12308825817E+02 -0.34013460129E+02  0.10350749989E+03  0.10964590825E+03  0.00000000000E+00 0.  1.
         22    1    4    4    0    0 -0.13046896001E+02  0.33275017848E+02  0.42192856282E+03  0.42343967744E+03  0.00000000000E+00 0. -1.
         22    1    4    4    0    0  0.73807018393E+00  0.73844228043E+00  0.17567785488E+02  0.17598782104E+02  0.00000000000E+00 0. -1.
<mgrwt>
<rscale>  0 0.91652026E+02</rscale>
<asrwt>0</asrwt>
<pdfrwt beam="1">  1        2 0.84129825E-01 0.91652026E+02</pdfrwt>
<pdfrwt beam="2">  1       -2 0.59080947E-03 0.91652026E+02</pdfrwt>
<totfact> 0.21865612E+05</totfact>
</mgrwt>
</event>
<event>
 7    1  0.3480999E-009  0.9048782E+02  0.7818608E-02  0.1301675E+00
         -2   -1    0    0    0  501 -0.00000000000E+00  0.00000000000E+00  0.10036034782E+02  0.10036035106E+02  0.25500000000E-02 0.  1.
          2   -1    0    0  501    0  0.00000000000E+00 -0.00000000000E+00 -0.20396616651E+03  0.20396616652E+03  0.25500000000E-02 0. -1.
         23    2    1    2    0    0  0.00000000000E+00  0.00000000000E+00 -0.19393013173E+03  0.21400220163E+03  0.90487824106E+02 0.  0.
    9000005    2    3    3    0    0  0.18094002402E+02 -0.34082594769E+02 -0.15186121709E+03  0.15691621589E+03  0.84766364191E+01 0.  0.
         22    1    3    3    0    0 -0.18094002402E+02  0.34082594769E+02 -0.42068914640E+02  0.57085985742E+02  0.00000000000E+00 0.  1.
         22    1    4    4    0    0  0.92042065996E+01 -0.99259945073E+01 -0.44560876424E+02  0.46571606089E+02  0.00000000000E+00 0. -1.
         22    1    4    4    0    0  0.88897958020E+01 -0.24156600262E+02 -0.10730034066E+03  0.11034460980E+03  0.00000000000E+00 0. -1.
<mgrwt>
<rscale>  0 0.90487824E+02</rscale>
<asrwt>0</asrwt>
<pdfrwt beam="2">  1        2 0.31379407E-01 0.90487824E+02</pdfrwt>
<pdfrwt beam="1">  1       -2 0.15440055E-02 0.90487824E+02</pdfrwt>
<totfact> 0.15899327E+05</totfact>
</mgrwt>
</event>
<event>
 7    1  0.3480999E-009  0.9153714E+02  0.7818608E-02  0.1299171E+00
         -2   -1    0    0    0  501 -0.00000000000E+00  0.00000000000E+00  0.10723791081E+02  0.10723791384E+02  0.25500000000E-02 0.  1.
          2   -1    0    0  501    0  0.00000000000E+00 -0.00000000000E+00 -0.19533783756E+03  0.19533783757E+03  0.25500000000E-02 0. -1.
         23    2    1    2    0    0  0.00000000000E+00  0.00000000000E+00 -0.18461404648E+03  0.20606162896E+03  0.91537144224E+02 0.  0.
    9000005    2    3    3    0    0 -0.28624593183E+02  0.13511008012E+02 -0.16518071227E+03  0.16891907720E+03  0.15718532558E+02 0.  0.
         22    1    3    3    0    0  0.28624593183E+02 -0.13511008012E+02 -0.19433334209E+02  0.37142551755E+02  0.00000000000E+00 0.  1.
         22    1    4    4    0    0 -0.14223169813E+02  0.10846278960E+01 -0.10024291689E+03  0.10125274003E+03  0.00000000000E+00 0. -1.
         22    1    4    4    0    0 -0.14401423370E+02  0.12426380116E+02 -0.64937795379E+02  0.67666337174E+02  0.00000000000E+00 0. -1.
<mgrwt>
<rscale>  0 0.91537144E+02</rscale>
<asrwt>0</asrwt>
<pdfrwt beam="2">  1        2 0.30051972E-01 0.91537144E+02</pdfrwt>
<pdfrwt beam="1">  1       -2 0.16498142E-02 0.91537144E+02</pdfrwt>
<totfact> 0.15174576E+05</totfact>
</mgrwt>
</event>
<event>
 7    1  0.3480999E-009  0.9099523E+02  0.7818608E-02  0.1300459E+00
          2   -1    0    0  501    0  0.00000000000E+00  0.00000000000E+00  0.16813944756E+03  0.16813944758E+03  0.25500000000E-02 0. -1.
         -2   -1    0    0    0  501 -0.00000000000E+00 -0.00000000000E+00 -0.12311405294E+02  0.12311405558E+02  0.25500000000E-02 0.  1.
         23    2    1    2    0    0  0.17763568394E-14 -0.44408920985E-15  0.15582804226E+03  0.18045085314E+03  0.90995228675E+02 0.  0.
    9000005    2    3    3    0    0 -0.14779599985E+02  0.34593966539E+01  0.16281830619E+03  0.16373954586E+03  0.83924994400E+01 0.  0.
         22    1    3    3    0    0  0.14779599985E+02 -0.34593966539E+01 -0.69902639300E+01  0.16711307272E+02  0.00000000000E+00 0.  1.
         22    1    4    4    0    0 -0.13126981864E+02  0.56889660469E+01  0.14531694203E+03  0.14601950428E+03  0.00000000000E+00 0. -1.
         22    1    4    4    0    0 -0.16526181211E+01 -0.22295693930E+01  0.17501364162E+02  0.17720041587E+02  0.00000000000E+00 0. -1.
<mgrwt>
<rscale>  0 0.90995229E+02</rscale>
<asrwt>0</asrwt>
<pdfrwt beam="1">  1        2 0.25867608E-01 0.90995229E+02</pdfrwt>
<pdfrwt beam="2">  1       -2 0.18940623E-02 0.90995229E+02</pdfrwt>
<totfact> 0.14620518E+05</totfact>
</mgrwt>
</event>
<event>
 7    1  0.3480999E-009  0.9250893E+02  0.7818608E-02  0.1296887E+00
         -2   -1    0    0    0  501 -0.00000000000E+00  0.00000000000E+00  0.39580775874E+01  0.39580784088E+01  0.25500000000E-02 0.  1.
          2   -1    0    0  501    0  0.00000000000E+00 -0.00000000000E+00 -0.54053395814E+03  0.54053395815E+03  0.25500000000E-02 0. -1.
         23    2    1    2    0    0  0.00000000000E+00 -0.71054273576E-14 -0.53657588055E+03  0.54449203656E+03  0.92508930816E+02 0.  0.
    9000005    2    3    3    0    0 -0.42085399553E+01 -0.44267509940E+02 -0.33242729805E+03  0.33555671646E+03  0.10633777711E+02 0.  0.
         22    1    3    3    0    0  0.42085399553E+01  0.44267509940E+02 -0.20414858251E+03  0.20893532010E+03  0.00000000000E+00 0. -1.
         22    1    4    4    0    0 -0.20456867716E+01 -0.64469151689E+01 -0.29248201196E+02  0.30020073663E+02  0.00000000000E+00 0.  1.
         22    1    4    4    0    0 -0.21628531837E+01 -0.37820594771E+02 -0.30317909685E+03  0.30553664280E+03  0.00000000000E+00 0.  1.
<mgrwt>
<rscale>  0 0.92508931E+02</rscale>
<asrwt>0</asrwt>
<pdfrwt beam="2">  1        2 0.83159012E-01 0.92508931E+02</pdfrwt>
<pdfrwt beam="1">  1       -2 0.60893551E-03 0.92508931E+02</pdfrwt>
<totfact> 0.21257078E+05</totfact>
</mgrwt>
</event>
<event>
 7    1  0.3480999E-009  0.7383651E+02  0.7818608E-02  0.1347512E+00
          2   -1    0    0  501    0  0.00000000000E+00  0.00000000000E+00  0.39642084897E+02  0.39642084979E+02  0.25500000000E-02 0. -1.
         -2   -1    0    0    0  501 -0.00000000000E+00 -0.00000000000E+00 -0.34381583925E+02  0.34381584019E+02  0.25500000000E-02 0.  1.
         23    2    1    2    0    0  0.71054273576E-14  0.00000000000E+00  0.52605009719E+01  0.74023668998E+02  0.73836513335E+02 0.  0.
    9000005    2    3    3    0    0  0.32760424230E+02 -0.14275656063E+02 -0.52959243408E+01  0.36761384216E+02  0.68053510636E+01 0.  0.
         22    1    3    3    0    0 -0.32760424230E+02  0.14275656063E+02  0.10556425313E+02  0.37262284782E+02  0.00000000000E+00 0.  1.
         22    1    4    4    0    0  0.73237506129E+00  0.33635950205E+00  0.67939620407E+00  0.10540826092E+01  0.00000000000E+00 0.  1.
         22    1    4    4    0    0  0.32028049169E+02 -0.14612015565E+02 -0.59753205448E+01  0.35707301607E+02  0.00000000000E+00 0.  1.
<mgrwt>
<rscale>  0 0.73836513E+02</rscale>
<asrwt>0</asrwt>
<pdfrwt beam="1">  1        2 0.60987823E-02 0.73836513E+02</pdfrwt>
<pdfrwt beam="2">  1       -2 0.52894745E-02 0.73836513E+02</pdfrwt>
<totfact> 0.17304796E+05</totfact>
</mgrwt>
</event>
<event>
 7    1  0.3480999E-009  0.9079530E+02  0.7818608E-02  0.1300937E+00
         -2   -1    0    0    0  501 -0.00000000000E+00  0.00000000000E+00  0.65037864868E+02  0.65037864918E+02  0.25500000000E-02 0. -1.
          2   -1    0    0  501    0  0.00000000000E+00 -0.00000000000E+00 -0.31688413763E+02  0.31688413865E+02  0.25500000000E-02 0.  1.
         23    2    1    2    0    0  0.35527136788E-14  0.00000000000E+00  0.33349451105E+02  0.96726278783E+02  0.90795303393E+02 0.  0.
    9000005    2    3    3    0    0  0.26519639117E+02 -0.35152472028E+02  0.28091624154E+02  0.52379550687E+02  0.39357888696E+01 0.  0.
         22    1    3    3    0    0 -0.26519639117E+02  0.35152472028E+02  0.52578269510E+01  0.44346728096E+02  0.00000000000E+00 0.  1.
         22    1    4    4    0    0  0.15606265970E+02 -0.18779417449E+02  0.17424720666E+02  0.29997382345E+02  0.00000000000E+00 0.  1.
         22    1    4    4    0    0  0.10913373147E+02 -0.16373054579E+02  0.10666903488E+02  0.22382168343E+02  0.00000000000E+00 0.  1.
<mgrwt>
<rscale>  0 0.90795303E+02</rscale>
<asrwt>0</asrwt>
<pdfrwt beam="2">  1        2 0.48751406E-02 0.90795303E+02</pdfrwt>
<pdfrwt beam="1">  1       -2 0.10005825E-01 0.90795303E+02</pdfrwt>
<totfact> 0.90880229E+04</totfact>
</mgrwt>
</event>
<event>
 7    1  0.3480999E-009  0.9111346E+02  0.7818608E-02  0.1300177E+00
          2   -1    0    0  501    0  0.00000000000E+00  0.00000000000E+00  0.11772426251E+04  0.11772426251E+04  0.25500000000E-02 0. -1.
         -2   -1    0    0    0  501 -0.00000000000E+00 -0.00000000000E+00 -0.17629453424E+01  0.17629471866E+01  0.25500000000E-02 0.  1.
         23    2    1    2    0    0  0.00000000000E+00  0.35527136788E-14  0.11754796797E+04  0.11790055722E+04  0.91113456558E+02 0.  0.
    9000005    2    3    3    0    0 -0.25043207327E+02  0.22819888680E+02  0.97319669671E+03  0.97390482928E+03  0.15195277320E+02 0.  0.
         22    1    3    3    0    0  0.25043207327E+02 -0.22819888680E+02  0.20228298300E+03  0.20510074297E+03  0.00000000000E+00 0.  1.
         22    1    4    4    0    0 -0.26051860053E+02  0.21009852807E+02  0.80506706198E+03  0.80576242628E+03  0.00000000000E+00 0.  1.
         22    1    4    4    0    0  0.10086527261E+01  0.18100358726E+01  0.16812963473E+03  0.16814240299E+03  0.00000000000E+00 0.  1.
<mgrwt>
<rscale>  0 0.91113457E+02</rscale>
<asrwt>0</asrwt>
<pdfrwt beam="1">  1        2 0.18111442E+00 0.91113457E+02</pdfrwt>
<pdfrwt beam="2">  1       -2 0.27122225E-03 0.91113457E+02</pdfrwt>
<totfact> 0.24962079E+05</totfact>
</mgrwt>
</event>
<event>
 7    1  0.3480999E-009  0.9120835E+02  0.7818608E-02  0.1299952E+00
         -2   -1    0    0    0  501 -0.00000000000E+00  0.00000000000E+00  0.34142337231E+01  0.34142346753E+01  0.25500000000E-02 0.  1.
          2   -1    0    0  501    0  0.00000000000E+00 -0.00000000000E+00 -0.60913834749E+03  0.60913834749E+03  0.25500000000E-02 0. -1.
         23    2    1    2    0    0  0.00000000000E+00  0.00000000000E+00 -0.60572411377E+03  0.61255258217E+03  0.91208354471E+02 0.  0.
    9000005    2    3    3    0    0 -0.27797872695E+02  0.17278935802E+02 -0.51587940230E+03  0.51693168735E+03  0.39405982394E+01 0.  0.
         22    1    3    3    0    0  0.27797872695E+02 -0.17278935802E+02 -0.89844711465E+02  0.95620894824E+02  0.00000000000E+00 0.  1.
         22    1    4    4    0    0 -0.12577681032E+02  0.98955537203E+01 -0.23708165657E+03  0.23762119419E+03  0.00000000000E+00 0. -1.
         22    1    4    4    0    0 -0.15220191663E+02  0.73833820813E+01 -0.27879774573E+03  0.27931049316E+03  0.00000000000E+00 0. -1.
<mgrwt>
<rscale>  0 0.91208354E+02</rscale>
<asrwt>0</asrwt>
<pdfrwt beam="2">  1        2 0.93713505E-01 0.91208354E+02</pdfrwt>
<pdfrwt beam="1">  1       -2 0.52526729E-03 0.91208354E+02</pdfrwt>
<totfact> 0.22861160E+05</totfact>
</mgrwt>
</event>
<event>
 7    1  0.3480999E-009  0.9122936E+02  0.7818608E-02  0.1299902E+00
          2   -1    0    0  501    0  0.00000000000E+00  0.00000000000E+00  0.77215796413E+03  0.77215796414E+03  0.25500000000E-02 0. -1.
         -2   -1    0    0    0  501 -0.00000000000E+00 -0.00000000000E+00 -0.26946538462E+01  0.26946550528E+01  0.25500000000E-02 0.  1.
         23    2    1    2    0    0  0.00000000000E+00 -0.35527136788E-14  0.76946331029E+03  0.77485261919E+03  0.91229357052E+02 0.  0.
    9000005    2    3    3    0    0  0.13500637946E+02 -0.25987968585E+02  0.67891653657E+03  0.67968770987E+03  0.13786862539E+02 0.  0.
         22    1    3    3    0    0 -0.13500637946E+02  0.25987968585E+02  0.90546773716E+02  0.95164909323E+02  0.00000000000E+00 0.  1.
         22    1    4    4    0    0  0.53243923073E+01 -0.43977840689E+01  0.29291542064E+03  0.29299681450E+03  0.00000000000E+00 0.  1.
         22    1    4    4    0    0  0.81762456387E+01 -0.21590184516E+02  0.38600111593E+03  0.38669089536E+03  0.00000000000E+00 0.  1.
<mgrwt>
<rscale>  0 0.91229357E+02</rscale>
<asrwt>0</asrwt>
<pdfrwt beam="1">  1        2 0.11879364E+00 0.91229357E+02</pdfrwt>
<pdfrwt beam="2">  1       -2 0.41456183E-03 0.91229357E+02</pdfrwt>
<totfact> 0.24178880E+05</totfact>
</mgrwt>
</event>
<event>
 7    1  0.3480999E-009  0.9095922E+02  0.7818608E-02  0.1300545E+00
          2   -1    0    0  501    0  0.00000000000E+00  0.00000000000E+00  0.79927951200E+03  0.79927951200E+03  0.25500000000E-02 0. -1.
         -2   -1    0    0    0  501 -0.00000000000E+00 -0.00000000000E+00 -0.25878235904E+01  0.25878248468E+01  0.25500000000E-02 0.  1.
         23    2    1    2    0    0  0.00000000000E+00  0.00000000000E+00  0.79669168841E+03  0.80186733685E+03  0.90959219034E+02 0.  0.
    9000005    2    3    3    0    0 -0.39992144965E+02  0.64344863616E+01  0.57255105863E+03  0.57409596860E+03  0.11432067130E+02 0.  0.
         22    1    3    3    0    0  0.39992144965E+02 -0.64344863616E+01  0.22414062978E+03  0.22777136825E+03  0.00000000000E+00 0.  1.
         22    1    4    4    0    0  0.60664637103E+00  0.80792732767E+00  0.20881231494E+02  0.20905659403E+02  0.00000000000E+00 0.  1.
         22    1    4    4    0    0 -0.40598791336E+02  0.56265590339E+01  0.55166982713E+03  0.55319030920E+03  0.00000000000E+00 0.  1.
<mgrwt>
<rscale>  0 0.90959219E+02</rscale>
<asrwt>0</asrwt>
<pdfrwt beam="1">  1        2 0.12296622E+00 0.90959219E+02</pdfrwt>
<pdfrwt beam="2">  1       -2 0.39812634E-03 0.90959219E+02</pdfrwt>
<totfact> 0.24524045E+05</totfact>
</mgrwt>
</event>
<event>
 7    1  0.3480999E-009  0.9254232E+02  0.7818608E-02  0.1296809E+00
         -2   -1    0    0    0  501 -0.00000000000E+00  0.00000000000E+00  0.40736772879E+02  0.40736772959E+02  0.25500000000E-02 0.  1.
          2   -1    0    0  501    0  0.00000000000E+00 -0.00000000000E+00 -0.52557428274E+02  0.52557428335E+02  0.25500000000E-02 0. -1.
         23    2    1    2    0    0  0.00000000000E+00  0.00000000000E+00 -0.11820655395E+02  0.93294201294E+02  0.92542315192E+02 0.  0.
    9000005    2    3    3    0    0 -0.19071493407E+02 -0.35943725717E+02  0.16125804907E+02  0.43931483353E+02  0.37762900411E+01 0.  0.
         22    1    3    3    0    0  0.19071493407E+02  0.35943725717E+02 -0.27946460302E+02  0.49362717942E+02  0.00000000000E+00 0.  1.
         22    1    4    4    0    0 -0.10493162818E+02 -0.19272546456E+02  0.66830402965E+01  0.22939061455E+02  0.00000000000E+00 0. -1.
         22    1    4    4    0    0 -0.85783305893E+01 -0.16671179261E+02  0.94427646109E+01  0.20992421898E+02  0.00000000000E+00 0. -1.
<mgrwt>
<rscale>  0 0.92542315E+02</rscale>
<asrwt>0</asrwt>
<pdfrwt beam="2">  1        2 0.80857582E-02 0.92542315E+02</pdfrwt>
<pdfrwt beam="1">  1       -2 0.62671958E-02 0.92542315E+02</pdfrwt>
<totfact> 0.98159799E+04</totfact>
</mgrwt>
</event>
<event>
 7    1  0.3480999E-009  0.9014492E+02  0.7818608E-02  0.1302501E+00
          2   -1    0    0  501    0  0.00000000000E+00  0.00000000000E+00  0.13572320945E+02  0.13572321185E+02  0.25500000000E-02 0. -1.
         -2   -1    0    0    0  501 -0.00000000000E+00 -0.00000000000E+00 -0.14968159086E+03  0.14968159088E+03  0.25500000000E-02 0.  1.
         23    2    1    2    0    0 -0.17763568394E-14  0.00000000000E+00 -0.13610926991E+03  0.16325391206E+03  0.90144919147E+02 0.  0.
    9000005    2    3    3    0    0 -0.12346443092E+02 -0.33876900064E+02 -0.22662013708E+02  0.44214595217E+02  0.11886317762E+02 0.  0.
         22    1    3    3    0    0  0.12346443092E+02  0.33876900064E+02 -0.11344725621E+03  0.11903931685E+03  0.00000000000E+00 0. -1.
         22    1    4    4    0    0 -0.10334728010E+02 -0.15088425663E+02 -0.66930078593E+01  0.19474689888E+02  0.00000000000E+00 0. -1.
         22    1    4    4    0    0 -0.20117150813E+01 -0.18788474402E+02 -0.15969005848E+02  0.24739905329E+02  0.00000000000E+00 0. -1.
<mgrwt>
<rscale>  0 0.90144919E+02</rscale>
<asrwt>0</asrwt>
<pdfrwt beam="1">  1        2 0.20880495E-02 0.90144919E+02</pdfrwt>
<pdfrwt beam="2">  1       -2 0.23027936E-01 0.90144919E+02</pdfrwt>
<totfact> 0.71952695E+04</totfact>
</mgrwt>
</event>
<event>
 7    1  0.3480999E-009  0.9201816E+02  0.7818608E-02  0.1298037E+00
         -2   -1    0    0    0  501 -0.00000000000E+00  0.00000000000E+00  0.11806145827E+02  0.11806146102E+02  0.25500000000E-02 0.  1.
          2   -1    0    0  501    0  0.00000000000E+00 -0.00000000000E+00 -0.17929946307E+03  0.17929946309E+03  0.25500000000E-02 0. -1.
         23    2    1    2    0    0 -0.44408920985E-15  0.00000000000E+00 -0.16749331725E+03  0.19110560919E+03  0.92018164202E+02 0.  0.
    9000005    2    3    3    0    0  0.26505080014E+01  0.20012188857E+02 -0.16954987808E+03  0.17081417410E+03  0.47757745331E+01 0.  0.
         22    1    3    3    0    0 -0.26505080014E+01 -0.20012188857E+02  0.20565608340E+01  0.20291435089E+02  0.00000000000E+00 0.  1.
         22    1    4    4    0    0  0.13904896197E+00  0.10016788727E+02 -0.10072480976E+03  0.10122175009E+03  0.00000000000E+00 0. -1.
         22    1    4    4    0    0  0.25114590394E+01  0.99954001303E+01 -0.68825068323E+02  0.69592424012E+02  0.00000000000E+00 0. -1.
<mgrwt>
<rscale>  0 0.92018164E+02</rscale>
<asrwt>0</asrwt>
<pdfrwt beam="2">  1        2 0.27584531E-01 0.92018164E+02</pdfrwt>
<pdfrwt beam="1">  1       -2 0.18163303E-02 0.92018164E+02</pdfrwt>
<totfact> 0.14509220E+05</totfact>
</mgrwt>
</event>
<event>
 7    1  0.3480999E-009  0.8605763E+02  0.7818608E-02  0.1312690E+00
          2   -1    0    0  501    0  0.00000000000E+00  0.00000000000E+00  0.40621470915E+01  0.40621478919E+01  0.25500000000E-02 0.  1.
         -2   -1    0    0    0  501 -0.00000000000E+00 -0.00000000000E+00 -0.45578819433E+03  0.45578819433E+03  0.25500000000E-02 0. -1.
         23    2    1    2    0    0  0.00000000000E+00  0.88817841970E-15 -0.45172604724E+03  0.45985034223E+03  0.86057628914E+02 0.  0.
    9000005    2    3    3    0    0 -0.29123834701E+02 -0.60231247987E+01 -0.39111194662E+03  0.39233334457E+03  0.85101519618E+01 0.  0.
         22    1    3    3    0    0  0.29123834701E+02  0.60231247987E+01 -0.60614100611E+02  0.67516997659E+02  0.00000000000E+00 0.  1.
         22    1    4    4    0    0 -0.18853939344E+02 -0.28102978882E+01 -0.19596575523E+03  0.19689069563E+03  0.00000000000E+00 0.  1.
         22    1    4    4    0    0 -0.10269895357E+02 -0.32128269105E+01 -0.19514619139E+03  0.19544264893E+03  0.00000000000E+00 0.  1.
<mgrwt>
<rscale>  0 0.86057629E+02</rscale>
<asrwt>0</asrwt>
<pdfrwt beam="1">  1        2 0.62494613E-03 0.86057629E+02</pdfrwt>
<pdfrwt beam="2">  1       -2 0.70121221E-01 0.86057629E+02</pdfrwt>
<totfact> 0.45202995E+04</totfact>
</mgrwt>
</event>
<event>
 7    1  0.3480999E-009  0.1138353E+03  0.7818608E-02  0.1253628E+00
         -2   -1    0    0    0  501 -0.00000000000E+00  0.00000000000E+00  0.42554012087E+01  0.42554019728E+01  0.25500000000E-02 0.  1.
          2   -1    0    0  501    0  0.00000000000E+00 -0.00000000000E+00 -0.76129534402E+03  0.76129534403E+03  0.25500000000E-02 0. -1.
         23    2    1    2    0    0  0.00000000000E+00  0.00000000000E+00 -0.75703994281E+03  0.76555074600E+03  0.11383527434E+03 0.  0.
    9000005    2    3    3    0    0  0.28912752085E+02  0.44800664710E+02 -0.50050446219E+03  0.50353261760E+03  0.14047545067E+02 0.  0.
         22    1    3    3    0    0 -0.28912752085E+02 -0.44800664710E+02 -0.25653548062E+03  0.26201812840E+03  0.00000000000E+00 0.  1.
         22    1    4    4    0    0  0.16067018460E+02  0.13389821349E+02 -0.21646457565E+03  0.21747263945E+03  0.00000000000E+00 0.  1.
         22    1    4    4    0    0  0.12845733625E+02  0.31410843361E+02 -0.28403988654E+03  0.28605997814E+03  0.00000000000E+00 0.  1.
<mgrwt>
<rscale>  0 0.11383527E+03</rscale>
<asrwt>0</asrwt>
<pdfrwt beam="2">  1        2 0.11712225E+00 0.11383527E+03</pdfrwt>
<pdfrwt beam="1">  1       -2 0.65467778E-03 0.11383527E+03</pdfrwt>
<totfact> 0.13364329E+05</totfact>
</mgrwt>
</event>
<event>
 7    1  0.3480999E-009  0.9207427E+02  0.7818608E-02  0.1297905E+00
         -2   -1    0    0    0  501 -0.00000000000E+00  0.00000000000E+00  0.32787005283E+01  0.32787015199E+01  0.25500000000E-02 0.  1.
          2   -1    0    0  501    0  0.00000000000E+00 -0.00000000000E+00 -0.64641995280E+03  0.64641995281E+03  0.25500000000E-02 0. -1.
         23    2    1    2    0    0  0.88817841970E-15  0.00000000000E+00 -0.64314125227E+03  0.64969865433E+03  0.92074269250E+02 0.  0.
    9000005    2    3    3    0    0 -0.57288268505E+01 -0.37265578500E+02 -0.50444464109E+03  0.50596872442E+03  0.10881698671E+02 0.  0.
         22    1    3    3    0    0  0.57288268505E+01  0.37265578500E+02 -0.13869661118E+03  0.14372992991E+03  0.00000000000E+00 0.  1.
         22    1    4    4    0    0  0.30857494027E+01 -0.78613209771E+01 -0.94702105837E+02  0.95077921027E+02  0.00000000000E+00 0.  1.
         22    1    4    4    0    0 -0.88145762532E+01 -0.29404257522E+02 -0.40974253525E+03  0.41089080339E+03  0.00000000000E+00 0.  1.
<mgrwt>
<rscale>  0 0.92074269E+02</rscale>
<asrwt>0</asrwt>
<pdfrwt beam="2">  1        2 0.99449122E-01 0.92074269E+02</pdfrwt>
<pdfrwt beam="1">  1       -2 0.50441606E-03 0.92074269E+02</pdfrwt>
<totfact> 0.22658205E+05</totfact>
</mgrwt>
</event>
<event>
 7    1  0.3480999E-009  0.9161856E+02  0.7818608E-02  0.1298979E+00
          2   -1    0    0  501    0  0.00000000000E+00  0.00000000000E+00  0.58680862501E+02  0.58680862556E+02  0.25500000000E-02 0. -1.
         -2   -1    0    0    0  501 -0.00000000000E+00 -0.00000000000E+00 -0.35761067173E+02  0.35761067264E+02  0.25500000000E-02 0.  1.
         23    2    1    2    0    0  0.00000000000E+00  0.00000000000E+00  0.22919795328E+02  0.94441929820E+02  0.91618563022E+02 0.  0.
    9000005    2    3    3    0    0 -0.21608237791E+02 -0.20747435724E+02  0.46400665950E+02  0.56379831682E+02  0.11326587761E+02 0.  0.
         22    1    3    3    0    0  0.21608237791E+02  0.20747435724E+02 -0.23480870622E+02  0.38062098138E+02  0.00000000000E+00 0.  1.
         22    1    4    4    0    0 -0.12720823643E+02 -0.14426279370E+02  0.38081230404E+02  0.42662829251E+02  0.00000000000E+00 0.  1.
         22    1    4    4    0    0 -0.88874141471E+01 -0.63211563545E+01  0.83194355460E+01  0.13717002431E+02  0.00000000000E+00 0.  1.
<mgrwt>
<rscale>  0 0.91618563E+02</rscale>
<asrwt>0</asrwt>
<pdfrwt beam="1">  1        2 0.90278250E-02 0.91618563E+02</pdfrwt>
<pdfrwt beam="2">  1       -2 0.55017027E-02 0.91618563E+02</pdfrwt>
<totfact> 0.10400836E+05</totfact>
</mgrwt>
</event>
<event>
 7    1  0.3480999E-009  0.9127452E+02  0.7818608E-02  0.1299794E+00
         -2   -1    0    0    0  501 -0.00000000000E+00  0.00000000000E+00  0.62600683405E+01  0.62600688599E+01  0.25500000000E-02 0.  1.
          2   -1    0    0  501    0  0.00000000000E+00 -0.00000000000E+00 -0.33270553990E+03  0.33270553991E+03  0.25500000000E-02 0. -1.
         23    2    1    2    0    0 -0.35527136788E-14  0.00000000000E+00 -0.32644547156E+03  0.33896560877E+03  0.91274520140E+02 0.  0.
    9000005    2    3    3    0    0  0.24975926512E+02  0.29190888280E+02 -0.25076898584E+03  0.25409608919E+03  0.14277024055E+02 0.  0.
         22    1    3    3    0    0 -0.24975926512E+02 -0.29190888280E+02 -0.75676485715E+02  0.84869519581E+02  0.00000000000E+00 0.  1.
         22    1    4    4    0    0  0.20062841801E+02  0.15230730389E+02 -0.12946801303E+03  0.13189563741E+03  0.00000000000E+00 0.  1.
         22    1    4    4    0    0  0.49130847112E+01  0.13960157891E+02 -0.12130097281E+03  0.12220045178E+03  0.00000000000E+00 0.  1.
<mgrwt>
<rscale>  0 0.91274520E+02</rscale>
<asrwt>0</asrwt>
<pdfrwt beam="2">  1        2 0.51185454E-01 0.91274520E+02</pdfrwt>
<pdfrwt beam="1">  1       -2 0.96308773E-03 0.91274520E+02</pdfrwt>
<totfact> 0.18615624E+05</totfact>
</mgrwt>
</event>
<event>
 7    1  0.3480999E-009  0.9124961E+02  0.7818608E-02  0.1299854E+00
         -2   -1    0    0    0  501 -0.00000000000E+00  0.00000000000E+00  0.10492821079E+02  0.10492821388E+02  0.25500000000E-02 0.  1.
          2   -1    0    0  501    0  0.00000000000E+00 -0.00000000000E+00 -0.19838541568E+03  0.19838541570E+03  0.25500000000E-02 0. -1.
         23    2    1    2    0    0 -0.35527136788E-14  0.00000000000E+00 -0.18789259460E+03  0.20887823709E+03  0.91249607241E+02 0.  0.
    9000005    2    3    3    0    0 -0.27305261812E+02 -0.32354946647E+02 -0.13177231339E+03  0.13857954678E+03  0.69230278660E+01 0.  0.
         22    1    3    3    0    0  0.27305261812E+02  0.32354946647E+02 -0.56120281215E+02  0.70298690306E+02  0.00000000000E+00 0.  1.
         22    1    4    4    0    0 -0.24112136955E+02 -0.30761970082E+02 -0.12427152285E+03  0.13027319503E+03  0.00000000000E+00 0. -1.
         22    1    4    4    0    0 -0.31931248575E+01 -0.15929765651E+01 -0.75007905366E+01  0.83063517483E+01  0.00000000000E+00 0. -1.
<mgrwt>
<rscale>  0 0.91249607E+02</rscale>
<asrwt>0</asrwt>
<pdfrwt beam="2">  1        2 0.30520830E-01 0.91249607E+02</pdfrwt>
<pdfrwt beam="1">  1       -2 0.16142803E-02 0.91249607E+02</pdfrwt>
<totfact> 0.15389593E+05</totfact>
</mgrwt>
</event>
<event>
 7    1  0.3480999E-009  0.8701487E+02  0.7818608E-02  0.1310246E+00
          2   -1    0    0  501    0  0.00000000000E+00  0.00000000000E+00  0.55232396294E+01  0.55232402181E+01  0.25500000000E-02 0. -1.
         -2   -1    0    0    0  501 -0.00000000000E+00 -0.00000000000E+00 -0.34271498965E+03  0.34271498966E+03  0.25500000000E-02 0.  1.
         23    2    1    2    0    0  0.00000000000E+00  0.00000000000E+00 -0.33719175002E+03  0.34823822988E+03  0.87014874971E+02 0.  0.
    9000005    2    3    3    0    0  0.27519510123E+02 -0.31055110636E+01 -0.30284769955E+03  0.30411928339E+03  0.22004025704E+01 0.  0.
         22    1    3    3    0    0 -0.27519510123E+02  0.31055110636E+01 -0.34344050474E+02  0.44118946490E+02  0.00000000000E+00 0. -1.
         22    1    4    4    0    0  0.76551222269E+01 -0.14931036282E+01 -0.77036523952E+02  0.77430331766E+02  0.00000000000E+00 0.  1.
         22    1    4    4    0    0  0.19864387896E+02 -0.16124074354E+01 -0.22581117559E+03  0.22668895162E+03  0.00000000000E+00 0.  1.
<mgrwt>
<rscale>  0 0.87014875E+02</rscale>
<asrwt>0</asrwt>
<pdfrwt beam="1">  1        2 0.84972949E-03 0.87014875E+02</pdfrwt>
<pdfrwt beam="2">  1       -2 0.52725366E-01 0.87014875E+02</pdfrwt>
<totfact> 0.53195413E+04</totfact>
</mgrwt>
</event>
<event>
 7    1  0.3480999E-009  0.9083629E+02  0.7818608E-02  0.1300839E+00
          2   -1    0    0  501    0  0.00000000000E+00  0.00000000000E+00  0.14073644947E+03  0.14073644949E+03  0.25500000000E-02 0. -1.
         -2   -1    0    0    0  501 -0.00000000000E+00 -0.00000000000E+00 -0.14657239822E+02  0.14657240044E+02  0.25500000000E-02 0.  1.
         23    2    1    2    0    0  0.00000000000E+00 -0.44408920985E-15  0.12607920965E+03  0.15539368954E+03  0.90836290338E+02 0.  0.
    9000005    2    3    3    0    0  0.17043262158E+02 -0.13212228392E+01  0.13440780645E+03  0.13637832892E+03  0.15536143267E+02 0.  0.
         22    1    3    3    0    0 -0.17043262158E+02  0.13212228392E+01 -0.83285968053E+01  0.19015360621E+02  0.00000000000E+00 0.  1.
         22    1    4    4    0    0  0.28937428258E+01 -0.60057199018E+01  0.67608368622E+02  0.67936248990E+02  0.00000000000E+00 0.  1.
         22    1    4    4    0    0  0.14149519332E+02  0.46844970626E+01  0.66799437831E+02  0.68442079926E+02  0.00000000000E+00 0.  1.
<mgrwt>
<rscale>  0 0.90836290E+02</rscale>
<asrwt>0</asrwt>
<pdfrwt beam="1">  1        2 0.21651762E-01 0.90836290E+02</pdfrwt>
<pdfrwt beam="2">  1       -2 0.22549599E-02 0.90836290E+02</pdfrwt>
<totfact> 0.13823256E+05</totfact>
</mgrwt>
</event>
<event>
 7    1  0.3480999E-009  0.8936382E+02  0.7818608E-02  0.1304400E+00
         -2   -1    0    0    0  501 -0.00000000000E+00  0.00000000000E+00  0.23968207673E+03  0.23968207674E+03  0.25500000000E-02 0.  1.
          2   -1    0    0  501    0  0.00000000000E+00 -0.00000000000E+00 -0.83296709537E+01  0.83296713441E+01  0.25500000000E-02 0. -1.
         23    2    1    2    0    0  0.71054273576E-14  0.00000000000E+00  0.23135240578E+03  0.24801174809E+03  0.89363815558E+02 0.  0.
    9000005    2    3    3    0    0 -0.40564760087E+02  0.17313316388E+02  0.13151134259E+03  0.13886281963E+03  0.65114330741E+01 0.  0.
         22    1    3    3    0    0  0.40564760087E+02 -0.17313316388E+02  0.99841063189E+02  0.10914892846E+03  0.00000000000E+00 0.  1.
         22    1    4    4    0    0 -0.35263121475E+02  0.12544966925E+02  0.11210248540E+03  0.11818557934E+03  0.00000000000E+00 0. -1.
         22    1    4    4    0    0 -0.53016386113E+01  0.47683494627E+01  0.19408857189E+02  0.20677240289E+02  0.00000000000E+00 0. -1.
<mgrwt>
<rscale>  0 0.89363816E+02</rscale>
<asrwt>0</asrwt>
<pdfrwt beam="2">  1        2 0.12814878E-02 0.89363816E+02</pdfrwt>
<pdfrwt beam="1">  1       -2 0.36874168E-01 0.89363816E+02</pdfrwt>
<totfact> 0.60382934E+04</totfact>
</mgrwt>
</event>
<event>
 7    1  0.4275033E-009  0.9064466E+02  0.7818608E-02  0.1301298E+00
          2   -1    0    0  501    0  0.00000000000E+00  0.00000000000E+00  0.20217921428E+04  0.20217921428E+04  0.25500000000E-02 0.  1.
         -2   -1    0    0    0  501 -0.00000000000E+00 -0.00000000000E+00 -0.10159849168E+01  0.10159881169E+01  0.25500000000E-02 0. -1.
         23    2    1    2    0    0  0.00000000000E+00 -0.88817841970E-15  0.20207761579E+04  0.20228081309E+04  0.90644659196E+02 0.  0.
    9000005    2    3    3    0    0  0.89754284313E+01 -0.74475283115E+01  0.19868367158E+04  0.19869206718E+04  0.14056911560E+02 0.  0.
         22    1    3    3    0    0 -0.89754284313E+01  0.74475283115E+01  0.33939442101E+02  0.35887459141E+02  0.00000000000E+00 0. -1.
         22    1    4    4    0    0  0.70144393834E+01 -0.95931358095E+01  0.88116194878E+03  0.88124208399E+03  0.00000000000E+00 0.  1.
         22    1    4    4    0    0  0.19609890479E+01  0.21456074980E+01  0.11056747670E+04  0.11056785878E+04  0.00000000000E+00 0.  1.
<mgrwt>
<rscale>  0 0.90644659E+02</rscale>
<asrwt>0</asrwt>
<pdfrwt beam="1">  1        2 0.31104546E+00 0.90644659E+02</pdfrwt>
<pdfrwt beam="2">  1       -2 0.15630536E-03 0.90644659E+02</pdfrwt>
<totfact> 0.19783557E+05</totfact>
</mgrwt>
</event>
<event>
 7    1  0.3480999E-009  0.1063811E+03  0.7818608E-02  0.1267422E+00
          2   -1    0    0  501    0  0.00000000000E+00  0.00000000000E+00  0.21857102415E+04  0.21857102415E+04  0.25500000000E-02 0. -1.
         -2   -1    0    0    0  501 -0.00000000000E+00 -0.00000000000E+00 -0.12944211396E+01  0.12944236513E+01  0.25500000000E-02 0.  1.
         23    2    1    2    0    0  0.35527136788E-14  0.00000000000E+00  0.21844158204E+04  0.21870046652E+04  0.10638105639E+03 0.  0.
    9000005    2    3    3    0    0  0.21509328434E+02 -0.46554355181E+01  0.20876100224E+04  0.20877288533E+04  0.34402352119E+01 0.  0.
         22    1    3    3    0    0 -0.21509328434E+02  0.46554355181E+01  0.96805798021E+02  0.99275811858E+02  0.00000000000E+00 0.  1.
         22    1    4    4    0    0  0.17048061343E+02 -0.48986526536E+01  0.17295906444E+04  0.17296815980E+04  0.00000000000E+00 0. -1.
         22    1    4    4    0    0  0.44612670915E+01  0.24321713550E+00  0.35801937792E+03  0.35804725530E+03  0.00000000000E+00 0. -1.
<mgrwt>
<rscale>  0 0.10638106E+03</rscale>
<asrwt>0</asrwt>
<pdfrwt beam="1">  1        2 0.33626535E+00 0.10638106E+03</pdfrwt>
<pdfrwt beam="2">  1       -2 0.19914058E-03 0.10638106E+03</pdfrwt>
<totfact> 0.11883079E+05</totfact>
</mgrwt>
</event>
<event>
 7    1  0.3480999E-009  0.9589330E+02  0.7818608E-02  0.1289177E+00
         -2   -1    0    0    0  501 -0.00000000000E+00  0.00000000000E+00  0.16970653552E+02  0.16970653743E+02  0.25500000000E-02 0.  1.
          2   -1    0    0  501    0  0.00000000000E+00 -0.00000000000E+00 -0.13546216136E+03  0.13546216138E+03  0.25500000000E-02 0. -1.
         23    2    1    2    0    0  0.00000000000E+00  0.00000000000E+00 -0.11849150781E+03  0.15243281513E+03  0.95893303754E+02 0.  0.
    9000005    2    3    3    0    0 -0.22957979539E+02 -0.15526588920E+02  0.25087412091E+01  0.28299000031E+02  0.51376874455E+01 0.  0.
         22    1    3    3    0    0  0.22957979539E+02  0.15526588920E+02 -0.12100024902E+03  0.12413381509E+03  0.00000000000E+00 0. -1.
         22    1    4    4    0    0 -0.18241673074E+02 -0.13653496842E+02  0.36029026899E+00  0.22788295716E+02  0.00000000000E+00 0. -1.
         22    1    4    4    0    0 -0.47163064649E+01 -0.18730920775E+01  0.21484509401E+01  0.55107043147E+01  0.00000000000E+00 0. -1.
<mgrwt>
<rscale>  0 0.95893304E+02</rscale>
<asrwt>0</asrwt>
<pdfrwt beam="2">  1        2 0.20840332E-01 0.95893304E+02</pdfrwt>
<pdfrwt beam="1">  1       -2 0.26108699E-02 0.95893304E+02</pdfrwt>
<totfact> 0.11769998E+05</totfact>
</mgrwt>
</event>
<event>
 7    1  0.3480999E-009  0.9029293E+02  0.7818608E-02  0.1302144E+00
          2   -1    0    0  501    0  0.00000000000E+00  0.00000000000E+00  0.24225105444E+02  0.24225105579E+02  0.25500000000E-02 0. -1.
         -2   -1    0    0    0  501 -0.00000000000E+00 -0.00000000000E+00 -0.84136001563E+02  0.84136001602E+02  0.25500000000E-02 0.  1.
         23    2    1    2    0    0  0.00000000000E+00  0.00000000000E+00 -0.59910896119E+02  0.10836110718E+03  0.90292934804E+02 0.  0.
    9000005    2    3    3    0    0  0.22773674072E+01 -0.11437771549E+02 -0.82077911941E+02  0.83313440407E+02  0.82666017009E+01 0.  0.
         22    1    3    3    0    0 -0.22773674072E+01  0.11437771549E+02  0.22167015822E+02  0.25047666773E+02  0.00000000000E+00 0. -1.
         22    1    4    4    0    0 -0.26992166655E+01 -0.33961281310E+01 -0.16662100064E+02  0.17217579256E+02  0.00000000000E+00 0. -1.
         22    1    4    4    0    0  0.49765840726E+01 -0.80416434179E+01 -0.65415811876E+02  0.66095861151E+02  0.00000000000E+00 0. -1.
<mgrwt>
<rscale>  0 0.90292935E+02</rscale>
<asrwt>0</asrwt>
<pdfrwt beam="1">  1        2 0.37269393E-02 0.90292935E+02</pdfrwt>
<pdfrwt beam="2">  1       -2 0.12944000E-01 0.90292935E+02</pdfrwt>
<totfact> 0.85931196E+04</totfact>
</mgrwt>
</event>
<event>
 7    1  0.3480999E-009  0.9028868E+02  0.7818608E-02  0.1302154E+00
         -2   -1    0    0    0  501 -0.00000000000E+00  0.00000000000E+00  0.62845728676E+01  0.62845733850E+01  0.25500000000E-02 0.  1.
          2   -1    0    0  501    0  0.00000000000E+00 -0.00000000000E+00 -0.32428793231E+03  0.32428793232E+03  0.25500000000E-02 0. -1.
         23    2    1    2    0    0 -0.17763568394E-14  0.00000000000E+00 -0.31800335944E+03  0.33057250570E+03  0.90288675433E+02 0.  0.
    9000005    2    3    3    0    0 -0.14275584545E+02 -0.15166992275E+02 -0.30486242971E+03  0.30594500070E+03  0.15080199983E+02 0.  0.
         22    1    3    3    0    0  0.14275584545E+02  0.15166992275E+02 -0.13140929727E+02  0.24627505007E+02  0.00000000000E+00 0.  1.
         22    1    4    4    0    0 -0.14592844160E+01 -0.28571561153E+00 -0.22563026407E+01  0.27022298244E+01  0.00000000000E+00 0.  1.
         22    1    4    4    0    0 -0.12816300129E+02 -0.14881276664E+02 -0.30260612707E+03  0.30324277087E+03  0.00000000000E+00 0.  1.
<mgrwt>
<rscale>  0 0.90288675E+02</rscale>
<asrwt>0</asrwt>
<pdfrwt beam="2">  1        2 0.49890438E-01 0.90288675E+02</pdfrwt>
<pdfrwt beam="1">  1       -2 0.96685766E-03 0.90288675E+02</pdfrwt>
<totfact> 0.18981092E+05</totfact>
</mgrwt>
</event>
<event>
 7    1  0.3480999E-009  0.9933805E+02  0.7818608E-02  0.1281694E+00
         -2   -1    0    0    0  501 -0.00000000000E+00  0.00000000000E+00  0.87119831289E+02  0.87119831326E+02  0.25500000000E-02 0.  1.
          2   -1    0    0  501    0  0.00000000000E+00 -0.00000000000E+00 -0.28317458101E+02  0.28317458216E+02  0.25500000000E-02 0. -1.
         23    2    1    2    0    0  0.35527136788E-14  0.00000000000E+00  0.58802373187E+02  0.11543728954E+03  0.99338052751E+02 0.  0.
    9000005    2    3    3    0    0  0.16717196891E+02  0.37700042983E+02 -0.22461829674E+00  0.43430736810E+02  0.13616920857E+02 0.  0.
         22    1    3    3    0    0 -0.16717196891E+02 -0.37700042983E+02  0.59026991484E+02  0.72006552733E+02  0.00000000000E+00 0.  1.
         22    1    4    4    0    0  0.17198827312E+02  0.29815030830E+02 -0.40429623845E+01  0.34656619413E+02  0.00000000000E+00 0.  1.
         22    1    4    4    0    0 -0.48163042092E+00  0.78850121533E+01  0.38183440877E+01  0.87741173968E+01  0.00000000000E+00 0.  1.
<mgrwt>
<rscale>  0 0.99338053E+02</rscale>
<asrwt>0</asrwt>
<pdfrwt beam="2">  1        2 0.43565321E-02 0.99338053E+02</pdfrwt>
<pdfrwt beam="1">  1       -2 0.13403051E-01 0.99338053E+02</pdfrwt>
<totfact> 0.67236217E+04</totfact>
</mgrwt>
</event>
<event>
 7    1  0.3480999E-009  0.9376484E+02  0.7818608E-02  0.1293982E+00
         -2   -1    0    0    0  501 -0.00000000000E+00  0.00000000000E+00  0.18055686841E+01  0.18055704848E+01  0.25500000000E-02 0.  1.
          2   -1    0    0  501    0  0.00000000000E+00 -0.00000000000E+00 -0.12173228837E+04  0.12173228837E+04  0.25500000000E-02 0. -1.
         23    2    1    2    0    0  0.00000000000E+00 -0.88817841970E-15 -0.12155173150E+04  0.12191284542E+04  0.93764837258E+02 0.  0.
    9000005    2    3    3    0    0  0.11418994210E+02  0.56085071480E+01 -0.11941639924E+04  0.11942726064E+04  0.98776988771E+01 0.  0.
         22    1    3    3    0    0 -0.11418994210E+02 -0.56085071480E+01 -0.21353322619E+02  0.24855847764E+02  0.00000000000E+00 0.  1.
         22    1    4    4    0    0  0.92114543342E+00 -0.13621510804E+01 -0.44202969185E+03  0.44203275041E+03  0.00000000000E+00 0.  1.
         22    1    4    4    0    0  0.10497848777E+02  0.69706582283E+01 -0.75213430052E+03  0.75223985598E+03  0.00000000000E+00 0.  1.
<mgrwt>
<rscale>  0 0.93764837E+02</rscale>
<asrwt>0</asrwt>
<pdfrwt beam="2">  1        2 0.18727979E+00 0.93764837E+02</pdfrwt>
<pdfrwt beam="1">  1       -2 0.27778091E-03 0.93764837E+02</pdfrwt>
<totfact> 0.23060912E+05</totfact>
</mgrwt>
</event>
<event>
 7    1  0.3480999E-009  0.9214140E+02  0.7818608E-02  0.1297747E+00
          2   -1    0    0  501    0  0.00000000000E+00  0.00000000000E+00  0.12115973690E+03  0.12115973692E+03  0.25500000000E-02 0. -1.
         -2   -1    0    0    0  501 -0.00000000000E+00 -0.00000000000E+00 -0.17518273380E+02  0.17518273565E+02  0.25500000000E-02 0.  1.
         23    2    1    2    0    0 -0.71054273576E-14 -0.22204460493E-15  0.10364146352E+03  0.13867801049E+03  0.92141400212E+02 0.  0.
    9000005    2    3    3    0    0  0.38473909298E+02 -0.15381395521E+01  0.18010173175E+02  0.44788045873E+02  0.14106563911E+02 0.  0.
         22    1    3    3    0    0 -0.38473909298E+02  0.15381395521E+01  0.85631290341E+02  0.93889964615E+02  0.00000000000E+00 0. -1.
         22    1    4    4    0    0  0.17716979983E+02 -0.53398880527E+01  0.26623195562E+01  0.18694751390E+02  0.00000000000E+00 0. -1.
         22    1    4    4    0    0  0.20756929315E+02  0.38017485006E+01  0.15347853619E+02  0.26093294483E+02  0.00000000000E+00 0. -1.
<mgrwt>
<rscale>  0 0.92141400E+02</rscale>
<asrwt>0</asrwt>
<pdfrwt beam="1">  1        2 0.18639960E-01 0.92141400E+02</pdfrwt>
<pdfrwt beam="2">  1       -2 0.26951189E-02 0.92141400E+02</pdfrwt>
<totfact> 0.12656620E+05</totfact>
</mgrwt>
</event>
<event>
 7    1  0.3480999E-009  0.9250171E+02  0.7818608E-02  0.1296904E+00
         -2   -1    0    0    0  501 -0.00000000000E+00  0.00000000000E+00  0.26242202147E+02  0.26242202271E+02  0.25500000000E-02 0. -1.
          2   -1    0    0  501    0  0.00000000000E+00 -0.00000000000E+00 -0.81515323245E+02  0.81515323285E+02  0.25500000000E-02 0.  1.
         23    2    1    2    0    0  0.00000000000E+00  0.00000000000E+00 -0.55273121098E+02  0.10775752556E+03  0.92501710244E+02 0.  0.
    9000005    2    3    3    0    0  0.20811352459E+02 -0.20238949269E+02  0.13294431197E+02  0.33297894303E+02  0.94488309044E+01 0.  0.
         22    1    3    3    0    0 -0.20811352459E+02  0.20238949269E+02 -0.68567552295E+02  0.74459631254E+02  0.00000000000E+00 0.  1.
         22    1    4    4    0    0  0.16625056960E+02 -0.15872677362E+02  0.14435139243E+02  0.27142358971E+02  0.00000000000E+00 0. -1.
         22    1    4    4    0    0  0.41862954992E+01 -0.43662719079E+01 -0.11407080459E+01  0.61555353322E+01  0.00000000000E+00 0. -1.
<mgrwt>
<rscale>  0 0.92501710E+02</rscale>
<asrwt>0</asrwt>
<pdfrwt beam="2">  1        2 0.12540819E-01 0.92501710E+02</pdfrwt>
<pdfrwt beam="1">  1       -2 0.40372619E-02 0.92501710E+02</pdfrwt>
<totfact> 0.11093166E+05</totfact>
</mgrwt>
</event>
<event>
 7    1  0.3480999E-009  0.9596805E+02  0.7818608E-02  0.1289011E+00
         -2   -1    0    0    0  501 -0.00000000000E+00  0.00000000000E+00  0.28506778100E+02  0.28506778214E+02  0.25500000000E-02 0.  1.
          2   -1    0    0  501    0  0.00000000000E+00 -0.00000000000E+00 -0.80769098569E+02  0.80769098609E+02  0.25500000000E-02 0. -1.
         23    2    1    2    0    0  0.00000000000E+00  0.00000000000E+00 -0.52262320469E+02  0.10927587682E+03  0.95968052573E+02 0.  0.
    9000005    2    3    3    0    0 -0.44774414805E+02 -0.73660391477E+01 -0.12374434536E+02  0.48860231514E+02  0.13235892098E+02 0.  0.
         22    1    3    3    0    0  0.44774414805E+02  0.73660391477E+01 -0.39887885933E+02  0.60415645309E+02  0.00000000000E+00 0. -1.
         22    1    4    4    0    0 -0.37704202724E+02 -0.60270459354E+01 -0.49187779360E+01  0.38498396877E+02  0.00000000000E+00 0. -1.
         22    1    4    4    0    0 -0.70702120813E+01 -0.13389932123E+01 -0.74556565999E+01  0.10361834636E+02  0.00000000000E+00 0. -1.
<mgrwt>
<rscale>  0 0.95968053E+02</rscale>
<asrwt>0</asrwt>
<pdfrwt beam="2">  1        2 0.12426015E-01 0.95968053E+02</pdfrwt>
<pdfrwt beam="1">  1       -2 0.43856582E-02 0.95968053E+02</pdfrwt>
<totfact> 0.99826084E+04</totfact>
</mgrwt>
</event>
<event>
 6    1  0.3550850E-009  0.2207460E+03  0.7818608E-02  0.1133328E+00
          2   -1    0    0  501    0  0.00000000000E+00  0.00000000000E+00  0.19164379584E+03  0.19164379586E+03  0.25500000000E-02 0.  1.
         -2   -1    0    0    0  501 -0.00000000000E+00 -0.00000000000E+00 -0.63566911244E+02  0.63566911295E+02  0.25500000000E-02 0. -1.
    9000005    2    1    2    0    0 -0.10919349090E+03 -0.11342310013E+02  0.75502263234E+02  0.13348989027E+03  0.81910071578E+01 0.  0.
         22    1    1    2    0    0  0.10919349090E+03  0.11342310013E+02  0.52574621364E+02  0.12172081689E+03  0.00000000000E+00 0.  1.
         22    1    3    3    0    0 -0.39329682459E+02 -0.83197953911E+00  0.29718310722E+02  0.49302069981E+02  0.00000000000E+00 0. -1.
         22    1    3    3    0    0 -0.69863808444E+02 -0.10510330474E+02  0.45783952512E+02  0.84187820286E+02  0.00000000000E+00 0. -1.
<mgrwt>
<rscale>  0 0.22074605E+03</rscale>
<asrwt>0</asrwt>
<pdfrwt beam="1">  1        2 0.29483661E-01 0.22074605E+03</pdfrwt>
<pdfrwt beam="2">  1       -2 0.97795249E-02 0.22074605E+03</pdfrwt>
<totfact> 0.11991534E+04</totfact>
</mgrwt>
</event>
<event>
 7    1  0.3480999E-009  0.9061342E+02  0.7818608E-02  0.1301373E+00
          2   -1    0    0  501    0  0.00000000000E+00  0.00000000000E+00  0.81260741837E+01  0.81260745838E+01  0.25500000000E-02 0.  1.
         -2   -1    0    0    0  501 -0.00000000000E+00 -0.00000000000E+00 -0.25260633740E+03  0.25260633741E+03  0.25500000000E-02 0. -1.
         23    2    1    2    0    0 -0.35527136788E-14  0.00000000000E+00 -0.24448026322E+03  0.26073241200E+03  0.90613418230E+02 0.  0.
    9000005    2    3    3    0    0  0.18654188752E+02  0.12712445247E+02 -0.23493038278E+03  0.23622149119E+03  0.99359513071E+01 0.  0.
         22    1    3    3    0    0 -0.18654188752E+02 -0.12712445247E+02 -0.95498804387E+01  0.24510920801E+02  0.00000000000E+00 0.  1.
         22    1    4    4    0    0  0.93894089320E+01  0.12155872692E+02 -0.15127962709E+03  0.15205739645E+03  0.00000000000E+00 0. -1.
         22    1    4    4    0    0  0.92647798197E+01  0.55657255480E+00 -0.83650755684E+02  0.84164094747E+02  0.00000000000E+00 0. -1.
<mgrwt>
<rscale>  0 0.90613418E+02</rscale>
<asrwt>0</asrwt>
<pdfrwt beam="1">  1        2 0.12501655E-02 0.90613418E+02</pdfrwt>
<pdfrwt beam="2">  1       -2 0.38862508E-01 0.90613418E+02</pdfrwt>
<totfact> 0.56781945E+04</totfact>
</mgrwt>
</event>
<event>
 7    1  0.3480999E-009  0.9112769E+02  0.7818608E-02  0.1300144E+00
         -2   -1    0    0    0  501 -0.00000000000E+00  0.00000000000E+00  0.98767502616E+01  0.98767505908E+01  0.25500000000E-02 0.  1.
          2   -1    0    0  501    0  0.00000000000E+00 -0.00000000000E+00 -0.21019708706E+03  0.21019708707E+03  0.25500000000E-02 0. -1.
         23    2    1    2    0    0  0.00000000000E+00  0.00000000000E+00 -0.20032033680E+03  0.22007383766E+03  0.91127694418E+02 0.  0.
    9000005    2    3    3    0    0 -0.29604119717E+01  0.44829793989E+02 -0.11807701702E+03  0.12635917438E+03  0.24463301889E+01 0.  0.
         22    1    3    3    0    0  0.29604119717E+01 -0.44829793989E+02 -0.82243319771E+02  0.93714663287E+02  0.00000000000E+00 0.  1.
         22    1    4    4    0    0 -0.19227283811E+01  0.39446043104E+02 -0.10246769842E+03  0.10981491893E+03  0.00000000000E+00 0. -1.
         22    1    4    4    0    0 -0.10376835906E+01  0.53837508854E+01 -0.15609318608E+02  0.16544255445E+02  0.00000000000E+00 0. -1.
<mgrwt>
<rscale>  0 0.91127694E+02</rscale>
<asrwt>0</asrwt>
<pdfrwt beam="2">  1        2 0.32338010E-01 0.91127694E+02</pdfrwt>
<pdfrwt beam="1">  1       -2 0.15195002E-02 0.91127694E+02</pdfrwt>
<totfact> 0.15772519E+05</totfact>
</mgrwt>
</event>
<event>
 7    1  0.3480999E-009  0.9226712E+02  0.7818608E-02  0.1297453E+00
         -2   -1    0    0    0  501 -0.00000000000E+00  0.00000000000E+00  0.68413580812E+01  0.68413585565E+01  0.25500000000E-02 0.  1.
          2   -1    0    0  501    0  0.00000000000E+00 -0.00000000000E+00 -0.31109398275E+03  0.31109398276E+03  0.25500000000E-02 0. -1.
         23    2    1    2    0    0  0.00000000000E+00  0.00000000000E+00 -0.30425262467E+03  0.31793534132E+03  0.92267121124E+02 0.  0.
    9000005    2    3    3    0    0  0.23548567958E+02  0.37964892363E+02 -0.11280576451E+03  0.12134498456E+03  0.18964878912E+01 0.  0.
         22    1    3    3    0    0 -0.23548567958E+02 -0.37964892363E+02 -0.19144686016E+03  0.19659035676E+03  0.00000000000E+00 0. -1.
         22    1    4    4    0    0  0.13702988687E+00  0.35533425373E-01 -0.31413630677E+00  0.34455976760E+00  0.00000000000E+00 0.  1.
         22    1    4    4    0    0  0.23411538071E+02  0.37929358938E+02 -0.11249162820E+03  0.12100042479E+03  0.00000000000E+00 0.  1.
<mgrwt>
<rscale>  0 0.92267121E+02</rscale>
<asrwt>0</asrwt>
<pdfrwt beam="2">  1        2 0.47860602E-01 0.92267121E+02</pdfrwt>
<pdfrwt beam="1">  1       -2 0.10525169E-02 0.92267121E+02</pdfrwt>
<totfact> 0.17641470E+05</totfact>
</mgrwt>
</event>
<event>
 7    1  0.3480999E-009  0.9082369E+02  0.7818608E-02  0.1300869E+00
         -2   -1    0    0    0  501 -0.00000000000E+00  0.00000000000E+00  0.33474165138E+02  0.33474165235E+02  0.25500000000E-02 0. -1.
          2   -1    0    0  501    0  0.00000000000E+00 -0.00000000000E+00 -0.61606789438E+02  0.61606789491E+02  0.25500000000E-02 0.  1.
         23    2    1    2    0    0 -0.44408920985E-15  0.00000000000E+00 -0.28132624300E+02  0.95080954726E+02  0.90823694054E+02 0.  0.
    9000005    2    3    3    0    0 -0.37763646254E+01 -0.43840260090E+02 -0.24461926371E+02  0.50925509333E+02  0.76676153065E+01 0.  0.
         22    1    3    3    0    0  0.37763646254E+01  0.43840260090E+02 -0.36706979293E+01  0.44155445393E+02  0.00000000000E+00 0. -1.
         22    1    4    4    0    0  0.12738127067E+00  0.28794433251E-01 -0.10290535948E+01  0.10373072874E+01  0.00000000000E+00 0. -1.
         22    1    4    4    0    0 -0.39037458961E+01 -0.43869054524E+02 -0.23432872776E+02  0.49888202046E+02  0.00000000000E+00 0. -1.
<mgrwt>
<rscale>  0 0.90823694E+02</rscale>
<asrwt>0</asrwt>
<pdfrwt beam="2">  1        2 0.94779676E-02 0.90823694E+02</pdfrwt>
<pdfrwt beam="1">  1       -2 0.51498716E-02 0.90823694E+02</pdfrwt>
<totfact> 0.10799937E+05</totfact>
</mgrwt>
</event>
<event>
 7    1  0.3480999E-009  0.9070896E+02  0.7818608E-02  0.1301144E+00
         -2   -1    0    0    0  501 -0.00000000000E+00  0.00000000000E+00  0.18729447514E+02  0.18729447687E+02  0.25500000000E-02 0.  1.
          2   -1    0    0  501    0  0.00000000000E+00 -0.00000000000E+00 -0.10982860125E+03  0.10982860128E+03  0.25500000000E-02 0. -1.
         23    2    1    2    0    0  0.00000000000E+00  0.00000000000E+00 -0.91099153739E+02  0.12855804897E+03  0.90708963961E+02 0.  0.
    9000005    2    3    3    0    0 -0.11934373510E+02 -0.23005284903E+02 -0.97319185884E+02  0.10190544676E+03  0.15557112011E+02 0.  0.
         22    1    3    3    0    0  0.11934373510E+02  0.23005284903E+02  0.62200321451E+01  0.26652602208E+02  0.00000000000E+00 0.  1.
         22    1    4    4    0    0 -0.98855964689E+01 -0.25133658813E+02 -0.91120271909E+02  0.95038569937E+02  0.00000000000E+00 0.  1.
         22    1    4    4    0    0 -0.20487770409E+01  0.21283739098E+01 -0.61989139749E+01  0.68668768251E+01  0.00000000000E+00 0.  1.
<mgrwt>
<rscale>  0 0.90708964E+02</rscale>
<asrwt>0</asrwt>
<pdfrwt beam="2">  1        2 0.16896708E-01 0.90708964E+02</pdfrwt>
<pdfrwt beam="1">  1       -2 0.28814535E-02 0.90708964E+02</pdfrwt>
<totfact> 0.12806960E+05</totfact>
</mgrwt>
</event>
<event>
 7    1  0.3480999E-009  0.1074383E+03  0.7818608E-02  0.1265389E+00
          2   -1    0    0  501    0  0.00000000000E+00  0.00000000000E+00  0.32272772696E+01  0.32272782770E+01  0.25500000000E-02 0. -1.
         -2   -1    0    0    0  501 -0.00000000000E+00 -0.00000000000E+00 -0.89417452531E+03  0.89417452531E+03  0.25500000000E-02 0.  1.
         23    2    1    2    0    0  0.00000000000E+00  0.71054273576E-14 -0.89094724804E+03  0.89740180359E+03  0.10743834649E+03 0.  0.
    9000005    2    3    3    0    0 -0.19551796909E+02 -0.40740231288E+02 -0.68545716020E+03  0.68700167191E+03  0.88170028271E+01 0.  0.
         22    1    3    3    0    0  0.19551796909E+02  0.40740231288E+02 -0.20549008784E+03  0.21040013167E+03  0.00000000000E+00 0. -1.
         22    1    4    4    0    0 -0.27173265269E+01 -0.26169384613E+01 -0.95441221019E+02  0.95515752104E+02  0.00000000000E+00 0. -1.
         22    1    4    4    0    0 -0.16834470382E+02 -0.38123292827E+02 -0.59001593918E+03  0.59148591981E+03  0.00000000000E+00 0. -1.
<mgrwt>
<rscale>  0 0.10743835E+03</rscale>
<asrwt>0</asrwt>
<pdfrwt beam="1">  1        2 0.49650498E-03 0.10743835E+03</pdfrwt>
<pdfrwt beam="2">  1       -2 0.13756511E+00 0.10743835E+03</pdfrwt>
<totfact> 0.13805929E+04</totfact>
</mgrwt>
</event>
<event>
 7    1  0.3480999E-009  0.9714668E+02  0.7818608E-02  0.1286413E+00
         -2   -1    0    0    0  501 -0.00000000000E+00  0.00000000000E+00  0.36490666974E+02  0.36490667063E+02  0.25500000000E-02 0.  1.
          2   -1    0    0  501    0  0.00000000000E+00 -0.00000000000E+00 -0.64656783825E+02  0.64656783875E+02  0.25500000000E-02 0. -1.
         23    2    1    2    0    0  0.00000000000E+00  0.00000000000E+00 -0.28166116851E+02  0.10114745094E+03  0.97146676180E+02 0.  0.
    9000005    2    3    3    0    0 -0.15935951345E+01  0.39345214674E+02  0.14368407440E+02  0.43183917404E+02  0.10383358165E+02 0.  0.
         22    1    3    3    0    0  0.15935951345E+01 -0.39345214674E+02 -0.42534524291E+02  0.57963533535E+02  0.00000000000E+00 0. -1.
         22    1    4    4    0    0 -0.30658481439E+01  0.37169963744E+02  0.10945089572E+02  0.38869018708E+02  0.00000000000E+00 0. -1.
         22    1    4    4    0    0  0.14722530094E+01  0.21752509297E+01  0.34233178678E+01  0.43148986958E+01  0.00000000000E+00 0. -1.
<mgrwt>
<rscale>  0 0.97146676E+02</rscale>
<asrwt>0</asrwt>
<pdfrwt beam="2">  1        2 0.99471975E-02 0.97146676E+02</pdfrwt>
<pdfrwt beam="1">  1       -2 0.56139488E-02 0.97146676E+02</pdfrwt>
<totfact> 0.90467356E+04</totfact>
</mgrwt>
</event>
<event>
 7    1  0.4456152E-009  0.9208480E+02  0.7818608E-02  0.1297880E+00
         -2   -1    0    0    0  501 -0.00000000000E+00  0.00000000000E+00  0.32002419140E+01  0.32002429300E+01  0.25500000000E-02 0.  1.
          2   -1    0    0  501    0  0.00000000000E+00 -0.00000000000E+00 -0.66241934308E+03  0.66241934309E+03  0.25500000000E-02 0. -1.
         23    2    1    2    0    0  0.00000000000E+00  0.88817841970E-15 -0.65921910117E+03  0.66561958602E+03  0.92084797576E+02 0.  0.
    9000005    2    3    3    0    0  0.34351924210E+02  0.57499574197E+01 -0.54206464736E+03  0.54339731818E+03  0.15278965418E+02 0.  0.
         22    1    3    3    0    0 -0.34351924210E+02 -0.57499574197E+01 -0.11715445381E+03  0.12222226783E+03  0.00000000000E+00 0.  1.
         22    1    4    4    0    0  0.34281368257E+01  0.16405218642E+01 -0.16520902556E+03  0.16525273238E+03  0.00000000000E+00 0. -1.
         22    1    4    4    0    0  0.30923787385E+02  0.41094355555E+01 -0.37685562180E+03  0.37814458580E+03  0.00000000000E+00 0. -1.
<mgrwt>
<rscale>  0 0.92084798E+02</rscale>
<asrwt>0</asrwt>
<pdfrwt beam="2">  1        2 0.10191056E+00 0.92084798E+02</pdfrwt>
<pdfrwt beam="1">  1       -2 0.49234552E-03 0.92084798E+02</pdfrwt>
<totfact> 0.22794121E+05</totfact>
</mgrwt>
</event>
<event>
 7    1  0.3480999E-009  0.9012956E+02  0.7818608E-02  0.1302538E+00
         -2   -1    0    0    0  501 -0.00000000000E+00  0.00000000000E+00  0.32744707821E+03  0.32744707822E+03  0.25500000000E-02 0.  1.
          2   -1    0    0  501    0  0.00000000000E+00 -0.00000000000E+00 -0.62020233539E+01  0.62020238781E+01  0.25500000000E-02 0. -1.
         23    2    1    2    0    0  0.00000000000E+00  0.00000000000E+00  0.32124505486E+03  0.33364910210E+03  0.90129562639E+02 0.  0.
    9000005    2    3    3    0    0  0.38852943437E+02  0.52245454448E+01  0.24112762727E+03  0.24445465557E+03  0.88712404778E+01 0.  0.
         22    1    3    3    0    0 -0.38852943437E+02 -0.52245454448E+01  0.80117427594E+02  0.89194446537E+02  0.00000000000E+00 0. -1.
         22    1    4    4    0    0  0.26377040835E+02  0.56273164968E+01  0.14143264636E+03  0.14398127805E+03  0.00000000000E+00 0.  1.
         22    1    4    4    0    0  0.12475902602E+02 -0.40277105198E+00  0.99694980907E+02  0.10047337751E+03  0.00000000000E+00 0.  1.
<mgrwt>
<rscale>  0 0.90129563E+02</rscale>
<asrwt>0</asrwt>
<pdfrwt beam="2">  1        2 0.95415744E-03 0.90129563E+02</pdfrwt>
<pdfrwt beam="1">  1       -2 0.50376475E-01 0.90129563E+02</pdfrwt>
<totfact> 0.49946625E+04</totfact>
</mgrwt>
</event>
<event>
 7    1  0.3480999E-009  0.9234584E+02  0.7818608E-02  0.1297268E+00
         -2   -1    0    0    0  501 -0.00000000000E+00  0.00000000000E+00  0.21606140777E+01  0.21606155825E+01  0.25500000000E-02 0.  1.
          2   -1    0    0  501    0  0.00000000000E+00 -0.00000000000E+00 -0.98672763533E+03  0.98672763534E+03  0.25500000000E-02 0. -1.
         23    2    1    2    0    0  0.00000000000E+00  0.00000000000E+00 -0.98456702125E+03  0.98888825092E+03  0.92345836191E+02 0.  0.
    9000005    2    3    3    0    0 -0.15835806215E+01  0.28941081290E+02 -0.87571767239E+03  0.87624600901E+03  0.92483866893E+01 0.  0.
         22    1    3    3    0    0  0.15835806215E+01 -0.28941081290E+02 -0.10884934887E+03  0.11264224191E+03  0.00000000000E+00 0.  1.
         22    1    4    4    0    0 -0.18499666255E+01  0.28319431338E+02 -0.76494239063E+03  0.76546866268E+03  0.00000000000E+00 0. -1.
         22    1    4    4    0    0  0.26638600409E+00  0.62164995172E+00 -0.11077528176E+03  0.11077734633E+03  0.00000000000E+00 0. -1.
<mgrwt>
<rscale>  0 0.92345836E+02</rscale>
<asrwt>0</asrwt>
<pdfrwt beam="2">  1        2 0.15180389E+00 0.92345836E+02</pdfrwt>
<pdfrwt beam="1">  1       -2 0.33240307E-03 0.92345836E+02</pdfrwt>
<totfact> 0.24160518E+05</totfact>
</mgrwt>
</event>
<event>
 7    1  0.3480999E-009  0.9123070E+02  0.7818608E-02  0.1299898E+00
         -2   -1    0    0    0  501 -0.00000000000E+00  0.00000000000E+00  0.25781647545E+02  0.25781647671E+02  0.25500000000E-02 0.  1.
          2   -1    0    0  501    0  0.00000000000E+00 -0.00000000000E+00 -0.80707035338E+02  0.80707035378E+02  0.25500000000E-02 0. -1.
         23    2    1    2    0    0 -0.71054273576E-14  0.00000000000E+00 -0.54925387794E+02  0.10648868305E+03  0.91230704224E+02 0.  0.
    9000005    2    3    3    0    0  0.42826527084E+02  0.85465810251E+01 -0.42641289558E+02  0.61122897056E+02  0.32516918700E+01 0.  0.
         22    1    3    3    0    0 -0.42826527084E+02 -0.85465810251E+01 -0.12284098235E+02  0.45365785993E+02  0.00000000000E+00 0. -1.
         22    1    4    4    0    0  0.34788515849E+02  0.73197531668E+01 -0.32944203056E+02  0.48467928947E+02  0.00000000000E+00 0.  1.
         22    1    4    4    0    0  0.80380112349E+01  0.12268278584E+01 -0.96970865028E+01  0.12654968109E+02  0.00000000000E+00 0.  1.
<mgrwt>
<rscale>  0 0.91230704E+02</rscale>
<asrwt>0</asrwt>
<pdfrwt beam="2">  1        2 0.12416467E-01 0.91230704E+02</pdfrwt>
<pdfrwt beam="1">  1       -2 0.39664074E-02 0.91230704E+02</pdfrwt>
<totfact> 0.11495652E+05</totfact>
</mgrwt>
</event>
<event>
 7    1  0.3480999E-009  0.9199995E+02  0.7818608E-02  0.1298080E+00
          2   -1    0    0  501    0  0.00000000000E+00  0.00000000000E+00  0.63179283566E+02  0.63179283618E+02  0.25500000000E-02 0. -1.
         -2   -1    0    0    0  501 -0.00000000000E+00 -0.00000000000E+00 -0.33491952805E+02  0.33491952902E+02  0.25500000000E-02 0.  1.
         23    2    1    2    0    0  0.88817841970E-15  0.00000000000E+00  0.29687330762E+02  0.96671236520E+02  0.91999947622E+02 0.  0.
    9000005    2    3    3    0    0 -0.53643838693E+01 -0.19921633113E+02 -0.27941625469E+02  0.35460578327E+02  0.71463348110E+01 0.  0.
         22    1    3    3    0    0  0.53643838693E+01  0.19921633113E+02  0.57628956231E+02  0.61210658193E+02  0.00000000000E+00 0. -1.
         22    1    4    4    0    0 -0.68081372917E+01 -0.13114616600E+02 -0.17376178376E+02  0.22809547933E+02  0.00000000000E+00 0.  1.
         22    1    4    4    0    0  0.14437534224E+01 -0.68070165136E+01 -0.10565447092E+02  0.12651030394E+02  0.00000000000E+00 0.  1.
<mgrwt>
<rscale>  0 0.91999948E+02</rscale>
<asrwt>0</asrwt>
<pdfrwt beam="1">  1        2 0.97198897E-02 0.91999948E+02</pdfrwt>
<pdfrwt beam="2">  1       -2 0.51526082E-02 0.91999948E+02</pdfrwt>
<totfact> 0.10486688E+05</totfact>
</mgrwt>
</event>
<event>
 6    1  0.4893182E-009  0.1551721E+03  0.7818608E-02  0.1194258E+00
          2   -1    0    0  501    0  0.00000000000E+00  0.00000000000E+00  0.31584044187E+03  0.31584044188E+03  0.25500000000E-02 0.  1.
         -2   -1    0    0    0  501 -0.00000000000E+00 -0.00000000000E+00 -0.19058986039E+02  0.19058986210E+02  0.25500000000E-02 0. -1.
    9000005    2    1    2    0    0  0.61784310680E+02 -0.27548905119E+02  0.70791068555E+02  0.99001360356E+02  0.14616796696E+02 0.  0.
         22    1    1    2    0    0 -0.61784310680E+02  0.27548905119E+02  0.22599038728E+03  0.23589806774E+03  0.00000000000E+00 0.  1.
         22    1    3    3    0    0  0.38138574565E+02 -0.11624671390E+02  0.48677977226E+02  0.62922407150E+02  0.00000000000E+00 0. -1.
         22    1    3    3    0    0  0.23645736115E+02 -0.15924233729E+02  0.22113091329E+02  0.36078953206E+02  0.00000000000E+00 0. -1.
<mgrwt>
<rscale>  0 0.15517214E+03</rscale>
<asrwt>0</asrwt>
<pdfrwt beam="1">  1        2 0.48590833E-01 0.15517214E+03</pdfrwt>
<pdfrwt beam="2">  1       -2 0.29321520E-02 0.15517214E+03</pdfrwt>
<totfact> 0.42436944E+04</totfact>
</mgrwt>
</event>
<event>
 7    1  0.3480999E-009  0.9181455E+02  0.7818608E-02  0.1298516E+00
         -2   -1    0    0    0  501 -0.00000000000E+00  0.00000000000E+00  0.10191928000E+04  0.10191928000E+04  0.25500000000E-02 0.  1.
          2   -1    0    0  501    0  0.00000000000E+00 -0.00000000000E+00 -0.20677902319E+01  0.20677918042E+01  0.25500000000E-02 0. -1.
         23    2    1    2    0    0  0.71054273576E-14  0.00000000000E+00  0.10171250097E+04  0.10212605918E+04  0.91814546138E+02 0.  0.
    9000005    2    3    3    0    0  0.32883186135E+02  0.12533125058E+02  0.83238215108E+03  0.83319595667E+03  0.10820056132E+02 0.  0.
         22    1    3    3    0    0 -0.32883186135E+02 -0.12533125058E+02  0.18474285864E+03  0.18806463510E+03  0.00000000000E+00 0. -1.
         22    1    4    4    0    0  0.13184228131E+02 -0.16387041191E+00  0.25980166640E+03  0.26013603478E+03  0.00000000000E+00 0. -1.
         22    1    4    4    0    0  0.19698958004E+02  0.12696995470E+02  0.57258048468E+03  0.57305992189E+03  0.00000000000E+00 0. -1.
<mgrwt>
<rscale>  0 0.91814546E+02</rscale>
<asrwt>0</asrwt>
<pdfrwt beam="2">  1        2 0.31812142E-03 0.91814546E+02</pdfrwt>
<pdfrwt beam="1">  1       -2 0.15679903E+00 0.91814546E+02</pdfrwt>
<totfact> 0.17942379E+04</totfact>
</mgrwt>
</event>
<event>
 7    1  0.3480999E-009  0.9127403E+02  0.7818608E-02  0.1299795E+00
          2   -1    0    0  501    0  0.00000000000E+00  0.00000000000E+00  0.41347454402E+03  0.41347454403E+03  0.25500000000E-02 0. -1.
         -2   -1    0    0    0  501 -0.00000000000E+00 -0.00000000000E+00 -0.50371588747E+01  0.50371595201E+01  0.25500000000E-02 0.  1.
         23    2    1    2    0    0  0.00000000000E+00  0.00000000000E+00  0.40843738514E+03  0.41851170355E+03  0.91274029287E+02 0.  0.
    9000005    2    3    3    0    0 -0.18970507939E+02  0.27307633071E+02  0.34624493733E+03  0.34798874586E+03  0.10248103478E+02 0.  0.
         22    1    3    3    0    0  0.18970507939E+02 -0.27307633071E+02  0.62192447812E+02  0.70522957682E+02  0.00000000000E+00 0.  1.
         22    1    4    4    0    0 -0.13808495143E+02  0.11915016284E+02  0.15948570841E+03  0.16052517976E+03  0.00000000000E+00 0. -1.
         22    1    4    4    0    0 -0.51620127965E+01  0.15392616786E+02  0.18675922892E+03  0.18746356610E+03  0.00000000000E+00 0. -1.
<mgrwt>
<rscale>  0 0.91274029E+02</rscale>
<asrwt>0</asrwt>
<pdfrwt beam="1">  1        2 0.63611483E-01 0.91274029E+02</pdfrwt>
<pdfrwt beam="2">  1       -2 0.77494739E-03 0.91274029E+02</pdfrwt>
<totfact> 0.20142100E+05</totfact>
</mgrwt>
</event>
<event>
 7    1  0.3480999E-009  0.9275800E+02  0.7818608E-02  0.1296307E+00
         -2   -1    0    0    0  501 -0.00000000000E+00  0.00000000000E+00  0.16747858650E+02  0.16747858844E+02  0.25500000000E-02 0. -1.
          2   -1    0    0  501    0  0.00000000000E+00 -0.00000000000E+00 -0.12843503300E+03  0.12843503302E+03  0.25500000000E-02 0.  1.
         23    2    1    2    0    0  0.00000000000E+00  0.00000000000E+00 -0.11168717435E+03  0.14518289187E+03  0.92758003306E+02 0.  0.
    9000005    2    3    3    0    0 -0.19057553289E+02  0.30153031988E+02 -0.97479008807E+01  0.37182840245E+02  0.38918326855E+01 0.  0.
         22    1    3    3    0    0  0.19057553289E+02 -0.30153031988E+02 -0.10193927347E+03  0.10800005162E+03  0.00000000000E+00 0.  1.
         22    1    4    4    0    0 -0.45114768797E-01  0.24763443687E-01 -0.32917757909E+00  0.33317630331E+00  0.00000000000E+00 0. -1.
         22    1    4    4    0    0 -0.19012438521E+02  0.30128268545E+02 -0.94187233016E+01  0.36849663942E+02  0.00000000000E+00 0. -1.
<mgrwt>
<rscale>  0 0.92758003E+02</rscale>
<asrwt>0</asrwt>
<pdfrwt beam="2">  1        2 0.19759235E-01 0.92758003E+02</pdfrwt>
<pdfrwt beam="1">  1       -2 0.25765937E-02 0.92758003E+02</pdfrwt>
<totfact> 0.12665901E+05</totfact>
</mgrwt>
</event>
<event>
 7    1  0.3480999E-009  0.9051728E+02  0.7818608E-02  0.1301604E+00
         -2   -1    0    0    0  501 -0.00000000000E+00  0.00000000000E+00  0.70480283565E+02  0.70480283611E+02  0.25500000000E-02 0.  1.
          2   -1    0    0  501    0  0.00000000000E+00 -0.00000000000E+00 -0.29062661461E+02  0.29062661573E+02  0.25500000000E-02 0. -1.
         23    2    1    2    0    0 -0.35527136788E-14  0.00000000000E+00  0.41417622103E+02  0.99542945184E+02  0.90517282964E+02 0.  0.
    9000005    2    3    3    0    0 -0.21850946714E+02  0.37957479404E+02  0.18508022668E+02  0.50115383427E+02  0.15835739260E+02 0.  0.
         22    1    3    3    0    0  0.21850946714E+02 -0.37957479404E+02  0.22909599435E+02  0.49427561758E+02  0.00000000000E+00 0. -1.
         22    1    4    4    0    0 -0.16332358767E+01  0.31098098819E+01 -0.28435145106E+01  0.45192866364E+01  0.00000000000E+00 0. -1.
         22    1    4    4    0    0 -0.20217710838E+02  0.34847669522E+02  0.21351537178E+02  0.45596096790E+02  0.00000000000E+00 0. -1.
<mgrwt>
<rscale>  0 0.90517283E+02</rscale>
<asrwt>0</asrwt>
<pdfrwt beam="2">  1        2 0.44711787E-02 0.90517283E+02</pdfrwt>
<pdfrwt beam="1">  1       -2 0.10843121E-01 0.90517283E+02</pdfrwt>
<totfact> 0.89630421E+04</totfact>
</mgrwt>
</event>
<event>
 7    1  0.3480999E-009  0.8870336E+02  0.7818608E-02  0.1306022E+00
         -2   -1    0    0    0  501 -0.00000000000E+00  0.00000000000E+00  0.74428225069E+02  0.74428225112E+02  0.25500000000E-02 0.  1.
          2   -1    0    0  501    0  0.00000000000E+00 -0.00000000000E+00 -0.26429107542E+02  0.26429107665E+02  0.25500000000E-02 0. -1.
         23    2    1    2    0    0  0.35527136788E-14  0.00000000000E+00  0.47999117527E+02  0.10085733278E+03  0.88703361219E+02 0.  0.
    9000005    2    3    3    0    0 -0.20087780978E+02  0.32291986875E+02  0.48228568939E+02  0.62826503061E+02  0.13224343610E+02 0.  0.
         22    1    3    3    0    0  0.20087780978E+02 -0.32291986875E+02 -0.22945141220E+00  0.38030829717E+02  0.00000000000E+00 0. -1.
         22    1    4    4    0    0 -0.26085392526E+00 -0.48618853899E+00 -0.56626037561E+00  0.79061677111E+00  0.00000000000E+00 0. -1.
         22    1    4    4    0    0 -0.19826927053E+02  0.32778175414E+02  0.48794829315E+02  0.62035886289E+02  0.00000000000E+00 0. -1.
<mgrwt>
<rscale>  0 0.88703361E+02</rscale>
<asrwt>0</asrwt>
<pdfrwt beam="2">  1        2 0.40660166E-02 0.88703361E+02</pdfrwt>
<pdfrwt beam="1">  1       -2 0.11450496E-01 0.88703361E+02</pdfrwt>
<totfact> 0.92811228E+04</totfact>
</mgrwt>
</event>
<event>
 7    1  0.3480999E-009  0.9119147E+02  0.7818608E-02  0.1299992E+00
         -2   -1    0    0    0  501 -0.00000000000E+00  0.00000000000E+00  0.36845076462E+01  0.36845085286E+01  0.25500000000E-02 0.  1.
          2   -1    0    0  501    0  0.00000000000E+00 -0.00000000000E+00 -0.56424661600E+03  0.56424661600E+03  0.25500000000E-02 0. -1.
         23    2    1    2    0    0 -0.17763568394E-14  0.44408920985E-15 -0.56056210835E+03  0.56793112453E+03  0.91191473794E+02 0.  0.
    9000005    2    3    3    0    0 -0.14473834745E+02  0.18733807446E+01 -0.54925752554E+03  0.54947048965E+03  0.45812866700E+01 0.  0.
         22    1    3    3    0    0  0.14473834745E+02 -0.18733807446E+01 -0.11304582810E+02  0.18460634879E+02  0.00000000000E+00 0.  1.
         22    1    4    4    0    0 -0.54170076918E+01 -0.13294160297E+01 -0.17074560071E+03  0.17083668073E+03  0.00000000000E+00 0. -1.
         22    1    4    4    0    0 -0.90568270529E+01  0.32027967743E+01 -0.37851192483E+03  0.37863380893E+03  0.00000000000E+00 0. -1.
<mgrwt>
<rscale>  0 0.91191474E+02</rscale>
<asrwt>0</asrwt>
<pdfrwt beam="2">  1        2 0.86807103E-01 0.91191474E+02</pdfrwt>
<pdfrwt beam="1">  1       -2 0.56684785E-03 0.91191474E+02</pdfrwt>
<totfact> 0.22370718E+05</totfact>
</mgrwt>
</event>
<event>
 7    1  0.3480999E-009  0.9228786E+02  0.7818608E-02  0.1297404E+00
         -2   -1    0    0    0  501 -0.00000000000E+00  0.00000000000E+00  0.12307315659E+02  0.12307315923E+02  0.25500000000E-02 0.  1.
          2   -1    0    0  501    0  0.00000000000E+00 -0.00000000000E+00 -0.17300786782E+03  0.17300786783E+03  0.25500000000E-02 0. -1.
         23    2    1    2    0    0  0.00000000000E+00 -0.35527136788E-14 -0.16070055216E+03  0.18531518376E+03  0.92287864141E+02 0.  0.
    9000005    2    3    3    0    0 -0.19061204890E+02  0.27863106742E+02 -0.14180685299E+03  0.14662856957E+03  0.15845239329E+02 0.  0.
         22    1    3    3    0    0  0.19061204890E+02 -0.27863106742E+02 -0.18893699164E+02  0.38686614187E+02  0.00000000000E+00 0.  1.
         22    1    4    4    0    0 -0.21046167093E+02  0.21611915265E+02 -0.10524079042E+03  0.10947894774E+03  0.00000000000E+00 0. -1.
         22    1    4    4    0    0  0.19849622034E+01  0.62511914765E+01 -0.36566062573E+02  0.37149621828E+02  0.00000000000E+00 0. -1.
<mgrwt>
<rscale>  0 0.92287864E+02</rscale>
<asrwt>0</asrwt>
<pdfrwt beam="2">  1        2 0.26616593E-01 0.92287864E+02</pdfrwt>
<pdfrwt beam="1">  1       -2 0.18934333E-02 0.92287864E+02</pdfrwt>
<totfact> 0.14214079E+05</totfact>
</mgrwt>
</event>
<event>
 7    1  0.3480999E-009  0.9245243E+02  0.7818608E-02  0.1297019E+00
          2   -1    0    0  501    0  0.00000000000E+00  0.00000000000E+00  0.67331042030E+01  0.67331046859E+01  0.25500000000E-02 0. -1.
         -2   -1    0    0    0  501 -0.00000000000E+00 -0.00000000000E+00 -0.31736664864E+03  0.31736664865E+03  0.25500000000E-02 0.  1.
         23    2    1    2    0    0  0.00000000000E+00  0.00000000000E+00 -0.31063354444E+03  0.32409975334E+03  0.92452426594E+02 0.  0.
    9000005    2    3    3    0    0 -0.22305056021E+02 -0.34776220680E+02 -0.93045572563E+02  0.10262418684E+03  0.12936154873E+02 0.  0.
         22    1    3    3    0    0  0.22305056021E+02  0.34776220680E+02 -0.21758797188E+03  0.22147556649E+03  0.00000000000E+00 0.  1.
         22    1    4    4    0    0 -0.78894684242E+01 -0.59034436578E+01 -0.12956472298E+02  0.16277731213E+02  0.00000000000E+00 0.  1.
         22    1    4    4    0    0 -0.14415587597E+02 -0.28872777022E+02 -0.80089100265E+02  0.86346455630E+02  0.00000000000E+00 0.  1.
<mgrwt>
<rscale>  0 0.92452427E+02</rscale>
<asrwt>0</asrwt>
<pdfrwt beam="1">  1        2 0.10358625E-02 0.92452427E+02</pdfrwt>
<pdfrwt beam="2">  1       -2 0.48825627E-01 0.92452427E+02</pdfrwt>
<totfact> 0.47644703E+04</totfact>
</mgrwt>
</event>
<event>
 7    1  0.3480999E-009  0.9466888E+02  0.7818608E-02  0.1291924E+00
          2   -1    0    0  501    0  0.00000000000E+00  0.00000000000E+00  0.58452106104E+02  0.58452106160E+02  0.25500000000E-02 0. -1.
         -2   -1    0    0    0  501 -0.00000000000E+00 -0.00000000000E+00 -0.38331367354E+02  0.38331367439E+02  0.25500000000E-02 0.  1.
         23    2    1    2    0    0  0.35527136788E-14  0.00000000000E+00  0.20120738750E+02  0.96783473599E+02  0.94668878909E+02 0.  0.
    9000005    2    3    3    0    0  0.18895237174E+02 -0.40761219055E+01  0.53188603423E+02  0.58480361040E+02  0.14740432000E+02 0.  0.
         22    1    3    3    0    0 -0.18895237174E+02  0.40761219055E+01 -0.33067864673E+02  0.38303112559E+02  0.00000000000E+00 0.  1.
         22    1    4    4    0    0 -0.24889032297E+01 -0.10803569092E+01  0.62176112246E+01  0.67838410711E+01  0.00000000000E+00 0. -1.
         22    1    4    4    0    0  0.21384140404E+02 -0.29957649963E+01  0.46970992199E+02  0.51696519969E+02  0.00000000000E+00 0. -1.
<mgrwt>
<rscale>  0 0.94668879E+02</rscale>
<asrwt>0</asrwt>
<pdfrwt beam="1">  1        2 0.89926316E-02 0.94668879E+02</pdfrwt>
<pdfrwt beam="2">  1       -2 0.58971335E-02 0.94668879E+02</pdfrwt>
<totfact> 0.94676641E+04</totfact>
</mgrwt>
</event>
<event>
 7    1  0.3480999E-009  0.9215031E+02  0.7818608E-02  0.1297726E+00
         -2   -1    0    0    0  501 -0.00000000000E+00  0.00000000000E+00  0.46545538838E+01  0.46545545824E+01  0.25500000000E-02 0.  1.
          2   -1    0    0  501    0  0.00000000000E+00 -0.00000000000E+00 -0.45609523877E+03  0.45609523878E+03  0.25500000000E-02 0. -1.
         23    2    1    2    0    0  0.17763568394E-14  0.00000000000E+00 -0.45144068489E+03  0.46074979336E+03  0.92150312590E+02 0.  0.
    9000005    2    3    3    0    0 -0.10763236270E+02 -0.39232821044E+02 -0.32692872483E+03  0.32976013842E+03  0.14293224798E+02 0.  0.
         22    1    3    3    0    0  0.10763236270E+02  0.39232821044E+02 -0.12451196006E+03  0.13098965494E+03  0.00000000000E+00 0.  1.
         22    1    4    4    0    0  0.23071973647E+00  0.11373163049E+01 -0.13745516608E+02  0.13794417233E+02  0.00000000000E+00 0. -1.
         22    1    4    4    0    0 -0.10993956006E+02 -0.40370137349E+02 -0.31318320822E+03  0.31596572119E+03  0.00000000000E+00 0. -1.
<mgrwt>
<rscale>  0 0.92150313E+02</rscale>
<asrwt>0</asrwt>
<pdfrwt beam="2">  1        2 0.70168463E-01 0.92150313E+02</pdfrwt>
<pdfrwt beam="1">  1       -2 0.71608563E-03 0.92150313E+02</pdfrwt>
<totfact> 0.20319323E+05</totfact>
</mgrwt>
</event>
<event>
 7    1  0.3480999E-009  0.9216097E+02  0.7818608E-02  0.1297701E+00
         -2   -1    0    0    0  501 -0.00000000000E+00  0.00000000000E+00  0.89852856539E+00  0.89853218380E+00  0.25500000000E-02 0.  1.
          2   -1    0    0  501    0  0.00000000000E+00 -0.00000000000E+00 -0.23632043762E+04  0.23632043762E+04  0.25500000000E-02 0. -1.
         23    2    1    2    0    0  0.17763568394E-14 -0.22204460493E-15 -0.23623058476E+04  0.23641029084E+04  0.92160966067E+02 0.  0.
    9000005    2    3    3    0    0  0.10906719513E+02 -0.13967687881E+01 -0.23288419725E+04  0.23288787912E+04  0.71122185132E+01 0.  0.
         22    1    3    3    0    0 -0.10906719513E+02  0.13967687881E+01 -0.33463875121E+02  0.35224117189E+02  0.00000000000E+00 0.  1.
         22    1    4    4    0    0  0.11878851890E+02 -0.10549870543E+01 -0.20288726853E+04  0.20289077340E+04  0.00000000000E+00 0. -1.
         22    1    4    4    0    0 -0.97213237683E+00 -0.34178173385E+00 -0.29996928723E+03  0.29997105716E+03  0.00000000000E+00 0. -1.
<mgrwt>
<rscale>  0 0.92160966E+02</rscale>
<asrwt>0</asrwt>
<pdfrwt beam="2">  1        2 0.36356493E+00 0.92160966E+02</pdfrwt>
<pdfrwt beam="1">  1       -2 0.13823733E-03 0.92160966E+02</pdfrwt>
<totfact> 0.15741402E+05</totfact>
</mgrwt>
</event>
<event>
 7    1  0.3480999E-009  0.9103533E+02  0.7818608E-02  0.1300364E+00
         -2   -1    0    0    0  501 -0.00000000000E+00  0.00000000000E+00  0.97298710276E+01  0.97298713618E+01  0.25500000000E-02 0.  1.
          2   -1    0    0  501    0  0.00000000000E+00 -0.00000000000E+00 -0.21293784207E+03  0.21293784208E+03  0.25500000000E-02 0. -1.
         23    2    1    2    0    0  0.17763568394E-14  0.00000000000E+00 -0.20320797104E+03  0.22266771344E+03  0.91035328947E+02 0.  0.
    9000005    2    3    3    0    0 -0.12160410533E+02 -0.40653206409E+02 -0.13435634205E+03  0.14179061168E+03  0.15886854155E+02 0.  0.
         22    1    3    3    0    0  0.12160410533E+02  0.40653206409E+02 -0.68851628986E+02  0.80877101764E+02  0.00000000000E+00 0.  1.
         22    1    4    4    0    0 -0.14006495703E+01 -0.16029198817E+02 -0.30145744271E+02  0.34171083266E+02  0.00000000000E+00 0.  1.
         22    1    4    4    0    0 -0.10759760963E+02 -0.24624007593E+02 -0.10421059778E+03  0.10761952841E+03  0.00000000000E+00 0.  1.
<mgrwt>
<rscale>  0 0.91035329E+02</rscale>
<asrwt>0</asrwt>
<pdfrwt beam="2">  1        2 0.32759665E-01 0.91035329E+02</pdfrwt>
<pdfrwt beam="1">  1       -2 0.14969034E-02 0.91035329E+02</pdfrwt>
<totfact> 0.15890448E+05</totfact>
</mgrwt>
</event>
<event>
 7    1  0.3480999E-009  0.8982864E+02  0.7818608E-02  0.1303267E+00
         -2   -1    0    0    0  501 -0.00000000000E+00  0.00000000000E+00  0.32921691893E+01  0.32921701769E+01  0.25500000000E-02 0.  1.
          2   -1    0    0  501    0  0.00000000000E+00 -0.00000000000E+00 -0.61275577764E+03  0.61275577765E+03  0.25500000000E-02 0. -1.
         23    2    1    2    0    0  0.00000000000E+00  0.00000000000E+00 -0.60946360846E+03  0.61604794783E+03  0.89828636805E+02 0.  0.
    9000005    2    3    3    0    0  0.14443052194E+02 -0.38916958827E+02 -0.41159008800E+03  0.41386718331E+03  0.12510533345E+02 0.  0.
         22    1    3    3    0    0 -0.14443052194E+02  0.38916958827E+02 -0.19787352046E+03  0.20218076451E+03  0.00000000000E+00 0.  1.
         22    1    4    4    0    0  0.12945744320E+02 -0.33685671375E+02 -0.38717034155E+03  0.38884854395E+03  0.00000000000E+00 0. -1.
         22    1    4    4    0    0  0.14973078738E+01 -0.52312874523E+01 -0.24419746448E+02  0.25018639368E+02  0.00000000000E+00 0. -1.
<mgrwt>
<rscale>  0 0.89828637E+02</rscale>
<asrwt>0</asrwt>
<pdfrwt beam="2">  1        2 0.94270029E-01 0.89828637E+02</pdfrwt>
<pdfrwt beam="1">  1       -2 0.50648813E-03 0.89828637E+02</pdfrwt>
<totfact> 0.23838429E+05</totfact>
</mgrwt>
</event>
<event>
 7    1  0.3480999E-009  0.9162104E+02  0.7818608E-02  0.1298973E+00
          2   -1    0    0  501    0  0.00000000000E+00  0.00000000000E+00  0.33943174192E+02  0.33943174288E+02  0.25500000000E-02 0. -1.
         -2   -1    0    0    0  501 -0.00000000000E+00 -0.00000000000E+00 -0.61826971312E+02  0.61826971365E+02  0.25500000000E-02 0.  1.
         23    2    1    2    0    0  0.71054273576E-14  0.00000000000E+00 -0.27883797119E+02  0.95770145653E+02  0.91621038286E+02 0.  0.
    9000005    2    3    3    0    0 -0.39676469642E+02 -0.12034743404E+02 -0.31504909803E+02  0.54150802204E+02  0.14855731066E+02 0.  0.
         22    1    3    3    0    0  0.39676469642E+02  0.12034743404E+02  0.36211126837E+01  0.41619343449E+02  0.00000000000E+00 0.  1.
         22    1    4    4    0    0 -0.14438204012E+02  0.27053705128E+01 -0.12497276382E+02  0.19286334065E+02  0.00000000000E+00 0. -1.
         22    1    4    4    0    0 -0.25238265631E+02 -0.14740113917E+02 -0.19007633421E+02  0.34864468138E+02  0.00000000000E+00 0. -1.
<mgrwt>
<rscale>  0 0.91621038E+02</rscale>
<asrwt>0</asrwt>
<pdfrwt beam="1">  1        2 0.52220268E-02 0.91621038E+02</pdfrwt>
<pdfrwt beam="2">  1       -2 0.95118417E-02 0.91621038E+02</pdfrwt>
<totfact> 0.90104739E+04</totfact>
</mgrwt>
</event>
<event>
 7    1  0.3480999E-009  0.9385981E+02  0.7818608E-02  0.1293765E+00
         -2   -1    0    0    0  501 -0.00000000000E+00  0.00000000000E+00  0.11401267735E+02  0.11401268021E+02  0.25500000000E-02 0. -1.
          2   -1    0    0  501    0  0.00000000000E+00 -0.00000000000E+00 -0.19317290313E+03  0.19317290315E+03  0.25500000000E-02 0.  1.
         23    2    1    2    0    0  0.00000000000E+00  0.00000000000E+00 -0.18177163540E+03  0.20457417117E+03  0.93859810755E+02 0.  0.
    9000005    2    3    3    0    0 -0.46747707871E+02 -0.12398939163E+01 -0.96124412899E+02  0.10699173295E+03  0.45213532809E+01 0.  0.
         22    1    3    3    0    0  0.46747707871E+02  0.12398939163E+01 -0.85647222497E+02  0.97582438223E+02  0.00000000000E+00 0.  1.
         22    1    4    4    0    0 -0.20022735995E+01 -0.74582235975E+00 -0.31115592738E+01  0.37745399288E+01  0.00000000000E+00 0. -1.
         22    1    4    4    0    0 -0.44745434271E+02 -0.49407155657E+00 -0.93012853625E+02  0.10321719302E+03  0.00000000000E+00 0. -1.
<mgrwt>
<rscale>  0 0.93859811E+02</rscale>
<asrwt>0</asrwt>
<pdfrwt beam="2">  1        2 0.29718906E-01 0.93859811E+02</pdfrwt>
<pdfrwt beam="1">  1       -2 0.17540414E-02 0.93859811E+02</pdfrwt>
<totfact> 0.14124345E+05</totfact>
</mgrwt>
</event>
<event>
 7    1  0.3480999E-009  0.9057478E+02  0.7818608E-02  0.1301466E+00
          2   -1    0    0  501    0  0.00000000000E+00  0.00000000000E+00  0.16518344832E+02  0.16518345029E+02  0.25500000000E-02 0. -1.
         -2   -1    0    0    0  501 -0.00000000000E+00 -0.00000000000E+00 -0.12416182270E+03  0.12416182272E+03  0.25500000000E-02 0.  1.
         23    2    1    2    0    0  0.00000000000E+00  0.00000000000E+00 -0.10764347786E+03  0.14068016775E+03  0.90574782758E+02 0.  0.
    9000005    2    3    3    0    0  0.34589145116E+02 -0.23884280689E+02 -0.79176948773E+02  0.89913927961E+02  0.69754856818E+01 0.  0.
         22    1    3    3    0    0 -0.34589145116E+02  0.23884280689E+02 -0.28466529091E+02  0.50766239790E+02  0.00000000000E+00 0. -1.
         22    1    4    4    0    0  0.26019612165E+01 -0.15219260722E+00 -0.71142184986E+01  0.75766397307E+01  0.00000000000E+00 0. -1.
         22    1    4    4    0    0  0.31987183900E+02 -0.23732088081E+02 -0.72062730275E+02  0.82337288231E+02  0.00000000000E+00 0. -1.
<mgrwt>
<rscale>  0 0.90574783E+02</rscale>
<asrwt>0</asrwt>
<pdfrwt beam="1">  1        2 0.25412839E-02 0.90574783E+02</pdfrwt>
<pdfrwt beam="2">  1       -2 0.19101818E-01 0.90574783E+02</pdfrwt>
<totfact> 0.75833365E+04</totfact>
</mgrwt>
</event>
<event>
 7    1  0.3480999E-009  0.9105685E+02  0.7818608E-02  0.1300312E+00
         -2   -1    0    0    0  501 -0.00000000000E+00  0.00000000000E+00  0.40113600787E+01  0.40113608892E+01  0.25500000000E-02 0.  1.
          2   -1    0    0  501    0  0.00000000000E+00 -0.00000000000E+00 -0.51674176000E+03  0.51674176001E+03  0.25500000000E-02 0. -1.
         23    2    1    2    0    0  0.00000000000E+00 -0.17763568394E-14 -0.51273039992E+03  0.52075312089E+03  0.91056849928E+02 0.  0.
    9000005    2    3    3    0    0  0.97704962868E+01  0.11111088656E+02 -0.50243351440E+03  0.50272689721E+03  0.87165303476E+01 0.  0.
         22    1    3    3    0    0 -0.97704962868E+01 -0.11111088656E+02 -0.10296885524E+02  0.18026223684E+02  0.00000000000E+00 0.  1.
         22    1    4    4    0    0  0.99022619608E+01  0.11882027902E+02 -0.49664364400E+03  0.49688443979E+03  0.00000000000E+00 0.  1.
         22    1    4    4    0    0 -0.13176567399E+00 -0.77093924525E+00 -0.57898704005E+01  0.58424574254E+01  0.00000000000E+00 0.  1.
<mgrwt>
<rscale>  0 0.91056850E+02</rscale>
<asrwt>0</asrwt>
<pdfrwt beam="2">  1        2 0.79498680E-01 0.91056850E+02</pdfrwt>
<pdfrwt beam="1">  1       -2 0.61713279E-03 0.91056850E+02</pdfrwt>
<totfact> 0.21855299E+05</totfact>
</mgrwt>
</event>
<event>
 7    1  0.3480999E-009  0.9111915E+02  0.7818608E-02  0.1300164E+00
          2   -1    0    0  501    0  0.00000000000E+00  0.00000000000E+00  0.10784107778E+02  0.10784108079E+02  0.25500000000E-02 0. -1.
         -2   -1    0    0    0  501 -0.00000000000E+00 -0.00000000000E+00 -0.19247534049E+03  0.19247534051E+03  0.25500000000E-02 0.  1.
         23    2    1    2    0    0  0.00000000000E+00  0.88817841970E-15 -0.18169123271E+03  0.20325944859E+03  0.91119149443E+02 0.  0.
    9000005    2    3    3    0    0 -0.10680061675E+02  0.55565334080E+01 -0.18877985511E+03  0.18928850201E+03  0.68821884481E+01 0.  0.
         22    1    3    3    0    0  0.10680061675E+02 -0.55565334080E+01  0.70886223922E+01  0.13970946579E+02  0.00000000000E+00 0. -1.
         22    1    4    4    0    0 -0.66446170463E+01 -0.34533448113E+00 -0.81941681665E+02  0.82211370173E+02  0.00000000000E+00 0.  1.
         22    1    4    4    0    0 -0.40354446292E+01  0.59018678891E+01 -0.10683817344E+03  0.10707713184E+03  0.00000000000E+00 0.  1.
<mgrwt>
<rscale>  0 0.91119149E+02</rscale>
<asrwt>0</asrwt>
<pdfrwt beam="1">  1        2 0.16590937E-02 0.91119149E+02</pdfrwt>
<pdfrwt beam="2">  1       -2 0.29611588E-01 0.91119149E+02</pdfrwt>
<totfact> 0.63452727E+04</totfact>
</mgrwt>
</event>
<event>
 7    1  0.3480999E-009  0.9195644E+02  0.7818608E-02  0.1298182E+00
          2   -1    0    0  501    0  0.00000000000E+00  0.00000000000E+00  0.10738858870E+04  0.10738858870E+04  0.25500000000E-02 0. -1.
         -2   -1    0    0    0  501 -0.00000000000E+00 -0.00000000000E+00 -0.19685477686E+01  0.19685494202E+01  0.25500000000E-02 0.  1.
         23    2    1    2    0    0  0.17763568394E-14 -0.35527136788E-14  0.10719173393E+04  0.10758544365E+04  0.91956436572E+02 0.  0.
    9000005    2    3    3    0    0  0.14285137426E+02  0.21823408022E+02  0.97781332305E+03  0.97820254371E+03  0.89997500501E+01 0.  0.
         22    1    3    3    0    0 -0.14285137426E+02 -0.21823408022E+02  0.94104016220E+02  0.97651892751E+02  0.00000000000E+00 0.  1.
         22    1    4    4    0    0  0.66043817137E+01  0.17504033858E+02  0.69666813915E+03  0.69691929602E+03  0.00000000000E+00 0.  1.
         22    1    4    4    0    0  0.76807557127E+01  0.43193741638E+01  0.28114518390E+03  0.28128324769E+03  0.00000000000E+00 0.  1.
<mgrwt>
<rscale>  0 0.91956437E+02</rscale>
<asrwt>0</asrwt>
<pdfrwt beam="1">  1        2 0.16521331E+00 0.91956437E+02</pdfrwt>
<pdfrwt beam="2">  1       -2 0.30285346E-03 0.91956437E+02</pdfrwt>
<totfact> 0.24476434E+05</totfact>
</mgrwt>
</event>
<event>
 7    1  0.3480999E-009  0.9020365E+02  0.7818608E-02  0.1302359E+00
          2   -1    0    0  501    0  0.00000000000E+00  0.00000000000E+00  0.52142754574E+02  0.52142754637E+02  0.25500000000E-02 0. -1.
         -2   -1    0    0    0  501 -0.00000000000E+00 -0.00000000000E+00 -0.39011648718E+02  0.39011648801E+02  0.25500000000E-02 0.  1.
         23    2    1    2    0    0  0.00000000000E+00  0.00000000000E+00  0.13131105856E+02  0.91154403438E+02  0.90203654721E+02 0.  0.
    9000005    2    3    3    0    0  0.22336626198E+02 -0.24383384576E+02  0.35809160063E+02  0.51057415323E+02  0.15201624972E+02 0.  0.
         22    1    3    3    0    0 -0.22336626198E+02  0.24383384576E+02 -0.22678054206E+02  0.40096988115E+02  0.00000000000E+00 0.  1.
         22    1    4    4    0    0  0.24173152021E+02 -0.20379075091E+02  0.28737320943E+02  0.42725655000E+02  0.00000000000E+00 0.  1.
         22    1    4    4    0    0 -0.18365258228E+01 -0.40043094853E+01  0.70718391197E+01  0.83317603234E+01  0.00000000000E+00 0.  1.
<mgrwt>
<rscale>  0 0.90203655E+02</rscale>
<asrwt>0</asrwt>
<pdfrwt beam="1">  1        2 0.80219622E-02 0.90203655E+02</pdfrwt>
<pdfrwt beam="2">  1       -2 0.60017922E-02 0.90203655E+02</pdfrwt>
<totfact> 0.10535638E+05</totfact>
</mgrwt>
</event>
<event>
 7    1  0.3480999E-009  0.9076163E+02  0.7818608E-02  0.1301018E+00
          2   -1    0    0  501    0  0.00000000000E+00  0.00000000000E+00  0.51742932847E+03  0.51742932848E+03  0.25500000000E-02 0. -1.
         -2   -1    0    0    0  501 -0.00000000000E+00 -0.00000000000E+00 -0.39800955778E+01  0.39800963947E+01  0.25500000000E-02 0.  1.
         23    2    1    2    0    0  0.35527136788E-14 -0.88817841970E-15  0.51344923290E+03  0.52140942487E+03  0.90761630587E+02 0.  0.
    9000005    2    3    3    0    0  0.28270710343E+02 -0.38750585033E+01  0.45783101119E+03  0.45889834003E+03  0.12814153938E+02 0.  0.
         22    1    3    3    0    0 -0.28270710343E+02  0.38750585033E+01  0.55618221710E+02  0.62511084841E+02  0.00000000000E+00 0.  1.
         22    1    4    4    0    0  0.27357082350E+02 -0.22815939150E+01  0.45067605958E+03  0.45151138003E+03  0.00000000000E+00 0. -1.
         22    1    4    4    0    0  0.91362799353E+00 -0.15934645883E+01  0.71549516102E+01  0.73869600005E+01  0.00000000000E+00 0. -1.
<mgrwt>
<rscale>  0 0.90761631E+02</rscale>
<asrwt>0</asrwt>
<pdfrwt beam="1">  1        2 0.79604484E-01 0.90761631E+02</pdfrwt>
<pdfrwt beam="2">  1       -2 0.61232268E-03 0.90761631E+02</pdfrwt>
<totfact> 0.22053072E+05</totfact>
</mgrwt>
</event>
<event>
 7    1  0.3480999E-009  0.9713001E+02  0.7818608E-02  0.1286450E+00
         -2   -1    0    0    0  501 -0.00000000000E+00  0.00000000000E+00  0.85351646968E+01  0.85351650777E+01  0.25500000000E-02 0.  1.
          2   -1    0    0  501    0  0.00000000000E+00 -0.00000000000E+00 -0.27633440927E+03  0.27633440928E+03  0.25500000000E-02 0. -1.
         23    2    1    2    0    0  0.00000000000E+00  0.00000000000E+00 -0.26779924457E+03  0.28486957436E+03  0.97130010819E+02 0.  0.
    9000005    2    3    3    0    0 -0.59123924096E+01 -0.47362796846E+02 -0.15508522550E+03  0.16246597553E+03  0.80978472228E+01 0.  0.
         22    1    3    3    0    0  0.59123924096E+01  0.47362796846E+02 -0.11271401907E+03  0.12240359882E+03  0.00000000000E+00 0.  1.
         22    1    4    4    0    0 -0.66956024081E+01 -0.45989678171E+02 -0.14523258471E+03  0.15248732816E+03  0.00000000000E+00 0.  1.
         22    1    4    4    0    0  0.78320999844E+00 -0.13731186745E+01 -0.98526407896E+01  0.99786473695E+01  0.00000000000E+00 0.  1.
<mgrwt>
<rscale>  0 0.97130011E+02</rscale>
<asrwt>0</asrwt>
<pdfrwt beam="2">  1        2 0.42512979E-01 0.97130011E+02</pdfrwt>
<pdfrwt beam="1">  1       -2 0.13131025E-02 0.97130011E+02</pdfrwt>
<totfact> 0.14703867E+05</totfact>
</mgrwt>
</event>
<event>
 7    1  0.3480999E-009  0.9017448E+02  0.7818608E-02  0.1302430E+00
          2   -1    0    0  501    0  0.00000000000E+00  0.00000000000E+00  0.12422896108E+04  0.12422896108E+04  0.25500000000E-02 0.  1.
         -2   -1    0    0    0  501 -0.00000000000E+00 -0.00000000000E+00 -0.16363799686E+01  0.16363819554E+01  0.25500000000E-02 0. -1.
         23    2    1    2    0    0  0.17763568394E-14  0.00000000000E+00  0.12406532308E+04  0.12439259927E+04  0.90174476912E+02 0.  0.
    9000005    2    3    3    0    0 -0.14759193916E+02 -0.41455435150E+01  0.12050800373E+04  0.12051900736E+04  0.54952543315E+01 0.  0.
         22    1    3    3    0    0  0.14759193916E+02  0.41455435150E+01  0.35573193456E+02  0.38735919103E+02  0.00000000000E+00 0. -1.
         22    1    4    4    0    0 -0.15034706685E+02 -0.41350094163E+01  0.12007634139E+04  0.12008646539E+04  0.00000000000E+00 0.  1.
         22    1    4    4    0    0  0.27551276873E+00 -0.10534098670E-01  0.43166234339E+01  0.43254197627E+01  0.00000000000E+00 0.  1.
<mgrwt>
<rscale>  0 0.90174477E+02</rscale>
<asrwt>0</asrwt>
<pdfrwt beam="1">  1        2 0.19112190E+00 0.90174477E+02</pdfrwt>
<pdfrwt beam="2">  1       -2 0.25175036E-03 0.90174477E+02</pdfrwt>
<totfact> 0.25489896E+05</totfact>
</mgrwt>
</event>
<event>
 7    1  0.3480999E-009  0.9155221E+02  0.7818608E-02  0.1299136E+00
         -2   -1    0    0    0  501 -0.00000000000E+00  0.00000000000E+00  0.22097758708E+02  0.22097758855E+02  0.25500000000E-02 0.  1.
          2   -1    0    0  501    0  0.00000000000E+00 -0.00000000000E+00 -0.94826447459E+02  0.94826447494E+02  0.25500000000E-02 0. -1.
         23    2    1    2    0    0  0.00000000000E+00  0.00000000000E+00 -0.72728688751E+02  0.11692420635E+03  0.91552213861E+02 0.  0.
    9000005    2    3    3    0    0  0.44933254596E+02 -0.11019295312E+01 -0.39776888016E+02  0.61192413008E+02  0.11920527345E+02 0.  0.
         22    1    3    3    0    0 -0.44933254596E+02  0.11019295312E+01 -0.32951800736E+02  0.55731793341E+02  0.00000000000E+00 0. -1.
         22    1    4    4    0    0  0.60620693679E+01  0.16185642932E+01 -0.12542052183E+01  0.63985518770E+01  0.00000000000E+00 0. -1.
         22    1    4    4    0    0  0.38871185228E+02 -0.27204938244E+01 -0.38522682797E+02  0.54793861131E+02  0.00000000000E+00 0. -1.
<mgrwt>
<rscale>  0 0.91552214E+02</rscale>
<asrwt>0</asrwt>
<pdfrwt beam="2">  1        2 0.14588684E-01 0.91552214E+02</pdfrwt>
<pdfrwt beam="1">  1       -2 0.33996553E-02 0.91552214E+02</pdfrwt>
<totfact> 0.11935983E+05</totfact>
</mgrwt>
</event>
<event>
 7    1  0.3480999E-009  0.6811132E+02  0.7818608E-02  0.1366636E+00
         -2   -1    0    0    0  501 -0.00000000000E+00  0.00000000000E+00  0.11955134344E+02  0.11955134616E+02  0.25500000000E-02 0.  1.
          2   -1    0    0  501    0  0.00000000000E+00 -0.00000000000E+00 -0.97011709491E+02  0.97011709525E+02  0.25500000000E-02 0. -1.
         23    2    1    2    0    0  0.00000000000E+00  0.00000000000E+00 -0.85056575147E+02  0.10896684414E+03  0.68111321719E+02 0.  0.
    9000005    2    3    3    0    0  0.14494676001E+02  0.22579095013E+02 -0.11349425329E+02  0.30527981973E+02  0.91234348832E+01 0.  0.
         22    1    3    3    0    0 -0.14494676001E+02 -0.22579095013E+02 -0.73707149818E+02  0.78438862168E+02  0.00000000000E+00 0. -1.
         22    1    4    4    0    0  0.30433691383E+01  0.88898541734E+01 -0.35058769425E-01  0.93964265577E+01  0.00000000000E+00 0. -1.
         22    1    4    4    0    0  0.11451306863E+02  0.13689240839E+02 -0.11314366559E+02  0.21131555415E+02  0.00000000000E+00 0. -1.
<mgrwt>
<rscale>  0 0.68111322E+02</rscale>
<asrwt>0</asrwt>
<pdfrwt beam="2">  1        2 0.14924878E-01 0.68111322E+02</pdfrwt>
<pdfrwt beam="1">  1       -2 0.18392515E-02 0.68111322E+02</pdfrwt>
<totfact> 0.26695228E+05</totfact>
</mgrwt>
</event>
<event>
 7    1  0.3480999E-009  0.8973359E+02  0.7818608E-02  0.1303498E+00
         -2   -1    0    0    0  501 -0.00000000000E+00  0.00000000000E+00  0.27193093589E+02  0.27193093708E+02  0.25500000000E-02 0.  1.
          2   -1    0    0  501    0  0.00000000000E+00 -0.00000000000E+00 -0.74027224710E+02  0.74027224754E+02  0.25500000000E-02 0. -1.
         23    2    1    2    0    0 -0.35527136788E-14  0.00000000000E+00 -0.46834131121E+02  0.10122031846E+03  0.89733589206E+02 0.  0.
    9000005    2    3    3    0    0  0.28069140314E+02 -0.22483034040E+02 -0.52482925075E+02  0.64816028457E+02  0.12381302956E+02 0.  0.
         22    1    3    3    0    0 -0.28069140314E+02  0.22483034040E+02  0.56487939546E+01  0.36404290005E+02  0.00000000000E+00 0.  1.
         22    1    4    4    0    0  0.12369742930E+01  0.15641809971E+01 -0.24363131003E+01  0.31483946887E+01  0.00000000000E+00 0. -1.
         22    1    4    4    0    0  0.26832166021E+02 -0.24047215037E+02 -0.50046611975E+02  0.61667633768E+02  0.00000000000E+00 0. -1.
<mgrwt>
<rscale>  0 0.89733589E+02</rscale>
<asrwt>0</asrwt>
<pdfrwt beam="2">  1        2 0.11388804E-01 0.89733589E+02</pdfrwt>
<pdfrwt beam="1">  1       -2 0.41835529E-02 0.89733589E+02</pdfrwt>
<totfact> 0.11746205E+05</totfact>
</mgrwt>
</event>
<event>
 7    1  0.3480999E-009  0.9241780E+02  0.7818608E-02  0.1297100E+00
         -2   -1    0    0    0  501 -0.00000000000E+00  0.00000000000E+00  0.71875307535E+02  0.71875307580E+02  0.25500000000E-02 0.  1.
          2   -1    0    0  501    0  0.00000000000E+00 -0.00000000000E+00 -0.29707870249E+02  0.29707870358E+02  0.25500000000E-02 0. -1.
         23    2    1    2    0    0  0.00000000000E+00 -0.35527136788E-14  0.42167437286E+02  0.10158317794E+03  0.92417797381E+02 0.  0.
    9000005    2    3    3    0    0 -0.36137953660E+02 -0.20162336780E+02 -0.90430914222E+00  0.41853395923E+02  0.61981816803E+01 0.  0.
         22    1    3    3    0    0  0.36137953660E+02  0.20162336780E+02  0.43071746428E+02  0.59729782015E+02  0.00000000000E+00 0.  1.
         22    1    4    4    0    0 -0.62752993167E+01 -0.23348421641E+01 -0.22064069523E+01  0.70497589381E+01  0.00000000000E+00 0.  1.
         22    1    4    4    0    0 -0.29862654343E+02 -0.17827494615E+02  0.13020978101E+01  0.34803636985E+02  0.00000000000E+00 0.  1.
<mgrwt>
<rscale>  0 0.92417797E+02</rscale>
<asrwt>0</asrwt>
<pdfrwt beam="2">  1        2 0.45704416E-02 0.92417797E+02</pdfrwt>
<pdfrwt beam="1">  1       -2 0.11057740E-01 0.92417797E+02</pdfrwt>
<totfact> 0.84753095E+04</totfact>
</mgrwt>
</event>
<event>
 7    1  0.3480999E-009  0.9300085E+02  0.7818608E-02  0.1295743E+00
          2   -1    0    0  501    0  0.00000000000E+00  0.00000000000E+00  0.44305686730E+01  0.44305694068E+01  0.25500000000E-02 0. -1.
         -2   -1    0    0    0  501 -0.00000000000E+00 -0.00000000000E+00 -0.48803874593E+03  0.48803874594E+03  0.25500000000E-02 0.  1.
         23    2    1    2    0    0  0.00000000000E+00  0.00000000000E+00 -0.48360817726E+03  0.49246931535E+03  0.93000846475E+02 0.  0.
    9000005    2    3    3    0    0 -0.23603378189E+02  0.27185910799E+02 -0.39319074047E+03  0.39514765237E+03  0.15700814577E+02 0.  0.
         22    1    3    3    0    0  0.23603378189E+02 -0.27185910799E+02 -0.90417436795E+02  0.97321662976E+02  0.00000000000E+00 0. -1.
         22    1    4    4    0    0 -0.32101287851E+00  0.54347441511E+01 -0.25266570001E+02  0.25846451456E+02  0.00000000000E+00 0.  1.
         22    1    4    4    0    0 -0.23282365310E+02  0.21751166648E+02 -0.36792417046E+03  0.36930120092E+03  0.00000000000E+00 0.  1.
<mgrwt>
<rscale>  0 0.93000846E+02</rscale>
<asrwt>0</asrwt>
<pdfrwt beam="1">  1        2 0.68162639E-03 0.93000846E+02</pdfrwt>
<pdfrwt beam="2">  1       -2 0.75082842E-01 0.93000846E+02</pdfrwt>
<totfact> 0.35138046E+04</totfact>
</mgrwt>
</event>
<event>
 7    1  0.3480999E-009  0.8724162E+02  0.7818608E-02  0.1309672E+00
         -2   -1    0    0    0  501 -0.00000000000E+00  0.00000000000E+00  0.10665671240E+02  0.10665671545E+02  0.25500000000E-02 0. -1.
          2   -1    0    0  501    0  0.00000000000E+00 -0.00000000000E+00 -0.17840180053E+03  0.17840180054E+03  0.25500000000E-02 0.  1.
         23    2    1    2    0    0  0.00000000000E+00  0.35527136788E-14 -0.16773612929E+03  0.18906747209E+03  0.87241618134E+02 0.  0.
    9000005    2    3    3    0    0 -0.16921799978E+02  0.24207099775E+02 -0.15261511715E+03  0.15588651366E+03  0.11700434421E+02 0.  0.
         22    1    3    3    0    0  0.16921799978E+02 -0.24207099775E+02 -0.15121012135E+02  0.33180958425E+02  0.00000000000E+00 0. -1.
         22    1    4    4    0    0 -0.46737427049E+01  0.25699970990E+01 -0.12622637113E+02  0.13703274194E+02  0.00000000000E+00 0. -1.
         22    1    4    4    0    0 -0.12248057273E+02  0.21637102676E+02 -0.13999248004E+03  0.14218323947E+03  0.00000000000E+00 0. -1.
<mgrwt>
<rscale>  0 0.87241618E+02</rscale>
<asrwt>0</asrwt>
<pdfrwt beam="2">  1        2 0.27446429E-01 0.87241618E+02</pdfrwt>
<pdfrwt beam="1">  1       -2 0.16408727E-02 0.87241618E+02</pdfrwt>
<totfact> 0.16719482E+05</totfact>
</mgrwt>
</event>
<event>
 7    1  0.3480999E-009  0.9554192E+02  0.7818608E-02  0.1289960E+00
          2   -1    0    0  501    0  0.00000000000E+00  0.00000000000E+00  0.16562440999E+03  0.16562441001E+03  0.25500000000E-02 0. -1.
         -2   -1    0    0    0  501 -0.00000000000E+00 -0.00000000000E+00 -0.13778551884E+02  0.13778552120E+02  0.25500000000E-02 0.  1.
         23    2    1    2    0    0  0.00000000000E+00  0.17763568394E-14  0.15184585811E+03  0.17940296213E+03  0.95541918533E+02 0.  0.
    9000005    2    3    3    0    0  0.33052037959E+02  0.12859305972E+02  0.13557132952E+03  0.14038169557E+03  0.83448247672E+01 0.  0.
         22    1    3    3    0    0 -0.33052037959E+02 -0.12859305972E+02  0.16274528591E+02  0.39021266563E+02  0.00000000000E+00 0.  1.
         22    1    4    4    0    0  0.14182545806E+02  0.25179942617E+01  0.43235236577E+02  0.45571598420E+02  0.00000000000E+00 0.  1.
         22    1    4    4    0    0  0.18869492153E+02  0.10341311711E+02  0.92336092940E+02  0.94810097149E+02  0.00000000000E+00 0.  1.
<mgrwt>
<rscale>  0 0.95541919E+02</rscale>
<asrwt>0</asrwt>
<pdfrwt beam="1">  1        2 0.25480680E-01 0.95541919E+02</pdfrwt>
<pdfrwt beam="2">  1       -2 0.21197771E-02 0.95541919E+02</pdfrwt>
<totfact> 0.12740242E+05</totfact>
</mgrwt>
</event>
<event>
 7    1  0.3480999E-009  0.9298838E+02  0.7818608E-02  0.1295772E+00
         -2   -1    0    0    0  501 -0.00000000000E+00  0.00000000000E+00  0.61480358569E+01  0.61480363857E+01  0.25500000000E-02 0.  1.
          2   -1    0    0  501    0  0.00000000000E+00 -0.00000000000E+00 -0.35160975408E+03  0.35160975409E+03  0.25500000000E-02 0. -1.
         23    2    1    2    0    0  0.00000000000E+00  0.00000000000E+00 -0.34546171822E+03  0.35775779047E+03  0.92988375014E+02 0.  0.
    9000005    2    3    3    0    0 -0.24842285683E+02  0.37051209821E+02 -0.21490006058E+03  0.21978577247E+03  0.11567991764E+02 0.  0.
         22    1    3    3    0    0  0.24842285683E+02 -0.37051209821E+02 -0.13056165764E+03  0.13797201800E+03  0.00000000000E+00 0.  1.
         22    1    4    4    0    0 -0.13014595200E+02  0.95511394041E+01 -0.76869160074E+02  0.78545984765E+02  0.00000000000E+00 0. -1.
         22    1    4    4    0    0 -0.11827690483E+02  0.27500070417E+02 -0.13803090051E+03  0.14123978770E+03  0.00000000000E+00 0. -1.
<mgrwt>
<rscale>  0 0.92988375E+02</rscale>
<asrwt>0</asrwt>
<pdfrwt beam="2">  1        2 0.54093793E-01 0.92988375E+02</pdfrwt>
<pdfrwt beam="1">  1       -2 0.94585198E-03 0.92988375E+02</pdfrwt>
<totfact> 0.18078616E+05</totfact>
</mgrwt>
</event>
<event>
 7    1  0.3480999E-009  0.1023834E+03  0.7818608E-02  0.1275362E+00
          2   -1    0    0  501    0  0.00000000000E+00  0.00000000000E+00  0.61390901019E+02  0.61390901072E+02  0.25500000000E-02 0. -1.
         -2   -1    0    0    0  501 -0.00000000000E+00 -0.00000000000E+00 -0.42686981772E+02  0.42686981848E+02  0.25500000000E-02 0.  1.
         23    2    1    2    0    0  0.00000000000E+00  0.00000000000E+00  0.18703919247E+02  0.10407788292E+03  0.10238344162E+03 0.  0.
    9000005    2    3    3    0    0 -0.46899487116E+02 -0.11200161452E+02 -0.78217829170E+01  0.49044998355E+02  0.43847539596E+01 0.  0.
         22    1    3    3    0    0  0.46899487116E+02  0.11200161452E+02  0.26525702164E+02  0.55032884566E+02  0.00000000000E+00 0. -1.
         22    1    4    4    0    0 -0.27058874841E+02 -0.63578313743E+01 -0.23114830557E+01  0.27891713489E+02  0.00000000000E+00 0. -1.
         22    1    4    4    0    0 -0.19840612275E+02 -0.48423300774E+01 -0.55102998613E+01  0.21153284866E+02  0.00000000000E+00 0. -1.
<mgrwt>
<rscale>  0 0.10238344E+03</rscale>
<asrwt>0</asrwt>
<pdfrwt beam="1">  1        2 0.94447540E-02 0.10238344E+03</pdfrwt>
<pdfrwt beam="2">  1       -2 0.65672280E-02 0.10238344E+03</pdfrwt>
<totfact> 0.76705265E+04</totfact>
</mgrwt>
</event>
<event>
 7    1  0.3480999E-009  0.9067955E+02  0.7818608E-02  0.1301214E+00
          2   -1    0    0  501    0  0.00000000000E+00  0.00000000000E+00  0.37230558341E+03  0.37230558342E+03  0.25500000000E-02 0.  1.
         -2   -1    0    0    0  501 -0.00000000000E+00 -0.00000000000E+00 -0.55215259969E+01  0.55215265857E+01  0.25500000000E-02 0. -1.
         23    2    1    2    0    0  0.00000000000E+00  0.00000000000E+00  0.36678405741E+03  0.37782711000E+03  0.90679547208E+02 0.  0.
    9000005    2    3    3    0    0 -0.17202740399E+02 -0.38620600336E+02  0.13347520545E+03  0.14071847361E+03  0.14091603817E+02 0.  0.
         22    1    3    3    0    0  0.17202740399E+02  0.38620600336E+02  0.23330885196E+03  0.23710863639E+03  0.00000000000E+00 0.  1.
         22    1    4    4    0    0  0.12116871206E+01  0.43635218735E+00  0.57224293932E+01  0.58655593995E+01  0.00000000000E+00 0.  1.
         22    1    4    4    0    0 -0.18414427520E+02 -0.39056952524E+02  0.12775277606E+03  0.13485291421E+03  0.00000000000E+00 0.  1.
<mgrwt>
<rscale>  0 0.90679547E+02</rscale>
<asrwt>0</asrwt>
<pdfrwt beam="1">  1        2 0.57277783E-01 0.90679547E+02</pdfrwt>
<pdfrwt beam="2">  1       -2 0.84946557E-03 0.90679547E+02</pdfrwt>
<totfact> 0.19736906E+05</totfact>
</mgrwt>
</event>
<event>
 7    1  0.3480999E-009  0.8858365E+02  0.7818608E-02  0.1306318E+00
          2   -1    0    0  501    0  0.00000000000E+00  0.00000000000E+00  0.90823298656E+02  0.90823298692E+02  0.25500000000E-02 0. -1.
         -2   -1    0    0    0  501 -0.00000000000E+00 -0.00000000000E+00 -0.21599808681E+02  0.21599808831E+02  0.25500000000E-02 0.  1.
         23    2    1    2    0    0  0.00000000000E+00  0.35527136788E-14  0.69223489976E+02  0.11242310752E+03  0.88583652786E+02 0.  0.
    9000005    2    3    3    0    0  0.12641865642E+02 -0.29654050260E+02  0.71812267256E+02  0.80083020456E+02  0.14734618188E+02 0.  0.
         22    1    3    3    0    0 -0.12641865642E+02  0.29654050260E+02 -0.25887772804E+01  0.32340087068E+02  0.00000000000E+00 0.  1.
         22    1    4    4    0    0  0.37341255400E+01 -0.15657514262E+02  0.19963399769E+02  0.25644468736E+02  0.00000000000E+00 0. -1.
         22    1    4    4    0    0  0.89077401022E+01 -0.13996535998E+02  0.51848867487E+02  0.54438551720E+02  0.00000000000E+00 0. -1.
<mgrwt>
<rscale>  0 0.88583653E+02</rscale>
<asrwt>0</asrwt>
<pdfrwt beam="1">  1        2 0.13972815E-01 0.88583653E+02</pdfrwt>
<pdfrwt beam="2">  1       -2 0.33230475E-02 0.88583653E+02</pdfrwt>
<totfact> 0.12904180E+05</totfact>
</mgrwt>
</event>
<event>
 7    1  0.3480999E-009  0.1013689E+03  0.7818608E-02  0.1277443E+00
          2   -1    0    0  501    0  0.00000000000E+00  0.00000000000E+00  0.89393703811E+03  0.89393703812E+03  0.25500000000E-02 0. -1.
         -2   -1    0    0    0  501 -0.00000000000E+00 -0.00000000000E+00 -0.28737065712E+01  0.28737077026E+01  0.25500000000E-02 0.  1.
         23    2    1    2    0    0  0.35527136788E-14 -0.11102230246E-15  0.89106333154E+03  0.89681074582E+03  0.10136889562E+03 0.  0.
    9000005    2    3    3    0    0  0.17094600391E+02  0.74276632228E+00  0.86697010726E+03  0.86725976410E+03  0.14475996620E+02 0.  0.
         22    1    3    3    0    0 -0.17094600391E+02 -0.74276632228E+00  0.24093224281E+02  0.29550981719E+02  0.00000000000E+00 0.  1.
         22    1    4    4    0    0 -0.26205695593E+00 -0.37965691425E+01  0.86765493799E+02  0.86848912056E+02  0.00000000000E+00 0.  1.
         22    1    4    4    0    0  0.17356657347E+02  0.45393354648E+01  0.78020461346E+03  0.78041085204E+03  0.00000000000E+00 0.  1.
<mgrwt>
<rscale>  0 0.10136890E+03</rscale>
<asrwt>0</asrwt>
<pdfrwt beam="1">  1        2 0.13752908E+00 0.10136890E+03</pdfrwt>
<pdfrwt beam="2">  1       -2 0.44210781E-03 0.10136890E+03</pdfrwt>
<totfact> 0.18713526E+05</totfact>
</mgrwt>
</event>
<event>
 7    1  0.3480999E-009  0.9299085E+02  0.7818608E-02  0.1295766E+00
         -2   -1    0    0    0  501 -0.00000000000E+00  0.00000000000E+00  0.24344090347E+01  0.24344103703E+01  0.25500000000E-02 0.  1.
          2   -1    0    0  501    0  0.00000000000E+00 -0.00000000000E+00 -0.88802830264E+03  0.88802830264E+03  0.25500000000E-02 0. -1.
         23    2    1    2    0    0 -0.17763568394E-14  0.00000000000E+00 -0.88559389360E+03  0.89046271301E+03  0.92990853728E+02 0.  0.
    9000005    2    3    3    0    0  0.10876795164E+02  0.39322151150E+02 -0.65528471683E+03  0.65656775122E+03  0.43145789124E+01 0.  0.
         22    1    3    3    0    0 -0.10876795164E+02 -0.39322151150E+02 -0.23030917677E+03  0.23389496179E+03  0.00000000000E+00 0.  1.
         22    1    4    4    0    0  0.10831397489E+01  0.82638453458E+01 -0.11398609409E+03  0.11429039320E+03  0.00000000000E+00 0.  1.
         22    1    4    4    0    0  0.97936554155E+01  0.31058305805E+02 -0.54129862273E+03  0.54227735802E+03  0.00000000000E+00 0.  1.
<mgrwt>
<rscale>  0 0.92990854E+02</rscale>
<asrwt>0</asrwt>
<pdfrwt beam="2">  1        2 0.13661948E+00 0.92990854E+02</pdfrwt>
<pdfrwt beam="1">  1       -2 0.37452528E-03 0.92990854E+02</pdfrwt>
<totfact> 0.23502429E+05</totfact>
</mgrwt>
</event>
<event>
 7    1  0.3480999E-009  0.9293919E+02  0.7818608E-02  0.1295886E+00
          2   -1    0    0  501    0  0.00000000000E+00  0.00000000000E+00  0.20674757127E+03  0.20674757129E+03  0.25500000000E-02 0.  1.
         -2   -1    0    0    0  501 -0.00000000000E+00 -0.00000000000E+00 -0.10444732212E+02  0.10444732523E+02  0.25500000000E-02 0. -1.
         23    2    1    2    0    0  0.17763568394E-14 -0.35527136788E-14  0.19630283906E+03  0.21719230381E+03  0.92939185555E+02 0.  0.
    9000005    2    3    3    0    0 -0.12772954269E+02  0.27692013763E+02  0.19921707618E+02  0.38194260481E+02  0.11486126948E+02 0.  0.
         22    1    3    3    0    0  0.12772954269E+02 -0.27692013763E+02  0.17638113144E+03  0.17899804333E+03  0.00000000000E+00 0.  1.
         22    1    4    4    0    0 -0.51205000208E+01  0.16178467207E+01  0.40362910740E+01  0.67177819337E+01  0.00000000000E+00 0.  1.
         22    1    4    4    0    0 -0.76524542486E+01  0.26074167042E+02  0.15885416544E+02  0.31476478547E+02  0.00000000000E+00 0.  1.
<mgrwt>
<rscale>  0 0.92939186E+02</rscale>
<asrwt>0</asrwt>
<pdfrwt beam="1">  1        2 0.31807317E-01 0.92939186E+02</pdfrwt>
<pdfrwt beam="2">  1       -2 0.16068820E-02 0.92939186E+02</pdfrwt>
<totfact> 0.14867843E+05</totfact>
</mgrwt>
</event>
<event>
 7    1  0.3480999E-009  0.9004565E+02  0.7818608E-02  0.1302741E+00
         -2   -1    0    0    0  501 -0.00000000000E+00  0.00000000000E+00  0.18376203268E+02  0.18376203445E+02  0.25500000000E-02 0.  1.
          2   -1    0    0  501    0  0.00000000000E+00 -0.00000000000E+00 -0.11030869165E+03  0.11030869168E+03  0.25500000000E-02 0. -1.
         23    2    1    2    0    0  0.00000000000E+00 -0.35527136788E-14 -0.91932488383E+02  0.12868489513E+03  0.90045654049E+02 0.  0.
    9000005    2    3    3    0    0  0.88631791755E+01 -0.28822084135E+02 -0.92577137559E+02  0.98523926116E+02  0.15072131226E+02 0.  0.
         22    1    3    3    0    0 -0.88631791755E+01  0.28822084135E+02  0.64464917618E+00  0.30160969009E+02  0.00000000000E+00 0.  1.
         22    1    4    4    0    0  0.10095598176E+02 -0.29791104292E+02 -0.81908565629E+02  0.87740777982E+02  0.00000000000E+00 0.  1.
         22    1    4    4    0    0 -0.12324190004E+01  0.96902015676E+00 -0.10668571931E+02  0.10783148135E+02  0.00000000000E+00 0.  1.
<mgrwt>
<rscale>  0 0.90045654E+02</rscale>
<asrwt>0</asrwt>
<pdfrwt beam="2">  1        2 0.16970568E-01 0.90045654E+02</pdfrwt>
<pdfrwt beam="1">  1       -2 0.28271083E-02 0.90045654E+02</pdfrwt>
<totfact> 0.13084558E+05</totfact>
</mgrwt>
</event>
<event>
 7    1  0.3480999E-009  0.9030781E+02  0.7818608E-02  0.1302108E+00
         -2   -1    0    0    0  501 -0.00000000000E+00  0.00000000000E+00  0.35437621065E+02  0.35437621157E+02  0.25500000000E-02 0.  1.
          2   -1    0    0  501    0  0.00000000000E+00 -0.00000000000E+00 -0.57534199285E+02  0.57534199342E+02  0.25500000000E-02 0. -1.
         23    2    1    2    0    0  0.00000000000E+00  0.00000000000E+00 -0.22096578220E+02  0.92971820498E+02  0.90307810503E+02 0.  0.
    9000005    2    3    3    0    0 -0.11787061913E+02  0.41392031692E+02 -0.24751009276E+02  0.49852438309E+02  0.45186313290E+01 0.  0.
         22    1    3    3    0    0  0.11787061913E+02 -0.41392031692E+02  0.26544310561E+01  0.43119382189E+02  0.00000000000E+00 0.  1.
         22    1    4    4    0    0 -0.43390724595E+01  0.20994869255E+02 -0.10432927304E+02  0.23842358461E+02  0.00000000000E+00 0. -1.
         22    1    4    4    0    0 -0.74479894530E+01  0.20397162437E+02 -0.14318081972E+02  0.26010079849E+02  0.00000000000E+00 0. -1.
<mgrwt>
<rscale>  0 0.90307811E+02</rscale>
<asrwt>0</asrwt>
<pdfrwt beam="2">  1        2 0.88514153E-02 0.90307811E+02</pdfrwt>
<pdfrwt beam="1">  1       -2 0.54519417E-02 0.90307811E+02</pdfrwt>
<totfact> 0.10776062E+05</totfact>
</mgrwt>
</event>
<event>
 7    1  0.3480999E-009  0.9293951E+02  0.7818608E-02  0.1295885E+00
         -2   -1    0    0    0  501 -0.00000000000E+00  0.00000000000E+00  0.35465682870E+02  0.35465682962E+02  0.25500000000E-02 0.  1.
          2   -1    0    0  501    0  0.00000000000E+00 -0.00000000000E+00 -0.60888095853E+02  0.60888095906E+02  0.25500000000E-02 0. -1.
         23    2    1    2    0    0 -0.71054273576E-14  0.00000000000E+00 -0.25422412983E+02  0.96353778868E+02  0.92939505165E+02 0.  0.
    9000005    2    3    3    0    0  0.35828369895E+02  0.25397317532E+02  0.19400917485E+01  0.44610156147E+02  0.75898780225E+01 0.  0.
         22    1    3    3    0    0 -0.35828369895E+02 -0.25397317532E+02 -0.27362504731E+02  0.51743622721E+02  0.00000000000E+00 0. -1.
         22    1    4    4    0    0  0.37782450617E+01  0.58647472476E+01 -0.52551818531E+00  0.69961822008E+01  0.00000000000E+00 0. -1.
         22    1    4    4    0    0  0.32050124833E+02  0.19532570284E+02  0.24656099338E+01  0.37613973946E+02  0.00000000000E+00 0. -1.
<mgrwt>
<rscale>  0 0.92939505E+02</rscale>
<asrwt>0</asrwt>
<pdfrwt beam="2">  1        2 0.93673994E-02 0.92939505E+02</pdfrwt>
<pdfrwt beam="1">  1       -2 0.54562589E-02 0.92939505E+02</pdfrwt>
<totfact> 0.10088002E+05</totfact>
</mgrwt>
</event>
<event>
 7    1  0.3480999E-009  0.9137091E+02  0.7818608E-02  0.1299565E+00
         -2   -1    0    0    0  501 -0.00000000000E+00  0.00000000000E+00  0.14831038477E+01  0.14831060399E+01  0.25500000000E-02 0. -1.
          2   -1    0    0  501    0  0.00000000000E+00 -0.00000000000E+00 -0.14072914940E+04  0.14072914940E+04  0.25500000000E-02 0.  1.
         23    2    1    2    0    0  0.00000000000E+00  0.00000000000E+00 -0.14058083902E+04  0.14087746001E+04  0.91370913871E+02 0.  0.
    9000005    2    3    3    0    0  0.13584979570E+02  0.25948042559E+02 -0.12408429712E+04  0.12412292568E+04  0.10046703440E+02 0.  0.
         22    1    3    3    0    0 -0.13584979570E+02 -0.25948042559E+02 -0.16496541901E+03  0.16754534327E+03  0.00000000000E+00 0. -1.
         22    1    4    4    0    0  0.10950968117E+02  0.10282700913E+02 -0.56547510116E+03  0.56567459522E+03  0.00000000000E+00 0. -1.
         22    1    4    4    0    0  0.26340114525E+01  0.15665341646E+02 -0.67536787001E+03  0.67555466158E+03  0.00000000000E+00 0. -1.
<mgrwt>
<rscale>  0 0.91370914E+02</rscale>
<asrwt>0</asrwt>
<pdfrwt beam="2">  1        2 0.21650532E+00 0.91370914E+02</pdfrwt>
<pdfrwt beam="1">  1       -2 0.22817112E-03 0.91370914E+02</pdfrwt>
<totfact> 0.23969363E+05</totfact>
</mgrwt>
</event>
<event>
 7    1  0.3480999E-009  0.9122326E+02  0.7818608E-02  0.1299916E+00
          2   -1    0    0  501    0  0.00000000000E+00  0.00000000000E+00  0.19567199124E+02  0.19567199290E+02  0.25500000000E-02 0. -1.
         -2   -1    0    0    0  501 -0.00000000000E+00 -0.00000000000E+00 -0.10632185072E+03  0.10632185075E+03  0.25500000000E-02 0.  1.
         23    2    1    2    0    0 -0.88817841970E-15  0.17763568394E-14 -0.86754651598E+02  0.12588905004E+03  0.91223260996E+02 0.  0.
    9000005    2    3    3    0    0  0.67690156250E+01  0.15233432333E+02  0.13064168836E+02  0.24687894189E+02  0.12686314631E+02 0.  0.
         22    1    3    3    0    0 -0.67690156250E+01 -0.15233432333E+02 -0.99818820434E+02  0.10120115585E+03  0.00000000000E+00 0.  1.
         22    1    4    4    0    0  0.95249646688E+01  0.10590195265E+02  0.13005833929E+02  0.19288050805E+02  0.00000000000E+00 0.  1.
         22    1    4    4    0    0 -0.27559490438E+01  0.46432370687E+01  0.58334907334E-01  0.53998433838E+01  0.00000000000E+00 0.  1.
<mgrwt>
<rscale>  0 0.91223261E+02</rscale>
<asrwt>0</asrwt>
<pdfrwt beam="1">  1        2 0.30103384E-02 0.91223261E+02</pdfrwt>
<pdfrwt beam="2">  1       -2 0.16357207E-01 0.91223261E+02</pdfrwt>
<totfact> 0.78242345E+04</totfact>
</mgrwt>
</event>
<event>
 7    1  0.3480999E-009  0.8980759E+02  0.7818608E-02  0.1303318E+00
          2   -1    0    0  501    0  0.00000000000E+00  0.00000000000E+00  0.33265171460E+02  0.33265171558E+02  0.25500000000E-02 0. -1.
         -2   -1    0    0    0  501 -0.00000000000E+00 -0.00000000000E+00 -0.60614472310E+02  0.60614472364E+02  0.25500000000E-02 0.  1.
         23    2    1    2    0    0  0.88817841970E-15  0.00000000000E+00 -0.27349300850E+02  0.93879643922E+02  0.89807590358E+02 0.  0.
    9000005    2    3    3    0    0 -0.70591715880E+01 -0.43976871309E+02 -0.94629579769E+01  0.45882577605E+02  0.56450190792E+01 0.  0.
         22    1    3    3    0    0  0.70591715880E+01  0.43976871309E+02 -0.17886342873E+02  0.47997066316E+02  0.00000000000E+00 0. -1.
         22    1    4    4    0    0 -0.71974634345E+01 -0.41768278767E+02 -0.77556910019E+01  0.43087623907E+02  0.00000000000E+00 0.  1.
         22    1    4    4    0    0  0.13829184653E+00 -0.22085925422E+01 -0.17072669750E+01  0.27949536984E+01  0.00000000000E+00 0.  1.
<mgrwt>
<rscale>  0 0.89807590E+02</rscale>
<asrwt>0</asrwt>
<pdfrwt beam="1">  1        2 0.51177187E-02 0.89807590E+02</pdfrwt>
<pdfrwt beam="2">  1       -2 0.93253034E-02 0.89807590E+02</pdfrwt>
<totfact> 0.95045135E+04</totfact>
</mgrwt>
</event>
<event>
 7    1  0.3480999E-009  0.9318277E+02  0.7818608E-02  0.1295322E+00
         -2   -1    0    0    0  501 -0.00000000000E+00  0.00000000000E+00  0.47873810793E+02  0.47873810861E+02  0.25500000000E-02 0.  1.
          2   -1    0    0  501    0  0.00000000000E+00 -0.00000000000E+00 -0.45343308847E+02  0.45343308919E+02  0.25500000000E-02 0. -1.
         23    2    1    2    0    0  0.00000000000E+00 -0.71054273576E-14  0.25305019453E+01  0.93217119780E+02  0.93182766539E+02 0.  0.
    9000005    2    3    3    0    0 -0.22374974102E+01 -0.43664109836E+02  0.14550855793E+02  0.47873434562E+02  0.12983737906E+02 0.  0.
         22    1    3    3    0    0  0.22374974102E+01  0.43664109836E+02 -0.12020353848E+02  0.45343685217E+02  0.00000000000E+00 0. -1.
         22    1    4    4    0    0  0.20718754907E+01 -0.39462812313E+02  0.11692292189E+02  0.41210628730E+02  0.00000000000E+00 0.  1.
         22    1    4    4    0    0 -0.43093729009E+01 -0.42012975239E+01  0.28585636046E+01  0.66628058328E+01  0.00000000000E+00 0.  1.
<mgrwt>
<rscale>  0 0.93182767E+02</rscale>
<asrwt>0</asrwt>
<pdfrwt beam="2">  1        2 0.69758937E-02 0.93182767E+02</pdfrwt>
<pdfrwt beam="1">  1       -2 0.73652017E-02 0.93182767E+02</pdfrwt>
<totfact> 0.92550722E+04</totfact>
</mgrwt>
</event>
<event>
 7    1  0.3480999E-009  0.9212394E+02  0.7818608E-02  0.1297788E+00
         -2   -1    0    0    0  501 -0.00000000000E+00  0.00000000000E+00  0.45562123691E+01  0.45562130827E+01  0.25500000000E-02 0. -1.
          2   -1    0    0  501    0  0.00000000000E+00 -0.00000000000E+00 -0.46567296190E+03  0.46567296190E+03  0.25500000000E-02 0.  1.
         23    2    1    2    0    0  0.00000000000E+00  0.00000000000E+00 -0.46111674953E+03  0.47022917499E+03  0.92123939959E+02 0.  0.
    9000005    2    3    3    0    0  0.32287359796E+02 -0.26887341306E+02 -0.32457099078E+03  0.32736508938E+03  0.74947289353E+01 0.  0.
         22    1    3    3    0    0 -0.32287359796E+02  0.26887341306E+02 -0.13654575875E+03  0.14286408561E+03  0.00000000000E+00 0. -1.
         22    1    4    4    0    0  0.29221553949E+02 -0.25659328614E+02 -0.30968607331E+03  0.31211818973E+03  0.00000000000E+00 0. -1.
         22    1    4    4    0    0  0.30658058467E+01 -0.12280126921E+01 -0.14884917470E+02  0.15246899643E+02  0.00000000000E+00 0. -1.
<mgrwt>
<rscale>  0 0.92123940E+02</rscale>
<asrwt>0</asrwt>
<pdfrwt beam="2">  1        2 0.71641957E-01 0.92123940E+02</pdfrwt>
<pdfrwt beam="1">  1       -2 0.70095617E-03 0.92123940E+02</pdfrwt>
<totfact> 0.20478744E+05</totfact>
</mgrwt>
</event>
<event>
 7    1  0.3480999E-009  0.9681285E+02  0.7818608E-02  0.1287145E+00
          2   -1    0    0  501    0  0.00000000000E+00  0.00000000000E+00  0.81575363951E+02  0.81575363991E+02  0.25500000000E-02 0. -1.
         -2   -1    0    0    0  501 -0.00000000000E+00 -0.00000000000E+00 -0.28724140461E+02  0.28724140574E+02  0.25500000000E-02 0.  1.
         23    2    1    2    0    0  0.00000000000E+00  0.00000000000E+00  0.52851223490E+02  0.11029950456E+03  0.96812854946E+02 0.  0.
    9000005    2    3    3    0    0 -0.25195118224E+02 -0.40938587747E+02  0.24216395612E+02  0.54346709133E+02  0.75079310100E+01 0.  0.
         22    1    3    3    0    0  0.25195118224E+02  0.40938587747E+02  0.28634827878E+02  0.55952795432E+02  0.00000000000E+00 0. -1.
         22    1    4    4    0    0 -0.48159246818E+01 -0.14442130366E+02  0.73445312436E+01  0.16902970131E+02  0.00000000000E+00 0.  1.
         22    1    4    4    0    0 -0.20379193542E+02 -0.26496457381E+02  0.16871864368E+02  0.37443739002E+02  0.00000000000E+00 0.  1.
<mgrwt>
<rscale>  0 0.96812855E+02</rscale>
<asrwt>0</asrwt>
<pdfrwt beam="1">  1        2 0.12550056E-01 0.96812855E+02</pdfrwt>
<pdfrwt beam="2">  1       -2 0.44190987E-02 0.96812855E+02</pdfrwt>
<totfact> 0.97687669E+04</totfact>
</mgrwt>
</event>
<event>
 7    1  0.3480999E-009  0.8990777E+02  0.7818608E-02  0.1303075E+00
         -2   -1    0    0    0  501 -0.00000000000E+00  0.00000000000E+00  0.12817434457E+02  0.12817434711E+02  0.25500000000E-02 0.  1.
          2   -1    0    0  501    0  0.00000000000E+00 -0.00000000000E+00 -0.15766427995E+03  0.15766427997E+03  0.25500000000E-02 0. -1.
         23    2    1    2    0    0  0.00000000000E+00  0.00000000000E+00 -0.14484684549E+03  0.17048171468E+03  0.89907766023E+02 0.  0.
    9000005    2    3    3    0    0  0.31078721989E+02  0.30493521608E+02 -0.67689634136E+02  0.81887261780E+02  0.15096199911E+02 0.  0.
         22    1    3    3    0    0 -0.31078721989E+02 -0.30493521608E+02 -0.77157211352E+02  0.88594452897E+02  0.00000000000E+00 0. -1.
         22    1    4    4    0    0  0.11076423181E+02  0.20070042372E+01 -0.15558502051E+02  0.19203702835E+02  0.00000000000E+00 0.  1.
         22    1    4    4    0    0  0.20002298808E+02  0.28486517370E+02 -0.52131132085E+02  0.62683558945E+02  0.00000000000E+00 0.  1.
<mgrwt>
<rscale>  0 0.89907766E+02</rscale>
<asrwt>0</asrwt>
<pdfrwt beam="2">  1        2 0.24256042E-01 0.89907766E+02</pdfrwt>
<pdfrwt beam="1">  1       -2 0.19719131E-02 0.89907766E+02</pdfrwt>
<totfact> 0.14771085E+05</totfact>
</mgrwt>
</event>
<event>
 7    1  0.3480999E-009  0.8020266E+02  0.7818608E-02  0.1328477E+00
          2   -1    0    0  501    0  0.00000000000E+00  0.00000000000E+00  0.49283729383E+03  0.49283729383E+03  0.25500000000E-02 0. -1.
         -2   -1    0    0    0  501 -0.00000000000E+00 -0.00000000000E+00 -0.32629760171E+01  0.32629770136E+01  0.25500000000E-02 0.  1.
         23    2    1    2    0    0  0.00000000000E+00  0.44408920985E-15  0.48957431781E+03  0.49610027085E+03  0.80202656288E+02 0.  0.
    9000005    2    3    3    0    0  0.19929088778E+02 -0.27101629533E+01  0.45916244944E+03  0.45963939729E+03  0.58057731969E+01 0.  0.
         22    1    3    3    0    0 -0.19929088778E+02  0.27101629533E+01  0.30411868364E+02  0.36460873552E+02  0.00000000000E+00 0.  1.
         22    1    4    4    0    0  0.19461122930E+02 -0.36749854148E+01  0.44199142567E+03  0.44243492312E+03  0.00000000000E+00 0.  1.
         22    1    4    4    0    0  0.46796584795E+00  0.96482246153E+00  0.17171023772E+02  0.17204474179E+02  0.00000000000E+00 0.  1.
<mgrwt>
<rscale>  0 0.80202656E+02</rscale>
<asrwt>0</asrwt>
<pdfrwt beam="1">  1        2 0.75821095E-01 0.80202656E+02</pdfrwt>
<pdfrwt beam="2">  1       -2 0.50199657E-03 0.80202656E+02</pdfrwt>
<totfact> 0.30047984E+05</totfact>
</mgrwt>
</event>
<event>
 7    1  0.3480999E-009  0.9489169E+02  0.7818608E-02  0.1291420E+00
         -2   -1    0    0    0  501 -0.00000000000E+00  0.00000000000E+00  0.53607095725E+01  0.53607101790E+01  0.25500000000E-02 0. -1.
          2   -1    0    0  501    0  0.00000000000E+00 -0.00000000000E+00 -0.41992723441E+03  0.41992723442E+03  0.25500000000E-02 0.  1.
         23    2    1    2    0    0  0.00000000000E+00  0.00000000000E+00 -0.41456652484E+03  0.42528794460E+03  0.94891687220E+02 0.  0.
    9000005    2    3    3    0    0  0.25336928404E+02  0.51146630029E+01 -0.38440320362E+03  0.38556458037E+03  0.15036720532E+02 0.  0.
         22    1    3    3    0    0 -0.25336928404E+02 -0.51146630029E+01 -0.30163321219E+02  0.39723364227E+02  0.00000000000E+00 0. -1.
         22    1    4    4    0    0  0.16420354352E+01  0.32455599705E+01 -0.16582857123E+02  0.16977075433E+02  0.00000000000E+00 0.  1.
         22    1    4    4    0    0  0.23694892969E+02  0.18691030324E+01 -0.36782034650E+03  0.36858750494E+03  0.00000000000E+00 0.  1.
<mgrwt>
<rscale>  0 0.94891687E+02</rscale>
<asrwt>0</asrwt>
<pdfrwt beam="2">  1        2 0.64604164E-01 0.94891687E+02</pdfrwt>
<pdfrwt beam="1">  1       -2 0.82472493E-03 0.94891687E+02</pdfrwt>
<totfact> 0.18263218E+05</totfact>
</mgrwt>
</event>
<event>
 7    1  0.3480999E-009  0.9138378E+02  0.7818608E-02  0.1299535E+00
         -2   -1    0    0    0  501 -0.00000000000E+00  0.00000000000E+00  0.77887899456E+01  0.77887903630E+01  0.25500000000E-02 0.  1.
          2   -1    0    0  501    0  0.00000000000E+00 -0.00000000000E+00 -0.26804530411E+03  0.26804530412E+03  0.25500000000E-02 0. -1.
         23    2    1    2    0    0  0.00000000000E+00  0.00000000000E+00 -0.26025651417E+03  0.27583409449E+03  0.91383775997E+02 0.  0.
    9000005    2    3    3    0    0  0.10264712319E+02  0.42808258495E+02 -0.15481646818E+03  0.16157336365E+03  0.14138659987E+02 0.  0.
         22    1    3    3    0    0 -0.10264712319E+02 -0.42808258495E+02 -0.10544004598E+03  0.11426073084E+03  0.00000000000E+00 0. -1.
         22    1    4    4    0    0 -0.28933621288E+01  0.80212147412E+01 -0.39406686810E+02  0.40318710243E+02  0.00000000000E+00 0.  1.
         22    1    4    4    0    0  0.13158074448E+02  0.34787043754E+02 -0.11540978137E+03  0.12125465341E+03  0.00000000000E+00 0.  1.
<mgrwt>
<rscale>  0 0.91383776E+02</rscale>
<asrwt>0</asrwt>
<pdfrwt beam="2">  1        2 0.41237732E-01 0.91383776E+02</pdfrwt>
<pdfrwt beam="1">  1       -2 0.11982756E-02 0.91383776E+02</pdfrwt>
<totfact> 0.17122677E+05</totfact>
</mgrwt>
</event>
<event>
 7    1  0.4014061E-009  0.9079586E+02  0.7818608E-02  0.1300936E+00
          2   -1    0    0  501    0  0.00000000000E+00  0.00000000000E+00  0.34391256099E+02  0.34391256194E+02  0.25500000000E-02 0. -1.
         -2   -1    0    0    0  501 -0.00000000000E+00 -0.00000000000E+00 -0.59927211305E+02  0.59927211359E+02  0.25500000000E-02 0.  1.
         23    2    1    2    0    0 -0.88817841970E-15  0.00000000000E+00 -0.25535955206E+02  0.94318467553E+02  0.90795860661E+02 0.  0.
    9000005    2    3    3    0    0  0.66603667004E+01 -0.17917877710E+02 -0.54528282231E+02  0.59591448496E+02  0.14573823952E+02 0.  0.
         22    1    3    3    0    0 -0.66603667004E+01  0.17917877710E+02  0.28992327026E+02  0.34727019057E+02  0.00000000000E+00 0. -1.
         22    1    4    4    0    0  0.66183869998E+01 -0.13124767726E+02 -0.20488790712E+02  0.25216128156E+02  0.00000000000E+00 0.  1.
         22    1    4    4    0    0  0.41979700674E-01 -0.47931099838E+01 -0.34039491519E+02  0.34375320340E+02  0.00000000000E+00 0.  1.
<mgrwt>
<rscale>  0 0.90795861E+02</rscale>
<asrwt>0</asrwt>
<pdfrwt beam="1">  1        2 0.52909625E-02 0.90795861E+02</pdfrwt>
<pdfrwt beam="2">  1       -2 0.92195710E-02 0.90795861E+02</pdfrwt>
<totfact> 0.92848252E+04</totfact>
</mgrwt>
</event>
<event>
 7    1  0.3480999E-009  0.9654753E+02  0.7818608E-02  0.1287728E+00
          2   -1    0    0  501    0  0.00000000000E+00  0.00000000000E+00  0.43525729966E+01  0.43525737436E+01  0.25500000000E-02 0. -1.
         -2   -1    0    0    0  501 -0.00000000000E+00 -0.00000000000E+00 -0.53539737818E+03  0.53539737819E+03  0.25500000000E-02 0.  1.
         23    2    1    2    0    0  0.00000000000E+00  0.00000000000E+00 -0.53104480518E+03  0.53974995193E+03  0.96547529724E+02 0.  0.
    9000005    2    3    3    0    0 -0.39453173310E+02  0.19827965257E+02 -0.37408679686E+03  0.37669929273E+03  0.34241003866E+01 0.  0.
         22    1    3    3    0    0  0.39453173310E+02 -0.19827965257E+02 -0.15695800832E+03  0.16305065920E+03  0.00000000000E+00 0. -1.
         22    1    4    4    0    0 -0.12543761001E+01  0.13342703419E+01 -0.17655836737E+02  0.17750557953E+02  0.00000000000E+00 0.  1.
         22    1    4    4    0    0 -0.38198797210E+02  0.18493694915E+02 -0.35643096012E+03  0.35894873477E+03  0.00000000000E+00 0.  1.
<mgrwt>
<rscale>  0 0.96547530E+02</rscale>
<asrwt>0</asrwt>
<pdfrwt beam="1">  1        2 0.66962710E-03 0.96547530E+02</pdfrwt>
<pdfrwt beam="2">  1       -2 0.82368775E-01 0.96547530E+02</pdfrwt>
<totfact> 0.29635613E+04</totfact>
</mgrwt>
</event>
<event>
 7    1  0.3480999E-009  0.9026932E+02  0.7818608E-02  0.1302201E+00
          2   -1    0    0  501    0  0.00000000000E+00  0.00000000000E+00  0.10140868429E+03  0.10140868432E+03  0.25500000000E-02 0. -1.
         -2   -1    0    0    0  501 -0.00000000000E+00 -0.00000000000E+00 -0.20088393504E+02  0.20088393666E+02  0.25500000000E-02 0.  1.
         23    2    1    2    0    0  0.00000000000E+00  0.00000000000E+00  0.81320290783E+02  0.12149707798E+03  0.90269320734E+02 0.  0.
    9000005    2    3    3    0    0  0.35910322557E+02  0.20389733526E+02  0.64687562626E+02  0.76978091638E+02  0.59877653890E+01 0.  0.
         22    1    3    3    0    0 -0.35910322557E+02 -0.20389733526E+02  0.16632728157E+02  0.44518986347E+02  0.00000000000E+00 0. -1.
         22    1    4    4    0    0  0.23482657412E+02  0.15488146868E+02  0.47561716110E+02  0.55257892938E+02  0.00000000000E+00 0. -1.
         22    1    4    4    0    0  0.12427665144E+02  0.49015866581E+01  0.17125846516E+02  0.21720198700E+02  0.00000000000E+00 0. -1.
<mgrwt>
<rscale>  0 0.90269321E+02</rscale>
<asrwt>0</asrwt>
<pdfrwt beam="1">  1        2 0.15601336E-01 0.90269321E+02</pdfrwt>
<pdfrwt beam="2">  1       -2 0.30905221E-02 0.90269321E+02</pdfrwt>
<totfact> 0.12663413E+05</totfact>
</mgrwt>
</event>
<event>
 7    1  0.3480999E-009  0.9081574E+02  0.7818608E-02  0.1300888E+00
          2   -1    0    0  501    0  0.00000000000E+00  0.00000000000E+00  0.89552994128E+01  0.89552997758E+01  0.25500000000E-02 0. -1.
         -2   -1    0    0    0  501 -0.00000000000E+00 -0.00000000000E+00 -0.23024074090E+03  0.23024074092E+03  0.25500000000E-02 0.  1.
         23    2    1    2    0    0  0.00000000000E+00 -0.71054273576E-14 -0.22128544149E+03  0.23919604069E+03  0.90815743501E+02 0.  0.
    9000005    2    3    3    0    0  0.20081094882E+02 -0.39585486414E+02 -0.12091436838E+03  0.12944808662E+03  0.12894244534E+02 0.  0.
         22    1    3    3    0    0 -0.20081094882E+02  0.39585486414E+02 -0.10037107311E+03  0.10974795408E+03  0.00000000000E+00 0.  1.
         22    1    4    4    0    0 -0.29813248572E+00 -0.11589311546E+02 -0.30763605694E+02  0.32875529811E+02  0.00000000000E+00 0.  1.
         22    1    4    4    0    0  0.20379227367E+02 -0.27996174868E+02 -0.90150762686E+02  0.96572556807E+02  0.00000000000E+00 0.  1.
<mgrwt>
<rscale>  0 0.90815744E+02</rscale>
<asrwt>0</asrwt>
<pdfrwt beam="1">  1        2 0.13777386E-02 0.90815744E+02</pdfrwt>
<pdfrwt beam="2">  1       -2 0.35421648E-01 0.90815744E+02</pdfrwt>
<totfact> 0.59068130E+04</totfact>
</mgrwt>
</event>
<event>
 7    1  0.3480999E-009  0.8848137E+02  0.7818608E-02  0.1306572E+00
         -2   -1    0    0    0  501 -0.00000000000E+00  0.00000000000E+00  0.43840982484E+01  0.43840989900E+01  0.25500000000E-02 0.  1.
          2   -1    0    0  501    0  0.00000000000E+00 -0.00000000000E+00 -0.44644023616E+03  0.44644023616E+03  0.25500000000E-02 0. -1.
         23    2    1    2    0    0  0.22204460493E-15  0.00000000000E+00 -0.44205613791E+03  0.45082433515E+03  0.88481365861E+02 0.  0.
    9000005    2    3    3    0    0 -0.30009190757E+00 -0.30121601436E+02 -0.38422329211E+03  0.38561667470E+03  0.12856153463E+02 0.  0.
         22    1    3    3    0    0  0.30009190757E+00  0.30121601436E+02 -0.57832845800E+02  0.65207660451E+02  0.00000000000E+00 0.  1.
         22    1    4    4    0    0  0.62680793575E+01 -0.14955201113E+02 -0.19470351272E+03  0.19537759525E+03  0.00000000000E+00 0.  1.
         22    1    4    4    0    0 -0.65681712651E+01 -0.15166400323E+02 -0.18951977938E+03  0.19023907945E+03  0.00000000000E+00 0.  1.
<mgrwt>
<rscale>  0 0.88481366E+02</rscale>
<asrwt>0</asrwt>
<pdfrwt beam="2">  1        2 0.68683077E-01 0.88481366E+02</pdfrwt>
<pdfrwt beam="1">  1       -2 0.67447707E-03 0.88481366E+02</pdfrwt>
<totfact> 0.22461536E+05</totfact>
</mgrwt>
</event>
<event>
 7    1  0.3480999E-009  0.9405771E+02  0.7818608E-02  0.1293313E+00
          2   -1    0    0  501    0  0.00000000000E+00  0.00000000000E+00  0.10880391871E+03  0.10880391874E+03  0.25500000000E-02 0. -1.
         -2   -1    0    0    0  501 -0.00000000000E+00 -0.00000000000E+00 -0.20327512864E+02  0.20327513024E+02  0.25500000000E-02 0.  1.
         23    2    1    2    0    0  0.00000000000E+00  0.00000000000E+00  0.88476405850E+02  0.12913143177E+03  0.94057707172E+02 0.  0.
    9000005    2    3    3    0    0 -0.65780895532E+01 -0.46291011219E+02  0.38245054851E+02  0.60506963792E+02  0.35042067501E+01 0.  0.
         22    1    3    3    0    0  0.65780895532E+01  0.46291011219E+02  0.50231350999E+02  0.68624467976E+02  0.00000000000E+00 0. -1.
         22    1    4    4    0    0 -0.40740035229E+01 -0.24084551399E+02  0.17868722930E+02  0.30264738226E+02  0.00000000000E+00 0.  1.
         22    1    4    4    0    0 -0.25040860303E+01 -0.22206459820E+02  0.20376331922E+02  0.30242225566E+02  0.00000000000E+00 0.  1.
<mgrwt>
<rscale>  0 0.94057707E+02</rscale>
<asrwt>0</asrwt>
<pdfrwt beam="1">  1        2 0.16739065E-01 0.94057707E+02</pdfrwt>
<pdfrwt beam="2">  1       -2 0.31273096E-02 0.94057707E+02</pdfrwt>
<totfact> 0.11557543E+05</totfact>
</mgrwt>
</event>
<event>
 7    1  0.3480999E-009  0.9210663E+02  0.7818608E-02  0.1297829E+00
         -2   -1    0    0    0  501 -0.00000000000E+00  0.00000000000E+00  0.37832141469E+02  0.37832141555E+02  0.25500000000E-02 0. -1.
          2   -1    0    0  501    0  0.00000000000E+00 -0.00000000000E+00 -0.56061000929E+02  0.56061000987E+02  0.25500000000E-02 0.  1.
         23    2    1    2    0    0  0.00000000000E+00  0.00000000000E+00 -0.18228859460E+02  0.93893142542E+02  0.92106627879E+02 0.  0.
    9000005    2    3    3    0    0  0.21360972595E+02  0.29141458769E+02 -0.37981922317E+02  0.52714273427E+02  0.55364637340E+01 0.  0.
         22    1    3    3    0    0 -0.21360972595E+02 -0.29141458769E+02  0.19753062857E+02  0.41178869115E+02  0.00000000000E+00 0. -1.
         22    1    4    4    0    0  0.17433303532E+01  0.57842257199E+01 -0.67379472117E+01  0.90496630062E+01  0.00000000000E+00 0. -1.
         22    1    4    4    0    0  0.19617642242E+02  0.23357233049E+02 -0.31243975105E+02  0.43664610421E+02  0.00000000000E+00 0. -1.
<mgrwt>
<rscale>  0 0.92106628E+02</rscale>
<asrwt>0</asrwt>
<pdfrwt beam="2">  1        2 0.86247693E-02 0.92106628E+02</pdfrwt>
<pdfrwt beam="1">  1       -2 0.58203295E-02 0.92106628E+02</pdfrwt>
<totfact> 0.10121039E+05</totfact>
</mgrwt>
</event>
<event>
 7    1  0.3480999E-009  0.9299763E+02  0.7818608E-02  0.1295751E+00
          2   -1    0    0  501    0  0.00000000000E+00  0.00000000000E+00  0.23552138933E+02  0.23552139071E+02  0.25500000000E-02 0.  1.
         -2   -1    0    0    0  501 -0.00000000000E+00 -0.00000000000E+00 -0.91802265897E+02  0.91802265932E+02  0.25500000000E-02 0. -1.
         23    2    1    2    0    0 -0.11102230246E-15  0.71054273576E-14 -0.68250126964E+02  0.11535440500E+03  0.92997628589E+02 0.  0.
    9000005    2    3    3    0    0 -0.84789517410E+00 -0.42195882097E+02 -0.57735307009E+02  0.71859890052E+02  0.70190263293E+01 0.  0.
         22    1    3    3    0    0  0.84789517410E+00  0.42195882097E+02 -0.10514819954E+02  0.43494514951E+02  0.00000000000E+00 0.  1.
         22    1    4    4    0    0  0.18743444469E+01 -0.16757062434E+02 -0.18613110633E+02  0.25114939696E+02  0.00000000000E+00 0. -1.
         22    1    4    4    0    0 -0.27222396210E+01 -0.25438819663E+02 -0.39122196376E+02  0.46744950355E+02  0.00000000000E+00 0. -1.
<mgrwt>
<rscale>  0 0.92997629E+02</rscale>
<asrwt>0</asrwt>
<pdfrwt beam="1">  1        2 0.36234061E-02 0.92997629E+02</pdfrwt>
<pdfrwt beam="2">  1       -2 0.14123425E-01 0.92997629E+02</pdfrwt>
<totfact> 0.77921506E+04</totfact>
</mgrwt>
</event>
<event>
 7    1  0.3480999E-009  0.1009605E+03  0.7818608E-02  0.1278289E+00
          2   -1    0    0  501    0  0.00000000000E+00  0.00000000000E+00  0.11223068035E+03  0.11223068038E+03  0.25500000000E-02 0. -1.
         -2   -1    0    0    0  501 -0.00000000000E+00 -0.00000000000E+00 -0.22705501631E+02  0.22705501774E+02  0.25500000000E-02 0.  1.
         23    2    1    2    0    0  0.00000000000E+00  0.00000000000E+00  0.89525178716E+02  0.13493618215E+03  0.10096046567E+03 0.  0.
    9000005    2    3    3    0    0 -0.85532509194E+01 -0.34314883558E+02  0.92574000232E+02  0.99440201427E+02  0.82303587958E+01 0.  0.
         22    1    3    3    0    0  0.85532509194E+01  0.34314883558E+02 -0.30488215158E+01  0.35495980724E+02  0.00000000000E+00 0.  1.
         22    1    4    4    0    0 -0.86897509340E+01 -0.22685384328E+02  0.69040672395E+02  0.73189841359E+02  0.00000000000E+00 0. -1.
         22    1    4    4    0    0  0.13650001462E+00 -0.11629499230E+02  0.23533327837E+02  0.26250360068E+02  0.00000000000E+00 0. -1.
<mgrwt>
<rscale>  0 0.10096047E+03</rscale>
<asrwt>0</asrwt>
<pdfrwt beam="1">  1        2 0.17266258E-01 0.10096047E+03</pdfrwt>
<pdfrwt beam="2">  1       -2 0.34931541E-02 0.10096047E+03</pdfrwt>
<totfact> 0.95932886E+04</totfact>
</mgrwt>
</event>
<event>
 7    1  0.3480999E-009  0.9196409E+02  0.7818608E-02  0.1298164E+00
          2   -1    0    0  501    0  0.00000000000E+00  0.00000000000E+00  0.29076009200E+03  0.29076009201E+03  0.25500000000E-02 0. -1.
         -2   -1    0    0    0  501 -0.00000000000E+00 -0.00000000000E+00 -0.72717971568E+01  0.72717976039E+01  0.25500000000E-02 0.  1.
         23    2    1    2    0    0  0.00000000000E+00  0.00000000000E+00  0.28348829484E+03  0.29803188961E+03  0.91964090352E+02 0.  0.
    9000005    2    3    3    0    0  0.21489896445E+02  0.31734729928E+02  0.61405489427E+02  0.72666228534E+02  0.63904541937E+01 0.  0.
         22    1    3    3    0    0 -0.21489896445E+02 -0.31734729928E+02  0.22208280541E+03  0.22536566108E+03  0.00000000000E+00 0. -1.
         22    1    4    4    0    0  0.11909166605E+01  0.44801689351E+01  0.50310046748E+01  0.68411405641E+01  0.00000000000E+00 0.  1.
         22    1    4    4    0    0  0.20298979785E+02  0.27254560993E+02  0.56374484752E+02  0.65825087970E+02  0.00000000000E+00 0.  1.
<mgrwt>
<rscale>  0 0.91964090E+02</rscale>
<asrwt>0</asrwt>
<pdfrwt beam="1">  1        2 0.44732325E-01 0.91964090E+02</pdfrwt>
<pdfrwt beam="2">  1       -2 0.11187380E-02 0.91964090E+02</pdfrwt>
<totfact> 0.17354378E+05</totfact>
</mgrwt>
</event>
<event>
 7    1  0.3480999E-009  0.9037656E+02  0.7818608E-02  0.1301942E+00
         -2   -1    0    0    0  501 -0.00000000000E+00  0.00000000000E+00  0.15583394866E+03  0.15583394868E+03  0.25500000000E-02 0.  1.
          2   -1    0    0  501    0  0.00000000000E+00 -0.00000000000E+00 -0.13103567456E+02  0.13103567704E+02  0.25500000000E-02 0. -1.
         23    2    1    2    0    0 -0.35527136788E-14 -0.71054273576E-14  0.14273038121E+03  0.16893751639E+03  0.90376560701E+02 0.  0.
    9000005    2    3    3    0    0  0.24775858834E+02  0.37541054954E+02  0.73566705994E+02  0.86434256107E+02  0.59704614606E+01 0.  0.
         22    1    3    3    0    0 -0.24775858834E+02 -0.37541054954E+02  0.69163675214E+02  0.82503260282E+02  0.00000000000E+00 0.  1.
         22    1    4    4    0    0  0.33105036263E+01  0.94078970796E+01  0.15301091892E+02  0.18264483973E+02  0.00000000000E+00 0. -1.
         22    1    4    4    0    0  0.21465355208E+02  0.28133157875E+02  0.58265614102E+02  0.68169772134E+02  0.00000000000E+00 0. -1.
<mgrwt>
<rscale>  0 0.90376561E+02</rscale>
<asrwt>0</asrwt>
<pdfrwt beam="2">  1        2 0.20159334E-02 0.90376561E+02</pdfrwt>
<pdfrwt beam="1">  1       -2 0.23974454E-01 0.90376561E+02</pdfrwt>
<totfact> 0.70438299E+04</totfact>
</mgrwt>
</event>
<event>
 7    1  0.3480999E-009  0.8548733E+02  0.7818608E-02  0.1314163E+00
          2   -1    0    0  501    0  0.00000000000E+00  0.00000000000E+00  0.44013540169E+02  0.44013540243E+02  0.25500000000E-02 0. -1.
         -2   -1    0    0    0  501 -0.00000000000E+00 -0.00000000000E+00 -0.41510426754E+02  0.41510426832E+02  0.25500000000E-02 0.  1.
         23    2    1    2    0    0  0.00000000000E+00 -0.35527136788E-14  0.25031134148E+01  0.85523967075E+02  0.85487328695E+02 0.  0.
    9000005    2    3    3    0    0  0.56658529148E+01 -0.27581243943E+02  0.31963115351E+02  0.44772051528E+02  0.13786549546E+02 0.  0.
         22    1    3    3    0    0 -0.56658529148E+01  0.27581243943E+02 -0.29460001936E+02  0.40751915547E+02  0.00000000000E+00 0.  1.
         22    1    4    4    0    0 -0.79978215719E+00  0.44308360055E+00 -0.77250064038E+00  0.11969677587E+01  0.00000000000E+00 0. -1.
         22    1    4    4    0    0  0.64656350720E+01 -0.28024327543E+02  0.32735615991E+02  0.43575083769E+02  0.00000000000E+00 0. -1.
<mgrwt>
<rscale>  0 0.85487329E+02</rscale>
<asrwt>0</asrwt>
<pdfrwt beam="1">  1        2 0.67713139E-02 0.85487329E+02</pdfrwt>
<pdfrwt beam="2">  1       -2 0.63862195E-02 0.85487329E+02</pdfrwt>
<totfact> 0.11753170E+05</totfact>
</mgrwt>
</event>
<event>
 7    1  0.3480999E-009  0.8949144E+02  0.7818608E-02  0.1304088E+00
          2   -1    0    0  501    0  0.00000000000E+00  0.00000000000E+00  0.42861060938E+02  0.42861061013E+02  0.25500000000E-02 0.  1.
         -2   -1    0    0    0  501 -0.00000000000E+00 -0.00000000000E+00 -0.46713245101E+02  0.46713245171E+02  0.25500000000E-02 0. -1.
         23    2    1    2    0    0  0.00000000000E+00  0.35527136788E-14 -0.38521841635E+01  0.89574306184E+02  0.89491435375E+02 0.  0.
    9000005    2    3    3    0    0  0.82215253107E+01  0.20667840567E+02 -0.40444099317E+02  0.46752333241E+02  0.74365571151E+01 0.  0.
         22    1    3    3    0    0 -0.82215253107E+01 -0.20667840567E+02  0.36591915154E+02  0.42821972943E+02  0.00000000000E+00 0.  1.
         22    1    4    4    0    0  0.15987244068E+01  0.13302075864E+02 -0.20602974726E+02  0.24576080029E+02  0.00000000000E+00 0.  1.
         22    1    4    4    0    0  0.66228009039E+01  0.73657647029E+01 -0.19841124591E+02  0.22176253212E+02  0.00000000000E+00 0.  1.
<mgrwt>
<rscale>  0 0.89491435E+02</rscale>
<asrwt>0</asrwt>
<pdfrwt beam="1">  1        2 0.65940094E-02 0.89491435E+02</pdfrwt>
<pdfrwt beam="2">  1       -2 0.71866531E-02 0.89491435E+02</pdfrwt>
<totfact> 0.10245918E+05</totfact>
</mgrwt>
</event>
<event>
 7    1  0.3480999E-009  0.8943350E+02  0.7818608E-02  0.1304229E+00
         -2   -1    0    0    0  501 -0.00000000000E+00  0.00000000000E+00  0.34130135787E+01  0.34130145313E+01  0.25500000000E-02 0.  1.
          2   -1    0    0  501    0  0.00000000000E+00 -0.00000000000E+00 -0.58587153521E+03  0.58587153522E+03  0.25500000000E-02 0. -1.
         23    2    1    2    0    0  0.71054273576E-14  0.35527136788E-14 -0.58245852163E+03  0.58928454975E+03  0.89433501270E+02 0.  0.
    9000005    2    3    3    0    0 -0.34218489769E+02 -0.24324319780E+02 -0.38952905603E+03  0.39183998468E+03  0.65658611291E+01 0.  0.
         22    1    3    3    0    0  0.34218489769E+02  0.24324319780E+02 -0.19292946560E+03  0.19744456506E+03  0.00000000000E+00 0.  1.
         22    1    4    4    0    0 -0.30379399645E+02 -0.23672120942E+02 -0.36034026777E+03  0.36239258520E+03  0.00000000000E+00 0.  1.
         22    1    4    4    0    0 -0.38390901241E+01 -0.65219883882E+00 -0.29188788260E+02  0.29447399485E+02  0.00000000000E+00 0.  1.
<mgrwt>
<rscale>  0 0.89433501E+02</rscale>
<asrwt>0</asrwt>
<pdfrwt beam="2">  1        2 0.90134002E-01 0.89433501E+02</pdfrwt>
<pdfrwt beam="1">  1       -2 0.52507955E-03 0.89433501E+02</pdfrwt>
<totfact> 0.23812421E+05</totfact>
</mgrwt>
</event>
<event>
 7    1  0.3480999E-009  0.9101158E+02  0.7818608E-02  0.1300420E+00
         -2   -1    0    0    0  501 -0.00000000000E+00  0.00000000000E+00  0.49248345648E+01  0.49248352249E+01  0.25500000000E-02 0.  1.
          2   -1    0    0  501    0  0.00000000000E+00 -0.00000000000E+00 -0.42047642557E+03  0.42047642557E+03  0.25500000000E-02 0. -1.
         23    2    1    2    0    0 -0.35527136788E-14 -0.35527136788E-14 -0.41555159100E+03  0.42540126080E+03  0.91011581161E+02 0.  0.
    9000005    2    3    3    0    0 -0.22499562616E+02 -0.16267624214E+02 -0.37494520412E+03  0.37621036153E+03  0.13396421624E+02 0.  0.
         22    1    3    3    0    0  0.22499562616E+02  0.16267624214E+02 -0.40606386876E+02  0.49190899266E+02  0.00000000000E+00 0.  1.
         22    1    4    4    0    0 -0.12676910835E+02 -0.39077680604E+01 -0.11033430388E+03  0.11112890412E+03  0.00000000000E+00 0.  1.
         22    1    4    4    0    0 -0.98226517810E+01 -0.12359856154E+02 -0.26461090025E+03  0.26508145741E+03  0.00000000000E+00 0.  1.
<mgrwt>
<rscale>  0 0.91011581E+02</rscale>
<asrwt>0</asrwt>
<pdfrwt beam="2">  1        2 0.64688653E-01 0.91011581E+02</pdfrwt>
<pdfrwt beam="1">  1       -2 0.75766724E-03 0.91011581E+02</pdfrwt>
<totfact> 0.20417265E+05</totfact>
</mgrwt>
</event>
<event>
 7    1  0.3480999E-009  0.9060478E+02  0.7818608E-02  0.1301394E+00
          2   -1    0    0  501    0  0.00000000000E+00  0.00000000000E+00  0.30706026095E+03  0.30706026096E+03  0.25500000000E-02 0. -1.
         -2   -1    0    0    0  501 -0.00000000000E+00 -0.00000000000E+00 -0.66837257282E+01  0.66837262146E+01  0.25500000000E-02 0.  1.
         23    2    1    2    0    0  0.00000000000E+00 -0.71054273576E-14  0.30037653522E+03  0.31374398717E+03  0.90604782306E+02 0.  0.
    9000005    2    3    3    0    0  0.12723940201E+02 -0.39501146661E+02  0.20799255683E+03  0.21246694780E+03  0.12611937499E+02 0.  0.
         22    1    3    3    0    0 -0.12723940201E+02  0.39501146661E+02  0.92383978384E+02  0.10127703937E+03  0.00000000000E+00 0.  1.
         22    1    4    4    0    0  0.18952425469E+01 -0.91979048760E+01  0.77417053538E+02  0.77984572685E+02  0.00000000000E+00 0. -1.
         22    1    4    4    0    0  0.10828697654E+02 -0.30303241784E+02  0.13057550330E+03  0.13448237511E+03  0.00000000000E+00 0. -1.
<mgrwt>
<rscale>  0 0.90604782E+02</rscale>
<asrwt>0</asrwt>
<pdfrwt beam="1">  1        2 0.47240028E-01 0.90604782E+02</pdfrwt>
<pdfrwt beam="2">  1       -2 0.10282658E-02 0.90604782E+02</pdfrwt>
<totfact> 0.18428756E+05</totfact>
</mgrwt>
</event>
<event>
 7    1  0.3547919E-009  0.8794586E+02  0.7818608E-02  0.1307904E+00
         -2   -1    0    0    0  501 -0.00000000000E+00  0.00000000000E+00  0.57388489358E+01  0.57388495023E+01  0.25500000000E-02 0.  1.
          2   -1    0    0  501    0  0.00000000000E+00 -0.00000000000E+00 -0.33693492455E+03  0.33693492456E+03  0.25500000000E-02 0. -1.
         23    2    1    2    0    0  0.88817841970E-15  0.00000000000E+00 -0.33119607561E+03  0.34267377406E+03  0.87945863618E+02 0.  0.
    9000005    2    3    3    0    0 -0.63814593041E+01 -0.83113013958E+01 -0.33163983387E+03  0.33218579641E+03  0.15894123877E+02 0.  0.
         22    1    3    3    0    0  0.63814593041E+01  0.83113013958E+01  0.44375825970E+00  0.10487977648E+02  0.00000000000E+00 0.  1.
         22    1    4    4    0    0 -0.95892325285E+01  0.53971917859E+00 -0.17482431838E+03  0.17508794068E+03  0.00000000000E+00 0.  1.
         22    1    4    4    0    0  0.32077732243E+01 -0.88510205744E+01 -0.15681551550E+03  0.15709785573E+03  0.00000000000E+00 0.  1.
<mgrwt>
<rscale>  0 0.87945864E+02</rscale>
<asrwt>0</asrwt>
<pdfrwt beam="2">  1        2 0.51836127E-01 0.87945864E+02</pdfrwt>
<pdfrwt beam="1">  1       -2 0.88290014E-03 0.87945864E+02</pdfrwt>
<totfact> 0.20641970E+05</totfact>
</mgrwt>
</event>
<event>
 7    1  0.3480999E-009  0.8988398E+02  0.7818608E-02  0.1303133E+00
         -2   -1    0    0    0  501 -0.00000000000E+00  0.00000000000E+00  0.11248130460E+03  0.11248130462E+03  0.25500000000E-02 0.  1.
          2   -1    0    0  501    0  0.00000000000E+00 -0.00000000000E+00 -0.17956605609E+02  0.17956605790E+02  0.25500000000E-02 0. -1.
         23    2    1    2    0    0  0.00000000000E+00  0.00000000000E+00  0.94524698986E+02  0.13043791041E+03  0.89883979412E+02 0.  0.
    9000005    2    3    3    0    0  0.33934113103E+02 -0.28283718495E+02  0.58773315996E+02  0.73607864227E+02  0.35103046771E+01 0.  0.
         22    1    3    3    0    0 -0.33934113103E+02  0.28283718495E+02  0.35751382990E+02  0.56830046188E+02  0.00000000000E+00 0. -1.
         22    1    4    4    0    0  0.90923054039E+01 -0.70355354879E+01  0.17838535466E+02  0.21222208290E+02  0.00000000000E+00 0.  1.
         22    1    4    4    0    0  0.24841807699E+02 -0.21248183007E+02  0.40934780530E+02  0.52385655936E+02  0.00000000000E+00 0.  1.
<mgrwt>
<rscale>  0 0.89883979E+02</rscale>
<asrwt>0</asrwt>
<pdfrwt beam="2">  1        2 0.27625548E-02 0.89883979E+02</pdfrwt>
<pdfrwt beam="1">  1       -2 0.17304816E-01 0.89883979E+02</pdfrwt>
<totfact> 0.79785740E+04</totfact>
</mgrwt>
</event>
<event>
 7    1  0.3480999E-009  0.9408454E+02  0.7818608E-02  0.1293251E+00
         -2   -1    0    0    0  501 -0.00000000000E+00  0.00000000000E+00  0.85522771106E+03  0.85522771107E+03  0.25500000000E-02 0.  1.
          2   -1    0    0  501    0  0.00000000000E+00 -0.00000000000E+00 -0.25875851838E+01  0.25875864403E+01  0.25500000000E-02 0. -1.
         23    2    1    2    0    0  0.35527136788E-14  0.00000000000E+00  0.85264012588E+03  0.85781529751E+03  0.94084538464E+02 0.  0.
    9000005    2    3    3    0    0  0.31220384969E+02 -0.16654763160E+01  0.74484978282E+03  0.74558230634E+03  0.10690664842E+02 0.  0.
         22    1    3    3    0    0 -0.31220384969E+02  0.16654763160E+01  0.10779034306E+03  0.11223299117E+03  0.00000000000E+00 0. -1.
         22    1    4    4    0    0  0.19372548718E+02 -0.23665724984E+01  0.34090119480E+03  0.34145939865E+03  0.00000000000E+00 0. -1.
         22    1    4    4    0    0  0.11847836252E+02  0.70109618240E+00  0.40394858802E+03  0.40412290769E+03  0.00000000000E+00 0. -1.
<mgrwt>
<rscale>  0 0.94084538E+02</rscale>
<asrwt>0</asrwt>
<pdfrwt beam="2">  1        2 0.39808974E-03 0.94084538E+02</pdfrwt>
<pdfrwt beam="1">  1       -2 0.13157362E+00 0.94084538E+02</pdfrwt>
<totfact> 0.20498159E+04</totfact>
</mgrwt>
</event>
<event>
 7    1  0.3480999E-009  0.9249590E+02  0.7818608E-02  0.1296918E+00
          2   -1    0    0  501    0  0.00000000000E+00  0.00000000000E+00  0.21813850249E+03  0.21813850250E+03  0.25500000000E-02 0. -1.
         -2   -1    0    0    0  501 -0.00000000000E+00 -0.00000000000E+00 -0.98051136616E+01  0.98051139931E+01  0.25500000000E-02 0.  1.
         23    2    1    2    0    0  0.00000000000E+00  0.00000000000E+00  0.20833338882E+03  0.22794361649E+03  0.92495899376E+02 0.  0.
    9000005    2    3    3    0    0  0.17789486786E+02 -0.34458614680E+02  0.16508486679E+03  0.16985492032E+03  0.96860077099E+01 0.  0.
         22    1    3    3    0    0 -0.17789486786E+02  0.34458614680E+02  0.43248522030E+02  0.58088696177E+02  0.00000000000E+00 0.  1.
         22    1    4    4    0    0  0.65617370439E+01 -0.22963308844E+02  0.96046312990E+02  0.98971026998E+02  0.00000000000E+00 0. -1.
         22    1    4    4    0    0  0.11227749743E+02 -0.11495305837E+02  0.69038553804E+02  0.70883893318E+02  0.00000000000E+00 0. -1.
<mgrwt>
<rscale>  0 0.92495899E+02</rscale>
<asrwt>0</asrwt>
<pdfrwt beam="1">  1        2 0.33559768E-01 0.92495899E+02</pdfrwt>
<pdfrwt beam="2">  1       -2 0.15084791E-02 0.92495899E+02</pdfrwt>
<totfact> 0.15359035E+05</totfact>
</mgrwt>
</event>
<event>
 7    1  0.3480999E-009  0.9158792E+02  0.7818608E-02  0.1299051E+00
         -2   -1    0    0    0  501 -0.00000000000E+00  0.00000000000E+00  0.55981228433E+02  0.55981228491E+02  0.25500000000E-02 0.  1.
          2   -1    0    0  501    0  0.00000000000E+00 -0.00000000000E+00 -0.37460533735E+02  0.37460533821E+02  0.25500000000E-02 0. -1.
         23    2    1    2    0    0  0.00000000000E+00  0.35527136788E-14  0.18520694698E+02  0.93441762312E+02  0.91587918482E+02 0.  0.
    9000005    2    3    3    0    0  0.26990779579E+02 -0.20553761005E+02 -0.21464947312E+02  0.41003123497E+02  0.83398381097E+01 0.  0.
         22    1    3    3    0    0 -0.26990779579E+02  0.20553761005E+02  0.39985642010E+02  0.52438638814E+02  0.00000000000E+00 0.  1.
         22    1    4    4    0    0  0.27121847537E+02 -0.20920876138E+02 -0.21699611359E+02  0.40548129492E+02  0.00000000000E+00 0.  1.
         22    1    4    4    0    0 -0.13106795807E+00  0.36711513264E+00  0.23466404639E+00  0.45499400536E+00  0.00000000000E+00 0.  1.
<mgrwt>
<rscale>  0 0.91587918E+02</rscale>
<asrwt>0</asrwt>
<pdfrwt beam="2">  1        2 0.57631590E-02 0.91587918E+02</pdfrwt>
<pdfrwt beam="1">  1       -2 0.86124967E-02 0.91587918E+02</pdfrwt>
<totfact> 0.92559133E+04</totfact>
</mgrwt>
</event>
<event>
 7    1  0.3480999E-009  0.9114351E+02  0.7818608E-02  0.1300106E+00
          2   -1    0    0  501    0  0.00000000000E+00  0.00000000000E+00  0.79888778497E+03  0.79888778497E+03  0.25500000000E-02 0.  1.
         -2   -1    0    0    0  501 -0.00000000000E+00 -0.00000000000E+00 -0.25995947491E+01  0.25995959998E+01  0.25500000000E-02 0. -1.
         23    2    1    2    0    0 -0.71054273576E-14  0.44408920985E-15  0.79628819022E+03  0.80148738097E+03  0.91143513072E+02 0.  0.
    9000005    2    3    3    0    0 -0.37510891666E+02  0.22433866904E+01  0.62443531263E+03  0.62557401788E+03  0.33604187742E+01 0.  0.
         22    1    3    3    0    0  0.37510891666E+02 -0.22433866904E+01  0.17185287759E+03  0.17591336309E+03  0.00000000000E+00 0. -1.
         22    1    4    4    0    0 -0.77802668061E+01  0.18382025743E+01  0.13254574119E+03  0.13278661472E+03  0.00000000000E+00 0. -1.
         22    1    4    4    0    0 -0.29730624860E+02  0.40518411608E+00  0.49188957144E+03  0.49278740316E+03  0.00000000000E+00 0. -1.
<mgrwt>
<rscale>  0 0.91143513E+02</rscale>
<asrwt>0</asrwt>
<pdfrwt beam="1">  1        2 0.12290588E+00 0.91143513E+02</pdfrwt>
<pdfrwt beam="2">  1       -2 0.39993752E-03 0.91143513E+02</pdfrwt>
<totfact> 0.24391484E+05</totfact>
</mgrwt>
</event>
<event>
 6    1  0.3480999E-009  0.2172988E+03  0.7818608E-02  0.1135913E+00
         -2   -1    0    0    0  501 -0.00000000000E+00  0.00000000000E+00  0.16538094467E+02  0.16538094664E+02  0.25500000000E-02 0.  1.
          2   -1    0    0  501    0  0.00000000000E+00 -0.00000000000E+00 -0.71378759328E+03  0.71378759328E+03  0.25500000000E-02 0. -1.
    9000005    2    1    2    0    0  0.83492075092E+02  0.27353864791E+02 -0.56321952140E+03  0.57006591331E+03  0.63052127548E+01 0.  0.
         22    1    1    2    0    0 -0.83492075092E+02 -0.27353864791E+02 -0.13402997741E+03  0.16025977464E+03  0.00000000000E+00 0.  1.
         22    1    3    3    0    0  0.90947407919E+01  0.41961391075E+01 -0.75502246329E+02  0.76163712450E+02  0.00000000000E+00 0. -1.
         22    1    3    3    0    0  0.74397334300E+02  0.23157725684E+02 -0.48771727507E+03  0.49390220086E+03  0.00000000000E+00 0. -1.
<mgrwt>
<rscale>  0 0.21729875E+03</rscale>
<asrwt>0</asrwt>
<pdfrwt beam="2">  1        2 0.10981345E+00 0.21729875E+03</pdfrwt>
<pdfrwt beam="1">  1       -2 0.25443228E-02 0.21729875E+03</pdfrwt>
<totfact> 0.21729936E+04</totfact>
</mgrwt>
</event>
<event>
 7    1  0.3480999E-009  0.9136327E+02  0.7818608E-02  0.1299584E+00
          2   -1    0    0  501    0  0.00000000000E+00  0.00000000000E+00  0.21622216493E+02  0.21622216643E+02  0.25500000000E-02 0. -1.
         -2   -1    0    0    0  501 -0.00000000000E+00 -0.00000000000E+00 -0.96512380548E+02  0.96512380582E+02  0.25500000000E-02 0.  1.
         23    2    1    2    0    0 -0.71054273576E-14 -0.17763568394E-14 -0.74890164056E+02  0.11813459722E+03  0.91363266082E+02 0.  0.
    9000005    2    3    3    0    0 -0.37466288810E+02 -0.15578125950E+02 -0.11797565209E+02  0.43120752939E+02  0.85916228903E+01 0.  0.
         22    1    3    3    0    0  0.37466288810E+02  0.15578125950E+02 -0.63092598846E+02  0.75013844286E+02  0.00000000000E+00 0.  1.
         22    1    4    4    0    0 -0.61958356090E+01  0.51164927930E+00 -0.76544359274E+00  0.62638700316E+01  0.00000000000E+00 0. -1.
         22    1    4    4    0    0 -0.31270453201E+02 -0.16089775229E+02 -0.11032121617E+02  0.36856882908E+02  0.00000000000E+00 0. -1.
<mgrwt>
<rscale>  0 0.91363266E+02</rscale>
<asrwt>0</asrwt>
<pdfrwt beam="1">  1        2 0.33264949E-02 0.91363266E+02</pdfrwt>
<pdfrwt beam="2">  1       -2 0.14848058E-01 0.91363266E+02</pdfrwt>
<totfact> 0.80241677E+04</totfact>
</mgrwt>
</event>
<event>
 7    1  0.3480999E-009  0.9029954E+02  0.7818608E-02  0.1302128E+00
         -2   -1    0    0    0  501 -0.00000000000E+00  0.00000000000E+00  0.61265248830E+01  0.61265254137E+01  0.25500000000E-02 0.  1.
          2   -1    0    0  501    0  0.00000000000E+00 -0.00000000000E+00 -0.33273376220E+03  0.33273376221E+03  0.25500000000E-02 0. -1.
         23    2    1    2    0    0  0.00000000000E+00  0.00000000000E+00 -0.32660723731E+03  0.33886028762E+03  0.90299540754E+02 0.  0.
    9000005    2    3    3    0    0  0.24642596822E+02  0.34685045104E+02 -0.21047682940E+03  0.21518093779E+03  0.13857501297E+02 0.  0.
         22    1    3    3    0    0 -0.24642596822E+02 -0.34685045104E+02 -0.11613040791E+03  0.12367934983E+03  0.00000000000E+00 0.  1.
         22    1    4    4    0    0  0.18710800082E+02  0.27891325713E+02 -0.13275657246E+03  0.13693913838E+03  0.00000000000E+00 0. -1.
         22    1    4    4    0    0  0.59317967405E+01  0.67937193908E+01 -0.77720256942E+02  0.78241799410E+02  0.00000000000E+00 0. -1.
<mgrwt>
<rscale>  0 0.90299541E+02</rscale>
<asrwt>0</asrwt>
<pdfrwt beam="2">  1        2 0.51189796E-01 0.90299541E+02</pdfrwt>
<pdfrwt beam="1">  1       -2 0.94254259E-03 0.90299541E+02</pdfrwt>
<totfact> 0.19155854E+05</totfact>
</mgrwt>
</event>
<event>
 7    1  0.3480999E-009  0.9013768E+02  0.7818608E-02  0.1302519E+00
         -2   -1    0    0    0  501 -0.00000000000E+00  0.00000000000E+00  0.98309511770E+01  0.98309515077E+01  0.25500000000E-02 0.  1.
          2   -1    0    0  501    0  0.00000000000E+00 -0.00000000000E+00 -0.20661279585E+03  0.20661279586E+03  0.25500000000E-02 0. -1.
         23    2    1    2    0    0  0.00000000000E+00  0.00000000000E+00 -0.19678184467E+03  0.21644374737E+03  0.90137680156E+02 0.  0.
    9000005    2    3    3    0    0 -0.34200013416E+02 -0.90140633506E+00 -0.16878965754E+03  0.17223949428E+03  0.24579352154E+01 0.  0.
         22    1    3    3    0    0  0.34200013416E+02  0.90140633506E+00 -0.27992187127E+02  0.44204253089E+02  0.00000000000E+00 0.  1.
         22    1    4    4    0    0 -0.86367698417E+01 -0.12926057391E+01 -0.42442559807E+02  0.43331691703E+02  0.00000000000E+00 0. -1.
         22    1    4    4    0    0 -0.25563243575E+02  0.39119940407E+00 -0.12634709774E+03  0.12890780258E+03  0.00000000000E+00 0. -1.
<mgrwt>
<rscale>  0 0.90137680E+02</rscale>
<asrwt>0</asrwt>
<pdfrwt beam="2">  1        2 0.31786581E-01 0.90137680E+02</pdfrwt>
<pdfrwt beam="1">  1       -2 0.15124542E-02 0.90137680E+02</pdfrwt>
<totfact> 0.16140962E+05</totfact>
</mgrwt>
</event>
<event>
 7    1  0.3480999E-009  0.7659217E+02  0.7818608E-02  0.1339010E+00
         -2   -1    0    0    0  501 -0.00000000000E+00  0.00000000000E+00  0.40594821565E+01  0.40594829574E+01  0.25500000000E-02 0. -1.
          2   -1    0    0  501    0  0.00000000000E+00 -0.00000000000E+00 -0.36127516891E+03  0.36127516892E+03  0.25500000000E-02 0.  1.
         23    2    1    2    0    0  0.88817841970E-15 -0.17763568394E-14 -0.35721568676E+03  0.36533465188E+03  0.76592173222E+02 0.  0.
    9000005    2    3    3    0    0  0.50952358295E+01 -0.14629641292E+02 -0.34521487745E+03  0.34573854878E+03  0.11038327377E+02 0.  0.
         22    1    3    3    0    0 -0.50952358295E+01  0.14629641292E+02 -0.12000809310E+02  0.19596103097E+02  0.00000000000E+00 0. -1.
         22    1    4    4    0    0  0.37842113684E+00  0.17920074861E+01 -0.24128897703E+02  0.24198309812E+02  0.00000000000E+00 0. -1.
         22    1    4    4    0    0  0.47168146927E+01 -0.16421648778E+02 -0.32108597975E+03  0.32154023897E+03  0.00000000000E+00 0. -1.
<mgrwt>
<rscale>  0 0.76592173E+02</rscale>
<asrwt>0</asrwt>
<pdfrwt beam="2">  1        2 0.55580770E-01 0.76592173E+02</pdfrwt>
<pdfrwt beam="1">  1       -2 0.62453607E-03 0.76592173E+02</pdfrwt>
<totfact> 0.30451609E+05</totfact>
</mgrwt>
</event>
<event>
 7    1  0.3480999E-009  0.9250527E+02  0.7818608E-02  0.1296896E+00
         -2   -1    0    0    0  501 -0.00000000000E+00  0.00000000000E+00  0.15386231186E+02  0.15386231398E+02  0.25500000000E-02 0.  1.
          2   -1    0    0  501    0  0.00000000000E+00 -0.00000000000E+00 -0.13904031578E+03  0.13904031580E+03  0.25500000000E-02 0. -1.
         23    2    1    2    0    0  0.00000000000E+00  0.00000000000E+00 -0.12365408459E+03  0.15442654720E+03  0.92505274679E+02 0.  0.
    9000005    2    3    3    0    0  0.36280750697E+02 -0.82254341770E+01 -0.10679174313E+03  0.11358185111E+03  0.10602351802E+02 0.  0.
         22    1    3    3    0    0 -0.36280750697E+02  0.82254341770E+01 -0.16862341463E+02  0.40844696083E+02  0.00000000000E+00 0.  1.
         22    1    4    4    0    0  0.47283948230E+01 -0.22465947802E+01 -0.69400092071E+01  0.86930221157E+01  0.00000000000E+00 0.  1.
         22    1    4    4    0    0  0.31552355874E+02 -0.59788393968E+01 -0.99851733921E+02  0.10488882900E+03  0.00000000000E+00 0.  1.
<mgrwt>
<rscale>  0 0.92505275E+02</rscale>
<asrwt>0</asrwt>
<pdfrwt beam="2">  1        2 0.21390817E-01 0.92505275E+02</pdfrwt>
<pdfrwt beam="1">  1       -2 0.23671126E-02 0.92505275E+02</pdfrwt>
<totfact> 0.13101168E+05</totfact>
</mgrwt>
</event>
<event>
 7    1  0.3480999E-009  0.9068989E+02  0.7818608E-02  0.1301190E+00
          2   -1    0    0  501    0  0.00000000000E+00  0.00000000000E+00  0.84488435369E+03  0.84488435369E+03  0.25500000000E-02 0. -1.
         -2   -1    0    0    0  501 -0.00000000000E+00 -0.00000000000E+00 -0.24336623805E+01  0.24336637164E+01  0.25500000000E-02 0.  1.
         23    2    1    2    0    0  0.00000000000E+00 -0.71054273576E-14  0.84245069131E+03  0.84731801741E+03  0.90689885545E+02 0.  0.
    9000005    2    3    3    0    0 -0.15756079174E+02  0.36244451610E+02  0.62424861361E+03  0.62556576598E+03  0.91805045854E+01 0.  0.
         22    1    3    3    0    0  0.15756079174E+02 -0.36244451610E+02  0.21820207770E+03  0.22175225143E+03  0.00000000000E+00 0.  1.
         22    1    4    4    0    0 -0.45529921879E+01  0.19624474247E+02  0.35585570794E+03  0.35642549657E+03  0.00000000000E+00 0.  1.
         22    1    4    4    0    0 -0.11203086986E+02  0.16619977363E+02  0.26839290567E+03  0.26914026941E+03  0.00000000000E+00 0.  1.
<mgrwt>
<rscale>  0 0.90689886E+02</rscale>
<asrwt>0</asrwt>
<pdfrwt beam="1">  1        2 0.12998209E+00 0.90689886E+02</pdfrwt>
<pdfrwt beam="2">  1       -2 0.37441005E-03 0.90689886E+02</pdfrwt>
<totfact> 0.24939767E+05</totfact>
</mgrwt>
</event>
<event>
 7    1  0.3480999E-009  0.9289359E+02  0.7818608E-02  0.1295992E+00
         -2   -1    0    0    0  501 -0.00000000000E+00  0.00000000000E+00  0.26851095661E+02  0.26851095782E+02  0.25500000000E-02 0.  1.
          2   -1    0    0  501    0  0.00000000000E+00 -0.00000000000E+00 -0.80343266528E+02  0.80343266568E+02  0.25500000000E-02 0. -1.
         23    2    1    2    0    0  0.00000000000E+00  0.00000000000E+00 -0.53492170867E+02  0.10719436235E+03  0.92893589528E+02 0.  0.
    9000005    2    3    3    0    0 -0.32317749548E+02 -0.27612193704E+02 -0.48111054664E+02  0.64347815364E+02  0.43700782890E+01 0.  0.
         22    1    3    3    0    0  0.32317749548E+02  0.27612193704E+02 -0.53811162031E+01  0.42846546986E+02  0.00000000000E+00 0.  1.
         22    1    4    4    0    0 -0.25084104752E+02 -0.23116511299E+02 -0.36640287999E+02  0.50060923987E+02  0.00000000000E+00 0. -1.
         22    1    4    4    0    0 -0.72336447960E+01 -0.44956824058E+01 -0.11470766665E+02  0.14286891377E+02  0.00000000000E+00 0. -1.
<mgrwt>
<rscale>  0 0.92893590E+02</rscale>
<asrwt>0</asrwt>
<pdfrwt beam="2">  1        2 0.12360502E-01 0.92893590E+02</pdfrwt>
<pdfrwt beam="1">  1       -2 0.41309379E-02 0.92893590E+02</pdfrwt>
<totfact> 0.10917412E+05</totfact>
</mgrwt>
</event>
<event>
 7    1  0.3480999E-009  0.9079998E+02  0.7818608E-02  0.1300926E+00
         -2   -1    0    0    0  501 -0.00000000000E+00  0.00000000000E+00  0.73246272597E+01  0.73246277036E+01  0.25500000000E-02 0. -1.
          2   -1    0    0  501    0  0.00000000000E+00 -0.00000000000E+00 -0.28140119950E+03  0.28140119951E+03  0.25500000000E-02 0.  1.
         23    2    1    2    0    0  0.00000000000E+00  0.00000000000E+00 -0.27407657224E+03  0.28872582721E+03  0.90799977148E+02 0.  0.
    9000005    2    3    3    0    0  0.18996175771E+02 -0.34467460056E+02 -0.20889238280E+03  0.21258228481E+03  0.25178816167E+01 0.  0.
         22    1    3    3    0    0 -0.18996175771E+02  0.34467460056E+02 -0.65184189445E+02  0.76143542406E+02  0.00000000000E+00 0. -1.
         22    1    4    4    0    0  0.15541590740E+02 -0.27567444342E+02 -0.16257075182E+03  0.16562232451E+03  0.00000000000E+00 0. -1.
         22    1    4    4    0    0  0.34545850302E+01 -0.69000157142E+01 -0.46321630976E+02  0.46959960295E+02  0.00000000000E+00 0. -1.
<mgrwt>
<rscale>  0 0.90799977E+02</rscale>
<asrwt>0</asrwt>
<pdfrwt beam="2">  1        2 0.43292484E-01 0.90799977E+02</pdfrwt>
<pdfrwt beam="1">  1       -2 0.11268660E-02 0.90799977E+02</pdfrwt>
<totfact> 0.17737460E+05</totfact>
</mgrwt>
</event>
<event>
 7    1  0.3480999E-009  0.9119884E+02  0.7818608E-02  0.1299974E+00
          2   -1    0    0  501    0  0.00000000000E+00  0.00000000000E+00  0.73769347354E+03  0.73769347354E+03  0.25500000000E-02 0. -1.
         -2   -1    0    0    0  501 -0.00000000000E+00 -0.00000000000E+00 -0.28186593989E+01  0.28186605524E+01  0.25500000000E-02 0.  1.
         23    2    1    2    0    0  0.00000000000E+00  0.00000000000E+00  0.73487481414E+03  0.74051213409E+03  0.91198839278E+02 0.  0.
    9000005    2    3    3    0    0  0.22427479541E+02  0.15285875293E+02  0.66440674615E+03  0.66499790743E+03  0.70173171464E+01 0.  0.
         22    1    3    3    0    0 -0.22427479541E+02 -0.15285875293E+02  0.70468067988E+02  0.75514226659E+02  0.00000000000E+00 0.  1.
         22    1    4    4    0    0  0.28013775026E+01  0.16991177455E+01  0.15219637336E+03  0.15223163528E+03  0.00000000000E+00 0.  1.
         22    1    4    4    0    0  0.19626102039E+02  0.13586757548E+02  0.51221037279E+03  0.51276627215E+03  0.00000000000E+00 0.  1.
<mgrwt>
<rscale>  0 0.91198839E+02</rscale>
<asrwt>0</asrwt>
<pdfrwt beam="1">  1        2 0.11349134E+00 0.91198839E+02</pdfrwt>
<pdfrwt beam="2">  1       -2 0.43363987E-03 0.91198839E+02</pdfrwt>
<totfact> 0.23977639E+05</totfact>
</mgrwt>
</event>
<event>
 7    1  0.3480999E-009  0.9152875E+02  0.7818608E-02  0.1299191E+00
         -2   -1    0    0    0  501 -0.00000000000E+00  0.00000000000E+00  0.13958183667E+02  0.13958183900E+02  0.25500000000E-02 0.  1.
          2   -1    0    0  501    0  0.00000000000E+00 -0.00000000000E+00 -0.15004661445E+03  0.15004661447E+03  0.25500000000E-02 0. -1.
         23    2    1    2    0    0 -0.88817841970E-15 -0.35527136788E-14 -0.13608843078E+03  0.16400479837E+03  0.91528754476E+02 0.  0.
    9000005    2    3    3    0    0  0.66506220394E+01 -0.22679405696E+02  0.63406783567E+00  0.25254562896E+02  0.88772005047E+01 0.  0.
         22    1    3    3    0    0 -0.66506220394E+01  0.22679405696E+02 -0.13672249862E+03  0.13875023548E+03  0.00000000000E+00 0. -1.
         22    1    4    4    0    0  0.41479241710E+01 -0.64442809258E+01 -0.33302068337E+01  0.83560941315E+01  0.00000000000E+00 0.  1.
         22    1    4    4    0    0  0.25026978684E+01 -0.16235124770E+02  0.39642746693E+01  0.16898468764E+02  0.00000000000E+00 0.  1.
<mgrwt>
<rscale>  0 0.91528754E+02</rscale>
<asrwt>0</asrwt>
<pdfrwt beam="2">  1        2 0.23084093E-01 0.91528754E+02</pdfrwt>
<pdfrwt beam="1">  1       -2 0.21474130E-02 0.91528754E+02</pdfrwt>
<totfact> 0.13836849E+05</totfact>
</mgrwt>
</event>
<event>
 7    1  0.3480999E-009  0.9075631E+02  0.7818608E-02  0.1301030E+00
         -2   -1    0    0    0  501 -0.00000000000E+00  0.00000000000E+00  0.12029927767E+03  0.12029927770E+03  0.25500000000E-02 0.  1.
          2   -1    0    0  501    0  0.00000000000E+00 -0.00000000000E+00 -0.17117116684E+02  0.17117116874E+02  0.25500000000E-02 0. -1.
         23    2    1    2    0    0  0.00000000000E+00  0.00000000000E+00  0.10318216099E+03  0.13741639457E+03  0.90756306400E+02 0.  0.
    9000005    2    3    3    0    0 -0.31573511340E+02 -0.29130597939E+02  0.37501288841E+02  0.58934197097E+02  0.14880005649E+02 0.  0.
         22    1    3    3    0    0  0.31573511340E+02  0.29130597939E+02  0.65680872148E+02  0.78482197477E+02  0.00000000000E+00 0.  1.
         22    1    4    4    0    0 -0.17174068276E+02 -0.17546977353E+02  0.30540624189E+02  0.39186410415E+02  0.00000000000E+00 0. -1.
         22    1    4    4    0    0 -0.14399443064E+02 -0.11583620587E+02  0.69606646521E+01  0.19747786682E+02  0.00000000000E+00 0. -1.
<mgrwt>
<rscale>  0 0.90756306E+02</rscale>
<asrwt>0</asrwt>
<pdfrwt beam="2">  1        2 0.26334027E-02 0.90756306E+02</pdfrwt>
<pdfrwt beam="1">  1       -2 0.18507580E-01 0.90756306E+02</pdfrwt>
<totfact> 0.76235126E+04</totfact>
</mgrwt>
</event>
<event>
 7    1  0.3480999E-009  0.8974763E+02  0.7818608E-02  0.1303464E+00
         -2   -1    0    0    0  501 -0.00000000000E+00  0.00000000000E+00  0.10994186604E+02  0.10994186900E+02  0.25500000000E-02 0.  1.
          2   -1    0    0  501    0  0.00000000000E+00 -0.00000000000E+00 -0.18315670925E+03  0.18315670927E+03  0.25500000000E-02 0. -1.
         23    2    1    2    0    0  0.00000000000E+00  0.00000000000E+00 -0.17216252264E+03  0.19415089617E+03  0.89747625477E+02 0.  0.
    9000005    2    3    3    0    0  0.14366258115E+02  0.22103178579E+00 -0.17782838526E+03  0.17870614863E+03  0.10320597137E+02 0.  0.
         22    1    3    3    0    0 -0.14366258115E+02 -0.22103178579E+00  0.56658626184E+01  0.15444747537E+02  0.00000000000E+00 0.  1.
         22    1    4    4    0    0  0.87059910441E+00  0.12736805210E+00 -0.73888483781E+02  0.73893722338E+02  0.00000000000E+00 0. -1.
         22    1    4    4    0    0  0.13495659011E+02  0.93663733694E-01 -0.10393990148E+03  0.10481242629E+03  0.00000000000E+00 0. -1.
<mgrwt>
<rscale>  0 0.89747625E+02</rscale>
<asrwt>0</asrwt>
<pdfrwt beam="2">  1        2 0.28177953E-01 0.89747625E+02</pdfrwt>
<pdfrwt beam="1">  1       -2 0.16914135E-02 0.89747625E+02</pdfrwt>
<totfact> 0.15638742E+05</totfact>
</mgrwt>
</event>
<event>
 7    1  0.3480999E-009  0.9353662E+02  0.7818608E-02  0.1294506E+00
         -2   -1    0    0    0  501 -0.00000000000E+00  0.00000000000E+00  0.11747751301E+03  0.11747751304E+03  0.25500000000E-02 0.  1.
          2   -1    0    0  501    0  0.00000000000E+00 -0.00000000000E+00 -0.18618668428E+02  0.18618668602E+02  0.25500000000E-02 0. -1.
         23    2    1    2    0    0  0.00000000000E+00  0.00000000000E+00  0.98858844585E+02  0.13609618164E+03  0.93536621197E+02 0.  0.
    9000005    2    3    3    0    0  0.19574784345E+02  0.19972412302E+02 -0.19912090347E+01  0.31440542757E+02  0.14229314113E+02 0.  0.
         22    1    3    3    0    0 -0.19574784345E+02 -0.19972412302E+02  0.10085005362E+03  0.10465563889E+03  0.00000000000E+00 0.  1.
         22    1    4    4    0    0  0.20664619784E+02  0.17762524989E+02  0.13571840684E+01  0.27283250418E+02  0.00000000000E+00 0. -1.
         22    1    4    4    0    0 -0.10898354385E+01  0.22098873134E+01 -0.33483931032E+01  0.41572923393E+01  0.00000000000E+00 0. -1.
<mgrwt>
<rscale>  0 0.93536621E+02</rscale>
<asrwt>0</asrwt>
<pdfrwt beam="2">  1        2 0.28644106E-02 0.93536621E+02</pdfrwt>
<pdfrwt beam="1">  1       -2 0.18073463E-01 0.93536621E+02</pdfrwt>
<totfact> 0.71218053E+04</totfact>
</mgrwt>
</event>
<event>
 7    1  0.3480999E-009  0.9119107E+02  0.7818608E-02  0.1299993E+00
          2   -1    0    0  501    0  0.00000000000E+00  0.00000000000E+00  0.32428795232E+03  0.32428795233E+03  0.25500000000E-02 0. -1.
         -2   -1    0    0    0  501 -0.00000000000E+00 -0.00000000000E+00 -0.64108238557E+01  0.64108243629E+01  0.25500000000E-02 0.  1.
         23    2    1    2    0    0 -0.35527136788E-14  0.00000000000E+00  0.31787712847E+03  0.33069877669E+03  0.91191074703E+02 0.  0.
    9000005    2    3    3    0    0  0.24933380383E+02 -0.31330816925E+02  0.94870875627E+02  0.10412631069E+03  0.15443833365E+02 0.  0.
         22    1    3    3    0    0 -0.24933380383E+02  0.31330816925E+02  0.22300625284E+03  0.22657246601E+03  0.00000000000E+00 0. -1.
         22    1    4    4    0    0  0.21216734880E+02 -0.32678945300E+02  0.86249572859E+02  0.94641703932E+02  0.00000000000E+00 0. -1.
         22    1    4    4    0    0  0.37166455031E+01  0.13481283751E+01  0.86213027677E+01  0.94846067565E+01  0.00000000000E+00 0. -1.
<mgrwt>
<rscale>  0 0.91191075E+02</rscale>
<asrwt>0</asrwt>
<pdfrwt beam="1">  1        2 0.49890453E-01 0.91191075E+02</pdfrwt>
<pdfrwt beam="2">  1       -2 0.98628067E-03 0.91191075E+02</pdfrwt>
<totfact> 0.18485223E+05</totfact>
</mgrwt>
</event>
<event>
 7    1  0.3480999E-009  0.9232906E+02  0.7818608E-02  0.1297308E+00
          2   -1    0    0  501    0  0.00000000000E+00  0.00000000000E+00  0.70910571079E+03  0.70910571080E+03  0.25500000000E-02 0.  1.
         -2   -1    0    0    0  501 -0.00000000000E+00 -0.00000000000E+00 -0.30054243823E+01  0.30054254641E+01  0.25500000000E-02 0. -1.
         23    2    1    2    0    0  0.00000000000E+00  0.00000000000E+00  0.70610028641E+03  0.71211113626E+03  0.92329063240E+02 0.  0.
    9000005    2    3    3    0    0  0.23384115854E+02 -0.29991750088E+02  0.55410017213E+03  0.55542560186E+03  0.49271194272E+01 0.  0.
         22    1    3    3    0    0 -0.23384115854E+02  0.29991750088E+02  0.15200011428E+03  0.15668553440E+03  0.00000000000E+00 0. -1.
         22    1    4    4    0    0  0.15910463868E+02 -0.19670940239E+02  0.33397721848E+03  0.33493412966E+03  0.00000000000E+00 0. -1.
         22    1    4    4    0    0  0.74736519864E+01 -0.10320809848E+02  0.22012295365E+03  0.22049147220E+03  0.00000000000E+00 0. -1.
<mgrwt>
<rscale>  0 0.92329063E+02</rscale>
<asrwt>0</asrwt>
<pdfrwt beam="1">  1        2 0.10909328E+00 0.92329063E+02</pdfrwt>
<pdfrwt beam="2">  1       -2 0.46237268E-03 0.92329063E+02</pdfrwt>
<totfact> 0.23009499E+05</totfact>
</mgrwt>
</event>
<event>
 7    1  0.3480999E-009  0.7239545E+02  0.7818608E-02  0.1352132E+00
          2   -1    0    0  501    0  0.00000000000E+00  0.00000000000E+00  0.46539629394E+02  0.46539629464E+02  0.25500000000E-02 0. -1.
         -2   -1    0    0    0  501 -0.00000000000E+00 -0.00000000000E+00 -0.28153967596E+02  0.28153967712E+02  0.25500000000E-02 0.  1.
         23    2    1    2    0    0  0.00000000000E+00  0.00000000000E+00  0.18385661798E+02  0.74693597175E+02  0.72395448056E+02 0.  0.
    9000005    2    3    3    0    0  0.40882587543E+01  0.16747523479E+02 -0.23632504627E+02  0.29276422979E+02  0.11917487732E+01 0.  0.
         22    1    3    3    0    0 -0.40882587543E+01 -0.16747523479E+02  0.42018166425E+02  0.45417174197E+02  0.00000000000E+00 0. -1.
         22    1    4    4    0    0  0.25462418618E+01  0.10812505618E+02 -0.16165556388E+02  0.19614250909E+02  0.00000000000E+00 0.  1.
         22    1    4    4    0    0  0.15420168925E+01  0.59350178613E+01 -0.74669482387E+01  0.96621720700E+01  0.00000000000E+00 0.  1.
<mgrwt>
<rscale>  0 0.72395448E+02</rscale>
<asrwt>0</asrwt>
<pdfrwt beam="1">  1        2 0.71599429E-02 0.72395448E+02</pdfrwt>
<pdfrwt beam="2">  1       -2 0.43313797E-02 0.72395448E+02</pdfrwt>
<totfact> 0.18929013E+05</totfact>
</mgrwt>
</event>
<event>
 7    1  0.3480999E-009  0.9153267E+02  0.7818608E-02  0.1299182E+00
         -2   -1    0    0    0  501 -0.00000000000E+00  0.00000000000E+00  0.97483053181E+00  0.97483386700E+00  0.25500000000E-02 0.  1.
          2   -1    0    0  501    0  0.00000000000E+00 -0.00000000000E+00 -0.21486337336E+04  0.21486337336E+04  0.25500000000E-02 0. -1.
         23    2    1    2    0    0  0.00000000000E+00 -0.44408920985E-15 -0.21476589031E+04  0.21496085675E+04  0.91532668518E+02 0.  0.
    9000005    2    3    3    0    0  0.12188053944E+02  0.33131876489E+01 -0.21066768574E+04  0.21067243753E+04  0.63785641645E+01 0.  0.
         22    1    3    3    0    0 -0.12188053944E+02 -0.33131876489E+01 -0.40982045668E+02  0.42884192174E+02  0.00000000000E+00 0.  1.
         22    1    4    4    0    0  0.91559737517E+01  0.63909690806E+00 -0.10608342849E+04  0.10608739889E+04  0.00000000000E+00 0. -1.
         22    1    4    4    0    0  0.30320801919E+01  0.26740907408E+01 -0.10458425726E+04  0.10458503865E+04  0.00000000000E+00 0. -1.
<mgrwt>
<rscale>  0 0.91532669E+02</rscale>
<asrwt>0</asrwt>
<pdfrwt beam="2">  1        2 0.33055524E+00 0.91532669E+02</pdfrwt>
<pdfrwt beam="1">  1       -2 0.14997590E-03 0.91532669E+02</pdfrwt>
<totfact> 0.18096181E+05</totfact>
</mgrwt>
</event>
<event>
 7    1  0.3480999E-009  0.9101729E+02  0.7818608E-02  0.1300407E+00
         -2   -1    0    0    0  501 -0.00000000000E+00  0.00000000000E+00  0.19983541517E+02  0.19983541679E+02  0.25500000000E-02 0.  1.
          2   -1    0    0  501    0  0.00000000000E+00 -0.00000000000E+00 -0.10363713046E+03  0.10363713049E+03  0.25500000000E-02 0. -1.
         23    2    1    2    0    0  0.00000000000E+00  0.00000000000E+00 -0.83653588941E+02  0.12362067217E+03  0.91017293107E+02 0.  0.
    9000005    2    3    3    0    0  0.80905048452E+01 -0.32164328547E+02 -0.84086572666E+02  0.90451593579E+02  0.33073824613E+01 0.  0.
         22    1    3    3    0    0 -0.80905048452E+01  0.32164328547E+02  0.43298372473E+00  0.33169078589E+02  0.00000000000E+00 0.  1.
         22    1    4    4    0    0  0.61632197169E+00 -0.70051242436E+00 -0.33924340158E+01  0.35184057442E+01  0.00000000000E+00 0.  1.
         22    1    4    4    0    0  0.74741828735E+01 -0.31463816123E+02 -0.80694138650E+02  0.86933187835E+02  0.00000000000E+00 0.  1.
<mgrwt>
<rscale>  0 0.91017293E+02</rscale>
<asrwt>0</asrwt>
<pdfrwt beam="2">  1        2 0.15944174E-01 0.91017293E+02</pdfrwt>
<pdfrwt beam="1">  1       -2 0.30743911E-02 0.91017293E+02</pdfrwt>
<totfact> 0.12462379E+05</totfact>
</mgrwt>
</event>
<event>
 6    1  0.3480999E-009  0.1395322E+03  0.7818608E-02  0.1213960E+00
         -2   -1    0    0    0  501 -0.00000000000E+00  0.00000000000E+00  0.38725196364E+01  0.38725204760E+01  0.25500000000E-02 0.  1.
          2   -1    0    0  501    0  0.00000000000E+00 -0.00000000000E+00 -0.12568844914E+04  0.12568844914E+04  0.25500000000E-02 0. -1.
    9000005    2    1    2    0    0 -0.36114311494E+02 -0.19946523002E+02 -0.11331334981E+04  0.11339778506E+04  0.14564819504E+02 0.  0.
         22    1    1    2    0    0  0.36114311494E+02  0.19946523002E+02 -0.11987847366E+03  0.12677916122E+03  0.00000000000E+00 0.  1.
         22    1    3    3    0    0 -0.12144418194E+02 -0.13228807599E+02 -0.59160851640E+03  0.59188100571E+03  0.00000000000E+00 0.  1.
         22    1    3    3    0    0 -0.23969893300E+02 -0.67177154029E+01 -0.54152498169E+03  0.54209684493E+03  0.00000000000E+00 0.  1.
<mgrwt>
<rscale>  0 0.13953222E+03</rscale>
<asrwt>0</asrwt>
<pdfrwt beam="2">  1        2 0.19336652E+00 0.13953222E+03</pdfrwt>
<pdfrwt beam="1">  1       -2 0.59577332E-03 0.13953222E+03</pdfrwt>
<totfact> 0.78779475E+04</totfact>
</mgrwt>
</event>
<event>
 7    1  0.3480999E-009  0.8989146E+02  0.7818608E-02  0.1303115E+00
          2   -1    0    0  501    0  0.00000000000E+00  0.00000000000E+00  0.19345901687E+03  0.19345901689E+03  0.25500000000E-02 0. -1.
         -2   -1    0    0    0  501 -0.00000000000E+00 -0.00000000000E+00 -0.10442101614E+02  0.10442101925E+02  0.25500000000E-02 0.  1.
         23    2    1    2    0    0  0.00000000000E+00  0.00000000000E+00  0.18301691526E+03  0.20390111881E+03  0.89891462236E+02 0.  0.
    9000005    2    3    3    0    0 -0.40894909527E+01  0.43952538525E+02  0.80698578390E+02  0.92466870764E+02  0.94505055783E+01 0.  0.
         22    1    3    3    0    0  0.40894909527E+01 -0.43952538525E+02  0.10231833687E+03  0.11143424805E+03  0.00000000000E+00 0. -1.
         22    1    4    4    0    0 -0.54258727229E+00  0.11981594976E+02  0.14131521805E+02  0.18535180809E+02  0.00000000000E+00 0.  1.
         22    1    4    4    0    0 -0.35469036804E+01  0.31970943549E+02  0.66567056586E+02  0.73931689955E+02  0.00000000000E+00 0.  1.
<mgrwt>
<rscale>  0 0.89891462E+02</rscale>
<asrwt>0</asrwt>
<pdfrwt beam="1">  1        2 0.29762926E-01 0.89891462E+02</pdfrwt>
<pdfrwt beam="2">  1       -2 0.16064772E-02 0.89891462E+02</pdfrwt>
<totfact> 0.15878719E+05</totfact>
</mgrwt>
</event>
<event>
 6    1  0.8246805E-009  0.6589055E+03  0.7818608E-02  0.9790211E-01
         -2   -1    0    0    0  501 -0.00000000000E+00  0.00000000000E+00  0.34437216801E+02  0.34437216896E+02  0.25500000000E-02 0. -1.
          2   -1    0    0  501    0  0.00000000000E+00 -0.00000000000E+00 -0.31517964944E+04  0.31517964944E+04  0.25500000000E-02 0.  1.
    9000005    2    1    2    0    0 -0.11435978627E+03 -0.26990120100E+03 -0.22847993541E+04  0.23035781469E+04  0.15471641862E+02 0.  0.
         22    1    1    2    0    0  0.11435978627E+03  0.26990120100E+03 -0.83255992349E+03  0.88265556432E+03  0.00000000000E+00 0. -1.
         22    1    3    3    0    0 -0.33713244415E+01 -0.17339109703E+02 -0.13828459998E+03  0.13940818177E+03  0.00000000000E+00 0. -1.
         22    1    3    3    0    0 -0.11098846183E+03 -0.25256209129E+03 -0.21465147541E+04  0.21641699652E+04  0.00000000000E+00 0. -1.
<mgrwt>
<rscale>  0 0.65890545E+03</rscale>
<asrwt>0</asrwt>
<pdfrwt beam="2">  1        2 0.48489154E+00 0.65890545E+03</pdfrwt>
<pdfrwt beam="1">  1       -2 0.52980358E-02 0.65890545E+03</pdfrwt>
<totfact> 0.28206679E+02</totfact>
</mgrwt>
</event>
<event>
 7    1  0.3480999E-009  0.9420389E+02  0.7818608E-02  0.1292979E+00
          2   -1    0    0  501    0  0.00000000000E+00  0.00000000000E+00  0.69211202791E+02  0.69211202838E+02  0.25500000000E-02 0. -1.
         -2   -1    0    0    0  501 -0.00000000000E+00 -0.00000000000E+00 -0.32055404227E+02  0.32055404329E+02  0.25500000000E-02 0.  1.
         23    2    1    2    0    0  0.00000000000E+00  0.00000000000E+00  0.37155798563E+02  0.10126660717E+03  0.94203887181E+02 0.  0.
    9000005    2    3    3    0    0  0.38587865727E+02  0.23280795776E+02  0.44632257781E+01  0.45590551732E+02  0.52496847055E+01 0.  0.
         22    1    3    3    0    0 -0.38587865727E+02 -0.23280795776E+02  0.32692572785E+02  0.55676055434E+02  0.00000000000E+00 0. -1.
         22    1    4    4    0    0  0.32902159402E+02  0.18887727913E+02  0.19848113475E+01  0.37989970191E+02  0.00000000000E+00 0.  1.
         22    1    4    4    0    0  0.56857063254E+01  0.43930678638E+01  0.24784144306E+01  0.76005815412E+01  0.00000000000E+00 0.  1.
<mgrwt>
<rscale>  0 0.94203887E+02</rscale>
<asrwt>0</asrwt>
<pdfrwt beam="1">  1        2 0.10647877E-01 0.94203887E+02</pdfrwt>
<pdfrwt beam="2">  1       -2 0.49316006E-02 0.94203887E+02</pdfrwt>
<totfact> 0.10060475E+05</totfact>
</mgrwt>
</event>
