<event>
 7    1  0.3056193E-009  0.8720400E+02  0.7818608E-02  0.1309767E+00
          2   -1    0    0  501    0  0.00000000000E+00  0.00000000000E+00  0.34566941425E+01  0.34566950831E+01  0.25500000000E-02 0. -1.
         -2   -1    0    0    0  501 -0.00000000000E+00 -0.00000000000E+00 -0.54998622131E+03  0.54998622132E+03  0.25500000000E-02 0.  1.
         23    2    1    2    0    0  0.35527136788E-14  0.00000000000E+00 -0.54652952717E+03  0.55344291640E+03  0.87204000174E+02 0.  0.
    9000005    2    3    3    0    0  0.20673785127E+02  0.35837135209E+02 -0.34635851272E+03  0.34904100673E+03  0.12397555964E+02 0.  0.
         22    1    3    3    0    0 -0.20673785127E+02 -0.35837135209E+02 -0.20017101446E+03  0.20440190968E+03  0.00000000000E+00 0. -1.
         22    1    4    4    0    0  0.10668770345E+02  0.25897729154E+02 -0.19085842123E+03  0.19290270084E+03  0.00000000000E+00 0. -1.
         22    1    4    4    0    0  0.10005014783E+02  0.99394060552E+01 -0.15550009149E+03  0.15613830589E+03  0.00000000000E+00 0. -1.
<mgrwt>
<rscale>  0 0.87204000E+02</rscale>
<asrwt>0</asrwt>
<pdfrwt beam="1">  1        2 0.53179961E-03 0.87204000E+02</pdfrwt>
<pdfrwt beam="2">  1       -2 0.84613195E-01 0.87204000E+02</pdfrwt>
<totfact> 0.37749721E+04</totfact>
</mgrwt>
</event>
<event>
 7    1  0.3056193E-009  0.9097350E+02  0.7818608E-02  0.1300511E+00
          2   -1    0    0  501    0  0.00000000000E+00  0.00000000000E+00  0.10511638644E+04  0.10511638644E+04  0.25500000000E-02 0. -1.
         -2   -1    0    0    0  501 -0.00000000000E+00 -0.00000000000E+00 -0.19683356839E+01  0.19683373357E+01  0.25500000000E-02 0.  1.
         23    2    1    2    0    0  0.00000000000E+00  0.00000000000E+00  0.10491955287E+04  0.10531322017E+04  0.90973495378E+02 0.  0.
    9000005    2    3    3    0    0 -0.16963331759E+02 -0.30683116769E+02  0.85322232656E+03  0.85404753572E+03  0.13403225596E+02 0.  0.
         22    1    3    3    0    0  0.16963331759E+02  0.30683116769E+02  0.19597320217E+03  0.19908466603E+03  0.00000000000E+00 0.  1.
         22    1    4    4    0    0 -0.11082500109E+02 -0.20783364253E+02  0.41025344901E+03  0.41092902364E+03  0.00000000000E+00 0. -1.
         22    1    4    4    0    0 -0.58808316499E+01 -0.98997525169E+01  0.44296887754E+03  0.44311851208E+03  0.00000000000E+00 0. -1.
<mgrwt>
<rscale>  0 0.90973495E+02</rscale>
<asrwt>0</asrwt>
<pdfrwt beam="1">  1        2 0.16171766E+00 0.90973495E+02</pdfrwt>
<pdfrwt beam="2">  1       -2 0.30282073E-03 0.90973495E+02</pdfrwt>
<totfact> 0.25180271E+05</totfact>
</mgrwt>
</event>
<event>
 7    1  0.3056193E-009  0.9034351E+02  0.7818608E-02  0.1302022E+00
          2   -1    0    0  501    0  0.00000000000E+00  0.00000000000E+00  0.22076712130E+03  0.22076712132E+03  0.25500000000E-02 0. -1.
         -2   -1    0    0    0  501 -0.00000000000E+00 -0.00000000000E+00 -0.92427147787E+01  0.92427151304E+01  0.25500000000E-02 0.  1.
         23    2    1    2    0    0  0.00000000000E+00  0.00000000000E+00  0.21152440652E+03  0.23000983645E+03  0.90343512813E+02 0.  0.
    9000005    2    3    3    0    0 -0.17862667319E+02  0.33310073726E+02  0.51519314011E+02  0.65600999929E+02  0.14853133682E+02 0.  0.
         22    1    3    3    0    0  0.17862667319E+02 -0.33310073726E+02  0.16000509251E+03  0.16440883652E+03  0.00000000000E+00 0. -1.
         22    1    4    4    0    0 -0.16780921745E+02  0.33458075908E+02  0.42987940005E+02  0.57000045298E+02  0.00000000000E+00 0.  1.
         22    1    4    4    0    0 -0.10817455738E+01 -0.14800218288E+00  0.85313740057E+01  0.86009546306E+01  0.00000000000E+00 0.  1.
<mgrwt>
<rscale>  0 0.90343513E+02</rscale>
<asrwt>0</asrwt>
<pdfrwt beam="1">  1        2 0.33964171E-01 0.90343513E+02</pdfrwt>
<pdfrwt beam="2">  1       -2 0.14219562E-02 0.90343513E+02</pdfrwt>
<totfact> 0.16434373E+05</totfact>
</mgrwt>
</event>
<event>
 7    1  0.3056193E-009  0.9171403E+02  0.7818608E-02  0.1298753E+00
          2   -1    0    0  501    0  0.00000000000E+00  0.00000000000E+00  0.20940828232E+02  0.20940828387E+02  0.25500000000E-02 0. -1.
         -2   -1    0    0    0  501 -0.00000000000E+00 -0.00000000000E+00 -0.10041940964E+03  0.10041940967E+03  0.25500000000E-02 0.  1.
         23    2    1    2    0    0  0.00000000000E+00  0.00000000000E+00 -0.79478581404E+02  0.12136023806E+03  0.91714025530E+02 0.  0.
    9000005    2    3    3    0    0 -0.18137601495E+02  0.26822206700E+02 -0.81563606678E+02  0.88914118247E+02  0.14307170548E+02 0.  0.
         22    1    3    3    0    0  0.18137601495E+02 -0.26822206700E+02  0.20850252742E+01  0.32446119808E+02  0.00000000000E+00 0. -1.
         22    1    4    4    0    0 -0.40322347732E+01  0.18130623529E+02 -0.37733049976E+02  0.42056646173E+02  0.00000000000E+00 0. -1.
         22    1    4    4    0    0 -0.14105366722E+02  0.86915831702E+01 -0.43830556702E+02  0.46857472074E+02  0.00000000000E+00 0. -1.
<mgrwt>
<rscale>  0 0.91714026E+02</rscale>
<asrwt>0</asrwt>
<pdfrwt beam="1">  1        2 0.32216660E-02 0.91714026E+02</pdfrwt>
<pdfrwt beam="2">  1       -2 0.15449140E-01 0.91714026E+02</pdfrwt>
<totfact> 0.78548541E+04</totfact>
</mgrwt>
</event>
<event>
 7    1  0.3056193E-009  0.9237898E+02  0.7818608E-02  0.1297191E+00
          2   -1    0    0  501    0  0.00000000000E+00  0.00000000000E+00  0.15677427856E+04  0.15677427856E+04  0.25500000000E-02 0. -1.
         -2   -1    0    0    0  501 -0.00000000000E+00 -0.00000000000E+00 -0.13608526330E+01  0.13608550221E+01  0.25500000000E-02 0.  1.
         23    2    1    2    0    0 -0.35527136788E-14  0.00000000000E+00  0.15663819329E+04  0.15691036406E+04  0.92378975392E+02 0.  0.
    9000005    2    3    3    0    0  0.26666010523E+02  0.65930228382E+01  0.14110401122E+04  0.14113518567E+04  0.11194684730E+02 0.  0.
         22    1    3    3    0    0 -0.26666010523E+02 -0.65930228382E+01  0.15534182071E+03  0.15775178391E+03  0.00000000000E+00 0.  1.
         22    1    4    4    0    0  0.87406928641E+01  0.45742895304E+01  0.29254188685E+03  0.29270818130E+03  0.00000000000E+00 0.  1.
         22    1    4    4    0    0  0.17925317659E+02  0.20187333078E+01  0.11184982254E+04  0.11186436754E+04  0.00000000000E+00 0.  1.
<mgrwt>
<rscale>  0 0.92378975E+02</rscale>
<asrwt>0</asrwt>
<pdfrwt beam="1">  1        2 0.24119092E+00 0.92378975E+02</pdfrwt>
<pdfrwt beam="2">  1       -2 0.20936237E-03 0.92378975E+02</pdfrwt>
<totfact> 0.22384998E+05</totfact>
</mgrwt>
</event>
<event>
 7    1  0.3056193E-009  0.8781848E+02  0.7818608E-02  0.1308222E+00
          2   -1    0    0  501    0  0.00000000000E+00  0.00000000000E+00  0.90940457886E+02  0.90940457922E+02  0.25500000000E-02 0.  1.
         -2   -1    0    0    0  501 -0.00000000000E+00 -0.00000000000E+00 -0.21200917391E+02  0.21200917544E+02  0.25500000000E-02 0. -1.
         23    2    1    2    0    0  0.00000000000E+00  0.17763568394E-14  0.69739540496E+02  0.11214137547E+03  0.87818475180E+02 0.  0.
    9000005    2    3    3    0    0 -0.29272351567E+02  0.12023970171E+02 -0.11617027852E+01  0.34498393016E+02  0.13687335110E+02 0.  0.
         22    1    3    3    0    0  0.29272351567E+02 -0.12023970171E+02  0.70901243281E+02  0.77642982450E+02  0.00000000000E+00 0.  1.
         22    1    4    4    0    0 -0.86685342533E+00 -0.28575573941E+00 -0.33412754566E+01  0.34636993058E+01  0.00000000000E+00 0. -1.
         22    1    4    4    0    0 -0.28405498142E+02  0.12309725910E+02  0.21795726714E+01  0.31034693711E+02  0.00000000000E+00 0. -1.
<mgrwt>
<rscale>  0 0.87818475E+02</rscale>
<asrwt>0</asrwt>
<pdfrwt beam="1">  1        2 0.13990840E-01 0.87818475E+02</pdfrwt>
<pdfrwt beam="2">  1       -2 0.32616796E-02 0.87818475E+02</pdfrwt>
<totfact> 0.13220472E+05</totfact>
</mgrwt>
</event>
<event>
 7    1  0.3056193E-009  0.9441731E+02  0.7818608E-02  0.1292494E+00
          2   -1    0    0  501    0  0.00000000000E+00  0.00000000000E+00  0.44725935912E+03  0.44725935912E+03  0.25500000000E-02 0.  1.
         -2   -1    0    0    0  501 -0.00000000000E+00 -0.00000000000E+00 -0.49829180286E+01  0.49829186811E+01  0.25500000000E-02 0. -1.
         23    2    1    2    0    0  0.00000000000E+00  0.00000000000E+00  0.44227644109E+03  0.45224227781E+03  0.94417305049E+02 0.  0.
    9000005    2    3    3    0    0  0.45095134704E+02 -0.76236188431E+01  0.26869231396E+03  0.27273422804E+03  0.98340646365E+01 0.  0.
         22    1    3    3    0    0 -0.45095134704E+02  0.76236188431E+01  0.17358412713E+03  0.17950804976E+03  0.00000000000E+00 0. -1.
         22    1    4    4    0    0  0.23953894192E+02 -0.45699946383E+01  0.17129228345E+03  0.17301942165E+03  0.00000000000E+00 0. -1.
         22    1    4    4    0    0  0.21141240512E+02 -0.30536242048E+01  0.97400030505E+02  0.99714806391E+02  0.00000000000E+00 0. -1.
<mgrwt>
<rscale>  0 0.94417305E+02</rscale>
<asrwt>0</asrwt>
<pdfrwt beam="1">  1        2 0.68809142E-01 0.94417305E+02</pdfrwt>
<pdfrwt beam="2">  1       -2 0.76660272E-03 0.94417305E+02</pdfrwt>
<totfact> 0.18920978E+05</totfact>
</mgrwt>
</event>
<event>
 7    1  0.3056193E-009  0.9207400E+02  0.7818608E-02  0.1297906E+00
          2   -1    0    0  501    0  0.00000000000E+00  0.00000000000E+00  0.56733799035E+01  0.56733804766E+01  0.25500000000E-02 0. -1.
         -2   -1    0    0    0  501 -0.00000000000E+00 -0.00000000000E+00 -0.37357013671E+03  0.37357013671E+03  0.25500000000E-02 0.  1.
         23    2    1    2    0    0  0.00000000000E+00  0.00000000000E+00 -0.36789675680E+03  0.37924351719E+03  0.92074001031E+02 0.  0.
    9000005    2    3    3    0    0  0.10305043408E+02  0.17319082001E+02 -0.35442056488E+03  0.35499991454E+03  0.22040846726E+01 0.  0.
         22    1    3    3    0    0 -0.10305043408E+02 -0.17319082001E+02 -0.13476191921E+02  0.24243602655E+02  0.00000000000E+00 0. -1.
         22    1    4    4    0    0  0.87404297222E+01  0.13319128969E+02 -0.26877074796E+03  0.26924247301E+03  0.00000000000E+00 0. -1.
         22    1    4    4    0    0  0.15646136857E+01  0.39999530312E+01 -0.85649816917E+02  0.85757441532E+02  0.00000000000E+00 0. -1.
<mgrwt>
<rscale>  0 0.92074001E+02</rscale>
<asrwt>0</asrwt>
<pdfrwt beam="1">  1        2 0.87282801E-03 0.92074001E+02</pdfrwt>
<pdfrwt beam="2">  1       -2 0.57472310E-01 0.92074001E+02</pdfrwt>
<totfact> 0.43551863E+04</totfact>
</mgrwt>
</event>
<event>
 7    1  0.3056193E-009  0.8719973E+02  0.7818608E-02  0.1309778E+00
         -2   -1    0    0    0  501 -0.00000000000E+00  0.00000000000E+00  0.98448231340E+01  0.98448234642E+01  0.25500000000E-02 0.  1.
          2   -1    0    0  501    0  0.00000000000E+00 -0.00000000000E+00 -0.19309115454E+03  0.19309115456E+03  0.25500000000E-02 0. -1.
         23    2    1    2    0    0  0.00000000000E+00 -0.35527136788E-14 -0.18324633141E+03  0.20293597802E+03  0.87199731661E+02 0.  0.
    9000005    2    3    3    0    0  0.28693223292E+02 -0.24871536660E+02 -0.51323496187E+02  0.65656959774E+02  0.15324513279E+02 0.  0.
         22    1    3    3    0    0 -0.28693223292E+02  0.24871536660E+02 -0.13192283522E+03  0.13727901825E+03  0.00000000000E+00 0.  1.
         22    1    4    4    0    0  0.88151516711E+01 -0.17763237841E+02 -0.25461462597E+02  0.32272675675E+02  0.00000000000E+00 0. -1.
         22    1    4    4    0    0  0.19878071621E+02 -0.71082988181E+01 -0.25862033589E+02  0.33384284099E+02  0.00000000000E+00 0. -1.
<mgrwt>
<rscale>  0 0.87199732E+02</rscale>
<asrwt>0</asrwt>
<pdfrwt beam="2">  1        2 0.29706329E-01 0.87199732E+02</pdfrwt>
<pdfrwt beam="1">  1       -2 0.15145883E-02 0.87199732E+02</pdfrwt>
<totfact> 0.17216664E+05</totfact>
</mgrwt>
</event>
<event>
 7    1  0.3056193E-009  0.9411844E+02  0.7818608E-02  0.1293174E+00
         -2   -1    0    0    0  501 -0.00000000000E+00  0.00000000000E+00  0.92886220082E+02  0.92886220117E+02  0.25500000000E-02 0.  1.
          2   -1    0    0  501    0  0.00000000000E+00 -0.00000000000E+00 -0.23841753687E+02  0.23841753823E+02  0.25500000000E-02 0. -1.
         23    2    1    2    0    0  0.00000000000E+00  0.71054273576E-14  0.69044466395E+02  0.11672797394E+03  0.94118444315E+02 0.  0.
    9000005    2    3    3    0    0 -0.19333402866E+02 -0.34434198265E+02  0.65679690615E+02  0.77094450344E+02  0.83808136809E+01 0.  0.
         22    1    3    3    0    0  0.19333402866E+02  0.34434198265E+02  0.33647757800E+01  0.39633523596E+02  0.00000000000E+00 0. -1.
         22    1    4    4    0    0 -0.15003088921E+02 -0.22068021655E+02  0.49873634218E+02  0.56563854599E+02  0.00000000000E+00 0.  1.
         22    1    4    4    0    0 -0.43303139448E+01 -0.12366176610E+02  0.15806056397E+02  0.20530595745E+02  0.00000000000E+00 0.  1.
<mgrwt>
<rscale>  0 0.94118444E+02</rscale>
<asrwt>0</asrwt>
<pdfrwt beam="2">  1        2 0.36679622E-02 0.94118444E+02</pdfrwt>
<pdfrwt beam="1">  1       -2 0.14290188E-01 0.94118444E+02</pdfrwt>
<totfact> 0.75382440E+04</totfact>
</mgrwt>
</event>
<event>
 7    1  0.3056193E-009  0.7018212E+02  0.7818608E-02  0.1359475E+00
          2   -1    0    0  501    0  0.00000000000E+00  0.00000000000E+00  0.16381346628E+02  0.16381346826E+02  0.25500000000E-02 0. -1.
         -2   -1    0    0    0  501 -0.00000000000E+00 -0.00000000000E+00 -0.75169796878E+02  0.75169796922E+02  0.25500000000E-02 0.  1.
         23    2    1    2    0    0  0.00000000000E+00  0.00000000000E+00 -0.58788450251E+02  0.91551143748E+02  0.70182120506E+02 0.  0.
    9000005    2    3    3    0    0  0.23882076227E+02  0.84489854711E+01  0.20499083029E+01  0.25649362346E+02  0.34566955793E+01 0.  0.
         22    1    3    3    0    0 -0.23882076227E+02 -0.84489854711E+01 -0.60838358553E+02  0.65901781401E+02  0.00000000000E+00 0.  1.
         22    1    4    4    0    0  0.33886844086E+01  0.13451081630E+00 -0.32252478789E+00  0.34066548724E+01  0.00000000000E+00 0. -1.
         22    1    4    4    0    0  0.20493391818E+02  0.83144746548E+01  0.23724330908E+01  0.22242707474E+02  0.00000000000E+00 0. -1.
<mgrwt>
<rscale>  0 0.70182121E+02</rscale>
<asrwt>0</asrwt>
<pdfrwt beam="1">  1        2 0.25202072E-02 0.70182121E+02</pdfrwt>
<pdfrwt beam="2">  1       -2 0.11564584E-01 0.70182121E+02</pdfrwt>
<totfact> 0.16453222E+05</totfact>
</mgrwt>
</event>
<event>
 7    1  0.3056193E-009  0.9110299E+02  0.7818608E-02  0.1300202E+00
         -2   -1    0    0    0  501 -0.00000000000E+00  0.00000000000E+00  0.79334303820E+02  0.79334303861E+02  0.25500000000E-02 0.  1.
          2   -1    0    0  501    0  0.00000000000E+00 -0.00000000000E+00 -0.26154368867E+02  0.26154368991E+02  0.25500000000E-02 0. -1.
         23    2    1    2    0    0  0.00000000000E+00  0.35527136788E-14  0.53179934953E+02  0.10548867285E+03  0.91102989075E+02 0.  0.
    9000005    2    3    3    0    0 -0.29316808044E+02 -0.28841464109E+02  0.58750268804E+01  0.42806461551E+02  0.10323367853E+02 0.  0.
         22    1    3    3    0    0  0.29316808044E+02  0.28841464109E+02  0.47304908072E+02  0.62682211301E+02  0.00000000000E+00 0.  1.
         22    1    4    4    0    0  0.30167116823E+00  0.10791900004E+00  0.10644046402E+01  0.11115796159E+01  0.00000000000E+00 0. -1.
         22    1    4    4    0    0 -0.29618479213E+02 -0.28949383109E+02  0.48106222401E+01  0.41694881935E+02  0.00000000000E+00 0. -1.
<mgrwt>
<rscale>  0 0.91102989E+02</rscale>
<asrwt>0</asrwt>
<pdfrwt beam="2">  1        2 0.40237491E-02 0.91102989E+02</pdfrwt>
<pdfrwt beam="1">  1       -2 0.12205277E-01 0.91102989E+02</pdfrwt>
<totfact> 0.85445102E+04</totfact>
</mgrwt>
</event>
<event>
 7    1  0.3056193E-009  0.9514385E+02  0.7818608E-02  0.1290852E+00
         -2   -1    0    0    0  501 -0.00000000000E+00  0.00000000000E+00  0.95864383683E+02  0.95864383717E+02  0.25500000000E-02 0.  1.
          2   -1    0    0  501    0  0.00000000000E+00 -0.00000000000E+00 -0.23607180617E+02  0.23607180754E+02  0.25500000000E-02 0. -1.
         23    2    1    2    0    0  0.00000000000E+00  0.00000000000E+00  0.72257203066E+02  0.11947156447E+03  0.95143845425E+02 0.  0.
    9000005    2    3    3    0    0  0.22423052034E+02  0.37790877841E+02  0.57639146979E+02  0.73161400638E+02  0.99687295233E+01 0.  0.
         22    1    3    3    0    0 -0.22423052034E+02 -0.37790877841E+02  0.14618056088E+02  0.46310163834E+02  0.00000000000E+00 0. -1.
         22    1    4    4    0    0  0.15069244730E+02  0.15899418852E+02  0.29938735943E+02  0.37097190816E+02  0.00000000000E+00 0. -1.
         22    1    4    4    0    0  0.73538073047E+01  0.21891458989E+02  0.27700411035E+02  0.36064209821E+02  0.00000000000E+00 0. -1.
<mgrwt>
<rscale>  0 0.95143845E+02</rscale>
<asrwt>0</asrwt>
<pdfrwt beam="2">  1        2 0.36318741E-02 0.95143845E+02</pdfrwt>
<pdfrwt beam="1">  1       -2 0.14748366E-01 0.95143845E+02</pdfrwt>
<totfact> 0.72699076E+04</totfact>
</mgrwt>
</event>
<event>
 7    1  0.3056193E-009  0.9775738E+02  0.7818608E-02  0.1285084E+00
         -2   -1    0    0    0  501 -0.00000000000E+00  0.00000000000E+00  0.16062317882E+03  0.16062317884E+03  0.25500000000E-02 0.  1.
          2   -1    0    0  501    0  0.00000000000E+00 -0.00000000000E+00 -0.14874105825E+02  0.14874106044E+02  0.25500000000E-02 0. -1.
         23    2    1    2    0    0  0.17763568394E-14  0.00000000000E+00  0.14574907299E+03  0.17549728488E+03  0.97757376821E+02 0.  0.
    9000005    2    3    3    0    0  0.15770810747E+02 -0.16044296796E+02  0.15015162385E+03  0.15257305348E+03  0.15062820915E+02 0.  0.
         22    1    3    3    0    0 -0.15770810747E+02  0.16044296796E+02 -0.44025508533E+01  0.22924231401E+02  0.00000000000E+00 0. -1.
         22    1    4    4    0    0  0.53156940077E+01 -0.10509150855E+02  0.11230036757E+03  0.11291621412E+03  0.00000000000E+00 0.  1.
         22    1    4    4    0    0  0.10455116740E+02 -0.55351459403E+01  0.37851256271E+02  0.39656839359E+02  0.00000000000E+00 0.  1.
<mgrwt>
<rscale>  0 0.97757377E+02</rscale>
<asrwt>0</asrwt>
<pdfrwt beam="2">  1        2 0.22883240E-02 0.97757377E+02</pdfrwt>
<pdfrwt beam="1">  1       -2 0.24711258E-01 0.97757377E+02</pdfrwt>
<totfact> 0.57055029E+04</totfact>
</mgrwt>
</event>
<event>
 7    1  0.3056193E-009  0.8516899E+02  0.7818608E-02  0.1314991E+00
          2   -1    0    0  501    0  0.00000000000E+00  0.00000000000E+00  0.61658654914E+02  0.61658654967E+02  0.25500000000E-02 0. -1.
         -2   -1    0    0    0  501 -0.00000000000E+00 -0.00000000000E+00 -0.29410945115E+02  0.29410945225E+02  0.25500000000E-02 0.  1.
         23    2    1    2    0    0  0.00000000000E+00 -0.35527136788E-14  0.32247709800E+02  0.91069600192E+02  0.85168992549E+02 0.  0.
    9000005    2    3    3    0    0 -0.18285875507E+02 -0.22754307409E+02  0.49077974091E+02  0.57374058278E+02  0.55680583406E+01 0.  0.
         22    1    3    3    0    0  0.18285875507E+02  0.22754307409E+02 -0.16830264291E+02  0.33695541914E+02  0.00000000000E+00 0.  1.
         22    1    4    4    0    0 -0.13398483629E+02 -0.13293476151E+02  0.34437118852E+02  0.39270230793E+02  0.00000000000E+00 0.  1.
         22    1    4    4    0    0 -0.48873918781E+01 -0.94608312584E+01  0.14640855239E+02  0.18103827485E+02  0.00000000000E+00 0.  1.
<mgrwt>
<rscale>  0 0.85168993E+02</rscale>
<asrwt>0</asrwt>
<pdfrwt beam="1">  1        2 0.94859469E-02 0.85168993E+02</pdfrwt>
<pdfrwt beam="2">  1       -2 0.45247608E-02 0.85168993E+02</pdfrwt>
<totfact> 0.12929726E+05</totfact>
</mgrwt>
</event>
<event>
 7    1  0.3056193E-009  0.9295461E+02  0.7818608E-02  0.1295850E+00
          2   -1    0    0  501    0  0.00000000000E+00  0.00000000000E+00  0.63264161499E+03  0.63264161500E+03  0.25500000000E-02 0. -1.
         -2   -1    0    0    0  501 -0.00000000000E+00 -0.00000000000E+00 -0.34144762717E+01  0.34144772239E+01  0.25500000000E-02 0.  1.
         23    2    1    2    0    0 -0.17763568394E-14 -0.88817841970E-15  0.62922713872E+03  0.63605609222E+03  0.92954614460E+02 0.  0.
    9000005    2    3    3    0    0 -0.11464117607E+02 -0.66725690592E+01  0.61924013398E+03  0.61945219406E+03  0.93127884807E+01 0.  0.
         22    1    3    3    0    0  0.11464117607E+02  0.66725690592E+01  0.99870047428E+01  0.16603898159E+02  0.00000000000E+00 0.  1.
         22    1    4    4    0    0 -0.13931671644E+00 -0.47064940057E+01  0.17334893060E+03  0.17341286641E+03  0.00000000000E+00 0. -1.
         22    1    4    4    0    0 -0.11324800890E+02 -0.19660750535E+01  0.44589120338E+03  0.44603932766E+03  0.00000000000E+00 0. -1.
<mgrwt>
<rscale>  0 0.92954614E+02</rscale>
<asrwt>0</asrwt>
<pdfrwt beam="1">  1        2 0.97329470E-01 0.92954614E+02</pdfrwt>
<pdfrwt beam="2">  1       -2 0.52530417E-03 0.92954614E+02</pdfrwt>
<totfact> 0.21969577E+05</totfact>
</mgrwt>
</event>
<event>
 7    1  0.3056193E-009  0.9273683E+02  0.7818608E-02  0.1296356E+00
          2   -1    0    0  501    0  0.00000000000E+00  0.00000000000E+00  0.20948070441E+02  0.20948070596E+02  0.25500000000E-02 0. -1.
         -2   -1    0    0    0  501 -0.00000000000E+00 -0.00000000000E+00 -0.10263617836E+03  0.10263617839E+03  0.25500000000E-02 0.  1.
         23    2    1    2    0    0  0.00000000000E+00 -0.35527136788E-14 -0.81688107922E+02  0.12358424899E+03  0.92736829914E+02 0.  0.
    9000005    2    3    3    0    0  0.16740245564E+02  0.25802795133E+02  0.29191525329E+01  0.33559760211E+02  0.13104045014E+02 0.  0.
         22    1    3    3    0    0 -0.16740245564E+02 -0.25802795133E+02 -0.84607260455E+02  0.90024488779E+02  0.00000000000E+00 0.  1.
         22    1    4    4    0    0 -0.19511974543E+01  0.54439067079E+01  0.84064091352E+00  0.58437974722E+01  0.00000000000E+00 0.  1.
         22    1    4    4    0    0  0.18691443018E+02  0.20358888425E+02  0.20785116194E+01  0.27715962739E+02  0.00000000000E+00 0.  1.
<mgrwt>
<rscale>  0 0.92736830E+02</rscale>
<asrwt>0</asrwt>
<pdfrwt beam="1">  1        2 0.32227801E-02 0.92736830E+02</pdfrwt>
<pdfrwt beam="2">  1       -2 0.15790181E-01 0.92736830E+02</pdfrwt>
<totfact> 0.75905716E+04</totfact>
</mgrwt>
</event>
<event>
 7    1  0.3056193E-009  0.9274690E+02  0.7818608E-02  0.1296333E+00
          2   -1    0    0  501    0  0.00000000000E+00  0.00000000000E+00  0.13000153877E+02  0.13000154127E+02  0.25500000000E-02 0. -1.
         -2   -1    0    0    0  501 -0.00000000000E+00 -0.00000000000E+00 -0.16542086292E+03  0.16542086294E+03  0.25500000000E-02 0.  1.
         23    2    1    2    0    0  0.17763568394E-14  0.00000000000E+00 -0.15242070904E+03  0.17842101706E+03  0.92746896366E+02 0.  0.
    9000005    2    3    3    0    0 -0.11269820024E+02  0.43363756898E+02 -0.95847824460E+02  0.10625512813E+03  0.97940055431E+01 0.  0.
         22    1    3    3    0    0  0.11269820024E+02 -0.43363756898E+02 -0.56572884580E+02  0.72165888932E+02  0.00000000000E+00 0. -1.
         22    1    4    4    0    0 -0.16539925420E+00  0.18209717637E+02 -0.42537568473E+02  0.46271653363E+02  0.00000000000E+00 0. -1.
         22    1    4    4    0    0 -0.11104420769E+02  0.25154039262E+02 -0.53310255986E+02  0.59983474767E+02  0.00000000000E+00 0. -1.
<mgrwt>
<rscale>  0 0.92746896E+02</rscale>
<asrwt>0</asrwt>
<pdfrwt beam="1">  1        2 0.20000238E-02 0.92746896E+02</pdfrwt>
<pdfrwt beam="2">  1       -2 0.25449362E-01 0.92746896E+02</pdfrwt>
<totfact> 0.64483189E+04</totfact>
</mgrwt>
</event>
<event>
 7    1  0.3056193E-009  0.9516285E+02  0.7818608E-02  0.1290810E+00
          2   -1    0    0  501    0  0.00000000000E+00  0.00000000000E+00  0.14976477187E+03  0.14976477189E+03  0.25500000000E-02 0. -1.
         -2   -1    0    0    0  501 -0.00000000000E+00 -0.00000000000E+00 -0.15116985616E+02  0.15116985831E+02  0.25500000000E-02 0.  1.
         23    2    1    2    0    0 -0.17763568394E-14 -0.35527136788E-14  0.13464778625E+03  0.16488175772E+03  0.95162848247E+02 0.  0.
    9000005    2    3    3    0    0 -0.15221589688E+02 -0.23244287030E+02  0.20404435766E+01  0.29394854281E+02  0.93755200425E+01 0.  0.
         22    1    3    3    0    0  0.15221589688E+02  0.23244287030E+02  0.13260734268E+03  0.13548690344E+03  0.00000000000E+00 0. -1.
         22    1    4    4    0    0  0.62175052021E+00  0.30998846033E+00  0.68496401904E+00  0.97562403738E+00  0.00000000000E+00 0. -1.
         22    1    4    4    0    0 -0.15843340208E+02 -0.23554275490E+02  0.13554795576E+01  0.28419230244E+02  0.00000000000E+00 0. -1.
<mgrwt>
<rscale>  0 0.95162848E+02</rscale>
<asrwt>0</asrwt>
<pdfrwt beam="1">  1        2 0.23040734E-01 0.95162848E+02</pdfrwt>
<pdfrwt beam="2">  1       -2 0.23256901E-02 0.95162848E+02</pdfrwt>
<totfact> 0.12436181E+05</totfact>
</mgrwt>
</event>
<event>
 7    1  0.3056193E-009  0.9803012E+02  0.7818608E-02  0.1284494E+00
         -2   -1    0    0    0  501 -0.00000000000E+00  0.00000000000E+00  0.88960917272E+02  0.88960917309E+02  0.25500000000E-02 0.  1.
          2   -1    0    0  501    0  0.00000000000E+00 -0.00000000000E+00 -0.27005972365E+02  0.27005972486E+02  0.25500000000E-02 0. -1.
         23    2    1    2    0    0  0.00000000000E+00  0.00000000000E+00  0.61954944907E+02  0.11596688979E+03  0.98030119505E+02 0.  0.
    9000005    2    3    3    0    0  0.28779363860E+02 -0.16326463385E+02 -0.10236274126E+02  0.36554187434E+02  0.11688546538E+02 0.  0.
         22    1    3    3    0    0 -0.28779363860E+02  0.16326463385E+02  0.72191219032E+02  0.79412702360E+02  0.00000000000E+00 0.  1.
         22    1    4    4    0    0  0.10498066294E+02 -0.79021828530E+01 -0.98495038414E+01  0.16421529030E+02  0.00000000000E+00 0.  1.
         22    1    4    4    0    0  0.18281297566E+02 -0.84242805315E+01 -0.38677028433E+00  0.20132658404E+02  0.00000000000E+00 0.  1.
<mgrwt>
<rscale>  0 0.98030120E+02</rscale>
<asrwt>0</asrwt>
<pdfrwt beam="2">  1        2 0.41547650E-02 0.98030120E+02</pdfrwt>
<pdfrwt beam="1">  1       -2 0.13686295E-01 0.98030120E+02</pdfrwt>
<totfact> 0.69038248E+04</totfact>
</mgrwt>
</event>
<event>
 7    1  0.3056193E-009  0.9141507E+02  0.7818608E-02  0.1299461E+00
          2   -1    0    0  501    0  0.00000000000E+00  0.00000000000E+00  0.13892612520E+02  0.13892612754E+02  0.25500000000E-02 0. -1.
         -2   -1    0    0    0  501 -0.00000000000E+00 -0.00000000000E+00 -0.15038053797E+03  0.15038053799E+03  0.25500000000E-02 0.  1.
         23    2    1    2    0    0  0.17763568394E-14  0.00000000000E+00 -0.13648792545E+03  0.16427315075E+03  0.91415065839E+02 0.  0.
    9000005    2    3    3    0    0 -0.11305645819E+02  0.39881153049E+02 -0.98560134441E+02  0.10808737562E+03  0.15825822924E+02 0.  0.
         22    1    3    3    0    0  0.11305645819E+02 -0.39881153049E+02 -0.37927791010E+02  0.56185775128E+02  0.00000000000E+00 0. -1.
         22    1    4    4    0    0 -0.13937722786E+02  0.39058941241E+02 -0.94251758567E+02  0.10297210788E+03  0.00000000000E+00 0.  1.
         22    1    4    4    0    0  0.26320769666E+01  0.82221180795E+00 -0.43083758741E+01  0.51152677435E+01  0.00000000000E+00 0.  1.
<mgrwt>
<rscale>  0 0.91415066E+02</rscale>
<asrwt>0</asrwt>
<pdfrwt beam="1">  1        2 0.21373251E-02 0.91415066E+02</pdfrwt>
<pdfrwt beam="2">  1       -2 0.23135466E-01 0.91415066E+02</pdfrwt>
<totfact> 0.69332094E+04</totfact>
</mgrwt>
</event>
<event>
 7    1  0.3056193E-009  0.9661868E+02  0.7818608E-02  0.1287571E+00
          2   -1    0    0  501    0  0.00000000000E+00  0.00000000000E+00  0.10053924934E+02  0.10053925257E+02  0.25500000000E-02 0. -1.
         -2   -1    0    0    0  501 -0.00000000000E+00 -0.00000000000E+00 -0.23212749604E+03  0.23212749605E+03  0.25500000000E-02 0.  1.
         23    2    1    2    0    0  0.00000000000E+00  0.00000000000E+00 -0.22207357110E+03  0.24218142131E+03  0.96618682689E+02 0.  0.
    9000005    2    3    3    0    0  0.86140925904E+01  0.11713307987E+02 -0.22622273005E+03  0.22706124621E+03  0.12987754275E+02 0.  0.
         22    1    3    3    0    0 -0.86140925904E+01 -0.11713307987E+02  0.41491589493E+01  0.15120175103E+02  0.00000000000E+00 0. -1.
         22    1    4    4    0    0  0.70529862773E+01  0.66345173623E+01 -0.20331272673E+03  0.20354318040E+03  0.00000000000E+00 0. -1.
         22    1    4    4    0    0  0.15611063132E+01  0.50787906243E+01 -0.22910003323E+02  0.23518065808E+02  0.00000000000E+00 0. -1.
<mgrwt>
<rscale>  0 0.96618683E+02</rscale>
<asrwt>0</asrwt>
<pdfrwt beam="1">  1        2 0.15467579E-02 0.96618683E+02</pdfrwt>
<pdfrwt beam="2">  1       -2 0.35711918E-01 0.96618683E+02</pdfrwt>
<totfact> 0.50191356E+04</totfact>
</mgrwt>
</event>
<event>
 7    1  0.3056193E-009  0.9047092E+02  0.7818608E-02  0.1301715E+00
          2   -1    0    0  501    0  0.00000000000E+00  0.00000000000E+00  0.28441926328E+02  0.28441926442E+02  0.25500000000E-02 0. -1.
         -2   -1    0    0    0  501 -0.00000000000E+00 -0.00000000000E+00 -0.71944736892E+02  0.71944736938E+02  0.25500000000E-02 0.  1.
         23    2    1    2    0    0  0.00000000000E+00  0.00000000000E+00 -0.43502810564E+02  0.10038666338E+03  0.90470921613E+02 0.  0.
    9000005    2    3    3    0    0 -0.19345686987E+02 -0.33423337669E+02 -0.45707694136E+02  0.61705445489E+02  0.15066306573E+02 0.  0.
         22    1    3    3    0    0  0.19345686987E+02  0.33423337669E+02  0.22048835720E+01  0.38681217891E+02  0.00000000000E+00 0. -1.
         22    1    4    4    0    0 -0.21509944452E+02 -0.32559896841E+02 -0.42039877031E+02  0.57360054510E+02  0.00000000000E+00 0. -1.
         22    1    4    4    0    0  0.21642574651E+01 -0.86344082866E+00 -0.36678171055E+01  0.43453909788E+01  0.00000000000E+00 0. -1.
<mgrwt>
<rscale>  0 0.90470922E+02</rscale>
<asrwt>0</asrwt>
<pdfrwt beam="1">  1        2 0.43756810E-02 0.90470922E+02</pdfrwt>
<pdfrwt beam="2">  1       -2 0.11068421E-01 0.90470922E+02</pdfrwt>
<totfact> 0.89250586E+04</totfact>
</mgrwt>
</event>
<event>
 7    1  0.3056193E-009  0.1018032E+03  0.7818608E-02  0.1276549E+00
          2   -1    0    0  501    0  0.00000000000E+00  0.00000000000E+00  0.15427405759E+02  0.15427405970E+02  0.25500000000E-02 0. -1.
         -2   -1    0    0    0  501 -0.00000000000E+00 -0.00000000000E+00 -0.16794621584E+03  0.16794621586E+03  0.25500000000E-02 0.  1.
         23    2    1    2    0    0  0.00000000000E+00  0.00000000000E+00 -0.15251881008E+03  0.18337362183E+03  0.10180323057E+03 0.  0.
    9000005    2    3    3    0    0  0.30770334013E+02  0.31162040177E+02 -0.12031838010E+03  0.12901597385E+03  0.15834226018E+02 0.  0.
         22    1    3    3    0    0 -0.30770334013E+02 -0.31162040177E+02 -0.32200429975E+02  0.54357647980E+02  0.00000000000E+00 0. -1.
         22    1    4    4    0    0  0.17071930082E+01  0.45531377039E+01 -0.31174432187E+02  0.31551399226E+02  0.00000000000E+00 0.  1.
         22    1    4    4    0    0  0.29063141005E+02  0.26608902473E+02 -0.89143947917E+02  0.97464574622E+02  0.00000000000E+00 0.  1.
<mgrwt>
<rscale>  0 0.10180323E+03</rscale>
<asrwt>0</asrwt>
<pdfrwt beam="1">  1        2 0.23734472E-02 0.10180323E+03</pdfrwt>
<pdfrwt beam="2">  1       -2 0.25837878E-01 0.10180323E+03</pdfrwt>
<totfact> 0.50575859E+04</totfact>
</mgrwt>
</event>
<event>
 7    1  0.3056193E-009  0.9190128E+02  0.7818608E-02  0.1298312E+00
          2   -1    0    0  501    0  0.00000000000E+00  0.00000000000E+00  0.38182414199E+02  0.38182414284E+02  0.25500000000E-02 0. -1.
         -2   -1    0    0    0  501 -0.00000000000E+00 -0.00000000000E+00 -0.55299319617E+02  0.55299319676E+02  0.25500000000E-02 0.  1.
         23    2    1    2    0    0  0.00000000000E+00  0.88817841970E-15 -0.17116905418E+02  0.93481733960E+02  0.91901284719E+02 0.  0.
    9000005    2    3    3    0    0  0.42600653671E+02 -0.69608992362E+01  0.72857826083E+01  0.43895838845E+02  0.32391709270E+01 0.  0.
         22    1    3    3    0    0 -0.42600653671E+02  0.69608992362E+01 -0.24402688026E+02  0.49585895115E+02  0.00000000000E+00 0.  1.
         22    1    4    4    0    0  0.22568262793E+02 -0.51784866373E+01  0.45754770746E+01  0.23602504100E+02  0.00000000000E+00 0.  1.
         22    1    4    4    0    0  0.20032390878E+02 -0.17824125989E+01  0.27103055337E+01  0.20293334745E+02  0.00000000000E+00 0.  1.
<mgrwt>
<rscale>  0 0.91901285E+02</rscale>
<asrwt>0</asrwt>
<pdfrwt beam="1">  1        2 0.58742176E-02 0.91901285E+02</pdfrwt>
<pdfrwt beam="2">  1       -2 0.85075876E-02 0.91901285E+02</pdfrwt>
<totfact> 0.92099060E+04</totfact>
</mgrwt>
</event>
<event>
 7    1  0.3056193E-009  0.9120926E+02  0.7818608E-02  0.1299949E+00
         -2   -1    0    0    0  501 -0.00000000000E+00  0.00000000000E+00  0.12625911252E+02  0.12625911509E+02  0.25500000000E-02 0.  1.
          2   -1    0    0  501    0  0.00000000000E+00 -0.00000000000E+00 -0.16472334708E+03  0.16472334710E+03  0.25500000000E-02 0. -1.
         23    2    1    2    0    0 -0.71054273576E-14  0.88817841970E-15 -0.15209743583E+03  0.17734925861E+03  0.91209262379E+02 0.  0.
    9000005    2    3    3    0    0  0.44803166368E+02 -0.72218578029E+01 -0.68881459976E+02  0.82563301930E+02  0.35446227424E+01 0.  0.
         22    1    3    3    0    0 -0.44803166368E+02  0.72218578029E+01 -0.83215975853E+02  0.94785956680E+02  0.00000000000E+00 0.  1.
         22    1    4    4    0    0  0.65588193832E+01 -0.13373992392E+01 -0.80685380155E+01  0.10483704218E+02  0.00000000000E+00 0.  1.
         22    1    4    4    0    0  0.38244346984E+02 -0.58844585637E+01 -0.60812921961E+02  0.72079597712E+02  0.00000000000E+00 0.  1.
<mgrwt>
<rscale>  0 0.91209262E+02</rscale>
<asrwt>0</asrwt>
<pdfrwt beam="2">  1        2 0.25342052E-01 0.91209262E+02</pdfrwt>
<pdfrwt beam="1">  1       -2 0.19424480E-02 0.91209262E+02</pdfrwt>
<totfact> 0.14424430E+05</totfact>
</mgrwt>
</event>
<event>
 7    1  0.3056193E-009  0.8947936E+02  0.7818608E-02  0.1304117E+00
          2   -1    0    0  501    0  0.00000000000E+00  0.00000000000E+00  0.79455074370E+02  0.79455074411E+02  0.25500000000E-02 0. -1.
         -2   -1    0    0    0  501 -0.00000000000E+00 -0.00000000000E+00 -0.25192083907E+02  0.25192084036E+02  0.25500000000E-02 0.  1.
         23    2    1    2    0    0  0.00000000000E+00 -0.35527136788E-14  0.54262990463E+02  0.10464715845E+03  0.89479358720E+02 0.  0.
    9000005    2    3    3    0    0 -0.37356719742E+02  0.20118010715E+02  0.13782675358E+02  0.46004897439E+02  0.11235193959E+02 0.  0.
         22    1    3    3    0    0  0.37356719742E+02 -0.20118010715E+02  0.40480315105E+02  0.58642261007E+02  0.00000000000E+00 0.  1.
         22    1    4    4    0    0 -0.28309016734E+01  0.42417728102E+01  0.46960098918E+01  0.69324706823E+01  0.00000000000E+00 0.  1.
         22    1    4    4    0    0 -0.34525818069E+02  0.15876237905E+02  0.90866654659E+01  0.39072426757E+02  0.00000000000E+00 0.  1.
<mgrwt>
<rscale>  0 0.89479359E+02</rscale>
<asrwt>0</asrwt>
<pdfrwt beam="1">  1        2 0.12223857E-01 0.89479359E+02</pdfrwt>
<pdfrwt beam="2">  1       -2 0.38757053E-02 0.89479359E+02</pdfrwt>
<totfact> 0.12076547E+05</totfact>
</mgrwt>
</event>
<event>
 6    1  0.3056193E-009  0.1876877E+03  0.7818608E-02  0.1160564E+00
          2   -1    0    0  501    0  0.00000000000E+00  0.00000000000E+00  0.52657631822E+03  0.52657631822E+03  0.25500000000E-02 0. -1.
         -2   -1    0    0    0  501 -0.00000000000E+00 -0.00000000000E+00 -0.16724395487E+02  0.16724395682E+02  0.25500000000E-02 0.  1.
    9000005    2    1    2    0    0 -0.92191248738E+02 -0.16018746313E+02  0.26898545219E+03  0.28489699256E+03  0.75694319195E+01 0.  0.
         22    1    1    2    0    0  0.92191248738E+02  0.16018746313E+02  0.24086647054E+03  0.25840372135E+03  0.00000000000E+00 0.  1.
         22    1    3    3    0    0 -0.15123314507E+01  0.16270157941E+00  0.23477440405E+01  0.27974131444E+01  0.00000000000E+00 0.  1.
         22    1    3    3    0    0 -0.90678917287E+02 -0.16181447893E+02  0.26663770815E+03  0.28209957941E+03  0.00000000000E+00 0.  1.
<mgrwt>
<rscale>  0 0.18768773E+03</rscale>
<asrwt>0</asrwt>
<pdfrwt beam="1">  1        2 0.81011733E-01 0.18768773E+03</pdfrwt>
<pdfrwt beam="2">  1       -2 0.25729842E-02 0.18768773E+03</pdfrwt>
<totfact> 0.30108701E+04</totfact>
</mgrwt>
</event>
<event>
 7    1  0.3056193E-009  0.9074295E+02  0.7818608E-02  0.1301062E+00
          2   -1    0    0  501    0  0.00000000000E+00  0.00000000000E+00  0.98173941064E+03  0.98173941064E+03  0.25500000000E-02 0. -1.
         -2   -1    0    0    0  501 -0.00000000000E+00 -0.00000000000E+00 -0.20968600215E+01  0.20968615720E+01  0.25500000000E-02 0.  1.
         23    2    1    2    0    0  0.00000000000E+00 -0.17763568394E-14  0.97964255062E+03  0.98383627221E+03  0.90742953137E+02 0.  0.
    9000005    2    3    3    0    0  0.23201522460E+02 -0.90171089987E+01  0.89890881853E+03  0.89935222404E+03  0.13331914904E+02 0.  0.
         22    1    3    3    0    0 -0.23201522460E+02  0.90171089987E+01  0.80733732082E+02  0.84484048169E+02  0.00000000000E+00 0.  1.
         22    1    4    4    0    0  0.61964562412E+01  0.25042508273E+01  0.13277301111E+03  0.13294111411E+03  0.00000000000E+00 0. -1.
         22    1    4    4    0    0  0.17005066219E+02 -0.11521359826E+02  0.76613580743E+03  0.76641110993E+03  0.00000000000E+00 0. -1.
<mgrwt>
<rscale>  0 0.90742953E+02</rscale>
<asrwt>0</asrwt>
<pdfrwt beam="1">  1        2 0.15103708E+00 0.90742953E+02</pdfrwt>
<pdfrwt beam="2">  1       -2 0.32259343E-03 0.90742953E+02</pdfrwt>
<totfact> 0.25293999E+05</totfact>
</mgrwt>
</event>
<event>
 7    1  0.3056193E-009  0.1033529E+03  0.7818608E-02  0.1273399E+00
          2   -1    0    0  501    0  0.00000000000E+00  0.00000000000E+00  0.17083407439E+02  0.17083407630E+02  0.25500000000E-02 0. -1.
         -2   -1    0    0    0  501 -0.00000000000E+00 -0.00000000000E+00 -0.15631871539E+03  0.15631871541E+03  0.25500000000E-02 0.  1.
         23    2    1    2    0    0  0.00000000000E+00  0.00000000000E+00 -0.13923530795E+03  0.17340212304E+03  0.10335291624E+03 0.  0.
    9000005    2    3    3    0    0 -0.41721191210E+02 -0.18878400781E+02 -0.10738718915E+03  0.11762260634E+03  0.14353303345E+02 0.  0.
         22    1    3    3    0    0  0.41721191210E+02  0.18878400781E+02 -0.31848118800E+02  0.55779516698E+02  0.00000000000E+00 0. -1.
         22    1    4    4    0    0 -0.21359389799E+02 -0.13491958792E+02 -0.73526519802E+02  0.77745775440E+02  0.00000000000E+00 0. -1.
         22    1    4    4    0    0 -0.20361801410E+02 -0.53864419894E+01 -0.33860669348E+02  0.39876830901E+02  0.00000000000E+00 0. -1.
<mgrwt>
<rscale>  0 0.10335292E+03</rscale>
<asrwt>0</asrwt>
<pdfrwt beam="1">  1        2 0.26282167E-02 0.10335292E+03</pdfrwt>
<pdfrwt beam="2">  1       -2 0.24049032E-01 0.10335292E+03</pdfrwt>
<totfact> 0.50057349E+04</totfact>
</mgrwt>
</event>
<event>
 7    1  0.3056193E-009  0.8418506E+02  0.7818608E-02  0.1317578E+00
         -2   -1    0    0    0  501 -0.00000000000E+00  0.00000000000E+00  0.69624565291E+01  0.69624569961E+01  0.25500000000E-02 0.  1.
          2   -1    0    0  501    0  0.00000000000E+00 -0.00000000000E+00 -0.25447640811E+03  0.25447640813E+03  0.25500000000E-02 0. -1.
         23    2    1    2    0    0  0.00000000000E+00  0.35527136788E-14 -0.24751395159E+03  0.26143886512E+03  0.84185057864E+02 0.  0.
    9000005    2    3    3    0    0  0.19866470591E+02 -0.21469516503E+02 -0.21739887171E+03  0.21945631126E+03  0.65716315213E+01 0.  0.
         22    1    3    3    0    0 -0.19866470591E+02  0.21469516503E+02 -0.30115079878E+02  0.41982553861E+02  0.00000000000E+00 0.  1.
         22    1    4    4    0    0  0.90219008078E+01 -0.52070537077E+01 -0.79098059784E+02  0.79781020074E+02  0.00000000000E+00 0. -1.
         22    1    4    4    0    0  0.10844569783E+02 -0.16262462795E+02 -0.13830081192E+03  0.13967529119E+03  0.00000000000E+00 0. -1.
<mgrwt>
<rscale>  0 0.84185058E+02</rscale>
<asrwt>0</asrwt>
<pdfrwt beam="2">  1        2 0.39150209E-01 0.84185058E+02</pdfrwt>
<pdfrwt beam="1">  1       -2 0.10711474E-02 0.84185058E+02</pdfrwt>
<totfact> 0.20897491E+05</totfact>
</mgrwt>
</event>
<event>
 7    1  0.3056193E-009  0.9241831E+02  0.7818608E-02  0.1297099E+00
         -2   -1    0    0    0  501 -0.00000000000E+00  0.00000000000E+00  0.12374585835E+02  0.12374586098E+02  0.25500000000E-02 0.  1.
          2   -1    0    0  501    0  0.00000000000E+00 -0.00000000000E+00 -0.17255412452E+03  0.17255412454E+03  0.25500000000E-02 0. -1.
         23    2    1    2    0    0  0.00000000000E+00  0.00000000000E+00 -0.16017953869E+03  0.18492871064E+03  0.92418306654E+02 0.  0.
    9000005    2    3    3    0    0  0.84183513336E+01 -0.42039766091E+02 -0.52131765378E+02  0.68685294098E+02  0.12717629172E+02 0.  0.
         22    1    3    3    0    0 -0.84183513336E+01  0.42039766091E+02 -0.10804777331E+03  0.11624341654E+03  0.00000000000E+00 0.  1.
         22    1    4    4    0    0  0.66266724028E+01 -0.20909448652E+02 -0.35522841420E+02  0.41749132837E+02  0.00000000000E+00 0.  1.
         22    1    4    4    0    0  0.17916789308E+01 -0.21130317439E+02 -0.16608923958E+02  0.26936161262E+02  0.00000000000E+00 0.  1.
<mgrwt>
<rscale>  0 0.92418307E+02</rscale>
<asrwt>0</asrwt>
<pdfrwt beam="2">  1        2 0.26546787E-01 0.92418307E+02</pdfrwt>
<pdfrwt beam="1">  1       -2 0.19037826E-02 0.92418307E+02</pdfrwt>
<totfact> 0.14146718E+05</totfact>
</mgrwt>
</event>
<event>
 7    1  0.3056193E-009  0.9147469E+02  0.7818608E-02  0.1299319E+00
          2   -1    0    0  501    0  0.00000000000E+00  0.00000000000E+00  0.77974293001E+02  0.77974293042E+02  0.25500000000E-02 0. -1.
         -2   -1    0    0    0  501 -0.00000000000E+00 -0.00000000000E+00 -0.26828132401E+02  0.26828132522E+02  0.25500000000E-02 0.  1.
         23    2    1    2    0    0  0.00000000000E+00  0.00000000000E+00  0.51146160600E+02  0.10480242556E+03  0.91474688631E+02 0.  0.
    9000005    2    3    3    0    0 -0.30744603637E+02  0.23607762749E+02  0.14134982226E+01  0.41747728500E+02  0.15437543290E+02 0.  0.
         22    1    3    3    0    0  0.30744603637E+02 -0.23607762749E+02  0.49732662377E+02  0.63054697065E+02  0.00000000000E+00 0. -1.
         22    1    4    4    0    0 -0.22380771963E+02  0.19221072200E+02  0.75907317167E+01  0.30462563553E+02  0.00000000000E+00 0. -1.
         22    1    4    4    0    0 -0.83638316744E+01  0.43866905484E+01 -0.61772334941E+01  0.11285164947E+02  0.00000000000E+00 0. -1.
<mgrwt>
<rscale>  0 0.91474689E+02</rscale>
<asrwt>0</asrwt>
<pdfrwt beam="1">  1        2 0.11996045E-01 0.91474689E+02</pdfrwt>
<pdfrwt beam="2">  1       -2 0.41274050E-02 0.91474689E+02</pdfrwt>
<totfact> 0.11298766E+05</totfact>
</mgrwt>
</event>
<event>
 7    1  0.3056193E-009  0.9323395E+02  0.7818608E-02  0.1295204E+00
         -2   -1    0    0    0  501 -0.00000000000E+00  0.00000000000E+00  0.60290465888E+02  0.60290465942E+02  0.25500000000E-02 0.  1.
          2   -1    0    0  501    0  0.00000000000E+00 -0.00000000000E+00 -0.36044543798E+02  0.36044543888E+02  0.25500000000E-02 0. -1.
         23    2    1    2    0    0 -0.17763568394E-14  0.35527136788E-14  0.24245922090E+02  0.96335009830E+02  0.93233949723E+02 0.  0.
    9000005    2    3    3    0    0  0.95402771353E+01 -0.28783047103E+02 -0.22308551610E+02  0.40776034769E+02  0.15669487810E+02 0.  0.
         22    1    3    3    0    0 -0.95402771353E+01  0.28783047103E+02  0.46554473700E+02  0.55558975061E+02  0.00000000000E+00 0.  1.
         22    1    4    4    0    0 -0.29849262399E+01 -0.15489288358E+02 -0.11843941836E+02  0.19725790142E+02  0.00000000000E+00 0. -1.
         22    1    4    4    0    0  0.12525203375E+02 -0.13293758745E+02 -0.10464609774E+02  0.21050244627E+02  0.00000000000E+00 0. -1.
<mgrwt>
<rscale>  0 0.93233950E+02</rscale>
<asrwt>0</asrwt>
<pdfrwt beam="2">  1        2 0.55453144E-02 0.93233950E+02</pdfrwt>
<pdfrwt beam="1">  1       -2 0.92754563E-02 0.93233950E+02</pdfrwt>
<totfact> 0.86969360E+04</totfact>
</mgrwt>
</event>
<event>
 7    1  0.3056193E-009  0.9118956E+02  0.7818608E-02  0.1299996E+00
         -2   -1    0    0    0  501 -0.00000000000E+00  0.00000000000E+00  0.30653716221E+01  0.30653726827E+01  0.25500000000E-02 0.  1.
          2   -1    0    0  501    0  0.00000000000E+00 -0.00000000000E+00 -0.67818324832E+03  0.67818324832E+03  0.25500000000E-02 0. -1.
         23    2    1    2    0    0 -0.44408920985E-15  0.00000000000E+00 -0.67511787669E+03  0.68124862100E+03  0.91189561834E+02 0.  0.
    9000005    2    3    3    0    0  0.20451493642E+01 -0.19931304833E+02 -0.64329871667E+03  0.64364677939E+03  0.68189587436E+01 0.  0.
         22    1    3    3    0    0 -0.20451493642E+01  0.19931304833E+02 -0.31819160023E+02  0.37601841615E+02  0.00000000000E+00 0.  1.
         22    1    4    4    0    0  0.14776322827E+01 -0.76938462839E+01 -0.15872406374E+03  0.15891729635E+03  0.00000000000E+00 0.  1.
         22    1    4    4    0    0  0.56751708142E+00 -0.12237458549E+02 -0.48457465293E+03  0.48472948304E+03  0.00000000000E+00 0.  1.
<mgrwt>
<rscale>  0 0.91189562E+02</rscale>
<asrwt>0</asrwt>
<pdfrwt beam="2">  1        2 0.10433576E+00 0.91189562E+02</pdfrwt>
<pdfrwt beam="1">  1       -2 0.47159626E-03 0.91189562E+02</pdfrwt>
<totfact> 0.23527053E+05</totfact>
</mgrwt>
</event>
<event>
 7    1  0.3056193E-009  0.9414316E+02  0.7818608E-02  0.1293118E+00
          2   -1    0    0  501    0  0.00000000000E+00  0.00000000000E+00  0.23426511226E+03  0.23426511228E+03  0.25500000000E-02 0. -1.
         -2   -1    0    0    0  501 -0.00000000000E+00 -0.00000000000E+00 -0.94582308044E+01  0.94582311481E+01  0.25500000000E-02 0.  1.
         23    2    1    2    0    0  0.00000000000E+00  0.00000000000E+00  0.22480688146E+03  0.24372334342E+03  0.94143157898E+02 0.  0.
    9000005    2    3    3    0    0 -0.12485578266E+02  0.37459515518E+02  0.17854738069E+03  0.18290355735E+03  0.39292709497E+01 0.  0.
         22    1    3    3    0    0  0.12485578266E+02 -0.37459515518E+02  0.46259500763E+02  0.60819786076E+02  0.00000000000E+00 0.  1.
         22    1    4    4    0    0 -0.79058386664E+01  0.24145257934E+02  0.12328882291E+03  0.12587942492E+03  0.00000000000E+00 0.  1.
         22    1    4    4    0    0 -0.45797395998E+01  0.13314257584E+02  0.55258557789E+02  0.57024132424E+02  0.00000000000E+00 0.  1.
<mgrwt>
<rscale>  0 0.94143158E+02</rscale>
<asrwt>0</asrwt>
<pdfrwt beam="1">  1        2 0.36040785E-01 0.94143158E+02</pdfrwt>
<pdfrwt beam="2">  1       -2 0.14551125E-02 0.94143158E+02</pdfrwt>
<totfact> 0.15036122E+05</totfact>
</mgrwt>
</event>
<event>
 7    1  0.3056193E-009  0.9589402E+02  0.7818608E-02  0.1289175E+00
         -2   -1    0    0    0  501 -0.00000000000E+00  0.00000000000E+00  0.60574202957E+02  0.60574203010E+02  0.25500000000E-02 0.  1.
          2   -1    0    0  501    0  0.00000000000E+00 -0.00000000000E+00 -0.37952058148E+02  0.37952058233E+02  0.25500000000E-02 0. -1.
         23    2    1    2    0    0  0.00000000000E+00 -0.71054273576E-14  0.22622144809E+02  0.98526261244E+02  0.95894018160E+02 0.  0.
    9000005    2    3    3    0    0 -0.15007226127E+02 -0.37411743972E+02 -0.13410644979E+02  0.44459475109E+02  0.13112745906E+02 0.  0.
         22    1    3    3    0    0  0.15007226127E+02  0.37411743972E+02  0.36032789787E+02  0.54066786134E+02  0.00000000000E+00 0.  1.
         22    1    4    4    0    0 -0.14409910713E+02 -0.18555420277E+02 -0.82582124262E+01  0.24902755287E+02  0.00000000000E+00 0. -1.
         22    1    4    4    0    0 -0.59731541394E+00 -0.18856323695E+02 -0.51524325524E+01  0.19556719822E+02  0.00000000000E+00 0. -1.
<mgrwt>
<rscale>  0 0.95894018E+02</rscale>
<asrwt>0</asrwt>
<pdfrwt beam="2">  1        2 0.58387782E-02 0.95894018E+02</pdfrwt>
<pdfrwt beam="1">  1       -2 0.93191082E-02 0.95894018E+02</pdfrwt>
<totfact> 0.81179358E+04</totfact>
</mgrwt>
</event>
<event>
 7    1  0.3056193E-009  0.9040376E+02  0.7818608E-02  0.1301877E+00
          2   -1    0    0  501    0  0.00000000000E+00  0.00000000000E+00  0.15005032394E+03  0.15005032396E+03  0.25500000000E-02 0. -1.
         -2   -1    0    0    0  501 -0.00000000000E+00 -0.00000000000E+00 -0.13616830423E+02  0.13616830662E+02  0.25500000000E-02 0.  1.
         23    2    1    2    0    0  0.00000000000E+00  0.00000000000E+00  0.13643349352E+03  0.16366715462E+03  0.90403757386E+02 0.  0.
    9000005    2    3    3    0    0  0.21399010992E+02 -0.33457270801E+02  0.10582926656E+03  0.11352809451E+03  0.10558785109E+02 0.  0.
         22    1    3    3    0    0 -0.21399010992E+02  0.33457270801E+02  0.30604226957E+02  0.50139060108E+02  0.00000000000E+00 0.  1.
         22    1    4    4    0    0  0.74744545084E+01 -0.39209660114E+01  0.21948729954E+02  0.23515700952E+02  0.00000000000E+00 0. -1.
         22    1    4    4    0    0  0.13924556483E+02 -0.29536304790E+02  0.83880536604E+02  0.90012393562E+02  0.00000000000E+00 0. -1.
<mgrwt>
<rscale>  0 0.90403757E+02</rscale>
<asrwt>0</asrwt>
<pdfrwt beam="1">  1        2 0.23084664E-01 0.90403757E+02</pdfrwt>
<pdfrwt beam="2">  1       -2 0.20948971E-02 0.90403757E+02</pdfrwt>
<totfact> 0.14309116E+05</totfact>
</mgrwt>
</event>
<event>
 7    1  0.3056193E-009  0.9265199E+02  0.7818608E-02  0.1296554E+00
          2   -1    0    0  501    0  0.00000000000E+00  0.00000000000E+00  0.13237490086E+02  0.13237490331E+02  0.25500000000E-02 0. -1.
         -2   -1    0    0    0  501 -0.00000000000E+00 -0.00000000000E+00 -0.16212271221E+03  0.16212271223E+03  0.25500000000E-02 0.  1.
         23    2    1    2    0    0  0.00000000000E+00  0.00000000000E+00 -0.14888522212E+03  0.17536020256E+03  0.92651990131E+02 0.  0.
    9000005    2    3    3    0    0  0.20588222534E+02  0.18169148009E+02 -0.14493659843E+03  0.14761881695E+03  0.55411828573E+01 0.  0.
         22    1    3    3    0    0 -0.20588222534E+02 -0.18169148009E+02 -0.39486236952E+01  0.27741385610E+02  0.00000000000E+00 0. -1.
         22    1    4    4    0    0  0.91359369098E+01  0.45321760915E+01 -0.54281898828E+02  0.55231607832E+02  0.00000000000E+00 0.  1.
         22    1    4    4    0    0  0.11452285624E+02  0.13636971917E+02 -0.90654699599E+02  0.92387209117E+02  0.00000000000E+00 0.  1.
<mgrwt>
<rscale>  0 0.92651990E+02</rscale>
<asrwt>0</asrwt>
<pdfrwt beam="1">  1        2 0.20365371E-02 0.92651990E+02</pdfrwt>
<pdfrwt beam="2">  1       -2 0.24941954E-01 0.92651990E+02</pdfrwt>
<totfact> 0.65153239E+04</totfact>
</mgrwt>
</event>
<event>
 7    1  0.3056193E-009  0.9408697E+02  0.7818608E-02  0.1293246E+00
          2   -1    0    0  501    0  0.00000000000E+00  0.00000000000E+00  0.28086238338E+02  0.28086238454E+02  0.25500000000E-02 0. -1.
         -2   -1    0    0    0  501 -0.00000000000E+00 -0.00000000000E+00 -0.78796221239E+02  0.78796221280E+02  0.25500000000E-02 0.  1.
         23    2    1    2    0    0  0.00000000000E+00  0.00000000000E+00 -0.50709982901E+02  0.10688245973E+03  0.94086969517E+02 0.  0.
    9000005    2    3    3    0    0 -0.42694566281E+01 -0.44178172381E+02 -0.40802479999E+02  0.61406116558E+02  0.11658885105E+02 0.  0.
         22    1    3    3    0    0  0.42694566281E+01  0.44178172381E+02 -0.99075029019E+01  0.45476343175E+02  0.00000000000E+00 0. -1.
         22    1    4    4    0    0  0.21434012850E+01 -0.41273747258E+01 -0.79464684237E+01  0.92073748487E+01  0.00000000000E+00 0. -1.
         22    1    4    4    0    0 -0.64128579131E+01 -0.40050797655E+02 -0.32856011575E+02  0.52198741710E+02  0.00000000000E+00 0. -1.
<mgrwt>
<rscale>  0 0.94086970E+02</rscale>
<asrwt>0</asrwt>
<pdfrwt beam="1">  1        2 0.43209598E-02 0.94086970E+02</pdfrwt>
<pdfrwt beam="2">  1       -2 0.12122496E-01 0.94086970E+02</pdfrwt>
<totfact> 0.79092304E+04</totfact>
</mgrwt>
</event>
<event>
 7    1  0.3056193E-009  0.8980030E+02  0.7818608E-02  0.1303336E+00
          2   -1    0    0  501    0  0.00000000000E+00  0.00000000000E+00  0.17716057135E+02  0.17716057319E+02  0.25500000000E-02 0.  1.
         -2   -1    0    0    0  501 -0.00000000000E+00 -0.00000000000E+00 -0.11379638372E+03  0.11379638375E+03  0.25500000000E-02 0. -1.
         23    2    1    2    0    0  0.00000000000E+00  0.00000000000E+00 -0.96080326586E+02  0.13151244107E+03  0.89800295094E+02 0.  0.
    9000005    2    3    3    0    0 -0.21784877753E+02 -0.37680695011E+02 -0.57155672760E+02  0.73121137344E+02  0.13620356917E+02 0.  0.
         22    1    3    3    0    0  0.21784877753E+02  0.37680695011E+02 -0.38924653826E+02  0.58391303725E+02  0.00000000000E+00 0. -1.
         22    1    4    4    0    0 -0.20563519687E+02 -0.28231596505E+02 -0.50872727505E+02  0.61708312138E+02  0.00000000000E+00 0. -1.
         22    1    4    4    0    0 -0.12213580660E+01 -0.94490985054E+01 -0.62829452556E+01  0.11412825206E+02  0.00000000000E+00 0. -1.
<mgrwt>
<rscale>  0 0.89800295E+02</rscale>
<asrwt>0</asrwt>
<pdfrwt beam="1">  1        2 0.27255473E-02 0.89800295E+02</pdfrwt>
<pdfrwt beam="2">  1       -2 0.17507136E-01 0.89800295E+02</pdfrwt>
<totfact> 0.79681461E+04</totfact>
</mgrwt>
</event>
<event>
 7    1  0.3056193E-009  0.9314060E+02  0.7818608E-02  0.1295420E+00
          2   -1    0    0  501    0  0.00000000000E+00  0.00000000000E+00  0.46592320416E+03  0.46592320416E+03  0.25500000000E-02 0. -1.
         -2   -1    0    0    0  501 -0.00000000000E+00 -0.00000000000E+00 -0.46548291148E+01  0.46548298133E+01  0.25500000000E-02 0.  1.
         23    2    1    2    0    0  0.00000000000E+00  0.35527136788E-14  0.46126837504E+03  0.47057803398E+03  0.93140604721E+02 0.  0.
    9000005    2    3    3    0    0 -0.67335002369E+01 -0.25860926724E+02  0.42272639470E+03  0.42367801473E+03  0.95565597783E+01 0.  0.
         22    1    3    3    0    0  0.67335002369E+01  0.25860926724E+02  0.38541980340E+02  0.46900019243E+02  0.00000000000E+00 0.  1.
         22    1    4    4    0    0 -0.18000190016E+01 -0.82407333455E+01  0.20887123202E+03  0.20904148229E+03  0.00000000000E+00 0. -1.
         22    1    4    4    0    0 -0.49334812353E+01 -0.17620193379E+02  0.21385516269E+03  0.21463653244E+03  0.00000000000E+00 0. -1.
<mgrwt>
<rscale>  0 0.93140605E+02</rscale>
<asrwt>0</asrwt>
<pdfrwt beam="1">  1        2 0.71680507E-01 0.93140605E+02</pdfrwt>
<pdfrwt beam="2">  1       -2 0.71612747E-03 0.93140605E+02</pdfrwt>
<totfact> 0.19894304E+05</totfact>
</mgrwt>
</event>
<event>
 7    1  0.3056193E-009  0.9608388E+02  0.7818608E-02  0.1288753E+00
          2   -1    0    0  501    0  0.00000000000E+00  0.00000000000E+00  0.17156368597E+04  0.17156368597E+04  0.25500000000E-02 0.  1.
         -2   -1    0    0    0  501 -0.00000000000E+00 -0.00000000000E+00 -0.13452882176E+01  0.13452906344E+01  0.25500000000E-02 0. -1.
         23    2    1    2    0    0  0.00000000000E+00 -0.35527136788E-14  0.17142915715E+04  0.17169821503E+04  0.96083882717E+02 0.  0.
    9000005    2    3    3    0    0 -0.13889385486E+02 -0.16113980076E+02  0.16255911671E+04  0.16257662683E+04  0.10804696855E+02 0.  0.
         22    1    3    3    0    0  0.13889385486E+02  0.16113980076E+02  0.88700404403E+02  0.91215881974E+02  0.00000000000E+00 0. -1.
         22    1    4    4    0    0 -0.11706406109E+02 -0.57818524631E+01  0.10122141206E+04  0.10122983235E+04  0.00000000000E+00 0. -1.
         22    1    4    4    0    0 -0.21829793778E+01 -0.10332127613E+02  0.61337704643E+03  0.61346794484E+03  0.00000000000E+00 0. -1.
<mgrwt>
<rscale>  0 0.96083883E+02</rscale>
<asrwt>0</asrwt>
<pdfrwt beam="1">  1        2 0.26394370E+00 0.96083883E+02</pdfrwt>
<pdfrwt beam="2">  1       -2 0.20696794E-03 0.96083883E+02</pdfrwt>
<totfact> 0.19247753E+05</totfact>
</mgrwt>
</event>
<event>
 7    1  0.3056193E-009  0.8915876E+02  0.7818608E-02  0.1304902E+00
          2   -1    0    0  501    0  0.00000000000E+00  0.00000000000E+00  0.14203550241E+03  0.14203550243E+03  0.25500000000E-02 0. -1.
         -2   -1    0    0    0  501 -0.00000000000E+00 -0.00000000000E+00 -0.13991720550E+02  0.13991720783E+02  0.25500000000E-02 0.  1.
         23    2    1    2    0    0  0.35527136788E-14  0.00000000000E+00  0.12804378186E+03  0.15602722321E+03  0.89158759027E+02 0.  0.
    9000005    2    3    3    0    0 -0.31737453890E+02 -0.30490313348E+02  0.58878602632E+02  0.74047059730E+02  0.89079750339E+01 0.  0.
         22    1    3    3    0    0  0.31737453890E+02  0.30490313348E+02  0.69165179225E+02  0.81980163483E+02  0.00000000000E+00 0.  1.
         22    1    4    4    0    0 -0.77729916328E+01 -0.12828285868E+02  0.22480154734E+02  0.27024834396E+02  0.00000000000E+00 0.  1.
         22    1    4    4    0    0 -0.23964462257E+02 -0.17662027480E+02  0.36398447898E+02  0.47022225334E+02  0.00000000000E+00 0.  1.
<mgrwt>
<rscale>  0 0.89158759E+02</rscale>
<asrwt>0</asrwt>
<pdfrwt beam="1">  1        2 0.21851615E-01 0.89158759E+02</pdfrwt>
<pdfrwt beam="2">  1       -2 0.21525725E-02 0.89158759E+02</pdfrwt>
<totfact> 0.14584788E+05</totfact>
</mgrwt>
</event>
<event>
 7    1  0.3056193E-009  0.1039549E+03  0.7818608E-02  0.1272192E+00
         -2   -1    0    0    0  501 -0.00000000000E+00  0.00000000000E+00  0.31693122539E+02  0.31693122642E+02  0.25500000000E-02 0.  1.
          2   -1    0    0  501    0  0.00000000000E+00 -0.00000000000E+00 -0.85244253636E+02  0.85244253674E+02  0.25500000000E-02 0. -1.
         23    2    1    2    0    0  0.44408920985E-15  0.71054273576E-14 -0.53551131097E+02  0.11693737632E+03  0.10395492455E+03 0.  0.
    9000005    2    3    3    0    0 -0.37835310745E+01 -0.50217178465E+02 -0.17565899675E+02  0.55042166478E+02  0.13601438850E+02 0.  0.
         22    1    3    3    0    0  0.37835310745E+01  0.50217178465E+02 -0.35985231422E+02  0.61895209838E+02  0.00000000000E+00 0. -1.
         22    1    4    4    0    0  0.44628835357E+01 -0.10367749003E+02 -0.19481145587E+01  0.11454374674E+02  0.00000000000E+00 0. -1.
         22    1    4    4    0    0 -0.82464146101E+01 -0.39849429463E+02 -0.15617785116E+02  0.43587791804E+02  0.00000000000E+00 0. -1.
<mgrwt>
<rscale>  0 0.10395492E+03</rscale>
<asrwt>0</asrwt>
<pdfrwt beam="2">  1        2 0.13114501E-01 0.10395492E+03</pdfrwt>
<pdfrwt beam="1">  1       -2 0.48758650E-02 0.10395492E+03</pdfrwt>
<totfact> 0.80998966E+04</totfact>
</mgrwt>
</event>
<event>
 7    1  0.3056193E-009  0.8849537E+02  0.7818608E-02  0.1306537E+00
          2   -1    0    0  501    0  0.00000000000E+00  0.00000000000E+00  0.11583698981E+02  0.11583699262E+02  0.25500000000E-02 0. -1.
         -2   -1    0    0    0  501 -0.00000000000E+00 -0.00000000000E+00 -0.16901835953E+03  0.16901835955E+03  0.25500000000E-02 0.  1.
         23    2    1    2    0    0  0.00000000000E+00  0.00000000000E+00 -0.15743466055E+03  0.18060205881E+03  0.88495374481E+02 0.  0.
    9000005    2    3    3    0    0 -0.39221898701E+02  0.16721430615E+02 -0.93759306451E+02  0.10396972687E+03  0.14175083042E+02 0.  0.
         22    1    3    3    0    0  0.39221898701E+02 -0.16721430615E+02 -0.63675354099E+02  0.76632331944E+02  0.00000000000E+00 0.  1.
         22    1    4    4    0    0 -0.18530019328E+02  0.53740890680E+00 -0.35018089162E+02  0.39622178047E+02  0.00000000000E+00 0. -1.
         22    1    4    4    0    0 -0.20691879373E+02  0.16184021709E+02 -0.58741217289E+02  0.64347548821E+02  0.00000000000E+00 0. -1.
<mgrwt>
<rscale>  0 0.88495374E+02</rscale>
<asrwt>0</asrwt>
<pdfrwt beam="1">  1        2 0.17821077E-02 0.88495374E+02</pdfrwt>
<pdfrwt beam="2">  1       -2 0.26002823E-01 0.88495374E+02</pdfrwt>
<totfact> 0.72041979E+04</totfact>
</mgrwt>
</event>
<event>
 7    1  0.3056193E-009  0.9027403E+02  0.7818608E-02  0.1302189E+00
         -2   -1    0    0    0  501 -0.00000000000E+00  0.00000000000E+00  0.48187134369E+02  0.48187134437E+02  0.25500000000E-02 0.  1.
          2   -1    0    0  501    0  0.00000000000E+00 -0.00000000000E+00 -0.42279958208E+02  0.42279958285E+02  0.25500000000E-02 0. -1.
         23    2    1    2    0    0  0.00000000000E+00  0.00000000000E+00  0.59071761613E+01  0.90467092721E+02  0.90274028022E+02 0.  0.
    9000005    2    3    3    0    0 -0.29802341998E+02 -0.21111802212E+02 -0.21765523106E+02  0.44644979436E+02  0.13621615598E+02 0.  0.
         22    1    3    3    0    0  0.29802341998E+02  0.21111802212E+02  0.27672699268E+02  0.45822113286E+02  0.00000000000E+00 0.  1.
         22    1    4    4    0    0 -0.25376383323E+02 -0.22404985381E+02 -0.21334623867E+02  0.40013877293E+02  0.00000000000E+00 0. -1.
         22    1    4    4    0    0 -0.44259586753E+01  0.12931831686E+01 -0.43089923904E+00  0.46311021428E+01  0.00000000000E+00 0. -1.
<mgrwt>
<rscale>  0 0.90274028E+02</rscale>
<asrwt>0</asrwt>
<pdfrwt beam="2">  1        2 0.65046090E-02 0.90274028E+02</pdfrwt>
<pdfrwt beam="1">  1       -2 0.74134053E-02 0.90274028E+02</pdfrwt>
<totfact> 0.99580131E+04</totfact>
</mgrwt>
</event>
<event>
 7    1  0.3056193E-009  0.8899817E+02  0.7818608E-02  0.1305296E+00
          2   -1    0    0  501    0  0.00000000000E+00  0.00000000000E+00  0.33406253365E+03  0.33406253366E+03  0.25500000000E-02 0. -1.
         -2   -1    0    0    0  501 -0.00000000000E+00 -0.00000000000E+00 -0.59275383488E+01  0.59275388973E+01  0.25500000000E-02 0.  1.
         23    2    1    2    0    0  0.00000000000E+00  0.35527136788E-14  0.32813499530E+03  0.33999007256E+03  0.88998170184E+02 0.  0.
    9000005    2    3    3    0    0 -0.11481258848E+02  0.30743327781E+02  0.27705974305E+03  0.27928049424E+03  0.12590541370E+02 0.  0.
         22    1    3    3    0    0  0.11481258848E+02 -0.30743327781E+02  0.51075252248E+02  0.60709578322E+02  0.00000000000E+00 0.  1.
         22    1    4    4    0    0 -0.39425617581E+01  0.12516109805E+02  0.65389408528E+02  0.66693114678E+02  0.00000000000E+00 0.  1.
         22    1    4    4    0    0 -0.75386970899E+01  0.18227217976E+02  0.21167033453E+03  0.21258737956E+03  0.00000000000E+00 0.  1.
<mgrwt>
<rscale>  0 0.88998170E+02</rscale>
<asrwt>0</asrwt>
<pdfrwt beam="1">  1        2 0.51394237E-01 0.88998170E+02</pdfrwt>
<pdfrwt beam="2">  1       -2 0.91192901E-03 0.88998170E+02</pdfrwt>
<totfact> 0.19938161E+05</totfact>
</mgrwt>
</event>
<event>
 7    1  0.3056193E-009  0.9137889E+02  0.7818608E-02  0.1299546E+00
          2   -1    0    0  501    0  0.00000000000E+00  0.00000000000E+00  0.90608569220E+02  0.90608569255E+02  0.25500000000E-02 0. -1.
         -2   -1    0    0    0  501 -0.00000000000E+00 -0.00000000000E+00 -0.23038941918E+02  0.23038942059E+02  0.25500000000E-02 0.  1.
         23    2    1    2    0    0  0.00000000000E+00 -0.17763568394E-14  0.67569627301E+02  0.11364751131E+03  0.91378894141E+02 0.  0.
    9000005    2    3    3    0    0  0.26570723905E+02  0.94265856773E+01  0.77966578848E+02  0.83598210360E+02  0.10724246912E+02 0.  0.
         22    1    3    3    0    0 -0.26570723905E+02 -0.94265856773E+01 -0.10396951547E+02  0.30049300955E+02  0.00000000000E+00 0.  1.
         22    1    4    4    0    0  0.10628232292E+02  0.87669928832E+01  0.29189740907E+02  0.32277863313E+02  0.00000000000E+00 0.  1.
         22    1    4    4    0    0  0.15942491613E+02  0.65959279417E+00  0.48776837941E+02  0.51320347047E+02  0.00000000000E+00 0.  1.
<mgrwt>
<rscale>  0 0.91378894E+02</rscale>
<asrwt>0</asrwt>
<pdfrwt beam="1">  1        2 0.13939780E-01 0.91378894E+02</pdfrwt>
<pdfrwt beam="2">  1       -2 0.35444527E-02 0.91378894E+02</pdfrwt>
<totfact> 0.11836838E+05</totfact>
</mgrwt>
</event>
<event>
 7    1  0.3056193E-009  0.8768048E+02  0.7818608E-02  0.1308568E+00
         -2   -1    0    0    0  501 -0.00000000000E+00  0.00000000000E+00  0.61116328518E+01  0.61116333837E+01  0.25500000000E-02 0.  1.
          2   -1    0    0  501    0  0.00000000000E+00 -0.00000000000E+00 -0.31447676672E+03  0.31447676673E+03  0.25500000000E-02 0. -1.
         23    2    1    2    0    0  0.00000000000E+00  0.00000000000E+00 -0.30836513387E+03  0.32058840012E+03  0.87680479596E+02 0.  0.
    9000005    2    3    3    0    0 -0.16329121376E+02 -0.38632600238E+02 -0.18574627072E+03  0.19099479068E+03  0.14772101234E+02 0.  0.
         22    1    3    3    0    0  0.16329121376E+02  0.38632600238E+02 -0.12261886315E+03  0.12959360943E+03  0.00000000000E+00 0. -1.
         22    1    4    4    0    0 -0.14794708701E+02 -0.16346972857E+02 -0.98028392385E+02  0.10047722449E+03  0.00000000000E+00 0. -1.
         22    1    4    4    0    0 -0.15344126758E+01 -0.22285627381E+02 -0.87717878338E+02  0.90517566197E+02  0.00000000000E+00 0. -1.
<mgrwt>
<rscale>  0 0.87680480E+02</rscale>
<asrwt>0</asrwt>
<pdfrwt beam="2">  1        2 0.48381029E-01 0.87680480E+02</pdfrwt>
<pdfrwt beam="1">  1       -2 0.94025149E-03 0.87680480E+02</pdfrwt>
<totfact> 0.20286615E+05</totfact>
</mgrwt>
</event>
<event>
 7    1  0.3056193E-009  0.9216929E+02  0.7818608E-02  0.1297682E+00
          2   -1    0    0  501    0  0.00000000000E+00  0.00000000000E+00  0.12285829132E+03  0.12285829134E+03  0.25500000000E-02 0. -1.
         -2   -1    0    0    0  501 -0.00000000000E+00 -0.00000000000E+00 -0.17286536493E+02  0.17286536681E+02  0.25500000000E-02 0.  1.
         23    2    1    2    0    0  0.35527136788E-14  0.00000000000E+00  0.10557175482E+03  0.14014482802E+03  0.92169286669E+02 0.  0.
    9000005    2    3    3    0    0  0.31365301008E+02  0.33989841789E+01  0.52990458953E+01  0.35026079188E+02  0.14262227566E+02 0.  0.
         22    1    3    3    0    0 -0.31365301008E+02 -0.33989841789E+01  0.10027270893E+03  0.10511874884E+03  0.00000000000E+00 0. -1.
         22    1    4    4    0    0  0.28931987560E+02 -0.16676991066E+01  0.48988000535E+01  0.29391144354E+02  0.00000000000E+00 0.  1.
         22    1    4    4    0    0  0.24333134480E+01  0.50666832855E+01  0.40024584175E+00  0.56349348342E+01  0.00000000000E+00 0.  1.
<mgrwt>
<rscale>  0 0.92169287E+02</rscale>
<asrwt>0</asrwt>
<pdfrwt beam="1">  1        2 0.18901276E-01 0.92169287E+02</pdfrwt>
<pdfrwt beam="2">  1       -2 0.26594671E-02 0.92169287E+02</pdfrwt>
<totfact> 0.12703168E+05</totfact>
</mgrwt>
</event>
<event>
 7    1  0.3056193E-009  0.1080387E+03  0.7818608E-02  0.1264246E+00
         -2   -1    0    0    0  501 -0.00000000000E+00  0.00000000000E+00  0.14668659882E+02  0.14668660103E+02  0.25500000000E-02 0. -1.
          2   -1    0    0  501    0  0.00000000000E+00 -0.00000000000E+00 -0.19893361319E+03  0.19893361320E+03  0.25500000000E-02 0.  1.
         23    2    1    2    0    0  0.00000000000E+00  0.00000000000E+00 -0.18426495331E+03  0.21360227331E+03  0.10803868819E+03 0.  0.
    9000005    2    3    3    0    0  0.36659452089E+02  0.32905866370E+02 -0.51059040789E+02  0.71579294186E+02  0.94793586668E+01 0.  0.
         22    1    3    3    0    0 -0.36659452089E+02 -0.32905866370E+02 -0.13320591252E+03  0.14202297912E+03  0.00000000000E+00 0.  1.
         22    1    4    4    0    0  0.10270841600E+02  0.14214767743E+02 -0.14364447356E+02  0.22669079315E+02  0.00000000000E+00 0. -1.
         22    1    4    4    0    0  0.26388610489E+02  0.18691098628E+02 -0.36694593433E+02  0.48910214870E+02  0.00000000000E+00 0. -1.
<mgrwt>
<rscale>  0 0.10803869E+03</rscale>
<asrwt>0</asrwt>
<pdfrwt beam="2">  1        2 0.30605169E-01 0.10803869E+03</pdfrwt>
<pdfrwt beam="1">  1       -2 0.22567171E-02 0.10803869E+03</pdfrwt>
<totfact> 0.97276862E+04</totfact>
</mgrwt>
</event>
<event>
 7    1  0.3056193E-009  0.9117120E+02  0.7818608E-02  0.1300040E+00
         -2   -1    0    0    0  501 -0.00000000000E+00  0.00000000000E+00  0.10203322349E+02  0.10203322667E+02  0.25500000000E-02 0.  1.
          2   -1    0    0  501    0  0.00000000000E+00 -0.00000000000E+00 -0.20366375908E+03  0.20366375910E+03  0.25500000000E-02 0. -1.
         23    2    1    2    0    0  0.00000000000E+00  0.00000000000E+00 -0.19346043673E+03  0.21386708177E+03  0.91171202042E+02 0.  0.
    9000005    2    3    3    0    0 -0.42446714543E+02 -0.99844975486E+01 -0.12085242033E+03  0.12917152218E+03  0.13362667282E+02 0.  0.
         22    1    3    3    0    0  0.42446714543E+02  0.99844975486E+01 -0.72608016407E+02  0.84695559585E+02  0.00000000000E+00 0.  1.
         22    1    4    4    0    0 -0.19315147324E+02 -0.88647153976E+01 -0.72646610171E+02  0.75691400202E+02  0.00000000000E+00 0. -1.
         22    1    4    4    0    0 -0.23131567220E+02 -0.11197821510E+01 -0.48205810156E+02  0.53480121979E+02  0.00000000000E+00 0. -1.
<mgrwt>
<rscale>  0 0.91171202E+02</rscale>
<asrwt>0</asrwt>
<pdfrwt beam="2">  1        2 0.31332883E-01 0.91171202E+02</pdfrwt>
<pdfrwt beam="1">  1       -2 0.15697421E-02 0.91171202E+02</pdfrwt>
<totfact> 0.15572566E+05</totfact>
</mgrwt>
</event>
<event>
 7    1  0.3056193E-009  0.9093307E+02  0.7818608E-02  0.1300608E+00
         -2   -1    0    0    0  501 -0.00000000000E+00  0.00000000000E+00  0.83168062005E+01  0.83168065914E+01  0.25500000000E-02 0.  1.
          2   -1    0    0  501    0  0.00000000000E+00 -0.00000000000E+00 -0.24855764012E+03  0.24855764013E+03  0.25500000000E-02 0. -1.
         23    2    1    2    0    0  0.00000000000E+00 -0.35527136788E-14 -0.24024083392E+03  0.25687444672E+03  0.90933069330E+02 0.  0.
    9000005    2    3    3    0    0  0.25554178362E+02  0.31134977937E+02 -0.64900335082E+02  0.76966988804E+02  0.94583819348E+01 0.  0.
         22    1    3    3    0    0 -0.25554178362E+02 -0.31134977937E+02 -0.17534049884E+03  0.17990745792E+03  0.00000000000E+00 0. -1.
         22    1    4    4    0    0  0.22691971136E+01 -0.25818793946E+00 -0.33226314681E+01  0.40318477681E+01  0.00000000000E+00 0. -1.
         22    1    4    4    0    0  0.23284981249E+02  0.31393165877E+02 -0.61577703614E+02  0.72935141036E+02  0.00000000000E+00 0. -1.
<mgrwt>
<rscale>  0 0.90933069E+02</rscale>
<asrwt>0</asrwt>
<pdfrwt beam="2">  1        2 0.38239631E-01 0.90933069E+02</pdfrwt>
<pdfrwt beam="1">  1       -2 0.12795089E-02 0.90933069E+02</pdfrwt>
<totfact> 0.16870680E+05</totfact>
</mgrwt>
</event>
<event>
 7    1  0.3056193E-009  0.1050194E+03  0.7818608E-02  0.1270081E+00
         -2   -1    0    0    0  501 -0.00000000000E+00  0.00000000000E+00  0.90331785474E+02  0.90331785510E+02  0.25500000000E-02 0.  1.
          2   -1    0    0  501    0  0.00000000000E+00 -0.00000000000E+00 -0.30523809737E+02  0.30523809843E+02  0.25500000000E-02 0. -1.
         23    2    1    2    0    0  0.00000000000E+00  0.00000000000E+00  0.59807975737E+02  0.12085559535E+03  0.10501943138E+03 0.  0.
    9000005    2    3    3    0    0  0.36591107430E+02  0.91750822530E+01 -0.10509503363E+02  0.41058107020E+02  0.12338039303E+02 0.  0.
         22    1    3    3    0    0 -0.36591107430E+02 -0.91750822530E+01  0.70317479100E+02  0.79797488333E+02  0.00000000000E+00 0.  1.
         22    1    4    4    0    0  0.21524169915E+02  0.62883319426E+01  0.67947824959E-01  0.22424041252E+02  0.00000000000E+00 0.  1.
         22    1    4    4    0    0  0.15066937515E+02  0.28867503104E+01 -0.10577451188E+02  0.18634065768E+02  0.00000000000E+00 0.  1.
<mgrwt>
<rscale>  0 0.10501943E+03</rscale>
<asrwt>0</asrwt>
<pdfrwt beam="2">  1        2 0.46959708E-02 0.10501943E+03</pdfrwt>
<pdfrwt beam="1">  1       -2 0.13897198E-01 0.10501943E+03</pdfrwt>
<totfact> 0.57998696E+04</totfact>
</mgrwt>
</event>
<event>
 6    1  0.3056193E-009  0.1501397E+03  0.7818608E-02  0.1200301E+00
         -2   -1    0    0    0  501 -0.00000000000E+00  0.00000000000E+00  0.25453087237E+01  0.25453100011E+01  0.25500000000E-02 0.  1.
          2   -1    0    0  501    0  0.00000000000E+00 -0.00000000000E+00 -0.22140664623E+04  0.22140664623E+04  0.25500000000E-02 0. -1.
    9000005    2    1    2    0    0  0.39374245519E+02  0.12683985813E+02 -0.20292218289E+04  0.20296779378E+04  0.11835775507E+02 0.  0.
         22    1    1    2    0    0 -0.39374245519E+02 -0.12683985813E+02 -0.18229932469E+03  0.18693383452E+03  0.00000000000E+00 0.  1.
         22    1    3    3    0    0  0.24563314945E+02  0.92309054042E+01 -0.15284435605E+04  0.15286687946E+04  0.00000000000E+00 0. -1.
         22    1    3    3    0    0  0.14810930574E+02  0.34530804091E+01 -0.50077826838E+03  0.50100914314E+03  0.00000000000E+00 0. -1.
<mgrwt>
<rscale>  0 0.15013972E+03</rscale>
<asrwt>0</asrwt>
<pdfrwt beam="2">  1        2 0.34062407E+00 0.15013972E+03</pdfrwt>
<pdfrwt beam="1">  1       -2 0.39158783E-03 0.15013972E+03</pdfrwt>
<totfact> 0.45720926E+04</totfact>
</mgrwt>
</event>
<event>
 7    1  0.3056193E-009  0.8914973E+02  0.7818608E-02  0.1304924E+00
          2   -1    0    0  501    0  0.00000000000E+00  0.00000000000E+00  0.28640823422E+02  0.28640823535E+02  0.25500000000E-02 0. -1.
         -2   -1    0    0    0  501 -0.00000000000E+00 -0.00000000000E+00 -0.69373660563E+02  0.69373660610E+02  0.25500000000E-02 0.  1.
         23    2    1    2    0    0  0.00000000000E+00  0.35527136788E-14 -0.40732837142E+02  0.98014484145E+02  0.89149734047E+02 0.  0.
    9000005    2    3    3    0    0 -0.41193879264E+01  0.31065496871E+02  0.13753423938E+02  0.35159197182E+02  0.80608947237E+01 0.  0.
         22    1    3    3    0    0  0.41193879264E+01 -0.31065496871E+02 -0.54486261080E+02  0.62855286963E+02  0.00000000000E+00 0.  1.
         22    1    4    4    0    0  0.88142696178E-01  0.21232489500E+02  0.11785588604E+02  0.24284284594E+02  0.00000000000E+00 0.  1.
         22    1    4    4    0    0 -0.42075306226E+01  0.98330073716E+01  0.19678353341E+01  0.10874912589E+02  0.00000000000E+00 0.  1.
<mgrwt>
<rscale>  0 0.89149734E+02</rscale>
<asrwt>0</asrwt>
<pdfrwt beam="1">  1        2 0.44062806E-02 0.89149734E+02</pdfrwt>
<pdfrwt beam="2">  1       -2 0.10672871E-01 0.89149734E+02</pdfrwt>
<totfact> 0.93405735E+04</totfact>
</mgrwt>
</event>
<event>
 7    1  0.3056193E-009  0.9506985E+02  0.7818608E-02  0.1291019E+00
          2   -1    0    0  501    0  0.00000000000E+00  0.00000000000E+00  0.20143985768E+03  0.20143985769E+03  0.25500000000E-02 0. -1.
         -2   -1    0    0    0  501 -0.00000000000E+00 -0.00000000000E+00 -0.11217090515E+02  0.11217090805E+02  0.25500000000E-02 0.  1.
         23    2    1    2    0    0  0.00000000000E+00  0.00000000000E+00  0.19022276716E+03  0.21265694850E+03  0.95069851151E+02 0.  0.
    9000005    2    3    3    0    0  0.12065848436E+02  0.31364717334E+02  0.17021471474E+03  0.17354617820E+03  0.39870616353E+01 0.  0.
         22    1    3    3    0    0 -0.12065848436E+02 -0.31364717334E+02  0.20008052422E+02  0.39110770303E+02  0.00000000000E+00 0.  1.
         22    1    4    4    0    0  0.11913565834E+02  0.27515370418E+02  0.14986449435E+03  0.15283453578E+03  0.00000000000E+00 0.  1.
         22    1    4    4    0    0  0.15228260204E+00  0.38493469163E+01  0.20350220389E+02  0.20711642415E+02  0.00000000000E+00 0.  1.
<mgrwt>
<rscale>  0 0.95069851E+02</rscale>
<asrwt>0</asrwt>
<pdfrwt beam="1">  1        2 0.30990748E-01 0.95069851E+02</pdfrwt>
<pdfrwt beam="2">  1       -2 0.17257062E-02 0.95069851E+02</pdfrwt>
<totfact> 0.13852364E+05</totfact>
</mgrwt>
</event>
<event>
 7    1  0.3056193E-009  0.9108690E+02  0.7818608E-02  0.1300241E+00
         -2   -1    0    0    0  501 -0.00000000000E+00  0.00000000000E+00  0.58802692483E+01  0.58802698012E+01  0.25500000000E-02 0.  1.
          2   -1    0    0  501    0  0.00000000000E+00 -0.00000000000E+00 -0.35273995498E+03  0.35273995499E+03  0.25500000000E-02 0. -1.
         23    2    1    2    0    0  0.00000000000E+00  0.35527136788E-14 -0.34685968574E+03  0.35862022479E+03  0.91086903794E+02 0.  0.
    9000005    2    3    3    0    0  0.34515954047E+02  0.27849209989E+02 -0.18224921969E+03  0.18813991768E+03  0.14660183069E+02 0.  0.
         22    1    3    3    0    0 -0.34515954047E+02 -0.27849209989E+02 -0.16461046605E+03  0.17048030711E+03  0.00000000000E+00 0.  1.
         22    1    4    4    0    0  0.24945701377E+02  0.26963139166E+02 -0.15319251645E+03  0.15753490403E+03  0.00000000000E+00 0.  1.
         22    1    4    4    0    0  0.95702526705E+01  0.88607082313E+00 -0.29056703239E+02  0.30605013654E+02  0.00000000000E+00 0.  1.
<mgrwt>
<rscale>  0 0.91086904E+02</rscale>
<asrwt>0</asrwt>
<pdfrwt beam="2">  1        2 0.54267669E-01 0.91086904E+02</pdfrwt>
<pdfrwt beam="1">  1       -2 0.90465713E-03 0.91086904E+02</pdfrwt>
<totfact> 0.19124176E+05</totfact>
</mgrwt>
</event>
<event>
 7    1  0.3056193E-009  0.9035103E+02  0.7818608E-02  0.1302004E+00
         -2   -1    0    0    0  501 -0.00000000000E+00  0.00000000000E+00  0.38564214316E+02  0.38564214400E+02  0.25500000000E-02 0.  1.
          2   -1    0    0  501    0  0.00000000000E+00 -0.00000000000E+00 -0.52920227954E+02  0.52920228015E+02  0.25500000000E-02 0. -1.
         23    2    1    2    0    0 -0.17763568394E-14  0.71054273576E-14 -0.14356013638E+02  0.91484442416E+02  0.90351026981E+02 0.  0.
    9000005    2    3    3    0    0  0.11598112903E+02 -0.32040248044E+02 -0.35959421779E+02  0.51138426987E+02  0.12687197576E+02 0.  0.
         22    1    3    3    0    0 -0.11598112903E+02  0.32040248044E+02  0.21603408141E+02  0.40346015429E+02  0.00000000000E+00 0.  1.
         22    1    4    4    0    0  0.56497652014E+01 -0.24294627858E+02 -0.32065935281E+02  0.40624783015E+02  0.00000000000E+00 0.  1.
         22    1    4    4    0    0  0.59483477014E+01 -0.77456201863E+01 -0.38934864984E+01  0.10513643972E+02  0.00000000000E+00 0.  1.
<mgrwt>
<rscale>  0 0.90351027E+02</rscale>
<asrwt>0</asrwt>
<pdfrwt beam="2">  1        2 0.81415735E-02 0.90351027E+02</pdfrwt>
<pdfrwt beam="1">  1       -2 0.59329561E-02 0.90351027E+02</pdfrwt>
<totfact> 0.10527574E+05</totfact>
</mgrwt>
</event>
<event>
 7    1  0.3056193E-009  0.8977667E+02  0.7818608E-02  0.1303393E+00
          2   -1    0    0  501    0  0.00000000000E+00  0.00000000000E+00  0.33384932062E+02  0.33384932159E+02  0.25500000000E-02 0. -1.
         -2   -1    0    0    0  501 -0.00000000000E+00 -0.00000000000E+00 -0.60355456384E+02  0.60355456438E+02  0.25500000000E-02 0.  1.
         23    2    1    2    0    0  0.00000000000E+00  0.00000000000E+00 -0.26970524322E+02  0.93740388597E+02  0.89776674432E+02 0.  0.
    9000005    2    3    3    0    0 -0.76942110574E+01  0.37242646645E+02 -0.38015074942E+02  0.54139912447E+02  0.63062337405E+01 0.  0.
         22    1    3    3    0    0  0.76942110574E+01 -0.37242646645E+02  0.11044550619E+02  0.39600476150E+02  0.00000000000E+00 0. -1.
         22    1    4    4    0    0 -0.74797827832E+01  0.26676800086E+02 -0.30287977037E+02  0.41048268737E+02  0.00000000000E+00 0.  1.
         22    1    4    4    0    0 -0.21442827425E+00  0.10565846559E+02 -0.77270979049E+01  0.13091643710E+02  0.00000000000E+00 0.  1.
<mgrwt>
<rscale>  0 0.89776674E+02</rscale>
<asrwt>0</asrwt>
<pdfrwt beam="1">  1        2 0.51361434E-02 0.89776674E+02</pdfrwt>
<pdfrwt beam="2">  1       -2 0.92854548E-02 0.89776674E+02</pdfrwt>
<totfact> 0.95229513E+04</totfact>
</mgrwt>
</event>
<event>
 7    1  0.3056193E-009  0.8921602E+02  0.7818608E-02  0.1304761E+00
         -2   -1    0    0    0  501 -0.00000000000E+00  0.00000000000E+00  0.15641668820E+02  0.15641669028E+02  0.25500000000E-02 0.  1.
          2   -1    0    0  501    0  0.00000000000E+00 -0.00000000000E+00 -0.12721624383E+03  0.12721624386E+03  0.25500000000E-02 0. -1.
         23    2    1    2    0    0  0.00000000000E+00  0.00000000000E+00 -0.11157457501E+03  0.14285791288E+03  0.89216015853E+02 0.  0.
    9000005    2    3    3    0    0  0.22319120224E+02  0.32785216444E+02 -0.85523971612E+02  0.95406385171E+02  0.14663392045E+02 0.  0.
         22    1    3    3    0    0 -0.22319120224E+02 -0.32785216444E+02 -0.26050603399E+02  0.47451527713E+02  0.00000000000E+00 0.  1.
         22    1    4    4    0    0 -0.44474903494E+00  0.29712543803E+01 -0.14334597753E+01  0.33288077782E+01  0.00000000000E+00 0.  1.
         22    1    4    4    0    0  0.22763869259E+02  0.29813962063E+02 -0.84090511836E+02  0.92077577392E+02  0.00000000000E+00 0.  1.
<mgrwt>
<rscale>  0 0.89216016E+02</rscale>
<asrwt>0</asrwt>
<pdfrwt beam="2">  1        2 0.19571729E-01 0.89216016E+02</pdfrwt>
<pdfrwt beam="1">  1       -2 0.24064107E-02 0.89216016E+02</pdfrwt>
<totfact> 0.14040938E+05</totfact>
</mgrwt>
</event>
<event>
 7    1  0.3056193E-009  0.8958492E+02  0.7818608E-02  0.1303860E+00
         -2   -1    0    0    0  501 -0.00000000000E+00  0.00000000000E+00  0.88801195156E+02  0.88801195192E+02  0.25500000000E-02 0.  1.
          2   -1    0    0  501    0  0.00000000000E+00 -0.00000000000E+00 -0.22593890007E+02  0.22593890151E+02  0.25500000000E-02 0. -1.
         23    2    1    2    0    0 -0.17763568394E-14  0.00000000000E+00  0.66207305149E+02  0.11139508534E+03  0.89584919398E+02 0.  0.
    9000005    2    3    3    0    0  0.12262767449E+02  0.38599099447E+02  0.13108576702E+02  0.44613793754E+02  0.13352522845E+02 0.  0.
         22    1    3    3    0    0 -0.12262767449E+02 -0.38599099447E+02  0.53098728447E+02  0.66781291589E+02  0.00000000000E+00 0.  1.
         22    1    4    4    0    0  0.83671809625E+01  0.35987629329E+02  0.14547193609E+02  0.39708185855E+02  0.00000000000E+00 0.  1.
         22    1    4    4    0    0  0.38955864868E+01  0.26114701173E+01 -0.14386169070E+01  0.49056078986E+01  0.00000000000E+00 0.  1.
<mgrwt>
<rscale>  0 0.89584919E+02</rscale>
<asrwt>0</asrwt>
<pdfrwt beam="2">  1        2 0.34759831E-02 0.89584919E+02</pdfrwt>
<pdfrwt beam="1">  1       -2 0.13661722E-01 0.89584919E+02</pdfrwt>
<totfact> 0.86296207E+04</totfact>
</mgrwt>
</event>
<event>
 7    1  0.3056193E-009  0.8995929E+02  0.7818608E-02  0.1302950E+00
         -2   -1    0    0    0  501 -0.00000000000E+00  0.00000000000E+00  0.14169520575E+02  0.14169520805E+02  0.25500000000E-02 0.  1.
          2   -1    0    0  501    0  0.00000000000E+00 -0.00000000000E+00 -0.14278312456E+03  0.14278312458E+03  0.25500000000E-02 0. -1.
         23    2    1    2    0    0  0.00000000000E+00  0.00000000000E+00 -0.12861360399E+03  0.15695264539E+03  0.89959289483E+02 0.  0.
    9000005    2    3    3    0    0 -0.18074273750E+02 -0.38525859137E+02 -0.89406398699E+02  0.99089650822E+02  0.37859711825E+01 0.  0.
         22    1    3    3    0    0  0.18074273750E+02  0.38525859137E+02 -0.39207205288E+02  0.57862994568E+02  0.00000000000E+00 0.  1.
         22    1    4    4    0    0 -0.16018135599E+02 -0.32786009507E+02 -0.73624909031E+02  0.82171347301E+02  0.00000000000E+00 0. -1.
         22    1    4    4    0    0 -0.20561381514E+01 -0.57398496299E+01 -0.15781489668E+02  0.16918303520E+02  0.00000000000E+00 0. -1.
<mgrwt>
<rscale>  0 0.89959289E+02</rscale>
<asrwt>0</asrwt>
<pdfrwt beam="2">  1        2 0.21966634E-01 0.89959289E+02</pdfrwt>
<pdfrwt beam="1">  1       -2 0.21799264E-02 0.89959289E+02</pdfrwt>
<totfact> 0.14260753E+05</totfact>
</mgrwt>
</event>
<event>
 7    1  0.3056193E-009  0.9112374E+02  0.7818608E-02  0.1300153E+00
         -2   -1    0    0    0  501 -0.00000000000E+00  0.00000000000E+00  0.32717054924E+03  0.32717054925E+03  0.25500000000E-02 0.  1.
          2   -1    0    0  501    0  0.00000000000E+00 -0.00000000000E+00 -0.63449594488E+01  0.63449599612E+01  0.25500000000E-02 0. -1.
         23    2    1    2    0    0  0.00000000000E+00  0.88817841970E-15  0.32082558979E+03  0.33351550921E+03  0.91123739056E+02 0.  0.
    9000005    2    3    3    0    0  0.39034234760E+02  0.49500575845E+01  0.24177252663E+03  0.24521170777E+03  0.11253996724E+02 0.  0.
         22    1    3    3    0    0 -0.39034234760E+02 -0.49500575845E+01  0.79053063164E+02  0.88303801442E+02  0.00000000000E+00 0. -1.
         22    1    4    4    0    0  0.12069684254E+02  0.63198949140E+01  0.67637397708E+02  0.68995912331E+02  0.00000000000E+00 0. -1.
         22    1    4    4    0    0  0.26964550507E+02 -0.13698373295E+01  0.17413512892E+03  0.17621579544E+03  0.00000000000E+00 0. -1.
<mgrwt>
<rscale>  0 0.91123739E+02</rscale>
<asrwt>0</asrwt>
<pdfrwt beam="2">  1        2 0.97614749E-03 0.91123739E+02</pdfrwt>
<pdfrwt beam="1">  1       -2 0.50333939E-01 0.91123739E+02</pdfrwt>
<totfact> 0.48579220E+04</totfact>
</mgrwt>
</event>
<event>
 7    1  0.3056193E-009  0.9118028E+02  0.7818608E-02  0.1300018E+00
          2   -1    0    0  501    0  0.00000000000E+00  0.00000000000E+00  0.58312689303E+02  0.58312689359E+02  0.25500000000E-02 0. -1.
         -2   -1    0    0    0  501 -0.00000000000E+00 -0.00000000000E+00 -0.35643369716E+02  0.35643369807E+02  0.25500000000E-02 0.  1.
         23    2    1    2    0    0 -0.17763568394E-14  0.00000000000E+00  0.22669319587E+02  0.93956059166E+02  0.91180277492E+02 0.  0.
    9000005    2    3    3    0    0  0.13457079407E+02 -0.26780227018E+02  0.45933997322E+02  0.56015068465E+02  0.11379026316E+02 0.  0.
         22    1    3    3    0    0 -0.13457079407E+02  0.26780227018E+02 -0.23264677735E+02  0.37940990701E+02  0.00000000000E+00 0.  1.
         22    1    4    4    0    0  0.12256275946E+02 -0.27860841121E+02  0.43381126900E+02  0.52994008521E+02  0.00000000000E+00 0.  1.
         22    1    4    4    0    0  0.12008034614E+01  0.10806141035E+01  0.25528704221E+01  0.30210599441E+01  0.00000000000E+00 0.  1.
<mgrwt>
<rscale>  0 0.91180277E+02</rscale>
<asrwt>0</asrwt>
<pdfrwt beam="1">  1        2 0.89711830E-02 0.91180277E+02</pdfrwt>
<pdfrwt beam="2">  1       -2 0.54835953E-02 0.91180277E+02</pdfrwt>
<totfact> 0.10525145E+05</totfact>
</mgrwt>
</event>
<event>
 7    1  0.3056193E-009  0.9803198E+02  0.7818608E-02  0.1284490E+00
          2   -1    0    0  501    0  0.00000000000E+00  0.00000000000E+00  0.25241670399E+02  0.25241670528E+02  0.25500000000E-02 0. -1.
         -2   -1    0    0    0  501 -0.00000000000E+00 -0.00000000000E+00 -0.95182570385E+02  0.95182570420E+02  0.25500000000E-02 0.  1.
         23    2    1    2    0    0 -0.44408920985E-15 -0.71054273576E-14 -0.69940899986E+02  0.12042424095E+03  0.98031975992E+02 0.  0.
    9000005    2    3    3    0    0  0.32674185464E+01  0.42237429828E+02 -0.63826927100E+02  0.77621704026E+02  0.12513025629E+02 0.  0.
         22    1    3    3    0    0 -0.32674185464E+01 -0.42237429828E+02 -0.61139728860E+01  0.42802536921E+02  0.00000000000E+00 0. -1.
         22    1    4    4    0    0  0.84277123256E+00  0.35532826671E+02 -0.44063970696E+02  0.56612061861E+02  0.00000000000E+00 0.  1.
         22    1    4    4    0    0  0.24246473139E+01  0.67046031571E+01 -0.19762956404E+02  0.21009642166E+02  0.00000000000E+00 0.  1.
<mgrwt>
<rscale>  0 0.98031976E+02</rscale>
<asrwt>0</asrwt>
<pdfrwt beam="1">  1        2 0.38833340E-02 0.98031976E+02</pdfrwt>
<pdfrwt beam="2">  1       -2 0.14643472E-01 0.98031976E+02</pdfrwt>
<totfact> 0.67649531E+04</totfact>
</mgrwt>
</event>
<event>
 7    1  0.3056193E-009  0.9244250E+02  0.7818608E-02  0.1297042E+00
          2   -1    0    0  501    0  0.00000000000E+00  0.00000000000E+00  0.23201507404E+02  0.23201507544E+02  0.25500000000E-02 0. -1.
         -2   -1    0    0    0  501 -0.00000000000E+00 -0.00000000000E+00 -0.92080390867E+02  0.92080390902E+02  0.25500000000E-02 0.  1.
         23    2    1    2    0    0  0.00000000000E+00  0.00000000000E+00 -0.68878883463E+02  0.11528189845E+03  0.92442498463E+02 0.  0.
    9000005    2    3    3    0    0 -0.26342555394E+02  0.88535094256E+01 -0.80428176114E+02  0.85187031531E+02  0.39779359300E+01 0.  0.
         22    1    3    3    0    0  0.26342555394E+02 -0.88535094256E+01  0.11549292651E+02  0.30094866914E+02  0.00000000000E+00 0. -1.
         22    1    4    4    0    0 -0.15048644007E+02  0.68284722049E+01 -0.44383252508E+02  0.47359928444E+02  0.00000000000E+00 0. -1.
         22    1    4    4    0    0 -0.11293911388E+02  0.20250372207E+01 -0.36044923606E+02  0.37827103087E+02  0.00000000000E+00 0. -1.
<mgrwt>
<rscale>  0 0.92442498E+02</rscale>
<asrwt>0</asrwt>
<pdfrwt beam="1">  1        2 0.35694627E-02 0.92442498E+02</pdfrwt>
<pdfrwt beam="2">  1       -2 0.14166214E-01 0.92442498E+02</pdfrwt>
<totfact> 0.79016584E+04</totfact>
</mgrwt>
</event>
<event>
 7    1  0.3056193E-009  0.9200840E+02  0.7818608E-02  0.1298060E+00
          2   -1    0    0  501    0  0.00000000000E+00  0.00000000000E+00  0.33157830678E+03  0.33157830679E+03  0.25500000000E-02 0. -1.
         -2   -1    0    0    0  501 -0.00000000000E+00 -0.00000000000E+00 -0.63827645445E+01  0.63827650539E+01  0.25500000000E-02 0.  1.
         23    2    1    2    0    0  0.00000000000E+00  0.00000000000E+00  0.32519554223E+03  0.33796107184E+03  0.92008398485E+02 0.  0.
    9000005    2    3    3    0    0 -0.21686716444E+02 -0.24537742023E+02  0.27935656402E+03  0.28162612374E+03  0.14169306937E+02 0.  0.
         22    1    3    3    0    0  0.21686716444E+02  0.24537742023E+02  0.45838978212E+02  0.56334948099E+02  0.00000000000E+00 0.  1.
         22    1    4    4    0    0 -0.86940254252E+01 -0.19667528222E+02  0.18716714351E+03  0.18839834754E+03  0.00000000000E+00 0. -1.
         22    1    4    4    0    0 -0.12992691019E+02 -0.48702138011E+01  0.92189420506E+02  0.93227776203E+02  0.00000000000E+00 0. -1.
<mgrwt>
<rscale>  0 0.92008398E+02</rscale>
<asrwt>0</asrwt>
<pdfrwt beam="1">  1        2 0.51012048E-01 0.92008398E+02</pdfrwt>
<pdfrwt beam="2">  1       -2 0.98196380E-03 0.92008398E+02</pdfrwt>
<totfact> 0.18199539E+05</totfact>
</mgrwt>
</event>
<event>
 7    1  0.3056193E-009  0.8706721E+02  0.7818608E-02  0.1310113E+00
          2   -1    0    0  501    0  0.00000000000E+00  0.00000000000E+00  0.24946417157E+02  0.24946417287E+02  0.25500000000E-02 0. -1.
         -2   -1    0    0    0  501 -0.00000000000E+00 -0.00000000000E+00 -0.75969816212E+02  0.75969816255E+02  0.25500000000E-02 0.  1.
         23    2    1    2    0    0  0.00000000000E+00  0.00000000000E+00 -0.51023399055E+02  0.10091623354E+03  0.87067209334E+02 0.  0.
    9000005    2    3    3    0    0  0.37773393094E+02  0.64682480550E+01 -0.37076427404E+01  0.40027414746E+02  0.10944398470E+02 0.  0.
         22    1    3    3    0    0 -0.37773393094E+02 -0.64682480550E+01 -0.47315756314E+02  0.60888818796E+02  0.00000000000E+00 0.  1.
         22    1    4    4    0    0  0.87868684164E+01 -0.23821702642E+01  0.16431090199E+01  0.92511404154E+01  0.00000000000E+00 0.  1.
         22    1    4    4    0    0  0.28986524677E+02  0.88504183192E+01 -0.53507517603E+01  0.30776274331E+02  0.00000000000E+00 0.  1.
<mgrwt>
<rscale>  0 0.87067209E+02</rscale>
<asrwt>0</asrwt>
<pdfrwt beam="1">  1        2 0.38379104E-02 0.87067209E+02</pdfrwt>
<pdfrwt beam="2">  1       -2 0.11687664E-01 0.87067209E+02</pdfrwt>
<totfact> 0.96612354E+04</totfact>
</mgrwt>
</event>
<event>
 7    1  0.3056193E-009  0.9097930E+02  0.7818608E-02  0.1300497E+00
          2   -1    0    0  501    0  0.00000000000E+00  0.00000000000E+00  0.81017658250E+03  0.81017658250E+03  0.25500000000E-02 0.  1.
         -2   -1    0    0    0  501 -0.00000000000E+00 -0.00000000000E+00 -0.25541439318E+01  0.25541452048E+01  0.25500000000E-02 0. -1.
         23    2    1    2    0    0 -0.88817841970E-15 -0.35527136788E-14  0.80762243856E+03  0.81273072770E+03  0.90979297003E+02 0.  0.
    9000005    2    3    3    0    0  0.52247784035E+01  0.20485663614E+02  0.76205095413E+03  0.76249407857E+03  0.15119604352E+02 0.  0.
         22    1    3    3    0    0 -0.52247784035E+01 -0.20485663614E+02  0.45571484432E+02  0.50236649136E+02  0.00000000000E+00 0. -1.
         22    1    4    4    0    0  0.51979081770E+01  0.81373837352E+01  0.14578317690E+03  0.14610260070E+03  0.00000000000E+00 0.  1.
         22    1    4    4    0    0  0.26870226571E-01  0.12348279879E+02  0.61626777723E+03  0.61639147787E+03  0.00000000000E+00 0.  1.
<mgrwt>
<rscale>  0 0.90979297E+02</rscale>
<asrwt>0</asrwt>
<pdfrwt beam="1">  1        2 0.12464245E+00 0.90979297E+02</pdfrwt>
<pdfrwt beam="2">  1       -2 0.39294563E-03 0.90979297E+02</pdfrwt>
<totfact> 0.24567185E+05</totfact>
</mgrwt>
</event>
<event>
 7    1  0.3056193E-009  0.9119802E+02  0.7818608E-02  0.1299976E+00
         -2   -1    0    0    0  501 -0.00000000000E+00  0.00000000000E+00  0.24610849933E+01  0.24610863144E+01  0.25500000000E-02 0.  1.
          2   -1    0    0  501    0  0.00000000000E+00 -0.00000000000E+00 -0.84485881887E+03  0.84485881888E+03  0.25500000000E-02 0. -1.
         23    2    1    2    0    0  0.00000000000E+00  0.00000000000E+00 -0.84239773388E+03  0.84731990519E+03  0.91198024582E+02 0.  0.
    9000005    2    3    3    0    0 -0.31668989265E+02 -0.61961174248E+01 -0.71884670490E+03  0.71962427678E+03  0.87862301363E+01 0.  0.
         22    1    3    3    0    0  0.31668989265E+02  0.61961174248E+01 -0.12355102898E+03  0.12769562841E+03  0.00000000000E+00 0. -1.
         22    1    4    4    0    0 -0.75440855712E+00  0.69205688705E+00 -0.67686481586E+02  0.67694223272E+02  0.00000000000E+00 0. -1.
         22    1    4    4    0    0 -0.30914580708E+02 -0.68881743119E+01 -0.65116022331E+03  0.65193005351E+03  0.00000000000E+00 0. -1.
<mgrwt>
<rscale>  0 0.91198025E+02</rscale>
<asrwt>0</asrwt>
<pdfrwt beam="2">  1        2 0.12997805E+00 0.91198025E+02</pdfrwt>
<pdfrwt beam="1">  1       -2 0.37862923E-03 0.91198025E+02</pdfrwt>
<totfact> 0.24575333E+05</totfact>
</mgrwt>
</event>
<event>
 7    1  0.3056193E-009  0.9430495E+02  0.7818608E-02  0.1292749E+00
         -2   -1    0    0    0  501 -0.00000000000E+00  0.00000000000E+00  0.56149870415E+01  0.56149876205E+01  0.25500000000E-02 0. -1.
          2   -1    0    0  501    0  0.00000000000E+00 -0.00000000000E+00 -0.39596812509E+03  0.39596812510E+03  0.25500000000E-02 0.  1.
         23    2    1    2    0    0  0.00000000000E+00  0.00000000000E+00 -0.39035313805E+03  0.40158311272E+03  0.94304952343E+02 0.  0.
    9000005    2    3    3    0    0 -0.44187635413E+02 -0.17240890834E+01 -0.26032236025E+03  0.26423857231E+03  0.99384224644E+01 0.  0.
         22    1    3    3    0    0  0.44187635413E+02  0.17240890834E+01 -0.13003077780E+03  0.13734454041E+03  0.00000000000E+00 0.  1.
         22    1    4    4    0    0 -0.22700385593E+01 -0.55405538211E+00 -0.53095063612E+01  0.58009404606E+01  0.00000000000E+00 0. -1.
         22    1    4    4    0    0 -0.41917596854E+02 -0.11700337013E+01 -0.25501285389E+03  0.25843763185E+03  0.00000000000E+00 0. -1.
<mgrwt>
<rscale>  0 0.94304952E+02</rscale>
<asrwt>0</asrwt>
<pdfrwt beam="2">  1        2 0.60918151E-01 0.94304952E+02</pdfrwt>
<pdfrwt beam="1">  1       -2 0.86384452E-03 0.94304952E+02</pdfrwt>
<totfact> 0.18182401E+05</totfact>
</mgrwt>
</event>
<event>
 7    1  0.3056193E-009  0.9145209E+02  0.7818608E-02  0.1299373E+00
         -2   -1    0    0    0  501 -0.00000000000E+00  0.00000000000E+00  0.23201317818E+01  0.23201331831E+01  0.25500000000E-02 0.  1.
          2   -1    0    0  501    0  0.00000000000E+00 -0.00000000000E+00 -0.90118605914E+03  0.90118605915E+03  0.25500000000E-02 0. -1.
         23    2    1    2    0    0  0.00000000000E+00  0.00000000000E+00 -0.89886592736E+03  0.90350619233E+03  0.91452086949E+02 0.  0.
    9000005    2    3    3    0    0 -0.27406102878E+01 -0.18411474728E+02 -0.86191730133E+03  0.86213356476E+03  0.51337908287E+01 0.  0.
         22    1    3    3    0    0  0.27406102878E+01  0.18411474728E+02 -0.36948626033E+02  0.41372627571E+02  0.00000000000E+00 0.  1.
         22    1    4    4    0    0 -0.28541807986E+01 -0.55906285752E+01 -0.22671829322E+03  0.22680517180E+03  0.00000000000E+00 0.  1.
         22    1    4    4    0    0  0.11357051081E+00 -0.12820846153E+02 -0.63519900811E+03  0.63532839296E+03  0.00000000000E+00 0.  1.
<mgrwt>
<rscale>  0 0.91452087E+02</rscale>
<asrwt>0</asrwt>
<pdfrwt beam="2">  1        2 0.13864373E+00 0.91452087E+02</pdfrwt>
<pdfrwt beam="1">  1       -2 0.35694418E-03 0.91452087E+02</pdfrwt>
<totfact> 0.24601673E+05</totfact>
</mgrwt>
</event>
<event>
 7    1  0.3056193E-009  0.8918217E+02  0.7818608E-02  0.1304844E+00
         -2   -1    0    0    0  501 -0.00000000000E+00  0.00000000000E+00  0.73769627251E+02  0.73769627295E+02  0.25500000000E-02 0.  1.
          2   -1    0    0  501    0  0.00000000000E+00 -0.00000000000E+00 -0.26953706805E+02  0.26953706925E+02  0.25500000000E-02 0. -1.
         23    2    1    2    0    0  0.00000000000E+00  0.00000000000E+00  0.46815920447E+02  0.10072333422E+03  0.89182171140E+02 0.  0.
    9000005    2    3    3    0    0 -0.12880612244E+02  0.18034361245E+02  0.66141526316E+02  0.71318786962E+02  0.14849899425E+02 0.  0.
         22    1    3    3    0    0  0.12880612244E+02 -0.18034361245E+02 -0.19325605869E+02  0.29404547259E+02  0.00000000000E+00 0. -1.
         22    1    4    4    0    0 -0.64119153956E+01  0.67026323903E+01  0.48484344840E+02  0.49363646893E+02  0.00000000000E+00 0.  1.
         22    1    4    4    0    0 -0.64686968481E+01  0.11331728855E+02  0.17657181476E+02  0.21955140068E+02  0.00000000000E+00 0.  1.
<mgrwt>
<rscale>  0 0.89182171E+02</rscale>
<asrwt>0</asrwt>
<pdfrwt beam="2">  1        2 0.41467242E-02 0.89182171E+02</pdfrwt>
<pdfrwt beam="1">  1       -2 0.11349173E-01 0.89182171E+02</pdfrwt>
<totfact> 0.91815114E+04</totfact>
</mgrwt>
</event>
<event>
 7    1  0.3056193E-009  0.9090892E+02  0.7818608E-02  0.1300665E+00
          2   -1    0    0  501    0  0.00000000000E+00  0.00000000000E+00  0.13470693576E+02  0.13470693817E+02  0.25500000000E-02 0.  1.
         -2   -1    0    0    0  501 -0.00000000000E+00 -0.00000000000E+00 -0.15337799554E+03  0.15337799556E+03  0.25500000000E-02 0. -1.
         23    2    1    2    0    0  0.00000000000E+00  0.00000000000E+00 -0.13990730197E+03  0.16684868938E+03  0.90908921480E+02 0.  0.
    9000005    2    3    3    0    0 -0.33293906632E+02 -0.97757015422E+00 -0.14569930016E+02  0.37161000413E+02  0.76952731473E+01 0.  0.
         22    1    3    3    0    0  0.33293906632E+02  0.97757015422E+00 -0.12533737195E+03  0.12968768897E+03  0.00000000000E+00 0. -1.
         22    1    4    4    0    0 -0.15387333265E+01 -0.17129600510E+01 -0.18155835784E+01  0.29322817253E+01  0.00000000000E+00 0. -1.
         22    1    4    4    0    0 -0.31755173306E+02  0.73538989682E+00 -0.12754346437E+02  0.34228718688E+02  0.00000000000E+00 0. -1.
<mgrwt>
<rscale>  0 0.90908921E+02</rscale>
<asrwt>0</asrwt>
<pdfrwt beam="1">  1        2 0.20724145E-02 0.90908921E+02</pdfrwt>
<pdfrwt beam="2">  1       -2 0.23596613E-01 0.90908921E+02</pdfrwt>
<totfact> 0.69807580E+04</totfact>
</mgrwt>
</event>
<event>
 7    1  0.3056193E-009  0.9196282E+02  0.7818608E-02  0.1298167E+00
          2   -1    0    0  501    0  0.00000000000E+00  0.00000000000E+00  0.18893580287E+03  0.18893580288E+03  0.25500000000E-02 0.  1.
         -2   -1    0    0    0  501 -0.00000000000E+00 -0.00000000000E+00 -0.11190521545E+02  0.11190521836E+02  0.25500000000E-02 0. -1.
         23    2    1    2    0    0  0.00000000000E+00  0.00000000000E+00  0.17774528132E+03  0.20012632472E+03  0.91962822997E+02 0.  0.
    9000005    2    3    3    0    0 -0.12692942943E+02  0.25775393145E+02  0.16651158291E+03  0.16927705127E+03  0.10155350842E+02 0.  0.
         22    1    3    3    0    0  0.12692942943E+02 -0.25775393145E+02  0.11233698410E+02  0.30849273449E+02  0.00000000000E+00 0. -1.
         22    1    4    4    0    0 -0.68372423029E+01  0.18542372010E+02  0.86653531461E+02  0.88878579853E+02  0.00000000000E+00 0. -1.
         22    1    4    4    0    0 -0.58557006401E+01  0.72330211356E+01  0.79858051450E+02  0.80398471417E+02  0.00000000000E+00 0. -1.
<mgrwt>
<rscale>  0 0.91962823E+02</rscale>
<asrwt>0</asrwt>
<pdfrwt beam="1">  1        2 0.29067048E-01 0.91962823E+02</pdfrwt>
<pdfrwt beam="2">  1       -2 0.17216186E-02 0.91962823E+02</pdfrwt>
<totfact> 0.14807158E+05</totfact>
</mgrwt>
</event>
<event>
 7    1  0.3056193E-009  0.9672465E+02  0.7818608E-02  0.1287338E+00
         -2   -1    0    0    0  501 -0.00000000000E+00  0.00000000000E+00  0.12383675791E+02  0.12383676054E+02  0.25500000000E-02 0.  1.
          2   -1    0    0  501    0  0.00000000000E+00 -0.00000000000E+00 -0.18887076627E+03  0.18887076629E+03  0.25500000000E-02 0. -1.
         23    2    1    2    0    0  0.00000000000E+00  0.00000000000E+00 -0.17648709048E+03  0.20125444235E+03  0.96724647617E+02 0.  0.
    9000005    2    3    3    0    0  0.11868466242E+02 -0.18489090204E+02 -0.17764976708E+03  0.17925310683E+03  0.94620091822E+01 0.  0.
         22    1    3    3    0    0 -0.11868466242E+02  0.18489090204E+02  0.11626765974E+01  0.22001335513E+02  0.00000000000E+00 0.  1.
         22    1    4    4    0    0  0.90172805190E+01 -0.62896166069E+01 -0.66953119540E+02  0.67849766700E+02  0.00000000000E+00 0. -1.
         22    1    4    4    0    0  0.28511857234E+01 -0.12199473597E+02 -0.11069664754E+03  0.11140334013E+03  0.00000000000E+00 0. -1.
<mgrwt>
<rscale>  0 0.96724648E+02</rscale>
<asrwt>0</asrwt>
<pdfrwt beam="2">  1        2 0.29057039E-01 0.96724648E+02</pdfrwt>
<pdfrwt beam="1">  1       -2 0.19051811E-02 0.96724648E+02</pdfrwt>
<totfact> 0.12912782E+05</totfact>
</mgrwt>
</event>
<event>
 7    1  0.3056193E-009  0.9241274E+02  0.7818608E-02  0.1297112E+00
         -2   -1    0    0    0  501 -0.00000000000E+00  0.00000000000E+00  0.26713557199E+02  0.26713557321E+02  0.25500000000E-02 0.  1.
          2   -1    0    0  501    0  0.00000000000E+00 -0.00000000000E+00 -0.79923030775E+02  0.79923030816E+02  0.25500000000E-02 0. -1.
         23    2    1    2    0    0  0.00000000000E+00 -0.35527136788E-14 -0.53209473576E+02  0.10663658814E+03  0.92412736413E+02 0.  0.
    9000005    2    3    3    0    0  0.38065835015E+02 -0.14850455635E+02 -0.49282897282E+02  0.65588301580E+02  0.14264554380E+02 0.  0.
         22    1    3    3    0    0 -0.38065835015E+02  0.14850455635E+02 -0.39265762940E+01  0.41048286557E+02  0.00000000000E+00 0. -1.
         22    1    4    4    0    0  0.28955912796E+02 -0.41969177918E+01 -0.32989301195E+02  0.44094818268E+02  0.00000000000E+00 0. -1.
         22    1    4    4    0    0  0.91099222187E+01 -0.10653537843E+02 -0.16293596087E+02  0.21493483311E+02  0.00000000000E+00 0. -1.
<mgrwt>
<rscale>  0 0.92412736E+02</rscale>
<asrwt>0</asrwt>
<pdfrwt beam="2">  1        2 0.12295851E-01 0.92412736E+02</pdfrwt>
<pdfrwt beam="1">  1       -2 0.41097781E-02 0.92412736E+02</pdfrwt>
<totfact> 0.11059832E+05</totfact>
</mgrwt>
</event>
<event>
 7    1  0.3056193E-009  0.9024571E+02  0.7818608E-02  0.1302258E+00
         -2   -1    0    0    0  501 -0.00000000000E+00  0.00000000000E+00  0.12913079586E+02  0.12913079838E+02  0.25500000000E-02 0. -1.
          2   -1    0    0  501    0  0.00000000000E+00 -0.00000000000E+00 -0.15767518698E+03  0.15767518700E+03  0.25500000000E-02 0.  1.
         23    2    1    2    0    0  0.35527136788E-14  0.22204460493E-15 -0.14476210739E+03  0.17058826684E+03  0.90245714833E+02 0.  0.
    9000005    2    3    3    0    0 -0.31219209534E+02 -0.94946971492E+00 -0.13690349137E+02  0.35846490284E+02  0.11045572392E+02 0.  0.
         22    1    3    3    0    0  0.31219209534E+02  0.94946971492E+00 -0.13107175825E+03  0.13474177655E+03  0.00000000000E+00 0.  1.
         22    1    4    4    0    0 -0.13644248719E+02  0.50572483298E+01 -0.57117731601E+01  0.15632198707E+02  0.00000000000E+00 0. -1.
         22    1    4    4    0    0 -0.17574960816E+02 -0.60067180447E+01 -0.79785759769E+01  0.20214291577E+02  0.00000000000E+00 0. -1.
<mgrwt>
<rscale>  0 0.90245715E+02</rscale>
<asrwt>0</asrwt>
<pdfrwt beam="2">  1        2 0.24257720E-01 0.90245715E+02</pdfrwt>
<pdfrwt beam="1">  1       -2 0.19866278E-02 0.90245715E+02</pdfrwt>
<totfact> 0.14622374E+05</totfact>
</mgrwt>
</event>
<event>
 7    1  0.3056193E-009  0.9169679E+02  0.7818608E-02  0.1298794E+00
         -2   -1    0    0    0  501 -0.00000000000E+00  0.00000000000E+00  0.10644843986E+02  0.10644844291E+02  0.25500000000E-02 0.  1.
          2   -1    0    0  501    0  0.00000000000E+00 -0.00000000000E+00 -0.19747354903E+03  0.19747354905E+03  0.25500000000E-02 0. -1.
         23    2    1    2    0    0  0.00000000000E+00  0.00000000000E+00 -0.18682870504E+03  0.20811839334E+03  0.91696786297E+02 0.  0.
    9000005    2    3    3    0    0 -0.22174606331E+02  0.37933616814E+02 -0.12213083423E+03  0.12991042100E+03  0.54867442136E+01 0.  0.
         22    1    3    3    0    0  0.22174606331E+02 -0.37933616814E+02 -0.64697870811E+02  0.78207972343E+02  0.00000000000E+00 0.  1.
         22    1    4    4    0    0 -0.14741206627E+02  0.28628498367E+02 -0.83884399817E+02  0.89852582736E+02  0.00000000000E+00 0.  1.
         22    1    4    4    0    0 -0.74333997045E+01  0.93051184470E+01 -0.38246434417E+02  0.40057838260E+02  0.00000000000E+00 0.  1.
<mgrwt>
<rscale>  0 0.91696786E+02</rscale>
<asrwt>0</asrwt>
<pdfrwt beam="2">  1        2 0.30380543E-01 0.91696786E+02</pdfrwt>
<pdfrwt beam="1">  1       -2 0.16376685E-02 0.91696786E+02</pdfrwt>
<totfact> 0.15162818E+05</totfact>
</mgrwt>
</event>
<event>
 7    1  0.3056193E-009  0.9214001E+02  0.7818608E-02  0.1297751E+00
          2   -1    0    0  501    0  0.00000000000E+00  0.00000000000E+00  0.81110545869E+02  0.81110545910E+02  0.25500000000E-02 0.  1.
         -2   -1    0    0    0  501 -0.00000000000E+00 -0.00000000000E+00 -0.26167319281E+02  0.26167319405E+02  0.25500000000E-02 0. -1.
         23    2    1    2    0    0  0.00000000000E+00  0.00000000000E+00  0.54943226589E+02  0.10727786531E+03  0.92140014318E+02 0.  0.
    9000005    2    3    3    0    0  0.41789507736E+02 -0.98446400464E+01  0.13887602432E+02  0.47873789955E+02  0.15992322187E+02 0.  0.
         22    1    3    3    0    0 -0.41789507736E+02  0.98446400464E+01  0.41055624156E+02  0.59404075359E+02  0.00000000000E+00 0.  1.
         22    1    4    4    0    0  0.25454836318E+02  0.19987475001E+01  0.61404779993E+01  0.26261171977E+02  0.00000000000E+00 0.  1.
         22    1    4    4    0    0  0.16334671417E+02 -0.11843387546E+02  0.77471244332E+01  0.21612617978E+02  0.00000000000E+00 0.  1.
<mgrwt>
<rscale>  0 0.92140014E+02</rscale>
<asrwt>0</asrwt>
<pdfrwt beam="1">  1        2 0.12478545E-01 0.92140014E+02</pdfrwt>
<pdfrwt beam="2">  1       -2 0.40257415E-02 0.92140014E+02</pdfrwt>
<totfact> 0.11198762E+05</totfact>
</mgrwt>
</event>
<event>
 7    1  0.3056193E-009  0.9266089E+02  0.7818608E-02  0.1296533E+00
          2   -1    0    0  501    0  0.00000000000E+00  0.00000000000E+00  0.68761654343E+03  0.68761654344E+03  0.25500000000E-02 0. -1.
         -2   -1    0    0    0  501 -0.00000000000E+00 -0.00000000000E+00 -0.31216670176E+01  0.31216680591E+01  0.25500000000E-02 0.  1.
         23    2    1    2    0    0  0.00000000000E+00  0.00000000000E+00  0.68449487641E+03  0.69073821149E+03  0.92660892414E+02 0.  0.
    9000005    2    3    3    0    0  0.44052036713E+02  0.68863408436E+00  0.43468457000E+03  0.43707259430E+03  0.11862594081E+02 0.  0.
         22    1    3    3    0    0 -0.44052036713E+02 -0.68863408436E+00  0.24981030641E+03  0.25366561719E+03  0.00000000000E+00 0.  1.
         22    1    4    4    0    0  0.23486510726E+01  0.16223231820E+01  0.12006526682E+02  0.12341182170E+02  0.00000000000E+00 0. -1.
         22    1    4    4    0    0  0.41703385641E+02 -0.93368909763E+00  0.42267804332E+03  0.42473141213E+03  0.00000000000E+00 0. -1.
<mgrwt>
<rscale>  0 0.92660892E+02</rscale>
<asrwt>0</asrwt>
<pdfrwt beam="1">  1        2 0.10578718E+00 0.92660892E+02</pdfrwt>
<pdfrwt beam="2">  1       -2 0.48025644E-03 0.92660892E+02</pdfrwt>
<totfact> 0.22628784E+05</totfact>
</mgrwt>
</event>
<event>
 7    1  0.3056193E-009  0.9573198E+02  0.7818608E-02  0.1289536E+00
          2   -1    0    0  501    0  0.00000000000E+00  0.00000000000E+00  0.29733037508E+02  0.29733037617E+02  0.25500000000E-02 0. -1.
         -2   -1    0    0    0  501 -0.00000000000E+00 -0.00000000000E+00 -0.77057479132E+02  0.77057479174E+02  0.25500000000E-02 0.  1.
         23    2    1    2    0    0  0.71054273576E-14  0.00000000000E+00 -0.47324441624E+02  0.10679051679E+03  0.95731978469E+02 0.  0.
    9000005    2    3    3    0    0 -0.45642777589E+02 -0.52176222705E+01 -0.37036352661E+02  0.59712586689E+02  0.91331737387E+01 0.  0.
         22    1    3    3    0    0  0.45642777589E+02  0.52176222705E+01 -0.10288088963E+02  0.47077930102E+02  0.00000000000E+00 0. -1.
         22    1    4    4    0    0 -0.45441840405E+02 -0.42890861675E+01 -0.37008557018E+02  0.58762151187E+02  0.00000000000E+00 0.  1.
         22    1    4    4    0    0 -0.20093718334E+00 -0.92853610298E+00 -0.27795642891E-01  0.95043550225E+00  0.00000000000E+00 0.  1.
<mgrwt>
<rscale>  0 0.95731978E+02</rscale>
<asrwt>0</asrwt>
<pdfrwt beam="1">  1        2 0.45743135E-02 0.95731978E+02</pdfrwt>
<pdfrwt beam="2">  1       -2 0.11854997E-01 0.95731978E+02</pdfrwt>
<totfact> 0.76280085E+04</totfact>
</mgrwt>
</event>
<event>
 7    1  0.3056193E-009  0.9258719E+02  0.7818608E-02  0.1296705E+00
         -2   -1    0    0    0  501 -0.00000000000E+00  0.00000000000E+00  0.40029726898E+02  0.40029726979E+02  0.25500000000E-02 0.  1.
          2   -1    0    0  501    0  0.00000000000E+00 -0.00000000000E+00 -0.53537631552E+02  0.53537631612E+02  0.25500000000E-02 0. -1.
         23    2    1    2    0    0  0.00000000000E+00  0.00000000000E+00 -0.13507904653E+02  0.93567358592E+02  0.92587186509E+02 0.  0.
    9000005    2    3    3    0    0 -0.28554594844E+02 -0.60706881935E+01  0.27945833924E+02  0.42865972182E+02  0.14293487871E+02 0.  0.
         22    1    3    3    0    0  0.28554594844E+02  0.60706881935E+01 -0.41453738577E+02  0.50701386410E+02  0.00000000000E+00 0. -1.
         22    1    4    4    0    0 -0.28309758187E+02 -0.87165050413E+01  0.26892024723E+02  0.40007510076E+02  0.00000000000E+00 0. -1.
         22    1    4    4    0    0 -0.24483665730E+00  0.26458168478E+01  0.10538092006E+01  0.28584621061E+01  0.00000000000E+00 0. -1.
<mgrwt>
<rscale>  0 0.92587187E+02</rscale>
<asrwt>0</asrwt>
<pdfrwt beam="2">  1        2 0.82365587E-02 0.92587187E+02</pdfrwt>
<pdfrwt beam="1">  1       -2 0.61584195E-02 0.92587187E+02</pdfrwt>
<totfact> 0.98507087E+04</totfact>
</mgrwt>
</event>
<event>
 7    1  0.3056193E-009  0.8996706E+02  0.7818608E-02  0.1302931E+00
         -2   -1    0    0    0  501 -0.00000000000E+00  0.00000000000E+00  0.10003568082E+02  0.10003568408E+02  0.25500000000E-02 0. -1.
          2   -1    0    0  501    0  0.00000000000E+00 -0.00000000000E+00 -0.20227960663E+03  0.20227960665E+03  0.25500000000E-02 0.  1.
         23    2    1    2    0    0  0.00000000000E+00 -0.88817841970E-15 -0.19227603855E+03  0.21228317505E+03  0.89967057367E+02 0.  0.
    9000005    2    3    3    0    0  0.40462691882E+02 -0.79432268981E+01 -0.64924876525E+02  0.78422640331E+02  0.15314915499E+02 0.  0.
         22    1    3    3    0    0 -0.40462691882E+02  0.79432268981E+01 -0.12735116202E+03  0.13386053472E+03  0.00000000000E+00 0.  1.
         22    1    4    4    0    0  0.29058725252E+02 -0.62551786154E+01 -0.32665526761E+02  0.44165296459E+02  0.00000000000E+00 0.  1.
         22    1    4    4    0    0  0.11403966630E+02 -0.16880482827E+01 -0.32259349765E+02  0.34257343872E+02  0.00000000000E+00 0.  1.
<mgrwt>
<rscale>  0 0.89967057E+02</rscale>
<asrwt>0</asrwt>
<pdfrwt beam="2">  1        2 0.31119937E-01 0.89967057E+02</pdfrwt>
<pdfrwt beam="1">  1       -2 0.15390106E-02 0.89967057E+02</pdfrwt>
<totfact> 0.16099291E+05</totfact>
</mgrwt>
</event>
<event>
 7    1  0.3056193E-009  0.9213839E+02  0.7818608E-02  0.1297754E+00
         -2   -1    0    0    0  501 -0.00000000000E+00  0.00000000000E+00  0.49792263438E+01  0.49792269968E+01  0.25500000000E-02 0. -1.
          2   -1    0    0  501    0  0.00000000000E+00 -0.00000000000E+00 -0.42624503399E+03  0.42624503400E+03  0.25500000000E-02 0.  1.
         23    2    1    2    0    0  0.00000000000E+00  0.00000000000E+00 -0.42126580765E+03  0.43122426099E+03  0.92138388191E+02 0.  0.
    9000005    2    3    3    0    0  0.34784903370E+02  0.25690057822E+02 -0.27447780314E+03  0.27819914266E+03  0.13664918173E+02 0.  0.
         22    1    3    3    0    0 -0.34784903370E+02 -0.25690057822E+02 -0.14678800451E+03  0.15302511833E+03  0.00000000000E+00 0. -1.
         22    1    4    4    0    0  0.23530478517E+02  0.10698355147E+02 -0.13338549163E+03  0.13586694815E+03  0.00000000000E+00 0. -1.
         22    1    4    4    0    0  0.11254424853E+02  0.14991702675E+02 -0.14109231151E+03  0.14233219451E+03  0.00000000000E+00 0. -1.
<mgrwt>
<rscale>  0 0.92138388E+02</rscale>
<asrwt>0</asrwt>
<pdfrwt beam="2">  1        2 0.65576130E-01 0.92138388E+02</pdfrwt>
<pdfrwt beam="1">  1       -2 0.76603521E-03 0.92138388E+02</pdfrwt>
<totfact> 0.19855777E+05</totfact>
</mgrwt>
</event>
<event>
 7    1  0.3056193E-009  0.9044611E+02  0.7818608E-02  0.1301775E+00
         -2   -1    0    0    0  501 -0.00000000000E+00  0.00000000000E+00  0.31702183140E+01  0.31702193396E+01  0.25500000000E-02 0.  1.
          2   -1    0    0  501    0  0.00000000000E+00 -0.00000000000E+00 -0.64510525248E+03  0.64510525248E+03  0.25500000000E-02 0. -1.
         23    2    1    2    0    0  0.71054273576E-14  0.00000000000E+00 -0.64193503416E+03  0.64827547182E+03  0.90446112574E+02 0.  0.
    9000005    2    3    3    0    0  0.37014334312E+02  0.22226924629E+02 -0.40035295717E+03  0.40286561658E+03  0.12414410520E+02 0.  0.
         22    1    3    3    0    0 -0.37014334312E+02 -0.22226924629E+02 -0.24158207700E+03  0.24540985524E+03  0.00000000000E+00 0.  1.
         22    1    4    4    0    0  0.11217073603E+01  0.72007646001E+00 -0.26382380367E+01  0.29558480084E+01  0.00000000000E+00 0.  1.
         22    1    4    4    0    0  0.35892626952E+02  0.21506848169E+02 -0.39771471913E+03  0.39990976858E+03  0.00000000000E+00 0.  1.
<mgrwt>
<rscale>  0 0.90446113E+02</rscale>
<asrwt>0</asrwt>
<pdfrwt beam="2">  1        2 0.99246858E-01 0.90446113E+02</pdfrwt>
<pdfrwt beam="1">  1       -2 0.48772649E-03 0.90446113E+02</pdfrwt>
<totfact> 0.23738317E+05</totfact>
</mgrwt>
</event>
<event>
 7    1  0.3056193E-009  0.8812362E+02  0.7818608E-02  0.1307460E+00
          2   -1    0    0  501    0  0.00000000000E+00  0.00000000000E+00  0.27573582336E+02  0.27573582454E+02  0.25500000000E-02 0. -1.
         -2   -1    0    0    0  501 -0.00000000000E+00 -0.00000000000E+00 -0.70409529186E+02  0.70409529232E+02  0.25500000000E-02 0.  1.
         23    2    1    2    0    0  0.00000000000E+00  0.00000000000E+00 -0.42835946850E+02  0.97983111686E+02  0.88123616773E+02 0.  0.
    9000005    2    3    3    0    0 -0.24487791551E+02 -0.21763394480E+02  0.10692751369E+02  0.35224695459E+02  0.72901964343E+01 0.  0.
         22    1    3    3    0    0  0.24487791551E+02  0.21763394480E+02 -0.53528698218E+02  0.62758416227E+02  0.00000000000E+00 0.  1.
         22    1    4    4    0    0 -0.10606219294E+02 -0.56257851008E+01  0.17371911623E+01  0.12130918302E+02  0.00000000000E+00 0. -1.
         22    1    4    4    0    0 -0.13881572257E+02 -0.16137609379E+02  0.89555602064E+01  0.23093777158E+02  0.00000000000E+00 0. -1.
<mgrwt>
<rscale>  0 0.88123617E+02</rscale>
<asrwt>0</asrwt>
<pdfrwt beam="1">  1        2 0.42420896E-02 0.88123617E+02</pdfrwt>
<pdfrwt beam="2">  1       -2 0.10832235E-01 0.88123617E+02</pdfrwt>
<totfact> 0.95704612E+04</totfact>
</mgrwt>
</event>
<event>
 7    1  0.3056193E-009  0.8934605E+02  0.7818608E-02  0.1304443E+00
          2   -1    0    0  501    0  0.00000000000E+00  0.00000000000E+00  0.57462486316E+02  0.57462486372E+02  0.25500000000E-02 0. -1.
         -2   -1    0    0    0  501 -0.00000000000E+00 -0.00000000000E+00 -0.34730122597E+02  0.34730122691E+02  0.25500000000E-02 0.  1.
         23    2    1    2    0    0  0.00000000000E+00 -0.35527136788E-14  0.22732363719E+02  0.92192609063E+02  0.89346050868E+02 0.  0.
    9000005    2    3    3    0    0 -0.34001396217E+02  0.20049323135E+02  0.32523189506E+02  0.51524063817E+02  0.62370661111E+01 0.  0.
         22    1    3    3    0    0  0.34001396217E+02 -0.20049323135E+02 -0.97908257868E+01  0.40668545247E+02  0.00000000000E+00 0.  1.
         22    1    4    4    0    0 -0.29020832013E+02  0.14402576149E+02  0.27210799446E+02  0.42309224726E+02  0.00000000000E+00 0. -1.
         22    1    4    4    0    0 -0.49805642041E+01  0.56467469858E+01  0.53123900599E+01  0.92148390903E+01  0.00000000000E+00 0. -1.
<mgrwt>
<rscale>  0 0.89346051E+02</rscale>
<asrwt>0</asrwt>
<pdfrwt beam="1">  1        2 0.88403825E-02 0.89346051E+02</pdfrwt>
<pdfrwt beam="2">  1       -2 0.53430958E-02 0.89346051E+02</pdfrwt>
<totfact> 0.11102399E+05</totfact>
</mgrwt>
</event>
<event>
 7    1  0.3056193E-009  0.8736709E+02  0.7818608E-02  0.1309356E+00
         -2   -1    0    0    0  501 -0.00000000000E+00  0.00000000000E+00  0.64066190112E+02  0.64066190163E+02  0.25500000000E-02 0.  1.
          2   -1    0    0  501    0  0.00000000000E+00 -0.00000000000E+00 -0.29785631698E+02  0.29785631807E+02  0.25500000000E-02 0. -1.
         23    2    1    2    0    0  0.00000000000E+00  0.00000000000E+00  0.34280558414E+02  0.93851821970E+02  0.87367086491E+02 0.  0.
    9000005    2    3    3    0    0  0.31073518480E+02 -0.22363863485E+02  0.37396579880E+02  0.55440683866E+02  0.14472708802E+02 0.  0.
         22    1    3    3    0    0 -0.31073518480E+02  0.22363863485E+02 -0.31160214660E+01  0.38411138105E+02  0.00000000000E+00 0. -1.
         22    1    4    4    0    0  0.30486333193E+02 -0.23302751590E+02  0.32096620568E+02  0.50026271050E+02  0.00000000000E+00 0.  1.
         22    1    4    4    0    0  0.58718528730E+00  0.93888810557E+00  0.52999593120E+01  0.54144128163E+01  0.00000000000E+00 0.  1.
<mgrwt>
<rscale>  0 0.87367086E+02</rscale>
<asrwt>0</asrwt>
<pdfrwt beam="2">  1        2 0.45824049E-02 0.87367086E+02</pdfrwt>
<pdfrwt beam="1">  1       -2 0.98563370E-02 0.87367086E+02</pdfrwt>
<totfact> 0.10015185E+05</totfact>
</mgrwt>
</event>
<event>
 7    1  0.3056193E-009  0.9042752E+02  0.7818608E-02  0.1301820E+00
         -2   -1    0    0    0  501 -0.00000000000E+00  0.00000000000E+00  0.18701744460E+02  0.18701744634E+02  0.25500000000E-02 0.  1.
          2   -1    0    0  501    0  0.00000000000E+00 -0.00000000000E+00 -0.10930981117E+03  0.10930981120E+03  0.25500000000E-02 0. -1.
         23    2    1    2    0    0  0.00000000000E+00  0.00000000000E+00 -0.90608066712E+02  0.12801155583E+03  0.90427521663E+02 0.  0.
    9000005    2    3    3    0    0 -0.38195389274E+02 -0.23393133885E+02 -0.43100582958E+02  0.62719232493E+02  0.83615428264E+01 0.  0.
         22    1    3    3    0    0  0.38195389274E+02  0.23393133885E+02 -0.47507483753E+02  0.65292323342E+02  0.00000000000E+00 0.  1.
         22    1    4    4    0    0 -0.25243892048E+02 -0.17231410324E+02 -0.34069904335E+02  0.45770448642E+02  0.00000000000E+00 0. -1.
         22    1    4    4    0    0 -0.12951497226E+02 -0.61617235613E+01 -0.90306786231E+01  0.16948783851E+02  0.00000000000E+00 0. -1.
<mgrwt>
<rscale>  0 0.90427522E+02</rscale>
<asrwt>0</asrwt>
<pdfrwt beam="2">  1        2 0.16816894E-01 0.90427522E+02</pdfrwt>
<pdfrwt beam="1">  1       -2 0.28771915E-02 0.90427522E+02</pdfrwt>
<totfact> 0.12897345E+05</totfact>
</mgrwt>
</event>
<event>
 7    1  0.3056193E-009  0.8881350E+02  0.7818608E-02  0.1305751E+00
          2   -1    0    0  501    0  0.00000000000E+00  0.00000000000E+00  0.53982221884E+02  0.53982221944E+02  0.25500000000E-02 0. -1.
         -2   -1    0    0    0  501 -0.00000000000E+00 -0.00000000000E+00 -0.36529790356E+02  0.36529790445E+02  0.25500000000E-02 0.  1.
         23    2    1    2    0    0  0.00000000000E+00  0.00000000000E+00  0.17452431528E+02  0.90512012389E+02  0.88813495712E+02 0.  0.
    9000005    2    3    3    0    0  0.16817460102E+02 -0.34244899817E+02 -0.12245822307E+02  0.42164040265E+02  0.13126537994E+02 0.  0.
         22    1    3    3    0    0 -0.16817460102E+02  0.34244899817E+02  0.29698253834E+02  0.48347972125E+02  0.00000000000E+00 0. -1.
         22    1    4    4    0    0  0.12260011833E+02 -0.32040331727E+02 -0.13631966400E+02  0.36915054588E+02  0.00000000000E+00 0.  1.
         22    1    4    4    0    0  0.45574482687E+01 -0.22045680901E+01  0.13861440930E+01  0.52489856765E+01  0.00000000000E+00 0.  1.
<mgrwt>
<rscale>  0 0.88813496E+02</rscale>
<asrwt>0</asrwt>
<pdfrwt beam="1">  1        2 0.83049572E-02 0.88813496E+02</pdfrwt>
<pdfrwt beam="2">  1       -2 0.56199678E-02 0.88813496E+02</pdfrwt>
<totfact> 0.11108414E+05</totfact>
</mgrwt>
</event>
<event>
 7    1  0.3056193E-009  0.8104142E+02  0.7818608E-02  0.1326122E+00
          2   -1    0    0  501    0  0.00000000000E+00  0.00000000000E+00  0.10426847312E+03  0.10426847315E+03  0.25500000000E-02 0. -1.
         -2   -1    0    0    0  501 -0.00000000000E+00 -0.00000000000E+00 -0.15747118427E+02  0.15747118633E+02  0.25500000000E-02 0.  1.
         23    2    1    2    0    0  0.00000000000E+00  0.00000000000E+00  0.88521354693E+02  0.12001559178E+03  0.81041421722E+02 0.  0.
    9000005    2    3    3    0    0  0.15943817007E+02  0.50275462809E+01  0.98810786968E+02  0.10038515779E+03  0.58418113976E+01 0.  0.
         22    1    3    3    0    0 -0.15943817007E+02 -0.50275462809E+01 -0.10289432275E+02  0.19630433997E+02  0.00000000000E+00 0.  1.
         22    1    4    4    0    0  0.34739240579E+00 -0.92306094197E+00  0.43179391325E+01  0.44291445380E+01  0.00000000000E+00 0. -1.
         22    1    4    4    0    0  0.15596424601E+02  0.59506072229E+01  0.94492847836E+02  0.95956013250E+02  0.00000000000E+00 0. -1.
<mgrwt>
<rscale>  0 0.81041422E+02</rscale>
<asrwt>0</asrwt>
<pdfrwt beam="1">  1        2 0.16041304E-01 0.81041422E+02</pdfrwt>
<pdfrwt beam="2">  1       -2 0.24226336E-02 0.81041422E+02</pdfrwt>
<totfact> 0.17128107E+05</totfact>
</mgrwt>
</event>
<event>
 7    1  0.3056193E-009  0.8937737E+02  0.7818608E-02  0.1304367E+00
         -2   -1    0    0    0  501 -0.00000000000E+00  0.00000000000E+00  0.66193579154E+02  0.66193579203E+02  0.25500000000E-02 0.  1.
          2   -1    0    0  501    0  0.00000000000E+00 -0.00000000000E+00 -0.30170275699E+02  0.30170275807E+02  0.25500000000E-02 0. -1.
         23    2    1    2    0    0 -0.35527136788E-14  0.00000000000E+00  0.36023303455E+02  0.96363855010E+02  0.89377369399E+02 0.  0.
    9000005    2    3    3    0    0  0.25879816097E+02 -0.35334049168E+02  0.84992414814E+01  0.44635391865E+02  0.13495144850E+01 0.  0.
         22    1    3    3    0    0 -0.25879816097E+02  0.35334049168E+02  0.27524061974E+02  0.51728463145E+02  0.00000000000E+00 0.  1.
         22    1    4    4    0    0  0.12111519260E+02 -0.16427055616E+02  0.32781854912E+01  0.20670838278E+02  0.00000000000E+00 0. -1.
         22    1    4    4    0    0  0.13768296837E+02 -0.18906993552E+02  0.52210559902E+01  0.23964553587E+02  0.00000000000E+00 0. -1.
<mgrwt>
<rscale>  0 0.89377369E+02</rscale>
<asrwt>0</asrwt>
<pdfrwt beam="2">  1        2 0.46415810E-02 0.89377369E+02</pdfrwt>
<pdfrwt beam="1">  1       -2 0.10183627E-01 0.89377369E+02</pdfrwt>
<totfact> 0.93978299E+04</totfact>
</mgrwt>
</event>
<event>
 7    1  0.3056193E-009  0.9243820E+02  0.7818608E-02  0.1297052E+00
         -2   -1    0    0    0  501 -0.00000000000E+00  0.00000000000E+00  0.11056612152E+02  0.11056612446E+02  0.25500000000E-02 0.  1.
          2   -1    0    0  501    0  0.00000000000E+00 -0.00000000000E+00 -0.19320614229E+03  0.19320614231E+03  0.25500000000E-02 0. -1.
         23    2    1    2    0    0 -0.22204460493E-15  0.35527136788E-14 -0.18214953014E+03  0.20426275476E+03  0.92438204495E+02 0.  0.
    9000005    2    3    3    0    0 -0.17083909666E+01  0.26859123802E+02 -0.17357555992E+03  0.17601662057E+03  0.11359779265E+02 0.  0.
         22    1    3    3    0    0  0.17083909666E+01 -0.26859123802E+02 -0.85739702232E+01  0.28246134187E+02  0.00000000000E+00 0.  1.
         22    1    4    4    0    0 -0.19044329758E+00  0.61022014924E+01 -0.76071301806E+02  0.76315896707E+02  0.00000000000E+00 0.  1.
         22    1    4    4    0    0 -0.15179476690E+01  0.20756922310E+02 -0.97504258114E+02  0.99700723865E+02  0.00000000000E+00 0.  1.
<mgrwt>
<rscale>  0 0.92438204E+02</rscale>
<asrwt>0</asrwt>
<pdfrwt beam="2">  1        2 0.29724019E-01 0.92438204E+02</pdfrwt>
<pdfrwt beam="1">  1       -2 0.17010174E-02 0.92438204E+02</pdfrwt>
<totfact> 0.14720249E+05</totfact>
</mgrwt>
</event>
<event>
 7    1  0.3056193E-009  0.9132658E+02  0.7818608E-02  0.1299671E+00
          2   -1    0    0  501    0  0.00000000000E+00  0.00000000000E+00  0.19995635967E+03  0.19995635968E+03  0.25500000000E-02 0.  1.
         -2   -1    0    0    0  501 -0.00000000000E+00 -0.00000000000E+00 -0.10427955587E+02  0.10427955899E+02  0.25500000000E-02 0. -1.
         23    2    1    2    0    0  0.00000000000E+00  0.00000000000E+00  0.18952840408E+03  0.21038431558E+03  0.91326580413E+02 0.  0.
    9000005    2    3    3    0    0 -0.24343181113E+02  0.23112425758E+02  0.16536124655E+03  0.16902218079E+03  0.98681836644E+01 0.  0.
         22    1    3    3    0    0  0.24343181113E+02 -0.23112425758E+02  0.24167157531E+02  0.41362134789E+02  0.00000000000E+00 0. -1.
         22    1    4    4    0    0 -0.80441180163E+01  0.19570811273E+01  0.40112634080E+02  0.40958044558E+02  0.00000000000E+00 0.  1.
         22    1    4    4    0    0 -0.16299063097E+02  0.21155344631E+02  0.12524861247E+03  0.12806413623E+03  0.00000000000E+00 0.  1.
<mgrwt>
<rscale>  0 0.91326580E+02</rscale>
<asrwt>0</asrwt>
<pdfrwt beam="1">  1        2 0.30762515E-01 0.91326580E+02</pdfrwt>
<pdfrwt beam="2">  1       -2 0.16043010E-02 0.91326580E+02</pdfrwt>
<totfact> 0.15398499E+05</totfact>
</mgrwt>
</event>
<event>
 7    1  0.3056193E-009  0.9300113E+02  0.7818608E-02  0.1295743E+00
         -2   -1    0    0    0  501 -0.00000000000E+00  0.00000000000E+00  0.15414352245E+03  0.15414352247E+03  0.25500000000E-02 0. -1.
          2   -1    0    0  501    0  0.00000000000E+00 -0.00000000000E+00 -0.14027851414E+02  0.14027851646E+02  0.25500000000E-02 0.  1.
         23    2    1    2    0    0  0.00000000000E+00  0.00000000000E+00  0.14011567104E+03  0.16817137412E+03  0.93001127964E+02 0.  0.
    9000005    2    3    3    0    0  0.36766608703E+02  0.17933699884E+02  0.36561940539E+02  0.56830563060E+02  0.14816757227E+02 0.  0.
         22    1    3    3    0    0 -0.36766608703E+02 -0.17933699884E+02  0.10355373050E+03  0.11134081106E+03  0.00000000000E+00 0. -1.
         22    1    4    4    0    0  0.14430164497E+02  0.58730310926E+00  0.74773916972E+01  0.16263024286E+02  0.00000000000E+00 0.  1.
         22    1    4    4    0    0  0.22336444206E+02  0.17346396775E+02  0.29084548842E+02  0.40567538774E+02  0.00000000000E+00 0.  1.
<mgrwt>
<rscale>  0 0.93001128E+02</rscale>
<asrwt>0</asrwt>
<pdfrwt beam="2">  1        2 0.21581309E-02 0.93001128E+02</pdfrwt>
<pdfrwt beam="1">  1       -2 0.23714390E-01 0.93001128E+02</pdfrwt>
<totfact> 0.65772086E+04</totfact>
</mgrwt>
</event>
<event>
 7    1  0.3056193E-009  0.9165667E+02  0.7818608E-02  0.1298889E+00
          2   -1    0    0  501    0  0.00000000000E+00  0.00000000000E+00  0.13724730585E+03  0.13724730588E+03  0.25500000000E-02 0. -1.
         -2   -1    0    0    0  501 -0.00000000000E+00 -0.00000000000E+00 -0.15302569300E+02  0.15302569512E+02  0.25500000000E-02 0.  1.
         23    2    1    2    0    0 -0.71054273576E-14  0.00000000000E+00  0.12194473655E+03  0.15254987539E+03  0.91656673015E+02 0.  0.
    9000005    2    3    3    0    0 -0.42411637495E+02 -0.14467067238E+02  0.74430339872E+02  0.87237848001E+02  0.79071866704E+01 0.  0.
         22    1    3    3    0    0  0.42411637495E+02  0.14467067238E+02  0.47514396683E+02  0.65312027389E+02  0.00000000000E+00 0.  1.
         22    1    4    4    0    0 -0.51119878553E+01 -0.46423541800E+01  0.10267481042E+02  0.12373562103E+02  0.00000000000E+00 0.  1.
         22    1    4    4    0    0 -0.37299649640E+02 -0.98247130580E+01  0.64162858829E+02  0.74864285898E+02  0.00000000000E+00 0.  1.
<mgrwt>
<rscale>  0 0.91656673E+02</rscale>
<asrwt>0</asrwt>
<pdfrwt beam="1">  1        2 0.21114970E-01 0.91656673E+02</pdfrwt>
<pdfrwt beam="2">  1       -2 0.23542414E-02 0.91656673E+02</pdfrwt>
<totfact> 0.13376444E+05</totfact>
</mgrwt>
</event>
<event>
 7    1  0.3056193E-009  0.9236008E+02  0.7818608E-02  0.1297235E+00
         -2   -1    0    0    0  501 -0.00000000000E+00  0.00000000000E+00  0.38997509619E+01  0.38997517956E+01  0.25500000000E-02 0. -1.
          2   -1    0    0  501    0  0.00000000000E+00 -0.00000000000E+00 -0.54685432668E+03  0.54685432669E+03  0.25500000000E-02 0.  1.
         23    2    1    2    0    0  0.00000000000E+00 -0.17763568394E-14 -0.54295457572E+03  0.55075407848E+03  0.92360076174E+02 0.  0.
    9000005    2    3    3    0    0 -0.34508003397E+02 -0.14977235253E+02 -0.42756901196E+03  0.42939120031E+03  0.12100538879E+02 0.  0.
         22    1    3    3    0    0  0.34508003397E+02  0.14977235253E+02 -0.11538556376E+03  0.12136287817E+03  0.00000000000E+00 0. -1.
         22    1    4    4    0    0 -0.23928576255E+02 -0.91790375553E+01 -0.22323348041E+03  0.22469984039E+03  0.00000000000E+00 0. -1.
         22    1    4    4    0    0 -0.10579427141E+02 -0.57981976981E+01 -0.20433553154E+03  0.20469135992E+03  0.00000000000E+00 0. -1.
<mgrwt>
<rscale>  0 0.92360076E+02</rscale>
<asrwt>0</asrwt>
<pdfrwt beam="2">  1        2 0.84131374E-01 0.92360076E+02</pdfrwt>
<pdfrwt beam="1">  1       -2 0.59996218E-03 0.92360076E+02</pdfrwt>
<totfact> 0.21424778E+05</totfact>
</mgrwt>
</event>
<event>
 7    1  0.3056193E-009  0.8409433E+02  0.7818608E-02  0.1317818E+00
          2   -1    0    0  501    0  0.00000000000E+00  0.00000000000E+00  0.91403758034E+02  0.91403758070E+02  0.25500000000E-02 0.  1.
         -2   -1    0    0    0  501 -0.00000000000E+00 -0.00000000000E+00 -0.19342355958E+02  0.19342356126E+02  0.25500000000E-02 0. -1.
         23    2    1    2    0    0  0.00000000000E+00  0.00000000000E+00  0.72061402076E+02  0.11074611420E+03  0.84094328823E+02 0.  0.
    9000005    2    3    3    0    0 -0.19121011530E+02 -0.20713009655E+02 -0.47535731430E+01  0.28922020746E+02  0.43869095625E+01 0.  0.
         22    1    3    3    0    0  0.19121011530E+02  0.20713009655E+02  0.76814975219E+02  0.81824093450E+02  0.00000000000E+00 0.  1.
         22    1    4    4    0    0 -0.55895877303E+01 -0.41339824505E+01  0.20397848971E+00  0.69552073384E+01  0.00000000000E+00 0.  1.
         22    1    4    4    0    0 -0.13531423799E+02 -0.16579027205E+02 -0.49575516327E+01  0.21966813408E+02  0.00000000000E+00 0.  1.
<mgrwt>
<rscale>  0 0.84094329E+02</rscale>
<asrwt>0</asrwt>
<pdfrwt beam="1">  1        2 0.14062117E-01 0.84094329E+02</pdfrwt>
<pdfrwt beam="2">  1       -2 0.29757471E-02 0.84094329E+02</pdfrwt>
<totfact> 0.14907350E+05</totfact>
</mgrwt>
</event>
<event>
 7    1  0.3056193E-009  0.8222327E+02  0.7818608E-02  0.1322858E+00
         -2   -1    0    0    0  501 -0.00000000000E+00  0.00000000000E+00  0.19300979973E+01  0.19300996818E+01  0.25500000000E-02 0.  1.
          2   -1    0    0  501    0  0.00000000000E+00 -0.00000000000E+00 -0.87568913945E+03  0.87568913946E+03  0.25500000000E-02 0. -1.
         23    2    1    2    0    0  0.44408920985E-15  0.00000000000E+00 -0.87375904146E+03  0.87761923914E+03  0.82223271526E+02 0.  0.
    9000005    2    3    3    0    0  0.37286380532E+01  0.33817256235E+02 -0.67455000849E+03  0.67552582416E+03  0.12645773888E+02 0.  0.
         22    1    3    3    0    0 -0.37286380532E+01 -0.33817256235E+02 -0.19920903297E+03  0.20209341498E+03  0.00000000000E+00 0.  1.
         22    1    4    4    0    0 -0.31560643487E+01  0.17914211744E+02 -0.41459238801E+03  0.41499123837E+03  0.00000000000E+00 0. -1.
         22    1    4    4    0    0  0.68847024019E+01  0.15903044492E+02 -0.25995762047E+03  0.26053458579E+03  0.00000000000E+00 0. -1.
<mgrwt>
<rscale>  0 0.82223272E+02</rscale>
<asrwt>0</asrwt>
<pdfrwt beam="2">  1        2 0.13472109E+00 0.82223272E+02</pdfrwt>
<pdfrwt beam="1">  1       -2 0.29693898E-03 0.82223272E+02</pdfrwt>
<totfact> 0.32399800E+05</totfact>
</mgrwt>
</event>
<event>
 7    1  0.3056193E-009  0.9323802E+02  0.7818608E-02  0.1295195E+00
          2   -1    0    0  501    0  0.00000000000E+00  0.00000000000E+00  0.89973023732E+02  0.89973023768E+02  0.25500000000E-02 0.  1.
         -2   -1    0    0    0  501 -0.00000000000E+00 -0.00000000000E+00 -0.24155374331E+02  0.24155374465E+02  0.25500000000E-02 0. -1.
         23    2    1    2    0    0  0.00000000000E+00  0.00000000000E+00  0.65817649401E+02  0.11412839823E+03  0.93238019662E+02 0.  0.
    9000005    2    3    3    0    0 -0.44718006467E+01 -0.39886498059E+02  0.60091261697E+02  0.73585566011E+02  0.13890502671E+02 0.  0.
         22    1    3    3    0    0  0.44718006467E+01  0.39886498059E+02  0.57263877046E+01  0.40542832222E+02  0.00000000000E+00 0. -1.
         22    1    4    4    0    0 -0.47066119023E+01 -0.33951271257E+01  0.61091733585E+01  0.84262140325E+01  0.00000000000E+00 0. -1.
         22    1    4    4    0    0  0.23481125562E+00 -0.36491370933E+02  0.53982088338E+02  0.65159351979E+02  0.00000000000E+00 0. -1.
<mgrwt>
<rscale>  0 0.93238020E+02</rscale>
<asrwt>0</asrwt>
<pdfrwt beam="1">  1        2 0.13842004E-01 0.93238020E+02</pdfrwt>
<pdfrwt beam="2">  1       -2 0.37162115E-02 0.93238020E+02</pdfrwt>
<totfact> 0.11170643E+05</totfact>
</mgrwt>
</event>
<event>
 7    1  0.3056193E-009  0.9264871E+02  0.7818608E-02  0.1296561E+00
          2   -1    0    0  501    0  0.00000000000E+00  0.00000000000E+00  0.18977367970E+03  0.18977367972E+03  0.25500000000E-02 0. -1.
         -2   -1    0    0    0  501 -0.00000000000E+00 -0.00000000000E+00 -0.11307921316E+02  0.11307921603E+02  0.25500000000E-02 0.  1.
         23    2    1    2    0    0  0.00000000000E+00 -0.35527136788E-14  0.17846575839E+03  0.20108160132E+03  0.92648710051E+02 0.  0.
    9000005    2    3    3    0    0  0.31005683943E+02  0.25199640964E+02  0.44956311724E+02  0.61721827035E+02  0.13861443907E+02 0.  0.
         22    1    3    3    0    0 -0.31005683943E+02 -0.25199640964E+02  0.13350944666E+03  0.13935977429E+03  0.00000000000E+00 0. -1.
         22    1    4    4    0    0  0.61040095416E+01  0.12841868488E+02  0.11992922668E+02  0.18601148160E+02  0.00000000000E+00 0. -1.
         22    1    4    4    0    0  0.24901674402E+02  0.12357772476E+02  0.32963389055E+02  0.43120678874E+02  0.00000000000E+00 0. -1.
<mgrwt>
<rscale>  0 0.92648710E+02</rscale>
<asrwt>0</asrwt>
<pdfrwt beam="1">  1        2 0.29195951E-01 0.92648710E+02</pdfrwt>
<pdfrwt beam="2">  1       -2 0.17396802E-02 0.92648710E+02</pdfrwt>
<totfact> 0.14535902E+05</totfact>
</mgrwt>
</event>
<event>
 7    1  0.3056193E-009  0.9140765E+02  0.7818608E-02  0.1299478E+00
         -2   -1    0    0    0  501 -0.00000000000E+00  0.00000000000E+00  0.83714751238E+01  0.83714755122E+01  0.25500000000E-02 0.  1.
          2   -1    0    0  501    0  0.00000000000E+00 -0.00000000000E+00 -0.24951869139E+03  0.24951869140E+03  0.25500000000E-02 0. -1.
         23    2    1    2    0    0  0.17763568394E-14  0.00000000000E+00 -0.24114721626E+03  0.25789016691E+03  0.91407648906E+02 0.  0.
    9000005    2    3    3    0    0  0.81624389849E+01 -0.38942207558E+02 -0.58672117286E+02  0.71127529625E+02  0.57954451152E+01 0.  0.
         22    1    3    3    0    0 -0.81624389849E+01  0.38942207558E+02 -0.18247509898E+03  0.18676263729E+03  0.00000000000E+00 0. -1.
         22    1    4    4    0    0  0.83662518886E+01 -0.28982704581E+02 -0.45994310399E+02  0.55004253695E+02  0.00000000000E+00 0. -1.
         22    1    4    4    0    0 -0.20381290367E+00 -0.99595029768E+01 -0.12677806887E+02  0.16123275930E+02  0.00000000000E+00 0. -1.
<mgrwt>
<rscale>  0 0.91407649E+02</rscale>
<asrwt>0</asrwt>
<pdfrwt beam="2">  1        2 0.38387485E-01 0.91407649E+02</pdfrwt>
<pdfrwt beam="1">  1       -2 0.12879195E-02 0.91407649E+02</pdfrwt>
<totfact> 0.16660782E+05</totfact>
</mgrwt>
</event>
<event>
 7    1  0.3056193E-009  0.9445690E+02  0.7818608E-02  0.1292404E+00
         -2   -1    0    0    0  501 -0.00000000000E+00  0.00000000000E+00  0.44470298448E+02  0.44470298521E+02  0.25500000000E-02 0.  1.
          2   -1    0    0  501    0  0.00000000000E+00 -0.00000000000E+00 -0.50157664280E+02  0.50157664345E+02  0.25500000000E-02 0. -1.
         23    2    1    2    0    0  0.00000000000E+00  0.00000000000E+00 -0.56873658324E+01  0.94627962866E+02  0.94456896128E+02 0.  0.
    9000005    2    3    3    0    0 -0.24523865981E+02 -0.23015974833E+02  0.28689599612E+02  0.46535023121E+02  0.14534791046E+02 0.  0.
         22    1    3    3    0    0  0.24523865981E+02  0.23015974833E+02 -0.34376965445E+02  0.48092939745E+02  0.00000000000E+00 0. -1.
         22    1    4    4    0    0 -0.38657156984E+01 -0.11548820129E+02  0.14650356317E+02  0.19051297710E+02  0.00000000000E+00 0.  1.
         22    1    4    4    0    0 -0.20658150283E+02 -0.11467154704E+02  0.14039243295E+02  0.27483725410E+02  0.00000000000E+00 0.  1.
<mgrwt>
<rscale>  0 0.94456896E+02</rscale>
<asrwt>0</asrwt>
<pdfrwt beam="2">  1        2 0.77165637E-02 0.94456896E+02</pdfrwt>
<pdfrwt beam="1">  1       -2 0.68415844E-02 0.94456896E+02</pdfrwt>
<totfact> 0.91421388E+04</totfact>
</mgrwt>
</event>
<event>
 7    1  0.3056193E-009  0.9139366E+02  0.7818608E-02  0.1299511E+00
         -2   -1    0    0    0  501 -0.00000000000E+00  0.00000000000E+00  0.90046342174E+01  0.90046345784E+01  0.25500000000E-02 0. -1.
          2   -1    0    0  501    0  0.00000000000E+00 -0.00000000000E+00 -0.23190283070E+03  0.23190283071E+03  0.25500000000E-02 0.  1.
         23    2    1    2    0    0  0.00000000000E+00  0.00000000000E+00 -0.22289819648E+03  0.24090746529E+03  0.91393658633E+02 0.  0.
    9000005    2    3    3    0    0  0.36970625656E+02 -0.35352743800E+01 -0.51115381893E+02  0.65155763410E+02  0.15911188299E+02 0.  0.
         22    1    3    3    0    0 -0.36970625656E+02  0.35352743800E+01 -0.17178281459E+03  0.17575170188E+03  0.00000000000E+00 0.  1.
         22    1    4    4    0    0  0.30729988792E+02 -0.97731165605E+00 -0.29872343338E+02  0.42867752982E+02  0.00000000000E+00 0. -1.
         22    1    4    4    0    0  0.62406368640E+01 -0.25579627239E+01 -0.21243038555E+02  0.22288010427E+02  0.00000000000E+00 0. -1.
<mgrwt>
<rscale>  0 0.91393659E+02</rscale>
<asrwt>0</asrwt>
<pdfrwt beam="2">  1        2 0.35677354E-01 0.91393659E+02</pdfrwt>
<pdfrwt beam="1">  1       -2 0.13853285E-02 0.91393659E+02</pdfrwt>
<totfact> 0.16223082E+05</totfact>
</mgrwt>
</event>
<event>
 7    1  0.3056193E-009  0.9239785E+02  0.7818608E-02  0.1297147E+00
         -2   -1    0    0    0  501 -0.00000000000E+00  0.00000000000E+00  0.13284391981E+02  0.13284392226E+02  0.25500000000E-02 0.  1.
          2   -1    0    0  501    0  0.00000000000E+00 -0.00000000000E+00 -0.16066529804E+03  0.16066529806E+03  0.25500000000E-02 0. -1.
         23    2    1    2    0    0  0.00000000000E+00  0.00000000000E+00 -0.14738090606E+03  0.17394969029E+03  0.92397853221E+02 0.  0.
    9000005    2    3    3    0    0  0.19262108887E+02 -0.41745382850E+02 -0.76113067523E+02  0.89139250848E+02  0.62370799156E+01 0.  0.
         22    1    3    3    0    0 -0.19262108887E+02  0.41745382850E+02 -0.71267838535E+02  0.84810439437E+02  0.00000000000E+00 0. -1.
         22    1    4    4    0    0  0.15953776183E+02 -0.29270221578E+02 -0.58016945590E+02  0.66912142555E+02  0.00000000000E+00 0.  1.
         22    1    4    4    0    0  0.33083327048E+01 -0.12475161272E+02 -0.18096121933E+02  0.22227108293E+02  0.00000000000E+00 0.  1.
<mgrwt>
<rscale>  0 0.92397853E+02</rscale>
<asrwt>0</asrwt>
<pdfrwt beam="2">  1        2 0.24717737E-01 0.92397853E+02</pdfrwt>
<pdfrwt beam="1">  1       -2 0.20437527E-02 0.92397853E+02</pdfrwt>
<totfact> 0.13806727E+05</totfact>
</mgrwt>
</event>
<event>
 7    1  0.3056193E-009  0.9048521E+02  0.7818608E-02  0.1301681E+00
          2   -1    0    0  501    0  0.00000000000E+00  0.00000000000E+00  0.23777092813E+02  0.23777092950E+02  0.25500000000E-02 0. -1.
         -2   -1    0    0    0  501 -0.00000000000E+00 -0.00000000000E+00 -0.86086778645E+02  0.86086778683E+02  0.25500000000E-02 0.  1.
         23    2    1    2    0    0  0.00000000000E+00  0.35527136788E-14 -0.62309685832E+02  0.10986387163E+03  0.90485210624E+02 0.  0.
    9000005    2    3    3    0    0  0.30213239422E+02  0.31948361928E+02 -0.22110843928E+02  0.50286320855E+02  0.10309557685E+02 0.  0.
         22    1    3    3    0    0 -0.30213239422E+02 -0.31948361928E+02 -0.40198841904E+02  0.59577550778E+02  0.00000000000E+00 0.  1.
         22    1    4    4    0    0  0.23921453957E+02  0.24793567449E+02 -0.21766947941E+02  0.40752386052E+02  0.00000000000E+00 0. -1.
         22    1    4    4    0    0  0.62917854655E+01  0.71547944788E+01 -0.34389598698E+00  0.95339348030E+01  0.00000000000E+00 0. -1.
<mgrwt>
<rscale>  0 0.90485211E+02</rscale>
<asrwt>0</asrwt>
<pdfrwt beam="1">  1        2 0.36580143E-02 0.90485211E+02</pdfrwt>
<pdfrwt beam="2">  1       -2 0.13244120E-01 0.90485211E+02</pdfrwt>
<totfact> 0.84933899E+04</totfact>
</mgrwt>
</event>
<event>
 7    1  0.3056193E-009  0.9176483E+02  0.7818608E-02  0.1298633E+00
         -2   -1    0    0    0  501 -0.00000000000E+00  0.00000000000E+00  0.34319464647E+01  0.34319474120E+01  0.25500000000E-02 0.  1.
          2   -1    0    0  501    0  0.00000000000E+00 -0.00000000000E+00 -0.61341158725E+03  0.61341158725E+03  0.25500000000E-02 0. -1.
         23    2    1    2    0    0  0.00000000000E+00  0.35527136788E-14 -0.60997964078E+03  0.61684353466E+03  0.91764830345E+02 0.  0.
    9000005    2    3    3    0    0 -0.42472412916E+01  0.18598714761E+02 -0.58516224347E+03  0.58554090764E+03  0.89079787487E+01 0.  0.
         22    1    3    3    0    0  0.42472412916E+01 -0.18598714761E+02 -0.24817397311E+02  0.31302627025E+02  0.00000000000E+00 0.  1.
         22    1    4    4    0    0 -0.26569794387E+01  0.15618777779E+02 -0.54702464374E+03  0.54725402385E+03  0.00000000000E+00 0. -1.
         22    1    4    4    0    0 -0.15902618529E+01  0.29799369824E+01 -0.38137599728E+02  0.38286883788E+02  0.00000000000E+00 0. -1.
<mgrwt>
<rscale>  0 0.91764830E+02</rscale>
<asrwt>0</asrwt>
<pdfrwt beam="2">  1        2 0.94370927E-01 0.91764830E+02</pdfrwt>
<pdfrwt beam="1">  1       -2 0.52799232E-03 0.91764830E+02</pdfrwt>
<totfact> 0.22540408E+05</totfact>
</mgrwt>
</event>
<event>
 7    1  0.3056193E-009  0.9098099E+02  0.7818608E-02  0.1300493E+00
         -2   -1    0    0    0  501 -0.00000000000E+00  0.00000000000E+00  0.83917746964E+02  0.83917747003E+02  0.25500000000E-02 0. -1.
          2   -1    0    0  501    0  0.00000000000E+00 -0.00000000000E+00 -0.24659681843E+02  0.24659681975E+02  0.25500000000E-02 0.  1.
         23    2    1    2    0    0  0.00000000000E+00  0.00000000000E+00  0.59258065121E+02  0.10857742898E+03  0.90980985933E+02 0.  0.
    9000005    2    3    3    0    0  0.16937881857E+02 -0.19085856630E+02  0.73469096853E+02  0.79369293330E+02  0.15830816978E+02 0.  0.
         22    1    3    3    0    0 -0.16937881857E+02  0.19085856630E+02 -0.14211031732E+02  0.29208135647E+02  0.00000000000E+00 0.  1.
         22    1    4    4    0    0 -0.16190947964E+01 -0.15174087882E+01  0.83470340351E+00  0.23708072807E+01  0.00000000000E+00 0. -1.
         22    1    4    4    0    0  0.18556976653E+02 -0.17568447841E+02  0.72634393450E+02  0.76998486049E+02  0.00000000000E+00 0. -1.
<mgrwt>
<rscale>  0 0.90980986E+02</rscale>
<asrwt>0</asrwt>
<pdfrwt beam="2">  1        2 0.37937973E-02 0.90980986E+02</pdfrwt>
<pdfrwt beam="1">  1       -2 0.12910422E-01 0.90980986E+02</pdfrwt>
<totfact> 0.84401373E+04</totfact>
</mgrwt>
</event>
<event>
 7    1  0.3056193E-009  0.9225932E+02  0.7818608E-02  0.1297471E+00
         -2   -1    0    0    0  501 -0.00000000000E+00  0.00000000000E+00  0.16424103737E+02  0.16424103935E+02  0.25500000000E-02 0.  1.
          2   -1    0    0  501    0  0.00000000000E+00 -0.00000000000E+00 -0.12956234323E+03  0.12956234326E+03  0.25500000000E-02 0. -1.
         23    2    1    2    0    0 -0.35527136788E-14  0.88817841970E-15 -0.11313823950E+03  0.14598644719E+03  0.92259316755E+02 0.  0.
    9000005    2    3    3    0    0  0.31677003132E+02  0.79269787735E+01 -0.92143164645E+01  0.37053204801E+02  0.14891837973E+02 0.  0.
         22    1    3    3    0    0 -0.31677003132E+02 -0.79269787735E+01 -0.10392392303E+03  0.10893324239E+03  0.00000000000E+00 0. -1.
         22    1    4    4    0    0  0.22406560888E+02  0.98910718390E+01 -0.10011083409E+01  0.24513047360E+02  0.00000000000E+00 0.  1.
         22    1    4    4    0    0  0.92704422441E+01 -0.19640930655E+01 -0.82132081235E+01  0.12540157441E+02  0.00000000000E+00 0.  1.
<mgrwt>
<rscale>  0 0.92259317E+02</rscale>
<asrwt>0</asrwt>
<pdfrwt beam="2">  1        2 0.19932668E-01 0.92259317E+02</pdfrwt>
<pdfrwt beam="1">  1       -2 0.25267853E-02 0.92259317E+02</pdfrwt>
<totfact> 0.12890996E+05</totfact>
</mgrwt>
</event>
<event>
 7    1  0.3056193E-009  0.9267495E+02  0.7818608E-02  0.1296500E+00
          2   -1    0    0  501    0  0.00000000000E+00  0.00000000000E+00  0.20722740754E+03  0.20722740755E+03  0.25500000000E-02 0. -1.
         -2   -1    0    0    0  501 -0.00000000000E+00 -0.00000000000E+00 -0.10361377833E+02  0.10361378147E+02  0.25500000000E-02 0.  1.
         23    2    1    2    0    0  0.00000000000E+00  0.00000000000E+00  0.19686602971E+03  0.21758878570E+03  0.92674948129E+02 0.  0.
    9000005    2    3    3    0    0 -0.33044820100E+02 -0.24296383460E+02  0.14781606765E+03  0.15364996211E+03  0.87433755467E+01 0.  0.
         22    1    3    3    0    0  0.33044820100E+02  0.24296383460E+02  0.49049962060E+02  0.63938823595E+02  0.00000000000E+00 0.  1.
         22    1    4    4    0    0 -0.10506490251E+02 -0.47534203786E+01  0.30700657385E+02  0.32794995145E+02  0.00000000000E+00 0.  1.
         22    1    4    4    0    0 -0.22538329850E+02 -0.19542963082E+02  0.11711541026E+03  0.12085496696E+03  0.00000000000E+00 0.  1.
<mgrwt>
<rscale>  0 0.92674948E+02</rscale>
<asrwt>0</asrwt>
<pdfrwt beam="1">  1        2 0.31881139E-01 0.92674948E+02</pdfrwt>
<pdfrwt beam="2">  1       -2 0.15940582E-02 0.92674948E+02</pdfrwt>
<totfact> 0.14995146E+05</totfact>
</mgrwt>
</event>
<event>
 7    1  0.3056193E-009  0.9125986E+02  0.7818608E-02  0.1299829E+00
         -2   -1    0    0    0  501 -0.00000000000E+00  0.00000000000E+00  0.42926890008E+03  0.42926890009E+03  0.25500000000E-02 0. -1.
          2   -1    0    0  501    0  0.00000000000E+00 -0.00000000000E+00 -0.48503167718E+01  0.48503174421E+01  0.25500000000E-02 0.  1.
         23    2    1    2    0    0  0.00000000000E+00  0.00000000000E+00  0.42441858331E+03  0.43411921753E+03  0.91259855200E+02 0.  0.
    9000005    2    3    3    0    0  0.45474534015E+01 -0.44600084340E+02  0.17472241188E+03  0.18043038277E+03  0.41659282273E+01 0.  0.
         22    1    3    3    0    0 -0.45474534015E+01  0.44600084340E+02  0.24969617143E+03  0.25368883476E+03  0.00000000000E+00 0. -1.
         22    1    4    4    0    0  0.25540963429E+00 -0.77633925124E+01  0.36651846928E+02  0.37465896234E+02  0.00000000000E+00 0. -1.
         22    1    4    4    0    0  0.42920437672E+01 -0.36836691827E+02  0.13807056495E+03  0.14296448653E+03  0.00000000000E+00 0. -1.
<mgrwt>
<rscale>  0 0.91259855E+02</rscale>
<asrwt>0</asrwt>
<pdfrwt beam="2">  1        2 0.74620313E-03 0.91259855E+02</pdfrwt>
<pdfrwt beam="1">  1       -2 0.66041325E-01 0.91259855E+02</pdfrwt>
<totfact> 0.40561053E+04</totfact>
</mgrwt>
</event>
<event>
 7    1  0.3056193E-009  0.8414601E+02  0.7818608E-02  0.1317681E+00
          2   -1    0    0  501    0  0.00000000000E+00  0.00000000000E+00  0.53055015182E+02  0.53055015243E+02  0.25500000000E-02 0. -1.
         -2   -1    0    0    0  501 -0.00000000000E+00 -0.00000000000E+00 -0.33364195868E+02  0.33364195966E+02  0.25500000000E-02 0.  1.
         23    2    1    2    0    0  0.00000000000E+00 -0.71054273576E-14  0.19690819313E+02  0.86419211209E+02  0.84146014170E+02 0.  0.
    9000005    2    3    3    0    0 -0.12493518990E+02 -0.39860933669E+02  0.13040323892E+02  0.44120143382E+02  0.56173797357E+01 0.  0.
         22    1    3    3    0    0  0.12493518990E+02  0.39860933669E+02  0.66504954215E+01  0.42299067827E+02  0.00000000000E+00 0. -1.
         22    1    4    4    0    0 -0.13414827802E+01 -0.11313826491E+01 -0.15842256511E-01  0.17549512031E+01  0.00000000000E+00 0.  1.
         22    1    4    4    0    0 -0.11152036210E+02 -0.38729551020E+02  0.13056166148E+02  0.42365192178E+02  0.00000000000E+00 0.  1.
<mgrwt>
<rscale>  0 0.84146014E+02</rscale>
<asrwt>0</asrwt>
<pdfrwt beam="1">  1        2 0.81623099E-02 0.84146014E+02</pdfrwt>
<pdfrwt beam="2">  1       -2 0.51329533E-02 0.84146014E+02</pdfrwt>
<totfact> 0.12870945E+05</totfact>
</mgrwt>
</event>
<event>
 7    1  0.3056193E-009  0.9087535E+02  0.7818608E-02  0.1300746E+00
          2   -1    0    0  501    0  0.00000000000E+00  0.00000000000E+00  0.82795172104E+03  0.82795172104E+03  0.25500000000E-02 0. -1.
         -2   -1    0    0    0  501 -0.00000000000E+00 -0.00000000000E+00 -0.24936013820E+01  0.24936026859E+01  0.25500000000E-02 0.  1.
         23    2    1    2    0    0  0.00000000000E+00  0.00000000000E+00  0.82545811966E+03  0.83044532373E+03  0.90875345366E+02 0.  0.
    9000005    2    3    3    0    0 -0.71114325097E+01  0.12996229741E+02  0.80525152211E+03  0.80538976458E+03  0.17845368747E+01 0.  0.
         22    1    3    3    0    0  0.71114325097E+01 -0.12996229741E+02  0.20206597551E+02  0.25055559152E+02  0.00000000000E+00 0.  1.
         22    1    4    4    0    0 -0.85315111352E+00  0.85931991638E+00  0.87224143551E+02  0.87232548488E+02  0.00000000000E+00 0. -1.
         22    1    4    4    0    0 -0.62582813962E+01  0.12136909824E+02  0.71802737856E+03  0.71815721609E+03  0.00000000000E+00 0. -1.
<mgrwt>
<rscale>  0 0.90875345E+02</rscale>
<asrwt>0</asrwt>
<pdfrwt beam="1">  1        2 0.12737714E+00 0.90875345E+02</pdfrwt>
<pdfrwt beam="2">  1       -2 0.38363122E-03 0.90875345E+02</pdfrwt>
<totfact> 0.24729135E+05</totfact>
</mgrwt>
</event>
<event>
 7    1  0.3056193E-009  0.9002401E+02  0.7818608E-02  0.1302794E+00
         -2   -1    0    0    0  501 -0.00000000000E+00  0.00000000000E+00  0.94036227792E+01  0.94036231249E+01  0.25500000000E-02 0.  1.
          2   -1    0    0  501    0  0.00000000000E+00 -0.00000000000E+00 -0.21545743316E+03  0.21545743317E+03  0.25500000000E-02 0. -1.
         23    2    1    2    0    0  0.00000000000E+00  0.00000000000E+00 -0.20605381038E+03  0.22486105630E+03  0.90024007174E+02 0.  0.
    9000005    2    3    3    0    0  0.17658641046E+02 -0.34041493055E+02 -0.47261546158E+02  0.61503674985E+02  0.88542328000E+01 0.  0.
         22    1    3    3    0    0 -0.17658641046E+02  0.34041493055E+02 -0.15879226422E+03  0.16335738131E+03  0.00000000000E+00 0. -1.
         22    1    4    4    0    0  0.11789502073E+02 -0.26482680709E+02 -0.40417594393E+02  0.49738382294E+02  0.00000000000E+00 0.  1.
         22    1    4    4    0    0  0.58691389731E+01 -0.75588123453E+01 -0.68439517650E+01  0.11765292692E+02  0.00000000000E+00 0.  1.
<mgrwt>
<rscale>  0 0.90024007E+02</rscale>
<asrwt>0</asrwt>
<pdfrwt beam="2">  1        2 0.33147294E-01 0.90024007E+02</pdfrwt>
<pdfrwt beam="1">  1       -2 0.14467114E-02 0.90024007E+02</pdfrwt>
<totfact> 0.16444399E+05</totfact>
</mgrwt>
</event>
<event>
 7    1  0.3056193E-009  0.9074410E+02  0.7818608E-02  0.1301060E+00
          2   -1    0    0  501    0  0.00000000000E+00  0.00000000000E+00  0.89130184514E+02  0.89130184550E+02  0.25500000000E-02 0. -1.
         -2   -1    0    0    0  501 -0.00000000000E+00 -0.00000000000E+00 -0.23096807212E+02  0.23096807353E+02  0.25500000000E-02 0.  1.
         23    2    1    2    0    0  0.71054273576E-14  0.35527136788E-14  0.66033377302E+02  0.11222699190E+03  0.90744095090E+02 0.  0.
    9000005    2    3    3    0    0 -0.32794264715E+02 -0.22842273611E+02  0.59516275142E+02  0.71733709961E+02  0.25109512271E+01 0.  0.
         22    1    3    3    0    0  0.32794264715E+02  0.22842273611E+02  0.65171021601E+01  0.40493281942E+02  0.00000000000E+00 0.  1.
         22    1    4    4    0    0 -0.48510078385E+01 -0.31507174003E+01  0.10242241903E+02  0.11762772478E+02  0.00000000000E+00 0.  1.
         22    1    4    4    0    0 -0.27943256876E+02 -0.19691556210E+02  0.49274033239E+02  0.59970937482E+02  0.00000000000E+00 0.  1.
<mgrwt>
<rscale>  0 0.90744095E+02</rscale>
<asrwt>0</asrwt>
<pdfrwt beam="1">  1        2 0.13712336E-01 0.90744095E+02</pdfrwt>
<pdfrwt beam="2">  1       -2 0.35533549E-02 0.90744095E+02</pdfrwt>
<totfact> 0.12008681E+05</totfact>
</mgrwt>
</event>
<event>
 7    1  0.3056193E-009  0.9581573E+02  0.7818608E-02  0.1289349E+00
          2   -1    0    0  501    0  0.00000000000E+00  0.00000000000E+00  0.11227212074E+04  0.11227212074E+04  0.25500000000E-02 0. -1.
         -2   -1    0    0    0  501 -0.00000000000E+00 -0.00000000000E+00 -0.20442856106E+01  0.20442872010E+01  0.25500000000E-02 0.  1.
         23    2    1    2    0    0  0.00000000000E+00  0.88817841970E-15  0.11206769218E+04  0.11247654946E+04  0.95815733680E+02 0.  0.
    9000005    2    3    3    0    0 -0.37786375377E+02 -0.62154098991E+01  0.89009069547E+03  0.89102108451E+03  0.13808887936E+02 0.  0.
         22    1    3    3    0    0  0.37786375377E+02  0.62154098991E+01  0.23058622634E+03  0.23374441012E+03  0.00000000000E+00 0.  1.
         22    1    4    4    0    0 -0.29409808432E+02 -0.10387561360E+02  0.71603760868E+03  0.71671660739E+03  0.00000000000E+00 0. -1.
         22    1    4    4    0    0 -0.83765669450E+01  0.41721514605E+01  0.17405308679E+03  0.17430447712E+03  0.00000000000E+00 0. -1.
<mgrwt>
<rscale>  0 0.95815734E+02</rscale>
<asrwt>0</asrwt>
<pdfrwt beam="1">  1        2 0.17272692E+00 0.95815734E+02</pdfrwt>
<pdfrwt beam="2">  1       -2 0.31450454E-03 0.95815734E+02</pdfrwt>
<totfact> 0.21930249E+05</totfact>
</mgrwt>
</event>
<event>
 7    1  0.3056193E-009  0.9115528E+02  0.7818608E-02  0.1300078E+00
          2   -1    0    0  501    0  0.00000000000E+00  0.00000000000E+00  0.10446659505E+04  0.10446659505E+04  0.25500000000E-02 0. -1.
         -2   -1    0    0    0  501 -0.00000000000E+00 -0.00000000000E+00 -0.19885021452E+01  0.19885037802E+01  0.25500000000E-02 0.  1.
         23    2    1    2    0    0  0.00000000000E+00  0.00000000000E+00  0.10426774483E+04  0.10466544543E+04  0.91155281599E+02 0.  0.
    9000005    2    3    3    0    0  0.14813541672E+02 -0.28556367397E+02  0.89114775166E+03  0.89174752701E+03  0.58676664251E+01 0.  0.
         22    1    3    3    0    0 -0.14813541672E+02  0.28556367397E+02  0.15152969668E+03  0.15490692725E+03  0.00000000000E+00 0.  1.
         22    1    4    4    0    0  0.11398050042E+02 -0.15728020150E+02  0.52499770816E+03  0.52535690700E+03  0.00000000000E+00 0. -1.
         22    1    4    4    0    0  0.34154916301E+01 -0.12828347248E+02  0.36615004350E+03  0.36639062001E+03  0.00000000000E+00 0. -1.
<mgrwt>
<rscale>  0 0.91155282E+02</rscale>
<asrwt>0</asrwt>
<pdfrwt beam="1">  1        2 0.16071761E+00 0.91155282E+02</pdfrwt>
<pdfrwt beam="2">  1       -2 0.30592397E-03 0.91155282E+02</pdfrwt>
<totfact> 0.25046973E+05</totfact>
</mgrwt>
</event>
<event>
 7    1  0.3056193E-009  0.9533888E+02  0.7818608E-02  0.1290415E+00
         -2   -1    0    0    0  501 -0.00000000000E+00  0.00000000000E+00  0.20831951225E+02  0.20831951381E+02  0.25500000000E-02 0. -1.
          2   -1    0    0  501    0  0.00000000000E+00 -0.00000000000E+00 -0.10908125841E+03  0.10908125844E+03  0.25500000000E-02 0.  1.
         23    2    1    2    0    0  0.00000000000E+00  0.00000000000E+00 -0.88249307188E+02  0.12991320982E+03  0.95338879096E+02 0.  0.
    9000005    2    3    3    0    0 -0.19191111467E+02 -0.37176060361E+02 -0.72886121329E+02  0.85344322659E+02  0.14862991102E+02 0.  0.
         22    1    3    3    0    0  0.19191111467E+02  0.37176060361E+02 -0.15363185860E+02  0.44568887164E+02  0.00000000000E+00 0. -1.
         22    1    4    4    0    0 -0.18387101031E+02 -0.38603602699E+02 -0.70333138291E+02  0.82310837485E+02  0.00000000000E+00 0.  1.
         22    1    4    4    0    0 -0.80401043540E+00  0.14275423383E+01 -0.25529830379E+01  0.30334851737E+01  0.00000000000E+00 0.  1.
<mgrwt>
<rscale>  0 0.95338879E+02</rscale>
<asrwt>0</asrwt>
<pdfrwt beam="2">  1        2 0.16781732E-01 0.95338879E+02</pdfrwt>
<pdfrwt beam="1">  1       -2 0.32049157E-02 0.95338879E+02</pdfrwt>
<totfact> 0.11142756E+05</totfact>
</mgrwt>
</event>
<event>
 6    1  0.3056193E-009  0.1352019E+03  0.7818608E-02  0.1219935E+00
         -2   -1    0    0    0  501 -0.00000000000E+00  0.00000000000E+00  0.34095423965E+02  0.34095424060E+02  0.25500000000E-02 0. -1.
          2   -1    0    0  501    0  0.00000000000E+00 -0.00000000000E+00 -0.13403221326E+03  0.13403221329E+03  0.25500000000E-02 0.  1.
    9000005    2    1    2    0    0  0.37189432680E+02 -0.43035415268E+02 -0.50216498409E+01  0.57475097528E+02  0.65626974920E+01 0.  0.
         22    1    1    2    0    0 -0.37189432680E+02  0.43035415268E+02 -0.94915139459E+02  0.11065253982E+03  0.00000000000E+00 0.  1.
         22    1    3    3    0    0  0.22282112060E+02 -0.30526523301E+02 -0.31238566853E+01  0.37922547690E+02  0.00000000000E+00 0. -1.
         22    1    3    3    0    0  0.14907320620E+02 -0.12508891967E+02 -0.18977931557E+01  0.19552549838E+02  0.00000000000E+00 0. -1.
<mgrwt>
<rscale>  0 0.13520185E+03</rscale>
<asrwt>0</asrwt>
<pdfrwt beam="2">  1        2 0.20620340E-01 0.13520185E+03</pdfrwt>
<pdfrwt beam="1">  1       -2 0.52454499E-02 0.13520185E+03</pdfrwt>
<totfact> 0.44598182E+04</totfact>
</mgrwt>
</event>
<event>
 7    1  0.3056193E-009  0.9304145E+02  0.7818608E-02  0.1295649E+00
         -2   -1    0    0    0  501 -0.00000000000E+00  0.00000000000E+00  0.18918937992E+02  0.18918938164E+02  0.25500000000E-02 0.  1.
          2   -1    0    0  501    0  0.00000000000E+00 -0.00000000000E+00 -0.11439215025E+03  0.11439215028E+03  0.25500000000E-02 0. -1.
         23    2    1    2    0    0 -0.71054273576E-14  0.17763568394E-14 -0.95473212255E+02  0.13331108844E+03  0.93041453356E+02 0.  0.
    9000005    2    3    3    0    0  0.33389599693E+02 -0.11647914673E+02 -0.45928686186E+01  0.35793007329E+02  0.30831230378E+01 0.  0.
         22    1    3    3    0    0 -0.33389599693E+02  0.11647914673E+02 -0.90880343636E+02  0.97518081110E+02  0.00000000000E+00 0. -1.
         22    1    4    4    0    0  0.28548444202E+02 -0.99220409144E+01 -0.28137959752E+01  0.30354209099E+02  0.00000000000E+00 0.  1.
         22    1    4    4    0    0  0.48411554905E+01 -0.17258737588E+01 -0.17790726434E+01  0.54387982299E+01  0.00000000000E+00 0.  1.
<mgrwt>
<rscale>  0 0.93041453E+02</rscale>
<asrwt>0</asrwt>
<pdfrwt beam="2">  1        2 0.17598792E-01 0.93041453E+02</pdfrwt>
<pdfrwt beam="1">  1       -2 0.29106059E-02 0.93041453E+02</pdfrwt>
<totfact> 0.12098864E+05</totfact>
</mgrwt>
</event>
<event>
 7    1  0.3056193E-009  0.1272221E+03  0.7818608E-02  0.1231637E+00
         -2   -1    0    0    0  501 -0.00000000000E+00  0.00000000000E+00  0.63980686984E+01  0.63980692066E+01  0.25500000000E-02 0. -1.
          2   -1    0    0  501    0  0.00000000000E+00 -0.00000000000E+00 -0.63243576533E+03  0.63243576534E+03  0.25500000000E-02 0.  1.
         23    2    1    2    0    0  0.00000000000E+00  0.00000000000E+00 -0.62603769663E+03  0.63883383454E+03  0.12722213075E+03 0.  0.
    9000005    2    3    3    0    0 -0.11927927138E+02  0.60229908808E+02 -0.38840204606E+03  0.39339418864E+03  0.11529132945E+02 0.  0.
         22    1    3    3    0    0  0.11927927138E+02 -0.60229908808E+02 -0.23763565057E+03  0.24543964591E+03  0.00000000000E+00 0. -1.
         22    1    4    4    0    0 -0.25887512088E+01  0.86982467436E+01 -0.36226772176E+02  0.37346220043E+02  0.00000000000E+00 0. -1.
         22    1    4    4    0    0 -0.93391759296E+01  0.51531662064E+02 -0.35217527389E+03  0.35604796859E+03  0.00000000000E+00 0. -1.
<mgrwt>
<rscale>  0 0.12722213E+03</rscale>
<asrwt>0</asrwt>
<pdfrwt beam="2">  1        2 0.97297761E-01 0.12722213E+03</pdfrwt>
<pdfrwt beam="1">  1       -2 0.98431880E-03 0.12722213E+03</pdfrwt>
<totfact> 0.94505589E+04</totfact>
</mgrwt>
</event>
<event>
 7    1  0.3056193E-009  0.1131305E+03  0.7818608E-02  0.1254880E+00
          2   -1    0    0  501    0  0.00000000000E+00  0.00000000000E+00  0.82810801520E+03  0.82810801520E+03  0.25500000000E-02 0. -1.
         -2   -1    0    0    0  501 -0.00000000000E+00 -0.00000000000E+00 -0.38637797720E+01  0.38637806134E+01  0.25500000000E-02 0.  1.
         23    2    1    2    0    0  0.00000000000E+00  0.00000000000E+00  0.82424423543E+03  0.83197179581E+03  0.11313049721E+03 0.  0.
    9000005    2    3    3    0    0 -0.33211583025E+02  0.12431631431E+02  0.73473142001E+03  0.73569044336E+03  0.12353711720E+02 0.  0.
         22    1    3    3    0    0  0.33211583025E+02 -0.12431631431E+02  0.89512815416E+02  0.96281352456E+02  0.00000000000E+00 0.  1.
         22    1    4    4    0    0 -0.11347657362E+02  0.82135618966E+01  0.19654120676E+03  0.19703978756E+03  0.00000000000E+00 0. -1.
         22    1    4    4    0    0 -0.21863925663E+02  0.42180695343E+01  0.53819021325E+03  0.53865065580E+03  0.00000000000E+00 0. -1.
<mgrwt>
<rscale>  0 0.11313050E+03</rscale>
<asrwt>0</asrwt>
<pdfrwt beam="1">  1        2 0.12740116E+00 0.11313050E+03</pdfrwt>
<pdfrwt beam="2">  1       -2 0.59442805E-03 0.11313050E+03</pdfrwt>
<totfact> 0.13800567E+05</totfact>
</mgrwt>
</event>
<event>
 7    1  0.3056193E-009  0.9264992E+02  0.7818608E-02  0.1296559E+00
          2   -1    0    0  501    0  0.00000000000E+00  0.00000000000E+00  0.76693582657E+01  0.76693586897E+01  0.25500000000E-02 0. -1.
         -2   -1    0    0    0  501 -0.00000000000E+00 -0.00000000000E+00 -0.27981505524E+03  0.27981505525E+03  0.25500000000E-02 0.  1.
         23    2    1    2    0    0  0.00000000000E+00  0.00000000000E+00 -0.27214569698E+03  0.28748441394E+03  0.92649921088E+02 0.  0.
    9000005    2    3    3    0    0  0.36931777024E+02  0.26061801959E+02 -0.14558500930E+03  0.15309400751E+03  0.14128217434E+02 0.  0.
         22    1    3    3    0    0 -0.36931777024E+02 -0.26061801959E+02 -0.12656068768E+03  0.13439040643E+03  0.00000000000E+00 0.  1.
         22    1    4    4    0    0  0.27999697931E+02  0.16135202902E+02 -0.82338088286E+02  0.88452748061E+02  0.00000000000E+00 0. -1.
         22    1    4    4    0    0  0.89320790937E+01  0.99265990565E+01 -0.63246921014E+02  0.64641259452E+02  0.00000000000E+00 0. -1.
<mgrwt>
<rscale>  0 0.92649921E+02</rscale>
<asrwt>0</asrwt>
<pdfrwt beam="1">  1        2 0.11799015E-02 0.92649921E+02</pdfrwt>
<pdfrwt beam="2">  1       -2 0.43048462E-01 0.92649921E+02</pdfrwt>
<totfact> 0.50849664E+04</totfact>
</mgrwt>
</event>
<event>
 7    1  0.3056193E-009  0.7734330E+02  0.7818608E-02  0.1336764E+00
         -2   -1    0    0    0  501 -0.00000000000E+00  0.00000000000E+00  0.92058725604E+01  0.92058729136E+01  0.25500000000E-02 0.  1.
          2   -1    0    0  501    0  0.00000000000E+00 -0.00000000000E+00 -0.16245025453E+03  0.16245025455E+03  0.25500000000E-02 0. -1.
         23    2    1    2    0    0  0.00000000000E+00  0.00000000000E+00 -0.15324438197E+03  0.17165612746E+03  0.77343296351E+02 0.  0.
    9000005    2    3    3    0    0 -0.32295432220E+02 -0.17824544820E+02 -0.99693222883E+02  0.10662970222E+03  0.83931737999E+01 0.  0.
         22    1    3    3    0    0  0.32295432220E+02  0.17824544820E+02 -0.53551159082E+02  0.65026425239E+02  0.00000000000E+00 0.  1.
         22    1    4    4    0    0 -0.12088141511E+02 -0.79052118503E+01 -0.28316105041E+02  0.31787062530E+02  0.00000000000E+00 0.  1.
         22    1    4    4    0    0 -0.20207290709E+02 -0.99193329693E+01 -0.71377117842E+02  0.74842639690E+02  0.00000000000E+00 0.  1.
<mgrwt>
<rscale>  0 0.77343296E+02</rscale>
<asrwt>0</asrwt>
<pdfrwt beam="2">  1        2 0.24992345E-01 0.77343296E+02</pdfrwt>
<pdfrwt beam="1">  1       -2 0.14162882E-02 0.77343296E+02</pdfrwt>
<totfact> 0.22328592E+05</totfact>
</mgrwt>
</event>
<event>
 7    1  0.3056193E-009  0.8879130E+02  0.7818608E-02  0.1305805E+00
         -2   -1    0    0    0  501 -0.00000000000E+00  0.00000000000E+00  0.26853442765E+01  0.26853454872E+01  0.25500000000E-02 0.  1.
          2   -1    0    0  501    0  0.00000000000E+00 -0.00000000000E+00 -0.73397421474E+03  0.73397421475E+03  0.25500000000E-02 0. -1.
         23    2    1    2    0    0  0.00000000000E+00  0.00000000000E+00 -0.73128887047E+03  0.73665956023E+03  0.88791303724E+02 0.  0.
    9000005    2    3    3    0    0  0.10213530831E+02  0.20576343329E+02 -0.67935652392E+03  0.67987337587E+03  0.13221895043E+02 0.  0.
         22    1    3    3    0    0 -0.10213530831E+02 -0.20576343329E+02 -0.51932346550E+02  0.56786184367E+02  0.00000000000E+00 0.  1.
         22    1    4    4    0    0  0.85291291700E+01  0.21452553921E+02 -0.66381336732E+03  0.66421468272E+03  0.00000000000E+00 0.  1.
         22    1    4    4    0    0  0.16844016608E+01 -0.87621059253E+00 -0.15543156598E+02  0.15658693144E+02  0.00000000000E+00 0.  1.
<mgrwt>
<rscale>  0 0.88791304E+02</rscale>
<asrwt>0</asrwt>
<pdfrwt beam="2">  1        2 0.11291895E+00 0.88791304E+02</pdfrwt>
<pdfrwt beam="1">  1       -2 0.41313057E-03 0.88791304E+02</pdfrwt>
<totfact> 0.25699691E+05</totfact>
</mgrwt>
</event>
<event>
 7    1  0.3056193E-009  0.9113893E+02  0.7818608E-02  0.1300117E+00
          2   -1    0    0  501    0  0.00000000000E+00  0.00000000000E+00  0.13426910619E+03  0.13426910621E+03  0.25500000000E-02 0.  1.
         -2   -1    0    0    0  501 -0.00000000000E+00 -0.00000000000E+00 -0.15465778464E+02  0.15465778675E+02  0.25500000000E-02 0. -1.
         23    2    1    2    0    0  0.00000000000E+00  0.00000000000E+00  0.11880332772E+03  0.14973488488E+03  0.91138932810E+02 0.  0.
    9000005    2    3    3    0    0  0.34284631657E+02 -0.14033627049E+02  0.15871243736E+02  0.40339306503E+02  0.17276039294E+01 0.  0.
         22    1    3    3    0    0 -0.34284631657E+02  0.14033627049E+02  0.10293208398E+03  0.10939557838E+03  0.00000000000E+00 0.  1.
         22    1    4    4    0    0  0.26780298507E+02 -0.11713519146E+02  0.12381108561E+02  0.31744019407E+02  0.00000000000E+00 0. -1.
         22    1    4    4    0    0  0.75043331508E+01 -0.23201079027E+01  0.34901351759E+01  0.85952870961E+01  0.00000000000E+00 0. -1.
<mgrwt>
<rscale>  0 0.91138933E+02</rscale>
<asrwt>0</asrwt>
<pdfrwt beam="1">  1        2 0.20656786E-01 0.91138933E+02</pdfrwt>
<pdfrwt beam="2">  1       -2 0.23793505E-02 0.91138933E+02</pdfrwt>
<totfact> 0.13486000E+05</totfact>
</mgrwt>
</event>
<event>
 7    1  0.3056193E-009  0.7935687E+02  0.7818608E-02  0.1330887E+00
          2   -1    0    0  501    0  0.00000000000E+00  0.00000000000E+00  0.97243575804E+01  0.97243579147E+01  0.25500000000E-02 0. -1.
         -2   -1    0    0    0  501 -0.00000000000E+00 -0.00000000000E+00 -0.16190048915E+03  0.16190048917E+03  0.25500000000E-02 0.  1.
         23    2    1    2    0    0  0.00000000000E+00  0.00000000000E+00 -0.15217613157E+03  0.17162484709E+03  0.79356871898E+02 0.  0.
    9000005    2    3    3    0    0  0.13335353663E+02  0.37035346313E+02 -0.73041867730E+02  0.83241136780E+02  0.66726214606E+01 0.  0.
         22    1    3    3    0    0 -0.13335353663E+02 -0.37035346313E+02 -0.79134263842E+02  0.88383710307E+02  0.00000000000E+00 0.  1.
         22    1    4    4    0    0  0.49071458998E+01  0.82938659439E+01 -0.13455541879E+02  0.16550525684E+02  0.00000000000E+00 0. -1.
         22    1    4    4    0    0  0.84282077631E+01  0.28741480369E+02 -0.59586325851E+02  0.66690611096E+02  0.00000000000E+00 0. -1.
<mgrwt>
<rscale>  0 0.79356872E+02</rscale>
<asrwt>0</asrwt>
<pdfrwt beam="1">  1        2 0.14960552E-02 0.79356872E+02</pdfrwt>
<pdfrwt beam="2">  1       -2 0.24907766E-01 0.79356872E+02</pdfrwt>
<totfact> 0.96515747E+04</totfact>
</mgrwt>
</event>
<event>
 7    1  0.3056193E-009  0.9027878E+02  0.7818608E-02  0.1302178E+00
         -2   -1    0    0    0  501 -0.00000000000E+00  0.00000000000E+00  0.21330601514E+01  0.21330616756E+01  0.25500000000E-02 0. -1.
          2   -1    0    0  501    0  0.00000000000E+00 -0.00000000000E+00 -0.95523033379E+03  0.95523033380E+03  0.25500000000E-02 0.  1.
         23    2    1    2    0    0  0.35527136788E-14  0.00000000000E+00 -0.95309727364E+03  0.95736339547E+03  0.90278779160E+02 0.  0.
    9000005    2    3    3    0    0 -0.26154664452E+02 -0.93434980327E+01 -0.85314032805E+03  0.85361968048E+03  0.68390153787E+01 0.  0.
         22    1    3    3    0    0  0.26154664452E+02  0.93434980327E+01 -0.99956945590E+02  0.10374371499E+03  0.00000000000E+00 0. -1.
         22    1    4    4    0    0 -0.17573025161E+02 -0.35934161525E+01 -0.60160485525E+03  0.60187218387E+03  0.00000000000E+00 0. -1.
         22    1    4    4    0    0 -0.85816392913E+01 -0.57500818802E+01 -0.25153547280E+03  0.25174749661E+03  0.00000000000E+00 0. -1.
<mgrwt>
<rscale>  0 0.90278779E+02</rscale>
<asrwt>0</asrwt>
<pdfrwt beam="2">  1        2 0.14695817E+00 0.90278779E+02</pdfrwt>
<pdfrwt beam="1">  1       -2 0.32816398E-03 0.90278779E+02</pdfrwt>
<totfact> 0.25591506E+05</totfact>
</mgrwt>
</event>
<event>
 7    1  0.3056193E-009  0.9156582E+02  0.7818608E-02  0.1299104E+00
          2   -1    0    0  501    0  0.00000000000E+00  0.00000000000E+00  0.60234423541E+03  0.60234423541E+03  0.25500000000E-02 0. -1.
         -2   -1    0    0    0  501 -0.00000000000E+00 -0.00000000000E+00 -0.34798614812E+01  0.34798624155E+01  0.25500000000E-02 0.  1.
         23    2    1    2    0    0  0.35527136788E-14  0.17763568394E-14  0.59886437392E+03  0.60582409783E+03  0.91565818685E+02 0.  0.
    9000005    2    3    3    0    0 -0.20769763386E+02 -0.95496373998E+01  0.56105235687E+03  0.56163895010E+03  0.11661238302E+02 0.  0.
         22    1    3    3    0    0  0.20769763386E+02  0.95496373998E+01  0.37812017056E+02  0.44185147724E+02  0.00000000000E+00 0.  1.
         22    1    4    4    0    0 -0.12119778282E+01  0.23129191963E+01  0.40343397614E+02  0.40427814886E+02  0.00000000000E+00 0. -1.
         22    1    4    4    0    0 -0.19557785558E+02 -0.11862556596E+02  0.52070895925E+03  0.52121113522E+03  0.00000000000E+00 0. -1.
<mgrwt>
<rscale>  0 0.91565819E+02</rscale>
<asrwt>0</asrwt>
<pdfrwt beam="1">  1        2 0.92668373E-01 0.91565819E+02</pdfrwt>
<pdfrwt beam="2">  1       -2 0.53536321E-03 0.91565819E+02</pdfrwt>
<totfact> 0.22554944E+05</totfact>
</mgrwt>
</event>
<event>
 7    1  0.3056193E-009  0.9738586E+02  0.7818608E-02  0.1285891E+00
          2   -1    0    0  501    0  0.00000000000E+00  0.00000000000E+00  0.63934224152E+03  0.63934224153E+03  0.25500000000E-02 0. -1.
         -2   -1    0    0    0  501 -0.00000000000E+00 -0.00000000000E+00 -0.37085006275E+01  0.37085015042E+01  0.25500000000E-02 0.  1.
         23    2    1    2    0    0  0.00000000000E+00  0.88817841970E-15  0.63563374089E+03  0.64305074303E+03  0.97385859083E+02 0.  0.
    9000005    2    3    3    0    0  0.26116711757E+02  0.77933562590E+01  0.58244217925E+03  0.58328318272E+03  0.15412983023E+02 0.  0.
         22    1    3    3    0    0 -0.26116711757E+02 -0.77933562590E+01  0.53191561644E+02  0.59767560306E+02  0.00000000000E+00 0.  1.
         22    1    4    4    0    0  0.28101746881E+02  0.77385737781E+01  0.52699842997E+03  0.52780388299E+03  0.00000000000E+00 0. -1.
         22    1    4    4    0    0 -0.19850351244E+01  0.54782480880E-01  0.55443749274E+02  0.55479299736E+02  0.00000000000E+00 0. -1.
<mgrwt>
<rscale>  0 0.97385859E+02</rscale>
<asrwt>0</asrwt>
<pdfrwt beam="1">  1        2 0.98360386E-01 0.97385859E+02</pdfrwt>
<pdfrwt beam="2">  1       -2 0.57053839E-03 0.97385859E+02</pdfrwt>
<totfact> 0.19471996E+05</totfact>
</mgrwt>
</event>
<event>
 7    1  0.3056193E-009  0.9049261E+02  0.7818608E-02  0.1301663E+00
         -2   -1    0    0    0  501 -0.00000000000E+00  0.00000000000E+00  0.17355969418E+02  0.17355969606E+02  0.25500000000E-02 0.  1.
          2   -1    0    0  501    0  0.00000000000E+00 -0.00000000000E+00 -0.11795528207E+03  0.11795528209E+03  0.25500000000E-02 0. -1.
         23    2    1    2    0    0  0.00000000000E+00  0.00000000000E+00 -0.10059931265E+03  0.13531125170E+03  0.90492613683E+02 0.  0.
    9000005    2    3    3    0    0  0.14579619760E+02 -0.29910654491E+02 -0.76848282040E+01  0.36618222645E+02  0.13214578344E+02 0.  0.
         22    1    3    3    0    0 -0.14579619760E+02  0.29910654491E+02 -0.92914484443E+02  0.98693029053E+02  0.00000000000E+00 0. -1.
         22    1    4    4    0    0  0.10659022065E+01 -0.34790952395E+01  0.33517762490E+01  0.49471865967E+01  0.00000000000E+00 0.  1.
         22    1    4    4    0    0  0.13513717553E+02 -0.26431559251E+02 -0.11036604453E+02  0.31671036049E+02  0.00000000000E+00 0.  1.
<mgrwt>
<rscale>  0 0.90492614E+02</rscale>
<asrwt>0</asrwt>
<pdfrwt beam="2">  1        2 0.18146966E-01 0.90492614E+02</pdfrwt>
<pdfrwt beam="1">  1       -2 0.26701492E-02 0.90492614E+02</pdfrwt>
<totfact> 0.13183922E+05</totfact>
</mgrwt>
</event>
<event>
 7    1  0.3056193E-009  0.9278290E+02  0.7818608E-02  0.1296249E+00
         -2   -1    0    0    0  501 -0.00000000000E+00  0.00000000000E+00  0.39861584065E+03  0.39861584066E+03  0.25500000000E-02 0.  1.
          2   -1    0    0  501    0  0.00000000000E+00 -0.00000000000E+00 -0.53990991476E+01  0.53990997498E+01  0.25500000000E-02 0. -1.
         23    2    1    2    0    0  0.22204460493E-15  0.00000000000E+00  0.39321674150E+03  0.40401494041E+03  0.92782898613E+02 0.  0.
    9000005    2    3    3    0    0 -0.14324723271E+01  0.45211536162E+02  0.23043766349E+03  0.23506772020E+03  0.10448987699E+02 0.  0.
         22    1    3    3    0    0  0.14324723271E+01 -0.45211536162E+02  0.16277907801E+03  0.16894722021E+03  0.00000000000E+00 0. -1.
         22    1    4    4    0    0 -0.47753407337E+01  0.25736105280E+02  0.14783577603E+03  0.15013516466E+03  0.00000000000E+00 0.  1.
         22    1    4    4    0    0  0.33428684065E+01  0.19475430882E+02  0.82601887467E+02  0.84932555539E+02  0.00000000000E+00 0.  1.
<mgrwt>
<rscale>  0 0.92782899E+02</rscale>
<asrwt>0</asrwt>
<pdfrwt beam="2">  1        2 0.83063061E-03 0.92782899E+02</pdfrwt>
<pdfrwt beam="1">  1       -2 0.61325520E-01 0.92782899E+02</pdfrwt>
<totfact> 0.40901974E+04</totfact>
</mgrwt>
</event>
<event>
 7    1  0.3056193E-009  0.9107011E+02  0.7818608E-02  0.1300281E+00
          2   -1    0    0  501    0  0.00000000000E+00  0.00000000000E+00  0.70116666967E+02  0.70116667013E+02  0.25500000000E-02 0. -1.
         -2   -1    0    0    0  501 -0.00000000000E+00 -0.00000000000E+00 -0.29571302285E+02  0.29571302395E+02  0.25500000000E-02 0.  1.
         23    2    1    2    0    0 -0.35527136788E-14  0.00000000000E+00  0.40545364681E+02  0.99687969408E+02  0.91070108420E+02 0.  0.
    9000005    2    3    3    0    0 -0.24650175624E+02 -0.72505280903E+01 -0.19120895907E+02  0.34724410635E+02  0.13415465620E+02 0.  0.
         22    1    3    3    0    0  0.24650175624E+02  0.72505280903E+01  0.59666260588E+02  0.64963558773E+02  0.00000000000E+00 0. -1.
         22    1    4    4    0    0 -0.12243061667E+01  0.30794045486E+01 -0.14578406990E+01  0.36203532241E+01  0.00000000000E+00 0. -1.
         22    1    4    4    0    0 -0.23425869458E+02 -0.10329932639E+02 -0.17663055208E+02  0.31104057411E+02  0.00000000000E+00 0. -1.
<mgrwt>
<rscale>  0 0.91070108E+02</rscale>
<asrwt>0</asrwt>
<pdfrwt beam="1">  1        2 0.10787179E-01 0.91070108E+02</pdfrwt>
<pdfrwt beam="2">  1       -2 0.45494312E-02 0.91070108E+02</pdfrwt>
<totfact> 0.11103410E+05</totfact>
</mgrwt>
</event>
<event>
 7    1  0.3056193E-009  0.9187124E+02  0.7818608E-02  0.1298382E+00
          2   -1    0    0  501    0  0.00000000000E+00  0.00000000000E+00  0.38551503259E+03  0.38551503260E+03  0.25500000000E-02 0.  1.
         -2   -1    0    0    0  501 -0.00000000000E+00 -0.00000000000E+00 -0.54734079360E+01  0.54734085300E+01  0.25500000000E-02 0. -1.
         23    2    1    2    0    0  0.35527136788E-14  0.17763568394E-14  0.38004162465E+03  0.39098844113E+03  0.91871239386E+02 0.  0.
    9000005    2    3    3    0    0  0.30273172185E+02  0.11847052938E+02  0.32654172010E+03  0.32838606573E+03  0.12292094485E+02 0.  0.
         22    1    3    3    0    0 -0.30273172185E+02 -0.11847052938E+02  0.53499904559E+02  0.62602375396E+02  0.00000000000E+00 0. -1.
         22    1    4    4    0    0  0.15126249524E+02  0.11539505459E+02  0.21084891056E+03  0.21170551881E+03  0.00000000000E+00 0. -1.
         22    1    4    4    0    0  0.15146922661E+02  0.30754747935E+00  0.11569280954E+03  0.11668054692E+03  0.00000000000E+00 0. -1.
<mgrwt>
<rscale>  0 0.91871239E+02</rscale>
<asrwt>0</asrwt>
<pdfrwt beam="1">  1        2 0.59309991E-01 0.91871239E+02</pdfrwt>
<pdfrwt beam="2">  1       -2 0.84206300E-03 0.91871239E+02</pdfrwt>
<totfact> 0.19306245E+05</totfact>
</mgrwt>
</event>
<event>
 7    1  0.3056193E-009  0.9128751E+02  0.7818608E-02  0.1299763E+00
         -2   -1    0    0    0  501 -0.00000000000E+00  0.00000000000E+00  0.20301255904E+02  0.20301256065E+02  0.25500000000E-02 0. -1.
          2   -1    0    0  501    0  0.00000000000E+00 -0.00000000000E+00 -0.10262183882E+03  0.10262183886E+03  0.25500000000E-02 0.  1.
         23    2    1    2    0    0  0.00000000000E+00  0.00000000000E+00 -0.82320582919E+02  0.12292309492E+03  0.91287506771E+02 0.  0.
    9000005    2    3    3    0    0  0.13856939787E+02  0.30957206750E+02 -0.81483597811E+02  0.88995761189E+02  0.11415137643E+02 0.  0.
         22    1    3    3    0    0 -0.13856939787E+02 -0.30957206750E+02 -0.83698510831E+00  0.33927333731E+02  0.00000000000E+00 0. -1.
         22    1    4    4    0    0  0.43900638211E+01  0.93405524631E+01 -0.39585844950E+02  0.40909139579E+02  0.00000000000E+00 0.  1.
         22    1    4    4    0    0  0.94668759663E+01  0.21616654287E+02 -0.41897752861E+02  0.48086621610E+02  0.00000000000E+00 0.  1.
<mgrwt>
<rscale>  0 0.91287507E+02</rscale>
<asrwt>0</asrwt>
<pdfrwt beam="2">  1        2 0.15787975E-01 0.91287507E+02</pdfrwt>
<pdfrwt beam="1">  1       -2 0.31232702E-02 0.91287507E+02</pdfrwt>
<totfact> 0.12323809E+05</totfact>
</mgrwt>
</event>
<event>
 7    1  0.3056193E-009  0.9048255E+02  0.7818608E-02  0.1301687E+00
          2   -1    0    0  501    0  0.00000000000E+00  0.00000000000E+00  0.12060651466E+03  0.12060651469E+03  0.25500000000E-02 0. -1.
         -2   -1    0    0    0  501 -0.00000000000E+00 -0.00000000000E+00 -0.16970667296E+02  0.16970667488E+02  0.25500000000E-02 0.  1.
         23    2    1    2    0    0  0.00000000000E+00  0.00000000000E+00  0.10363584736E+03  0.13757718218E+03  0.90482551889E+02 0.  0.
    9000005    2    3    3    0    0 -0.22583473481E+02  0.15238874696E+02 -0.11915559872E+01  0.29267343888E+02  0.10626431013E+02 0.  0.
         22    1    3    3    0    0  0.22583473481E+02 -0.15238874696E+02  0.10482740335E+03  0.10830983829E+03  0.00000000000E+00 0. -1.
         22    1    4    4    0    0 -0.12140290838E+02  0.14260053647E+02 -0.13575109860E+01  0.18777077188E+02  0.00000000000E+00 0. -1.
         22    1    4    4    0    0 -0.10443182644E+02  0.97882104937E+00  0.16595499873E+00  0.10490266700E+02  0.00000000000E+00 0. -1.
<mgrwt>
<rscale>  0 0.90482552E+02</rscale>
<asrwt>0</asrwt>
<pdfrwt beam="1">  1        2 0.18554849E-01 0.90482552E+02</pdfrwt>
<pdfrwt beam="2">  1       -2 0.26108719E-02 0.90482552E+02</pdfrwt>
<totfact> 0.13281755E+05</totfact>
</mgrwt>
</event>
<event>
 7    1  0.3056193E-009  0.9205306E+02  0.7818608E-02  0.1297955E+00
         -2   -1    0    0    0  501 -0.00000000000E+00  0.00000000000E+00  0.38409634203E+02  0.38409634287E+02  0.25500000000E-02 0.  1.
          2   -1    0    0  501    0  0.00000000000E+00 -0.00000000000E+00 -0.55153907497E+02  0.55153907556E+02  0.25500000000E-02 0. -1.
         23    2    1    2    0    0  0.00000000000E+00  0.71054273576E-14 -0.16744273294E+02  0.93563541843E+02  0.92053059015E+02 0.  0.
    9000005    2    3    3    0    0 -0.25281379274E+02  0.36520361667E+02 -0.15623881294E+02  0.49132243949E+02  0.14035197701E+02 0.  0.
         22    1    3    3    0    0  0.25281379274E+02 -0.36520361667E+02 -0.11203920000E+01  0.44431297894E+02  0.00000000000E+00 0. -1.
         22    1    4    4    0    0 -0.17783374315E+02  0.27941405449E+02 -0.17696014152E+02  0.37551557322E+02  0.00000000000E+00 0.  1.
         22    1    4    4    0    0 -0.74980049596E+01  0.85789562182E+01  0.20721328581E+01  0.11580686627E+02  0.00000000000E+00 0.  1.
<mgrwt>
<rscale>  0 0.92053059E+02</rscale>
<asrwt>0</asrwt>
<pdfrwt beam="2">  1        2 0.84852166E-02 0.92053059E+02</pdfrwt>
<pdfrwt beam="1">  1       -2 0.59091745E-02 0.92053059E+02</pdfrwt>
<totfact> 0.10093819E+05</totfact>
</mgrwt>
</event>
<event>
 7    1  0.3056193E-009  0.1008505E+03  0.7818608E-02  0.1278518E+00
         -2   -1    0    0    0  501 -0.00000000000E+00  0.00000000000E+00  0.18303258257E+01  0.18303276021E+01  0.25500000000E-02 0.  1.
          2   -1    0    0  501    0  0.00000000000E+00 -0.00000000000E+00 -0.13892088889E+04  0.13892088889E+04  0.25500000000E-02 0. -1.
         23    2    1    2    0    0  0.00000000000E+00  0.00000000000E+00 -0.13873785631E+04  0.13910392165E+04  0.10085050607E+03 0.  0.
    9000005    2    3    3    0    0 -0.28720977466E+02  0.71472534777E+01 -0.12527304629E+04  0.12531766449E+04  0.15559973527E+02 0.  0.
         22    1    3    3    0    0  0.28720977466E+02 -0.71472534777E+01 -0.13464810019E+03  0.13786257166E+03  0.00000000000E+00 0.  1.
         22    1    4    4    0    0 -0.25707667964E+02  0.79297693417E+00 -0.10739108657E+04  0.10742188141E+04  0.00000000000E+00 0.  1.
         22    1    4    4    0    0 -0.30133095021E+01  0.63542765435E+01 -0.17881959721E+03  0.17895783082E+03  0.00000000000E+00 0.  1.
<mgrwt>
<rscale>  0 0.10085051E+03</rscale>
<asrwt>0</asrwt>
<pdfrwt beam="2">  1        2 0.21372360E+00 0.10085051E+03</pdfrwt>
<pdfrwt beam="1">  1       -2 0.28158984E-03 0.10085051E+03</pdfrwt>
<totfact> 0.18525437E+05</totfact>
</mgrwt>
</event>
<event>
 7    1  0.3056193E-009  0.9137127E+02  0.7818608E-02  0.1299565E+00
          2   -1    0    0  501    0  0.00000000000E+00  0.00000000000E+00  0.34143728020E+03  0.34143728021E+03  0.25500000000E-02 0.  1.
         -2   -1    0    0    0  501 -0.00000000000E+00 -0.00000000000E+00 -0.61129153116E+01  0.61129158435E+01  0.25500000000E-02 0. -1.
         23    2    1    2    0    0  0.71054273576E-14  0.00000000000E+00  0.33532436489E+03  0.34755019605E+03  0.91371270587E+02 0.  0.
    9000005    2    3    3    0    0 -0.42295597195E+02 -0.14961020368E+02  0.20006716433E+03  0.20504665233E+03  0.21236086154E+01 0.  0.
         22    1    3    3    0    0  0.42295597195E+02  0.14961020368E+02  0.13525720055E+03  0.14250354373E+03  0.00000000000E+00 0. -1.
         22    1    4    4    0    0 -0.65862208459E+01 -0.24289044501E+01  0.27955757415E+02  0.28823640550E+02  0.00000000000E+00 0. -1.
         22    1    4    4    0    0 -0.35709376349E+02 -0.12532115918E+02  0.17211140692E+03  0.17622301178E+03  0.00000000000E+00 0. -1.
<mgrwt>
<rscale>  0 0.91371271E+02</rscale>
<asrwt>0</asrwt>
<pdfrwt beam="1">  1        2 0.52528820E-01 0.91371271E+02</pdfrwt>
<pdfrwt beam="2">  1       -2 0.94044841E-03 0.91371271E+02</pdfrwt>
<totfact> 0.18741069E+05</totfact>
</mgrwt>
</event>
<event>
 7    1  0.3056193E-009  0.9209784E+02  0.7818608E-02  0.1297850E+00
         -2   -1    0    0    0  501 -0.00000000000E+00  0.00000000000E+00  0.27505369814E+02  0.27505369932E+02  0.25500000000E-02 0.  1.
          2   -1    0    0  501    0  0.00000000000E+00 -0.00000000000E+00 -0.77094149283E+02  0.77094149325E+02  0.25500000000E-02 0. -1.
         23    2    1    2    0    0  0.17763568394E-14  0.00000000000E+00 -0.49588779469E+02  0.10459951926E+03  0.92097841340E+02 0.  0.
    9000005    2    3    3    0    0 -0.15092736757E+02  0.28283022561E+02 -0.60977149952E+02  0.70578716058E+02  0.15343476665E+02 0.  0.
         22    1    3    3    0    0  0.15092736757E+02 -0.28283022561E+02  0.11388370482E+02  0.34020803199E+02  0.00000000000E+00 0.  1.
         22    1    4    4    0    0 -0.25734346763E+01  0.19354528636E+02 -0.40598490258E+02  0.45049503394E+02  0.00000000000E+00 0.  1.
         22    1    4    4    0    0 -0.12519302081E+02  0.89284939249E+01 -0.20378659693E+02  0.25529212664E+02  0.00000000000E+00 0.  1.
<mgrwt>
<rscale>  0 0.92097841E+02</rscale>
<asrwt>0</asrwt>
<pdfrwt beam="2">  1        2 0.11860638E-01 0.92097841E+02</pdfrwt>
<pdfrwt beam="1">  1       -2 0.42315954E-02 0.92097841E+02</pdfrwt>
<totfact> 0.11051079E+05</totfact>
</mgrwt>
</event>
<event>
 6    1  0.4638235E-009  0.1872490E+03  0.7818608E-02  0.1160966E+00
          2   -1    0    0  501    0  0.00000000000E+00  0.00000000000E+00  0.11628944008E+04  0.11628944008E+04  0.25500000000E-02 0. -1.
         -2   -1    0    0    0  501 -0.00000000000E+00 -0.00000000000E+00 -0.75377010155E+01  0.75377014468E+01  0.25500000000E-02 0.  1.
    9000005    2    1    2    0    0 -0.20452621640E+02  0.55623791782E+02  0.10294132758E+04  0.10312413627E+04  0.15960567198E+02 0.  0.
         22    1    1    2    0    0  0.20452621640E+02 -0.55623791782E+02  0.12594342395E+03  0.13919073957E+03  0.00000000000E+00 0.  1.
         22    1    3    3    0    0 -0.96082836963E+01  0.40851749288E+02  0.79852265002E+03  0.79962466641E+03  0.00000000000E+00 0.  1.
         22    1    3    3    0    0 -0.10844337944E+02  0.14772042494E+02  0.23089062582E+03  0.23161669628E+03  0.00000000000E+00 0.  1.
<mgrwt>
<rscale>  0 0.18724904E+03</rscale>
<asrwt>0</asrwt>
<pdfrwt beam="1">  1        2 0.17890690E+00 0.18724904E+03</pdfrwt>
<pdfrwt beam="2">  1       -2 0.11596459E-02 0.18724904E+03</pdfrwt>
<totfact> 0.35107215E+04</totfact>
</mgrwt>
</event>
<event>
 7    1  0.4760873E-009  0.8896680E+02  0.7818608E-02  0.1305373E+00
          2   -1    0    0  501    0  0.00000000000E+00  0.00000000000E+00  0.47857956646E+03  0.47857956647E+03  0.25500000000E-02 0. -1.
         -2   -1    0    0    0  501 -0.00000000000E+00 -0.00000000000E+00 -0.41346788752E+01  0.41346796616E+01  0.25500000000E-02 0.  1.
         23    2    1    2    0    0  0.00000000000E+00 -0.35527136788E-14  0.47444488759E+03  0.48271424613E+03  0.88966803134E+02 0.  0.
    9000005    2    3    3    0    0 -0.56620412484E+01 -0.18581169818E+02  0.45362904195E+03  0.45424289189E+03  0.13415608307E+02 0.  0.
         22    1    3    3    0    0  0.56620412484E+01  0.18581169818E+02  0.20815845636E+02  0.28471354243E+02  0.00000000000E+00 0.  1.
         22    1    4    4    0    0  0.26236040866E+01 -0.21428842258E+01  0.26262396329E+02  0.26479968130E+02  0.00000000000E+00 0.  1.
         22    1    4    4    0    0 -0.82856453349E+01 -0.16438285592E+02  0.42736664562E+03  0.42776292376E+03  0.00000000000E+00 0.  1.
<mgrwt>
<rscale>  0 0.88966803E+02</rscale>
<asrwt>0</asrwt>
<pdfrwt beam="1">  1        2 0.73627607E-01 0.88966803E+02</pdfrwt>
<pdfrwt beam="2">  1       -2 0.63610466E-03 0.88966803E+02</pdfrwt>
<totfact> 0.22665089E+05</totfact>
</mgrwt>
</event>
<event>
 7    1  0.3056193E-009  0.9059246E+02  0.7818608E-02  0.1301423E+00
         -2   -1    0    0    0  501 -0.00000000000E+00  0.00000000000E+00  0.16034705288E+02  0.16034705491E+02  0.25500000000E-02 0.  1.
          2   -1    0    0  501    0  0.00000000000E+00 -0.00000000000E+00 -0.12795673373E+03  0.12795673376E+03  0.25500000000E-02 0. -1.
         23    2    1    2    0    0  0.00000000000E+00  0.00000000000E+00 -0.11192202844E+03  0.14399143925E+03  0.90592461749E+02 0.  0.
    9000005    2    3    3    0    0  0.39357659294E+02  0.19335630487E+02 -0.73329592120E+02  0.85576816996E+02  0.48239584546E+01 0.  0.
         22    1    3    3    0    0 -0.39357659294E+02 -0.19335630487E+02 -0.38592436322E+02  0.58414622251E+02  0.00000000000E+00 0.  1.
         22    1    4    4    0    0  0.96372522555E+01  0.51672403526E+01 -0.14509333671E+02  0.18168592886E+02  0.00000000000E+00 0. -1.
         22    1    4    4    0    0  0.29720407039E+02  0.14168390135E+02 -0.58820258449E+02  0.67408224110E+02  0.00000000000E+00 0. -1.
<mgrwt>
<rscale>  0 0.90592462E+02</rscale>
<asrwt>0</asrwt>
<pdfrwt beam="2">  1        2 0.19685651E-01 0.90592462E+02</pdfrwt>
<pdfrwt beam="1">  1       -2 0.24668778E-02 0.90592462E+02</pdfrwt>
<totfact> 0.13493520E+05</totfact>
</mgrwt>
</event>
<event>
 7    1  0.3056193E-009  0.8644568E+02  0.7818608E-02  0.1311695E+00
         -2   -1    0    0    0  501 -0.00000000000E+00  0.00000000000E+00  0.43375228646E+01  0.43375236141E+01  0.25500000000E-02 0.  1.
          2   -1    0    0  501    0  0.00000000000E+00 -0.00000000000E+00 -0.43070980177E+03  0.43070980177E+03  0.25500000000E-02 0. -1.
         23    2    1    2    0    0 -0.35527136788E-14 -0.71054273576E-14 -0.42637227890E+03  0.43504732539E+03  0.86445677228E+02 0.  0.
    9000005    2    3    3    0    0 -0.24611665903E+02 -0.34910581976E+02 -0.23563074394E+03  0.23958168648E+03  0.72838298068E+01 0.  0.
         22    1    3    3    0    0  0.24611665903E+02  0.34910581976E+02 -0.19074153496E+03  0.19546563890E+03  0.00000000000E+00 0.  1.
         22    1    4    4    0    0 -0.37598389448E+01 -0.38404510184E+01 -0.19107961722E+02  0.19849424528E+02  0.00000000000E+00 0. -1.
         22    1    4    4    0    0 -0.20851826958E+02 -0.31070130957E+02 -0.21652278222E+03  0.21973226196E+03  0.00000000000E+00 0. -1.
<mgrwt>
<rscale>  0 0.86445677E+02</rscale>
<asrwt>0</asrwt>
<pdfrwt beam="2">  1        2 0.66263013E-01 0.86445677E+02</pdfrwt>
<pdfrwt beam="1">  1       -2 0.66731161E-03 0.86445677E+02</pdfrwt>
<totfact> 0.23590657E+05</totfact>
</mgrwt>
</event>
<event>
 7    1  0.3056193E-009  0.9289507E+02  0.7818608E-02  0.1295989E+00
          2   -1    0    0  501    0  0.00000000000E+00  0.00000000000E+00  0.15676446778E+03  0.15676446780E+03  0.25500000000E-02 0. -1.
         -2   -1    0    0    0  501 -0.00000000000E+00 -0.00000000000E+00 -0.13761876562E+02  0.13761876799E+02  0.25500000000E-02 0.  1.
         23    2    1    2    0    0  0.00000000000E+00 -0.44408920985E-15  0.14300259122E+03  0.17052634460E+03  0.92895065032E+02 0.  0.
    9000005    2    3    3    0    0 -0.44983310281E+02 -0.39274631493E+01  0.60265228930E+02  0.76269279671E+02  0.12090576201E+02 0.  0.
         22    1    3    3    0    0  0.44983310281E+02  0.39274631493E+01  0.82737362286E+02  0.94257064927E+02  0.00000000000E+00 0. -1.
         22    1    4    4    0    0 -0.21026634797E+02 -0.73218760878E+01  0.33090392246E+02  0.39883621943E+02  0.00000000000E+00 0. -1.
         22    1    4    4    0    0 -0.23956675484E+02  0.33944129385E+01  0.27174836684E+02  0.36385657728E+02  0.00000000000E+00 0. -1.
<mgrwt>
<rscale>  0 0.92895065E+02</rscale>
<asrwt>0</asrwt>
<pdfrwt beam="1">  1        2 0.24117611E-01 0.92895065E+02</pdfrwt>
<pdfrwt beam="2">  1       -2 0.21172118E-02 0.92895065E+02</pdfrwt>
<totfact> 0.13491650E+05</totfact>
</mgrwt>
</event>
<event>
 7    1  0.3056193E-009  0.9455935E+02  0.7818608E-02  0.1292172E+00
         -2   -1    0    0    0  501 -0.00000000000E+00  0.00000000000E+00  0.13633013222E+03  0.13633013224E+03  0.25500000000E-02 0.  1.
          2   -1    0    0  501    0  0.00000000000E+00 -0.00000000000E+00 -0.16396724463E+02  0.16396724661E+02  0.25500000000E-02 0. -1.
         23    2    1    2    0    0  0.88817841970E-15  0.00000000000E+00  0.11993340775E+03  0.15272685690E+03  0.94559349212E+02 0.  0.
    9000005    2    3    3    0    0  0.67347990575E+01 -0.37706315048E+02  0.16791633011E+02  0.42702544088E+02  0.86269704769E+01 0.  0.
         22    1    3    3    0    0 -0.67347990575E+01  0.37706315048E+02  0.10314177474E+03  0.11002431281E+03  0.00000000000E+00 0.  1.
         22    1    4    4    0    0  0.61859350930E+01 -0.17338481534E+02  0.46617414902E+01  0.18990012338E+02  0.00000000000E+00 0. -1.
         22    1    4    4    0    0  0.54886396451E+00 -0.20367833514E+02  0.12129891521E+02  0.23712531750E+02  0.00000000000E+00 0. -1.
<mgrwt>
<rscale>  0 0.94559349E+02</rscale>
<asrwt>0</asrwt>
<pdfrwt beam="2">  1        2 0.25225730E-02 0.94559349E+02</pdfrwt>
<pdfrwt beam="1">  1       -2 0.20973867E-01 0.94559349E+02</pdfrwt>
<totfact> 0.65914696E+04</totfact>
</mgrwt>
</event>
<event>
 7    1  0.3056193E-009  0.9233142E+02  0.7818608E-02  0.1297302E+00
          2   -1    0    0  501    0  0.00000000000E+00  0.00000000000E+00  0.70008386448E+03  0.70008386448E+03  0.25500000000E-02 0. -1.
         -2   -1    0    0    0  501 -0.00000000000E+00 -0.00000000000E+00 -0.30443100624E+01  0.30443111303E+01  0.25500000000E-02 0.  1.
         23    2    1    2    0    0  0.00000000000E+00  0.00000000000E+00  0.69703955442E+03  0.70312817562E+03  0.92331418926E+02 0.  0.
    9000005    2    3    3    0    0 -0.27679519474E+02 -0.18146442872E+02  0.59203940540E+03  0.59303512188E+03  0.91950556405E+01 0.  0.
         22    1    3    3    0    0  0.27679519474E+02  0.18146442872E+02  0.10500014901E+03  0.11009305373E+03  0.00000000000E+00 0.  1.
         22    1    4    4    0    0 -0.12136596980E+02 -0.11681748330E+02  0.35448821369E+03  0.35488822730E+03  0.00000000000E+00 0.  1.
         22    1    4    4    0    0 -0.15542922494E+02 -0.64646945415E+01  0.23755119171E+03  0.23814689458E+03  0.00000000000E+00 0.  1.
<mgrwt>
<rscale>  0 0.92331419E+02</rscale>
<asrwt>0</asrwt>
<pdfrwt beam="1">  1        2 0.10770518E+00 0.92331419E+02</pdfrwt>
<pdfrwt beam="2">  1       -2 0.46835559E-03 0.92331419E+02</pdfrwt>
<totfact> 0.22940072E+05</totfact>
</mgrwt>
</event>
<event>
 7    1  0.3056193E-009  0.9122990E+02  0.7818608E-02  0.1299900E+00
          2   -1    0    0  501    0  0.00000000000E+00  0.00000000000E+00  0.24705839909E+03  0.24705839910E+03  0.25500000000E-02 0. -1.
         -2   -1    0    0    0  501 -0.00000000000E+00 -0.00000000000E+00 -0.84219919070E+01  0.84219922931E+01  0.25500000000E-02 0.  1.
         23    2    1    2    0    0  0.00000000000E+00  0.00000000000E+00  0.23863640718E+03  0.25548039139E+03  0.91229904937E+02 0.  0.
    9000005    2    3    3    0    0  0.17185151620E+02 -0.41453217042E+02  0.10105954538E+03  0.11077002016E+03  0.65777667033E+01 0.  0.
         22    1    3    3    0    0 -0.17185151620E+02  0.41453217042E+02  0.13757686181E+03  0.14471037124E+03  0.00000000000E+00 0. -1.
         22    1    4    4    0    0  0.16951840678E+02 -0.40401351397E+02  0.10029956257E+03  0.10945152511E+03  0.00000000000E+00 0. -1.
         22    1    4    4    0    0  0.23331094160E+00 -0.10518656449E+01  0.75998281051E+00  0.13184950522E+01  0.00000000000E+00 0. -1.
<mgrwt>
<rscale>  0 0.91229905E+02</rscale>
<asrwt>0</asrwt>
<pdfrwt beam="1">  1        2 0.38008986E-01 0.91229905E+02</pdfrwt>
<pdfrwt beam="2">  1       -2 0.12956910E-02 0.91229905E+02</pdfrwt>
<totfact> 0.16686655E+05</totfact>
</mgrwt>
</event>
<event>
 7    1  0.3056193E-009  0.9161936E+02  0.7818608E-02  0.1298977E+00
          2   -1    0    0  501    0  0.00000000000E+00  0.00000000000E+00  0.33631768501E+02  0.33631768598E+02  0.25500000000E-02 0. -1.
         -2   -1    0    0    0  501 -0.00000000000E+00 -0.00000000000E+00 -0.62397160004E+02  0.62397160056E+02  0.25500000000E-02 0.  1.
         23    2    1    2    0    0  0.00000000000E+00  0.00000000000E+00 -0.28765391503E+02  0.96028928654E+02  0.91619361437E+02 0.  0.
    9000005    2    3    3    0    0 -0.56159044858E+01  0.21753819478E+02  0.26436664477E+02  0.36429985462E+02  0.11112136024E+02 0.  0.
         22    1    3    3    0    0  0.56159044858E+01 -0.21753819478E+02 -0.55202055981E+02  0.59598943192E+02  0.00000000000E+00 0.  1.
         22    1    4    4    0    0 -0.65633951441E+01  0.18586966761E+02  0.15712268277E+02  0.25207714366E+02  0.00000000000E+00 0. -1.
         22    1    4    4    0    0  0.94749065828E+00  0.31668527177E+01  0.10724396200E+02  0.11222271096E+02  0.00000000000E+00 0. -1.
<mgrwt>
<rscale>  0 0.91619361E+02</rscale>
<asrwt>0</asrwt>
<pdfrwt beam="1">  1        2 0.51741183E-02 0.91619361E+02</pdfrwt>
<pdfrwt beam="2">  1       -2 0.95995630E-02 0.91619361E+02</pdfrwt>
<totfact> 0.89891076E+04</totfact>
</mgrwt>
</event>
<event>
 7    1  0.3056193E-009  0.9431740E+02  0.7818608E-02  0.1292721E+00
          2   -1    0    0  501    0  0.00000000000E+00  0.00000000000E+00  0.28998712849E+02  0.28998712962E+02  0.25500000000E-02 0. -1.
         -2   -1    0    0    0  501 -0.00000000000E+00 -0.00000000000E+00 -0.76691093682E+02  0.76691093724E+02  0.25500000000E-02 0.  1.
         23    2    1    2    0    0  0.00000000000E+00  0.00000000000E+00 -0.47692380833E+02  0.10568980669E+03  0.94317400557E+02 0.  0.
    9000005    2    3    3    0    0  0.50286444647E+01  0.31978871234E+02  0.12398241123E+02  0.37434269785E+02  0.14130559113E+02 0.  0.
         22    1    3    3    0    0 -0.50286444647E+01 -0.31978871234E+02 -0.60090621956E+02  0.68255536901E+02  0.00000000000E+00 0.  1.
         22    1    4    4    0    0  0.98585775933E+01  0.22057914642E+02  0.99640777103E+01  0.26134766024E+02  0.00000000000E+00 0.  1.
         22    1    4    4    0    0 -0.48299331287E+01  0.99209565917E+01  0.24341634129E+01  0.11299503761E+02  0.00000000000E+00 0.  1.
<mgrwt>
<rscale>  0 0.94317401E+02</rscale>
<asrwt>0</asrwt>
<pdfrwt beam="1">  1        2 0.44613405E-02 0.94317401E+02</pdfrwt>
<pdfrwt beam="2">  1       -2 0.11798630E-01 0.94317401E+02</pdfrwt>
<totfact> 0.79216271E+04</totfact>
</mgrwt>
</event>
<event>
 7    1  0.3056193E-009  0.7692500E+02  0.7818608E-02  0.1338011E+00
          2   -1    0    0  501    0  0.00000000000E+00  0.00000000000E+00  0.36609685876E+03  0.36609685876E+03  0.25500000000E-02 0. -1.
         -2   -1    0    0    0  501 -0.00000000000E+00 -0.00000000000E+00 -0.40409085094E+01  0.40409093140E+01  0.25500000000E-02 0.  1.
         23    2    1    2    0    0  0.00000000000E+00  0.13877787808E-16  0.36205595025E+03  0.37013776808E+03  0.76925004059E+02 0.  0.
    9000005    2    3    3    0    0  0.16767874862E+02  0.53284018691E-01  0.34673708812E+03  0.34742583281E+03  0.14033408814E+02 0.  0.
         22    1    3    3    0    0 -0.16767874862E+02 -0.53284018691E-01  0.15318862126E+02  0.22711935263E+02  0.00000000000E+00 0.  1.
         22    1    4    4    0    0  0.10797888191E+01  0.45331043777E+01  0.43203385733E+02  0.43453970106E+02  0.00000000000E+00 0.  1.
         22    1    4    4    0    0  0.15688086042E+02 -0.44798203590E+01  0.30353370239E+03  0.30397186271E+03  0.00000000000E+00 0.  1.
<mgrwt>
<rscale>  0 0.76925004E+02</rscale>
<asrwt>0</asrwt>
<pdfrwt beam="1">  1        2 0.56322615E-01 0.76925004E+02</pdfrwt>
<pdfrwt beam="2">  1       -2 0.62167806E-03 0.76925004E+02</pdfrwt>
<totfact> 0.30251546E+05</totfact>
</mgrwt>
</event>
<event>
 7    1  0.3056193E-009  0.9001944E+02  0.7818608E-02  0.1302805E+00
         -2   -1    0    0    0  501 -0.00000000000E+00  0.00000000000E+00  0.38327479744E+01  0.38327488227E+01  0.25500000000E-02 0.  1.
          2   -1    0    0  501    0  0.00000000000E+00 -0.00000000000E+00 -0.52856974884E+03  0.52856974885E+03  0.25500000000E-02 0. -1.
         23    2    1    2    0    0  0.00000000000E+00  0.00000000000E+00 -0.52473700087E+03  0.53240249767E+03  0.90019439270E+02 0.  0.
    9000005    2    3    3    0    0 -0.34069806895E+02  0.10827803158E+02 -0.42391733651E+03  0.42543241875E+03  0.29734940372E+01 0.  0.
         22    1    3    3    0    0  0.34069806895E+02 -0.10827803158E+02 -0.10081966436E+03  0.10697007892E+03  0.00000000000E+00 0.  1.
         22    1    4    4    0    0 -0.82178382490E+01  0.18540162192E+01 -0.11257761886E+03  0.11289238464E+03  0.00000000000E+00 0.  1.
         22    1    4    4    0    0 -0.25851968646E+02  0.89737869391E+01 -0.31133971765E+03  0.31254003411E+03  0.00000000000E+00 0.  1.
<mgrwt>
<rscale>  0 0.90019439E+02</rscale>
<asrwt>0</asrwt>
<pdfrwt beam="2">  1        2 0.81318365E-01 0.90019439E+02</pdfrwt>
<pdfrwt beam="1">  1       -2 0.58965402E-03 0.90019439E+02</pdfrwt>
<totfact> 0.22688745E+05</totfact>
</mgrwt>
</event>
<event>
 7    1  0.3056193E-009  0.8953983E+02  0.7818608E-02  0.1303970E+00
         -2   -1    0    0    0  501 -0.00000000000E+00  0.00000000000E+00  0.28442654711E+01  0.28442666142E+01  0.25500000000E-02 0.  1.
          2   -1    0    0  501    0  0.00000000000E+00 -0.00000000000E+00 -0.70469685512E+03  0.70469685513E+03  0.25500000000E-02 0. -1.
         23    2    1    2    0    0 -0.17763568394E-14  0.11102230246E-15 -0.70185258965E+03  0.70754112174E+03  0.89539831107E+02 0.  0.
    9000005    2    3    3    0    0 -0.15077649970E+02  0.50795539516E+00 -0.68386698139E+03  0.68406612117E+03  0.66945015253E+01 0.  0.
         22    1    3    3    0    0  0.15077649970E+02 -0.50795539516E+00 -0.17985608265E+02  0.23475000574E+02  0.00000000000E+00 0.  1.
         22    1    4    4    0    0 -0.11978888861E+02  0.22983471022E+01 -0.42688841400E+03  0.42706263497E+03  0.00000000000E+00 0. -1.
         22    1    4    4    0    0 -0.30987611093E+01 -0.17903917070E+01 -0.25697856739E+03  0.25700348620E+03  0.00000000000E+00 0. -1.
<mgrwt>
<rscale>  0 0.89539831E+02</rscale>
<asrwt>0</asrwt>
<pdfrwt beam="2">  1        2 0.10841476E+00 0.89539831E+02</pdfrwt>
<pdfrwt beam="1">  1       -2 0.43757995E-03 0.89539831E+02</pdfrwt>
<totfact> 0.24912238E+05</totfact>
</mgrwt>
</event>
<event>
 7    1  0.3056193E-009  0.8841002E+02  0.7818608E-02  0.1306748E+00
         -2   -1    0    0    0  501 -0.00000000000E+00  0.00000000000E+00  0.41079198163E+01  0.41079206078E+01  0.25500000000E-02 0.  1.
          2   -1    0    0  501    0  0.00000000000E+00 -0.00000000000E+00 -0.47568672434E+03  0.47568672435E+03  0.25500000000E-02 0. -1.
         23    2    1    2    0    0  0.00000000000E+00  0.00000000000E+00 -0.47157880453E+03  0.47979464496E+03  0.88410024608E+02 0.  0.
    9000005    2    3    3    0    0 -0.29282833005E+02  0.30521468922E+02 -0.29659522475E+03  0.29977159764E+03  0.10258607771E+02 0.  0.
         22    1    3    3    0    0  0.29282833005E+02 -0.30521468922E+02 -0.17498357978E+03  0.18002304732E+03  0.00000000000E+00 0.  1.
         22    1    4    4    0    0 -0.71031975185E+01  0.19928591552E+01 -0.47942037391E+02  0.48506348572E+02  0.00000000000E+00 0. -1.
         22    1    4    4    0    0 -0.22179635487E+02  0.28528609767E+02 -0.24865318736E+03  0.25126524907E+03  0.00000000000E+00 0. -1.
<mgrwt>
<rscale>  0 0.88410025E+02</rscale>
<asrwt>0</asrwt>
<pdfrwt beam="2">  1        2 0.73182529E-01 0.88410025E+02</pdfrwt>
<pdfrwt beam="1">  1       -2 0.63198810E-03 0.88410025E+02</pdfrwt>
<totfact> 0.22997388E+05</totfact>
</mgrwt>
</event>
<event>
 7    1  0.3056193E-009  0.9030588E+02  0.7818608E-02  0.1302113E+00
          2   -1    0    0  501    0  0.00000000000E+00  0.00000000000E+00  0.78776402222E+03  0.78776402222E+03  0.25500000000E-02 0. -1.
         -2   -1    0    0    0  501 -0.00000000000E+00 -0.00000000000E+00 -0.25880687285E+01  0.25880699847E+01  0.25500000000E-02 0.  1.
         23    2    1    2    0    0  0.00000000000E+00  0.00000000000E+00  0.78517595349E+03  0.79035209221E+03  0.90305878643E+02 0.  0.
    9000005    2    3    3    0    0 -0.65766238092E+01 -0.93370811530E+01  0.77465580774E+03  0.77482448674E+03  0.11442539315E+02 0.  0.
         22    1    3    3    0    0  0.65766238092E+01  0.93370811530E+01  0.10520145743E+02  0.15527605470E+02  0.00000000000E+00 0.  1.
         22    1    4    4    0    0 -0.63574912076E+01 -0.36017478743E+01  0.18991510275E+03  0.19005561432E+03  0.00000000000E+00 0. -1.
         22    1    4    4    0    0 -0.21913260160E+00 -0.57353332788E+01  0.58474070499E+03  0.58476887241E+03  0.00000000000E+00 0. -1.
<mgrwt>
<rscale>  0 0.90305879E+02</rscale>
<asrwt>0</asrwt>
<pdfrwt beam="1">  1        2 0.12119448E+00 0.90305879E+02</pdfrwt>
<pdfrwt beam="2">  1       -2 0.39816445E-03 0.90305879E+02</pdfrwt>
<totfact> 0.24929023E+05</totfact>
</mgrwt>
</event>
<event>
 7    1  0.3056193E-009  0.8446363E+02  0.7818608E-02  0.1316841E+00
         -2   -1    0    0    0  501 -0.00000000000E+00  0.00000000000E+00  0.15939487270E+02  0.15939487474E+02  0.25500000000E-02 0. -1.
          2   -1    0    0  501    0  0.00000000000E+00 -0.00000000000E+00 -0.11189356325E+03  0.11189356328E+03  0.25500000000E-02 0.  1.
         23    2    1    2    0    0 -0.35527136788E-14  0.00000000000E+00 -0.95954075981E+02  0.12783305075E+03  0.84463626299E+02 0.  0.
    9000005    2    3    3    0    0  0.31918549433E+02  0.23710719449E+02 -0.66370718541E+02  0.78273318590E+02  0.11859515538E+02 0.  0.
         22    1    3    3    0    0 -0.31918549433E+02 -0.23710719449E+02 -0.29583357440E+02  0.49559732163E+02  0.00000000000E+00 0.  1.
         22    1    4    4    0    0  0.17895214404E+02  0.14208200821E+02 -0.26733255356E+02  0.35167863328E+02  0.00000000000E+00 0. -1.
         22    1    4    4    0    0  0.14023335029E+02  0.95025186272E+01 -0.39637463185E+02  0.43105455262E+02  0.00000000000E+00 0. -1.
<mgrwt>
<rscale>  0 0.84463626E+02</rscale>
<asrwt>0</asrwt>
<pdfrwt beam="2">  1        2 0.17214394E-01 0.84463626E+02</pdfrwt>
<pdfrwt beam="1">  1       -2 0.24522289E-02 0.84463626E+02</pdfrwt>
<totfact> 0.15643845E+05</totfact>
</mgrwt>
</event>
<event>
 7    1  0.3056193E-009  0.9116165E+02  0.7818608E-02  0.1300063E+00
         -2   -1    0    0    0  501 -0.00000000000E+00  0.00000000000E+00  0.26438443440E+01  0.26438455737E+01  0.25500000000E-02 0. -1.
          2   -1    0    0  501    0  0.00000000000E+00 -0.00000000000E+00 -0.78582965496E+03  0.78582965496E+03  0.25500000000E-02 0.  1.
         23    2    1    2    0    0  0.00000000000E+00  0.00000000000E+00 -0.78318581061E+03  0.78847350053E+03  0.91161653672E+02 0.  0.
    9000005    2    3    3    0    0  0.15978334609E+02 -0.19213519136E+02 -0.71981095257E+03  0.72034979595E+03  0.12310750996E+02 0.  0.
         22    1    3    3    0    0 -0.15978334609E+02  0.19213519136E+02 -0.63374858040E+02  0.68123704583E+02  0.00000000000E+00 0. -1.
         22    1    4    4    0    0  0.16202604016E+02 -0.11054586197E+02 -0.53240505939E+03  0.53276624848E+03  0.00000000000E+00 0.  1.
         22    1    4    4    0    0 -0.22426940691E+00 -0.81589329395E+01 -0.18740589318E+03  0.18758354747E+03  0.00000000000E+00 0.  1.
<mgrwt>
<rscale>  0 0.91161654E+02</rscale>
<asrwt>0</asrwt>
<pdfrwt beam="2">  1        2 0.12089668E+00 0.91161654E+02</pdfrwt>
<pdfrwt beam="1">  1       -2 0.40674601E-03 0.91161654E+02</pdfrwt>
<totfact> 0.24306381E+05</totfact>
</mgrwt>
</event>
<event>
 7    1  0.3056193E-009  0.9148786E+02  0.7818608E-02  0.1299288E+00
          2   -1    0    0  501    0  0.00000000000E+00  0.00000000000E+00  0.11267038720E+04  0.11267038720E+04  0.25500000000E-02 0. -1.
         -2   -1    0    0    0  501 -0.00000000000E+00 -0.00000000000E+00 -0.18571928411E+01  0.18571945917E+01  0.25500000000E-02 0.  1.
         23    2    1    2    0    0 -0.88817841970E-15  0.00000000000E+00  0.11248466791E+04  0.11285610666E+04  0.91487864868E+02 0.  0.
    9000005    2    3    3    0    0 -0.69333711034E+01 -0.17573745085E+02  0.10754276335E+04  0.10756540706E+04  0.11409493724E+02 0.  0.
         22    1    3    3    0    0  0.69333711034E+01  0.17573745085E+02  0.49419045603E+02  0.52906995941E+02  0.00000000000E+00 0.  1.
         22    1    4    4    0    0 -0.33557094319E+01 -0.45884477083E+01  0.12309111144E+03  0.12322230461E+03  0.00000000000E+00 0. -1.
         22    1    4    4    0    0 -0.35776616715E+01 -0.12985297377E+02  0.95233652208E+03  0.95243176601E+03  0.00000000000E+00 0. -1.
<mgrwt>
<rscale>  0 0.91487865E+02</rscale>
<asrwt>0</asrwt>
<pdfrwt beam="1">  1        2 0.17333937E+00 0.91487865E+02</pdfrwt>
<pdfrwt beam="2">  1       -2 0.28572159E-03 0.91487865E+02</pdfrwt>
<totfact> 0.24771255E+05</totfact>
</mgrwt>
</event>
<event>
 7    1  0.3056193E-009  0.9121741E+02  0.7818608E-02  0.1299930E+00
         -2   -1    0    0    0  501 -0.00000000000E+00  0.00000000000E+00  0.83545467669E+02  0.83545467708E+02  0.25500000000E-02 0.  1.
          2   -1    0    0  501    0  0.00000000000E+00 -0.00000000000E+00 -0.24898465585E+02  0.24898465716E+02  0.25500000000E-02 0. -1.
         23    2    1    2    0    0  0.17763568394E-14 -0.35527136788E-14  0.58647002083E+02  0.10844393342E+03  0.91217409758E+02 0.  0.
    9000005    2    3    3    0    0  0.15132854832E+02 -0.19819880245E+02  0.73764013068E+02  0.79283086909E+02  0.14928070794E+02 0.  0.
         22    1    3    3    0    0 -0.15132854832E+02  0.19819880245E+02 -0.15117010985E+02  0.29160846514E+02  0.00000000000E+00 0. -1.
         22    1    4    4    0    0  0.36985798273E+01  0.17602636024E+01  0.17032936634E+02  0.17518531647E+02  0.00000000000E+00 0.  1.
         22    1    4    4    0    0  0.11434275005E+02 -0.21580143848E+02  0.56731076434E+02  0.61764555262E+02  0.00000000000E+00 0.  1.
<mgrwt>
<rscale>  0 0.91217410E+02</rscale>
<asrwt>0</asrwt>
<pdfrwt beam="2">  1        2 0.38305332E-02 0.91217410E+02</pdfrwt>
<pdfrwt beam="1">  1       -2 0.12853149E-01 0.91217410E+02</pdfrwt>
<totfact> 0.83967423E+04</totfact>
</mgrwt>
</event>
<event>
 7    1  0.3056193E-009  0.8594571E+02  0.7818608E-02  0.1312978E+00
         -2   -1    0    0    0  501 -0.00000000000E+00  0.00000000000E+00  0.53485806557E+01  0.53485812636E+01  0.25500000000E-02 0.  1.
          2   -1    0    0  501    0  0.00000000000E+00 -0.00000000000E+00 -0.34526280501E+03  0.34526280502E+03  0.25500000000E-02 0. -1.
         23    2    1    2    0    0 -0.35527136788E-14  0.17763568394E-14 -0.33991422436E+03  0.35061138629E+03  0.85945705379E+02 0.  0.
    9000005    2    3    3    0    0  0.24246459164E+02 -0.11263600043E+02 -0.30548771737E+03  0.30702304093E+03  0.15021408951E+02 0.  0.
         22    1    3    3    0    0 -0.24246459164E+02  0.11263600043E+02 -0.34426506984E+02  0.43588345358E+02  0.00000000000E+00 0.  1.
         22    1    4    4    0    0  0.15320759335E+02 -0.92716897035E+01 -0.12197218308E+03  0.12327977669E+03  0.00000000000E+00 0. -1.
         22    1    4    4    0    0  0.89256998289E+01 -0.19919103399E+01 -0.18351553430E+03  0.18374326424E+03  0.00000000000E+00 0. -1.
<mgrwt>
<rscale>  0 0.85945705E+02</rscale>
<asrwt>0</asrwt>
<pdfrwt beam="2">  1        2 0.53117337E-01 0.85945705E+02</pdfrwt>
<pdfrwt beam="1">  1       -2 0.82285888E-03 0.85945705E+02</pdfrwt>
<totfact> 0.22134608E+05</totfact>
</mgrwt>
</event>
<event>
 6    1  0.3056193E-009  0.2404893E+03  0.7818608E-02  0.1119467E+00
          2   -1    0    0  501    0  0.00000000000E+00  0.00000000000E+00  0.11568144857E+04  0.11568144857E+04  0.25500000000E-02 0. -1.
         -2   -1    0    0    0  501 -0.00000000000E+00 -0.00000000000E+00 -0.12498787560E+02  0.12498787820E+02  0.25500000000E-02 0.  1.
    9000005    2    1    2    0    0  0.10350978423E+03 -0.59632924509E+02  0.63735623838E+03  0.64846948220E+03  0.43970025199E+01 0.  0.
         22    1    1    2    0    0 -0.10350978423E+03  0.59632924509E+02  0.50695945979E+03  0.52084379135E+03  0.00000000000E+00 0. -1.
         22    1    3    3    0    0  0.65740079890E+02 -0.36594351977E+02  0.39144811942E+03  0.39861326483E+03  0.00000000000E+00 0. -1.
         22    1    3    3    0    0  0.37769704337E+02 -0.23038572532E+02  0.24590811896E+03  0.24985621737E+03  0.00000000000E+00 0. -1.
<mgrwt>
<rscale>  0 0.24048932E+03</rscale>
<asrwt>0</asrwt>
<pdfrwt beam="1">  1        2 0.17797153E+00 0.24048932E+03</pdfrwt>
<pdfrwt beam="2">  1       -2 0.19228896E-02 0.24048932E+03</pdfrwt>
<totfact> 0.17198999E+04</totfact>
</mgrwt>
</event>
<event>
 7    1  0.3056193E-009  0.9105371E+02  0.7818608E-02  0.1300320E+00
          2   -1    0    0  501    0  0.00000000000E+00  0.00000000000E+00  0.48647642413E+02  0.48647642480E+02  0.25500000000E-02 0. -1.
         -2   -1    0    0    0  501 -0.00000000000E+00 -0.00000000000E+00 -0.42606267033E+02  0.42606267109E+02  0.25500000000E-02 0.  1.
         23    2    1    2    0    0  0.00000000000E+00 -0.35527136788E-14  0.60413753807E+01  0.91253909589E+02  0.91053708320E+02 0.  0.
    9000005    2    3    3    0    0 -0.36300153616E+02  0.20842353862E+02  0.20593019458E+02  0.46938503550E+02  0.52005574707E+01 0.  0.
         22    1    3    3    0    0  0.36300153616E+02 -0.20842353862E+02 -0.14551644077E+02  0.44315406039E+02  0.00000000000E+00 0.  1.
         22    1    4    4    0    0 -0.28663461047E+02  0.18757665406E+02  0.16361577624E+02  0.37962418693E+02  0.00000000000E+00 0.  1.
         22    1    4    4    0    0 -0.76366925694E+01  0.20846884555E+01  0.42314418342E+01  0.89760848565E+01  0.00000000000E+00 0.  1.
<mgrwt>
<rscale>  0 0.91053708E+02</rscale>
<asrwt>0</asrwt>
<pdfrwt beam="1">  1        2 0.74842526E-02 0.91053708E+02</pdfrwt>
<pdfrwt beam="2">  1       -2 0.65548104E-02 0.91053708E+02</pdfrwt>
<totfact> 0.10074457E+05</totfact>
</mgrwt>
</event>
<event>
 7    1  0.3056193E-009  0.8968802E+02  0.7818608E-02  0.1303609E+00
          2   -1    0    0  501    0  0.00000000000E+00  0.00000000000E+00  0.79446621105E+02  0.79446621146E+02  0.25500000000E-02 0.  1.
         -2   -1    0    0    0  501 -0.00000000000E+00 -0.00000000000E+00 -0.25312408546E+02  0.25312408675E+02  0.25500000000E-02 0. -1.
         23    2    1    2    0    0  0.00000000000E+00  0.00000000000E+00  0.54134212559E+02  0.10475902982E+03  0.89688022387E+02 0.  0.
    9000005    2    3    3    0    0 -0.76271013257E+01 -0.22558415857E+02 -0.15303483353E+02  0.31351615930E+02  0.13478591102E+02 0.  0.
         22    1    3    3    0    0  0.76271013257E+01  0.22558415857E+02  0.69437695912E+02  0.73407413891E+02  0.00000000000E+00 0.  1.
         22    1    4    4    0    0 -0.32511200702E+01 -0.15838277646E+02 -0.16662836723E+02  0.23217901459E+02  0.00000000000E+00 0. -1.
         22    1    4    4    0    0 -0.43759812555E+01 -0.67201382104E+01  0.13593533697E+01  0.81337144712E+01  0.00000000000E+00 0. -1.
<mgrwt>
<rscale>  0 0.89688022E+02</rscale>
<asrwt>0</asrwt>
<pdfrwt beam="1">  1        2 0.12222557E-01 0.89688022E+02</pdfrwt>
<pdfrwt beam="2">  1       -2 0.38942167E-02 0.89688022E+02</pdfrwt>
<totfact> 0.11998524E+05</totfact>
</mgrwt>
</event>
<event>
 7    1  0.3056193E-009  0.1086824E+03  0.7818608E-02  0.1263030E+00
          2   -1    0    0  501    0  0.00000000000E+00  0.00000000000E+00  0.16799857483E+03  0.16799857485E+03  0.25500000000E-02 0. -1.
         -2   -1    0    0    0  501 -0.00000000000E+00 -0.00000000000E+00 -0.17577315619E+02  0.17577315804E+02  0.25500000000E-02 0.  1.
         23    2    1    2    0    0  0.00000000000E+00  0.00000000000E+00  0.15042125921E+03  0.18557589066E+03  0.10868236273E+03 0.  0.
    9000005    2    3    3    0    0  0.36804937880E+02 -0.16815786259E+02  0.17088116482E+02  0.46237808745E+02  0.14441506595E+02 0.  0.
         22    1    3    3    0    0 -0.36804937880E+02  0.16815786259E+02  0.13333314273E+03  0.13933808191E+03  0.00000000000E+00 0. -1.
         22    1    4    4    0    0  0.22414194555E+02 -0.26136994503E+01  0.69003668740E+01  0.23597512694E+02  0.00000000000E+00 0.  1.
         22    1    4    4    0    0  0.14390743325E+02 -0.14202086809E+02  0.10187749608E+02  0.22640296050E+02  0.00000000000E+00 0.  1.
<mgrwt>
<rscale>  0 0.10868236E+03</rscale>
<asrwt>0</asrwt>
<pdfrwt beam="1">  1        2 0.25845934E-01 0.10868236E+03</pdfrwt>
<pdfrwt beam="2">  1       -2 0.27042025E-02 0.10868236E+03</pdfrwt>
<totfact> 0.89898154E+04</totfact>
</mgrwt>
</event>
<event>
 7    1  0.3056193E-009  0.9101900E+02  0.7818608E-02  0.1300403E+00
          2   -1    0    0  501    0  0.00000000000E+00  0.00000000000E+00  0.48607232065E+03  0.48607232066E+03  0.25500000000E-02 0. -1.
         -2   -1    0    0    0  501 -0.00000000000E+00 -0.00000000000E+00 -0.42609184761E+01  0.42609192391E+01  0.25500000000E-02 0.  1.
         23    2    1    2    0    0  0.00000000000E+00  0.00000000000E+00  0.48181140218E+03  0.49033323990E+03  0.91019002862E+02 0.  0.
    9000005    2    3    3    0    0  0.41372805827E+02 -0.16585259833E+02  0.24017930142E+03  0.24462436333E+03  0.12969286838E+02 0.  0.
         22    1    3    3    0    0 -0.41372805827E+02  0.16585259833E+02  0.24163210076E+03  0.24570887657E+03  0.00000000000E+00 0. -1.
         22    1    4    4    0    0  0.25824896725E+02 -0.54458413948E+01  0.16222545680E+03  0.16435839289E+03  0.00000000000E+00 0. -1.
         22    1    4    4    0    0  0.15547909102E+02 -0.11139418438E+02  0.77953844619E+02  0.80265970444E+02  0.00000000000E+00 0. -1.
<mgrwt>
<rscale>  0 0.91019003E+02</rscale>
<asrwt>0</asrwt>
<pdfrwt beam="1">  1        2 0.74780380E-01 0.91019003E+02</pdfrwt>
<pdfrwt beam="2">  1       -2 0.65552578E-03 0.91019003E+02</pdfrwt>
<totfact> 0.21449385E+05</totfact>
</mgrwt>
</event>
<event>
 7    1  0.3056193E-009  0.1024311E+03  0.7818608E-02  0.1275265E+00
          2   -1    0    0  501    0  0.00000000000E+00  0.00000000000E+00  0.17395510261E+04  0.17395510261E+04  0.25500000000E-02 0. -1.
         -2   -1    0    0    0  501 -0.00000000000E+00 -0.00000000000E+00 -0.15078775590E+01  0.15078797152E+01  0.25500000000E-02 0.  1.
         23    2    1    2    0    0  0.00000000000E+00  0.00000000000E+00  0.17380431486E+04  0.17410589059E+04  0.10243108578E+03 0.  0.
    9000005    2    3    3    0    0 -0.10840569565E+02 -0.10166832355E+02  0.17013398122E+04  0.17014607073E+04  0.13802153412E+02 0.  0.
         22    1    3    3    0    0  0.10840569565E+02  0.10166832355E+02  0.36703336415E+02  0.39598198603E+02  0.00000000000E+00 0.  1.
         22    1    4    4    0    0 -0.40337008698E+01 -0.11984174814E+02  0.12748414960E+04  0.12749042047E+04  0.00000000000E+00 0.  1.
         22    1    4    4    0    0 -0.68068686952E+01  0.18173424584E+01  0.42649831612E+03  0.42655650253E+03  0.00000000000E+00 0.  1.
<mgrwt>
<rscale>  0 0.10243109E+03</rscale>
<asrwt>0</asrwt>
<pdfrwt beam="1">  1        2 0.26762295E+00 0.10243109E+03</pdfrwt>
<pdfrwt beam="2">  1       -2 0.23198157E-03 0.10243109E+03</pdfrwt>
<totfact> 0.16098833E+05</totfact>
</mgrwt>
</event>
<event>
 7    1  0.3056193E-009  0.9147077E+02  0.7818608E-02  0.1299329E+00
          2   -1    0    0  501    0  0.00000000000E+00  0.00000000000E+00  0.41606631365E+03  0.41606631366E+03  0.25500000000E-02 0. -1.
         -2   -1    0    0    0  501 -0.00000000000E+00 -0.00000000000E+00 -0.50273849068E+01  0.50273855535E+01  0.25500000000E-02 0.  1.
         23    2    1    2    0    0  0.00000000000E+00  0.00000000000E+00  0.41103892874E+03  0.42109369921E+03  0.91470774420E+02 0.  0.
    9000005    2    3    3    0    0 -0.16878386990E+02 -0.41132695433E+02  0.16176081924E+03  0.16788162513E+03  0.63952197393E+01 0.  0.
         22    1    3    3    0    0  0.16878386990E+02  0.41132695433E+02  0.24927810950E+03  0.25321207408E+03  0.00000000000E+00 0. -1.
         22    1    4    4    0    0 -0.62304759748E+01 -0.82139190708E+01  0.38716915686E+02  0.40066031218E+02  0.00000000000E+00 0.  1.
         22    1    4    4    0    0 -0.10647911015E+02 -0.32918776362E+02  0.12304390355E+03  0.12781559392E+03  0.00000000000E+00 0.  1.
<mgrwt>
<rscale>  0 0.91470774E+02</rscale>
<asrwt>0</asrwt>
<pdfrwt beam="1">  1        2 0.64010218E-01 0.91470774E+02</pdfrwt>
<pdfrwt beam="2">  1       -2 0.77344369E-03 0.91470774E+02</pdfrwt>
<totfact> 0.20071561E+05</totfact>
</mgrwt>
</event>
<event>
 7    1  0.3056193E-009  0.8758154E+02  0.7818608E-02  0.1308816E+00
         -2   -1    0    0    0  501 -0.00000000000E+00  0.00000000000E+00  0.79890201934E+01  0.79890206003E+01  0.25500000000E-02 0.  1.
          2   -1    0    0  501    0  0.00000000000E+00 -0.00000000000E+00 -0.24003336720E+03  0.24003336721E+03  0.25500000000E-02 0. -1.
         23    2    1    2    0    0 -0.88817841970E-15  0.00000000000E+00 -0.23204434700E+03  0.24802238781E+03  0.87581538460E+02 0.  0.
    9000005    2    3    3    0    0  0.54932075383E+01  0.42960278139E+02 -0.12708828374E+03  0.13448148751E+03  0.76208785733E+01 0.  0.
         22    1    3    3    0    0 -0.54932075383E+01 -0.42960278139E+02 -0.10495606326E+03  0.11354090030E+03  0.00000000000E+00 0. -1.
         22    1    4    4    0    0  0.72332624059E+01  0.29525613725E+02 -0.90165767043E+02  0.95152233275E+02  0.00000000000E+00 0.  1.
         22    1    4    4    0    0 -0.17400548676E+01  0.13434664414E+02 -0.36922516702E+02  0.39329254233E+02  0.00000000000E+00 0.  1.
<mgrwt>
<rscale>  0 0.87581538E+02</rscale>
<asrwt>0</asrwt>
<pdfrwt beam="2">  1        2 0.36928205E-01 0.87581538E+02</pdfrwt>
<pdfrwt beam="1">  1       -2 0.12290802E-02 0.87581538E+02</pdfrwt>
<totfact> 0.18412568E+05</totfact>
</mgrwt>
</event>
<event>
 7    1  0.3056193E-009  0.8969049E+02  0.7818608E-02  0.1303603E+00
          2   -1    0    0  501    0  0.00000000000E+00  0.00000000000E+00  0.50644139978E+01  0.50644146398E+01  0.25500000000E-02 0. -1.
         -2   -1    0    0    0  501 -0.00000000000E+00 -0.00000000000E+00 -0.39710339336E+03  0.39710339337E+03  0.25500000000E-02 0.  1.
         23    2    1    2    0    0  0.00000000000E+00  0.00000000000E+00 -0.39203897937E+03  0.40216780801E+03  0.89690492577E+02 0.  0.
    9000005    2    3    3    0    0 -0.26220645658E+02  0.36052410279E+02 -0.18784065870E+03  0.19316002656E+03  0.62756874744E+01 0.  0.
         22    1    3    3    0    0  0.26220645658E+02 -0.36052410279E+02 -0.20419832066E+03  0.20900778145E+03  0.00000000000E+00 0. -1.
         22    1    4    4    0    0 -0.17968612046E+02  0.24986457369E+02 -0.11653478018E+03  0.12053028276E+03  0.00000000000E+00 0. -1.
         22    1    4    4    0    0 -0.82520336120E+01  0.11065952910E+02 -0.71305878525E+02  0.72629743802E+02  0.00000000000E+00 0. -1.
<mgrwt>
<rscale>  0 0.89690493E+02</rscale>
<asrwt>0</asrwt>
<pdfrwt beam="1">  1        2 0.77914098E-03 0.89690493E+02</pdfrwt>
<pdfrwt beam="2">  1       -2 0.61092805E-01 0.89690493E+02</pdfrwt>
<totfact> 0.44762359E+04</totfact>
</mgrwt>
</event>
<event>
 7    1  0.3056193E-009  0.9076354E+02  0.7818608E-02  0.1301013E+00
         -2   -1    0    0    0  501 -0.00000000000E+00  0.00000000000E+00  0.75301713492E+02  0.75301713535E+02  0.25500000000E-02 0.  1.
          2   -1    0    0  501    0  0.00000000000E+00 -0.00000000000E+00 -0.27350041641E+02  0.27350041760E+02  0.25500000000E-02 0. -1.
         23    2    1    2    0    0  0.35527136788E-14  0.00000000000E+00  0.47951671851E+02  0.10265175530E+03  0.90763539111E+02 0.  0.
    9000005    2    3    3    0    0 -0.30865139354E+02  0.32866722193E+02  0.23937639103E+02  0.51567980730E+02  0.73053278948E+01 0.  0.
         22    1    3    3    0    0  0.30865139354E+02 -0.32866722193E+02  0.24014032748E+02  0.51083774565E+02  0.00000000000E+00 0. -1.
         22    1    4    4    0    0 -0.14333650806E+02  0.10854261742E+02  0.73221271568E+01  0.19413451252E+02  0.00000000000E+00 0.  1.
         22    1    4    4    0    0 -0.16531488547E+02  0.22012460451E+02  0.16615511947E+02  0.32154529478E+02  0.00000000000E+00 0.  1.
<mgrwt>
<rscale>  0 0.90763539E+02</rscale>
<asrwt>0</asrwt>
<pdfrwt beam="2">  1        2 0.42076988E-02 0.90763539E+02</pdfrwt>
<pdfrwt beam="1">  1       -2 0.11584879E-01 0.90763539E+02</pdfrwt>
<totfact> 0.87468373E+04</totfact>
</mgrwt>
</event>
<event>
 7    1  0.3056193E-009  0.9102736E+02  0.7818608E-02  0.1300383E+00
          2   -1    0    0  501    0  0.00000000000E+00  0.00000000000E+00  0.47180414710E+02  0.47180414779E+02  0.25500000000E-02 0. -1.
         -2   -1    0    0    0  501 -0.00000000000E+00 -0.00000000000E+00 -0.43905820914E+02  0.43905820988E+02  0.25500000000E-02 0.  1.
         23    2    1    2    0    0  0.00000000000E+00  0.00000000000E+00  0.32745937957E+01  0.91086235767E+02  0.91027355128E+02 0.  0.
    9000005    2    3    3    0    0  0.18400874043E+02 -0.22364713460E+02  0.36678336126E+02  0.46875574435E+02  0.36395829318E+01 0.  0.
         22    1    3    3    0    0 -0.18400874043E+02  0.22364713460E+02 -0.33403742331E+02  0.44210661332E+02  0.00000000000E+00 0.  1.
         22    1    4    4    0    0  0.26336306784E+00 -0.14288086061E+00  0.12789387497E+01  0.13135674217E+01  0.00000000000E+00 0. -1.
         22    1    4    4    0    0  0.18137510975E+02 -0.22221832599E+02  0.35399397377E+02  0.45562007013E+02  0.00000000000E+00 0. -1.
<mgrwt>
<rscale>  0 0.91027355E+02</rscale>
<asrwt>0</asrwt>
<pdfrwt beam="1">  1        2 0.72585253E-02 0.91027355E+02</pdfrwt>
<pdfrwt beam="2">  1       -2 0.67547418E-02 0.91027355E+02</pdfrwt>
<totfact> 0.10002785E+05</totfact>
</mgrwt>
</event>
<event>
 7    1  0.3056193E-009  0.8930852E+02  0.7818608E-02  0.1304535E+00
         -2   -1    0    0    0  501 -0.00000000000E+00  0.00000000000E+00  0.12147332240E+02  0.12147332507E+02  0.25500000000E-02 0.  1.
          2   -1    0    0  501    0  0.00000000000E+00 -0.00000000000E+00 -0.16415151232E+03  0.16415151234E+03  0.25500000000E-02 0. -1.
         23    2    1    2    0    0  0.00000000000E+00 -0.88817841970E-15 -0.15200418008E+03  0.17629884485E+03  0.89308521054E+02 0.  0.
    9000005    2    3    3    0    0 -0.29432395214E+02 -0.74856270721E+01 -0.15839156493E+02  0.36788221061E+02  0.13423629530E+02 0.  0.
         22    1    3    3    0    0  0.29432395214E+02  0.74856270721E+01 -0.13616502359E+03  0.13951062379E+03  0.00000000000E+00 0. -1.
         22    1    4    4    0    0  0.10158396301E+01 -0.39857137813E+00 -0.26348533102E+01  0.28518838097E+01  0.00000000000E+00 0. -1.
         22    1    4    4    0    0 -0.30448234844E+02 -0.70870556940E+01 -0.13204303183E+02  0.33936337252E+02  0.00000000000E+00 0. -1.
<mgrwt>
<rscale>  0 0.89308521E+02</rscale>
<asrwt>0</asrwt>
<pdfrwt beam="2">  1        2 0.25254077E-01 0.89308521E+02</pdfrwt>
<pdfrwt beam="1">  1       -2 0.18688205E-02 0.89308521E+02</pdfrwt>
<totfact> 0.15250394E+05</totfact>
</mgrwt>
</event>
<event>
 7    1  0.3056193E-009  0.9879726E+02  0.7818608E-02  0.1282846E+00
         -2   -1    0    0    0  501 -0.00000000000E+00  0.00000000000E+00  0.18270327566E+02  0.18270327744E+02  0.25500000000E-02 0.  1.
          2   -1    0    0  501    0  0.00000000000E+00 -0.00000000000E+00 -0.13356216834E+03  0.13356216837E+03  0.25500000000E-02 0. -1.
         23    2    1    2    0    0  0.00000000000E+00  0.00000000000E+00 -0.11529184078E+03  0.15183249611E+03  0.98797258694E+02 0.  0.
    9000005    2    3    3    0    0  0.33514737483E+02  0.32318478490E+02 -0.38826937845E+02  0.62308180638E+02  0.14389461125E+02 0.  0.
         22    1    3    3    0    0 -0.33514737483E+02 -0.32318478490E+02 -0.76464902934E+02  0.89524315474E+02  0.00000000000E+00 0. -1.
         22    1    4    4    0    0  0.11187353090E+02  0.20752655825E+02 -0.19434013554E+02  0.30553403669E+02  0.00000000000E+00 0. -1.
         22    1    4    4    0    0  0.22327384394E+02  0.11565822665E+02 -0.19392924291E+02  0.31754776969E+02  0.00000000000E+00 0. -1.
<mgrwt>
<rscale>  0 0.98797259E+02</rscale>
<asrwt>0</asrwt>
<pdfrwt beam="2">  1        2 0.20548025E-01 0.98797259E+02</pdfrwt>
<pdfrwt beam="1">  1       -2 0.28108197E-02 0.98797259E+02</pdfrwt>
<totfact> 0.10791703E+05</totfact>
</mgrwt>
</event>
<event>
 7    1  0.3056193E-009  0.9332917E+02  0.7818608E-02  0.1294984E+00
          2   -1    0    0  501    0  0.00000000000E+00  0.00000000000E+00  0.15260431860E+03  0.15260431863E+03  0.25500000000E-02 0. -1.
         -2   -1    0    0    0  501 -0.00000000000E+00 -0.00000000000E+00 -0.14269474546E+02  0.14269474774E+02  0.25500000000E-02 0.  1.
         23    2    1    2    0    0  0.00000000000E+00  0.00000000000E+00  0.13833484406E+03  0.16687379340E+03  0.93329169303E+02 0.  0.
    9000005    2    3    3    0    0 -0.44864223933E+02 -0.53188655143E+01  0.62060208838E+02  0.78223306105E+02  0.15044174204E+02 0.  0.
         22    1    3    3    0    0  0.44864223933E+02  0.53188655143E+01  0.76274635220E+02  0.88650487294E+02  0.00000000000E+00 0. -1.
         22    1    4    4    0    0 -0.35484379150E+02  0.53060541038E+00  0.39501288706E+02  0.53101549085E+02  0.00000000000E+00 0. -1.
         22    1    4    4    0    0 -0.93798447834E+01 -0.58494709247E+01  0.22558920133E+02  0.25121757021E+02  0.00000000000E+00 0. -1.
<mgrwt>
<rscale>  0 0.93329169E+02</rscale>
<asrwt>0</asrwt>
<pdfrwt beam="1">  1        2 0.23477588E-01 0.93329169E+02</pdfrwt>
<pdfrwt beam="2">  1       -2 0.21953038E-02 0.93329169E+02</pdfrwt>
<totfact> 0.13198770E+05</totfact>
</mgrwt>
</event>
<event>
 7    1  0.3056193E-009  0.9054303E+02  0.7818608E-02  0.1301542E+00
         -2   -1    0    0    0  501 -0.00000000000E+00  0.00000000000E+00  0.28284790461E+01  0.28284801955E+01  0.25500000000E-02 0.  1.
          2   -1    0    0  501    0  0.00000000000E+00 -0.00000000000E+00 -0.72459782901E+03  0.72459782902E+03  0.25500000000E-02 0. -1.
         23    2    1    2    0    0  0.00000000000E+00  0.00000000000E+00 -0.72176934996E+03  0.72742630921E+03  0.90543032772E+02 0.  0.
    9000005    2    3    3    0    0  0.33418108513E+02 -0.23161725021E+02 -0.51694915071E+03  0.51860928523E+03  0.81197796525E+01 0.  0.
         22    1    3    3    0    0 -0.33418108513E+02  0.23161725021E+02 -0.20482019925E+03  0.20881702398E+03  0.00000000000E+00 0. -1.
         22    1    4    4    0    0  0.16607338830E+01  0.47811363169E+00 -0.32090247244E+02  0.32136748402E+02  0.00000000000E+00 0.  1.
         22    1    4    4    0    0  0.31757374630E+02 -0.23639838652E+02 -0.48485890347E+03  0.48647253683E+03  0.00000000000E+00 0.  1.
<mgrwt>
<rscale>  0 0.90543033E+02</rscale>
<asrwt>0</asrwt>
<pdfrwt beam="2">  1        2 0.11147644E+00 0.90543033E+02</pdfrwt>
<pdfrwt beam="1">  1       -2 0.43515129E-03 0.90543033E+02</pdfrwt>
<totfact> 0.24343817E+05</totfact>
</mgrwt>
</event>
<event>
 7    1  0.3056193E-009  0.9131358E+02  0.7818608E-02  0.1299701E+00
          2   -1    0    0  501    0  0.00000000000E+00  0.00000000000E+00  0.38164851524E+03  0.38164851525E+03  0.25500000000E-02 0. -1.
         -2   -1    0    0    0  501 -0.00000000000E+00 -0.00000000000E+00 -0.54619430306E+01  0.54619436259E+01  0.25500000000E-02 0.  1.
         23    2    1    2    0    0  0.17763568394E-14  0.00000000000E+00  0.37618657221E+03  0.38711045887E+03  0.91313582009E+02 0.  0.
    9000005    2    3    3    0    0 -0.84653233744E+01 -0.43899974388E+02  0.19938836662E+03  0.20474687986E+03  0.12911026997E+02 0.  0.
         22    1    3    3    0    0  0.84653233744E+01  0.43899974388E+02  0.17679820559E+03  0.18236357901E+03  0.00000000000E+00 0. -1.
         22    1    4    4    0    0 -0.75472614011E+01 -0.31055822529E+02  0.11408426062E+03  0.11847634274E+03  0.00000000000E+00 0.  1.
         22    1    4    4    0    0 -0.91806197330E+00 -0.12844151859E+02  0.85304106002E+02  0.86270537123E+02  0.00000000000E+00 0.  1.
<mgrwt>
<rscale>  0 0.91313582E+02</rscale>
<asrwt>0</asrwt>
<pdfrwt beam="1">  1        2 0.58715183E-01 0.91313582E+02</pdfrwt>
<pdfrwt beam="2">  1       -2 0.84029859E-03 0.91313582E+02</pdfrwt>
<totfact> 0.19549981E+05</totfact>
</mgrwt>
</event>
<event>
 7    1  0.3056193E-009  0.1265861E+03  0.7818608E-02  0.1232611E+00
          2   -1    0    0  501    0  0.00000000000E+00  0.00000000000E+00  0.11776336882E+04  0.11776336882E+04  0.25500000000E-02 0. -1.
         -2   -1    0    0    0  501 -0.00000000000E+00 -0.00000000000E+00 -0.34017442643E+01  0.34017452201E+01  0.25500000000E-02 0.  1.
         23    2    1    2    0    0  0.00000000000E+00  0.00000000000E+00  0.11742319439E+04  0.11810354334E+04  0.12658608470E+03 0.  0.
    9000005    2    3    3    0    0 -0.14237583039E+02 -0.21231415805E+02  0.11266999281E+04  0.11270653091E+04  0.13038452735E+02 0.  0.
         22    1    3    3    0    0  0.14237583039E+02  0.21231415805E+02  0.47532015825E+02  0.53970124294E+02  0.00000000000E+00 0.  1.
         22    1    4    4    0    0 -0.86618906586E+01 -0.54023300014E+01  0.62825648538E+03  0.62833941858E+03  0.00000000000E+00 0.  1.
         22    1    4    4    0    0 -0.55756923806E+01 -0.15829085804E+02  0.49844344268E+03  0.49872589050E+03  0.00000000000E+00 0.  1.
<mgrwt>
<rscale>  0 0.12658608E+03</rscale>
<asrwt>0</asrwt>
<pdfrwt beam="1">  1        2 0.18117490E+00 0.12658608E+03</pdfrwt>
<pdfrwt beam="2">  1       -2 0.52334395E-03 0.12658608E+03</pdfrwt>
<totfact> 0.10358959E+05</totfact>
</mgrwt>
</event>
<event>
 7    1  0.3056193E-009  0.8848417E+02  0.7818608E-02  0.1306565E+00
         -2   -1    0    0    0  501 -0.00000000000E+00  0.00000000000E+00  0.28903240439E+03  0.28903240440E+03  0.25500000000E-02 0.  1.
          2   -1    0    0  501    0  0.00000000000E+00 -0.00000000000E+00 -0.67721192377E+01  0.67721197178E+01  0.25500000000E-02 0. -1.
         23    2    1    2    0    0  0.00000000000E+00  0.00000000000E+00  0.28226028515E+03  0.29580452412E+03  0.88484167595E+02 0.  0.
    9000005    2    3    3    0    0  0.35964296711E+02  0.11856039928E+02  0.76318301016E+02  0.86409927363E+02  0.14429003993E+02 0.  0.
         22    1    3    3    0    0 -0.35964296711E+02 -0.11856039928E+02  0.20594198414E+03  0.20939459676E+03  0.00000000000E+00 0.  1.
         22    1    4    4    0    0  0.21524610597E+02  0.14244891286E+02  0.46109049991E+02  0.52841936756E+02  0.00000000000E+00 0. -1.
         22    1    4    4    0    0  0.14439686114E+02 -0.23888513577E+01  0.30209251025E+02  0.33567990607E+02  0.00000000000E+00 0. -1.
<mgrwt>
<rscale>  0 0.88484168E+02</rscale>
<asrwt>0</asrwt>
<pdfrwt beam="2">  1        2 0.10418644E-02 0.88484168E+02</pdfrwt>
<pdfrwt beam="1">  1       -2 0.44466528E-01 0.88484168E+02</pdfrwt>
<totfact> 0.56237618E+04</totfact>
</mgrwt>
</event>
<event>
 7    1  0.3056193E-009  0.9044824E+02  0.7818608E-02  0.1301770E+00
          2   -1    0    0  501    0  0.00000000000E+00  0.00000000000E+00  0.92030650457E+02  0.92030650493E+02  0.25500000000E-02 0. -1.
         -2   -1    0    0    0  501 -0.00000000000E+00 -0.00000000000E+00 -0.22223258639E+02  0.22223258786E+02  0.25500000000E-02 0.  1.
         23    2    1    2    0    0  0.00000000000E+00  0.00000000000E+00  0.69807391818E+02  0.11425390928E+03  0.90448238418E+02 0.  0.
    9000005    2    3    3    0    0 -0.25046139420E+02  0.15080287934E+01 -0.10446194648E+02  0.30169300750E+02  0.13095055343E+02 0.  0.
         22    1    3    3    0    0  0.25046139420E+02 -0.15080287934E+01  0.80253586466E+02  0.84084608528E+02  0.00000000000E+00 0. -1.
         22    1    4    4    0    0 -0.79681637654E+01 -0.36012580508E+01  0.12727586393E+01  0.88363232114E+01  0.00000000000E+00 0. -1.
         22    1    4    4    0    0 -0.17077975654E+02  0.51092868443E+01 -0.11718953287E+02  0.21332977539E+02  0.00000000000E+00 0. -1.
<mgrwt>
<rscale>  0 0.90448238E+02</rscale>
<asrwt>0</asrwt>
<pdfrwt beam="1">  1        2 0.14158561E-01 0.90448238E+02</pdfrwt>
<pdfrwt beam="2">  1       -2 0.34189629E-02 0.90448238E+02</pdfrwt>
<totfact> 0.12232562E+05</totfact>
</mgrwt>
</event>
<event>
 7    1  0.3056193E-009  0.9110224E+02  0.7818608E-02  0.1300204E+00
         -2   -1    0    0    0  501 -0.00000000000E+00  0.00000000000E+00  0.19536116019E+01  0.19536132661E+01  0.25500000000E-02 0. -1.
          2   -1    0    0  501    0  0.00000000000E+00 -0.00000000000E+00 -0.10620860028E+04  0.10620860028E+04  0.25500000000E-02 0.  1.
         23    2    1    2    0    0  0.00000000000E+00  0.88817841970E-15 -0.10601323912E+04  0.10640396161E+04  0.91102237608E+02 0.  0.
    9000005    2    3    3    0    0 -0.23376745274E+02 -0.59958326313E+01 -0.98090578124E+03  0.98121885808E+03  0.56456665378E+01 0.  0.
         22    1    3    3    0    0  0.23376745274E+02  0.59958326313E+01 -0.79226609940E+02  0.82820757973E+02  0.00000000000E+00 0. -1.
         22    1    4    4    0    0 -0.46272110025E+01 -0.29243327375E+01 -0.16117333439E+03  0.16126625972E+03  0.00000000000E+00 0.  1.
         22    1    4    4    0    0 -0.18749534271E+02 -0.30714998938E+01 -0.81973244685E+03  0.81995259836E+03  0.00000000000E+00 0.  1.
<mgrwt>
<rscale>  0 0.91102238E+02</rscale>
<asrwt>0</asrwt>
<pdfrwt beam="2">  1        2 0.16339739E+00 0.91102238E+02</pdfrwt>
<pdfrwt beam="1">  1       -2 0.30055661E-03 0.91102238E+02</pdfrwt>
<totfact> 0.25087247E+05</totfact>
</mgrwt>
</event>
<event>
 7    1  0.3056193E-009  0.9344107E+02  0.7818608E-02  0.1294726E+00
          2   -1    0    0  501    0  0.00000000000E+00  0.00000000000E+00  0.63418362315E+02  0.63418362366E+02  0.25500000000E-02 0. -1.
         -2   -1    0    0    0  501 -0.00000000000E+00 -0.00000000000E+00 -0.34419188515E+02  0.34419188610E+02  0.25500000000E-02 0.  1.
         23    2    1    2    0    0  0.00000000000E+00  0.00000000000E+00  0.28999173799E+02  0.97837550976E+02  0.93441073945E+02 0.  0.
    9000005    2    3    3    0    0  0.45055384139E+02 -0.44232981442E+00  0.22208735407E+02  0.52271188941E+02  0.14452196003E+02 0.  0.
         22    1    3    3    0    0 -0.45055384139E+02  0.44232981442E+00  0.67904383920E+01  0.45566362035E+02  0.00000000000E+00 0.  1.
         22    1    4    4    0    0  0.12186356864E+01 -0.11235944162E+00 -0.18857524307E+01  0.22480568965E+01  0.00000000000E+00 0.  1.
         22    1    4    4    0    0  0.43836748452E+02 -0.32997037280E+00  0.24094487838E+02  0.50023132044E+02  0.00000000000E+00 0.  1.
<mgrwt>
<rscale>  0 0.93441074E+02</rscale>
<asrwt>0</asrwt>
<pdfrwt beam="1">  1        2 0.97566710E-02 0.93441074E+02</pdfrwt>
<pdfrwt beam="2">  1       -2 0.52952599E-02 0.93441074E+02</pdfrwt>
<totfact> 0.10046850E+05</totfact>
</mgrwt>
</event>
<event>
 7    1  0.3056193E-009  0.8863997E+02  0.7818608E-02  0.1306179E+00
          2   -1    0    0  501    0  0.00000000000E+00  0.00000000000E+00  0.50129078089E+02  0.50129078154E+02  0.25500000000E-02 0. -1.
         -2   -1    0    0    0  501 -0.00000000000E+00 -0.00000000000E+00 -0.39184066017E+02  0.39184066100E+02  0.25500000000E-02 0.  1.
         23    2    1    2    0    0  0.00000000000E+00  0.00000000000E+00  0.10945012072E+02  0.89313144254E+02  0.88639970935E+02 0.  0.
    9000005    2    3    3    0    0 -0.90983208468E+01 -0.20075394850E+02  0.44195498135E+02  0.49420842440E+02  0.18375775977E+01 0.  0.
         22    1    3    3    0    0  0.90983208468E+01  0.20075394850E+02 -0.33250486063E+02  0.39892301814E+02  0.00000000000E+00 0.  1.
         22    1    4    4    0    0 -0.66078762635E+01 -0.12707444450E+02  0.27705025205E+02  0.31188324655E+02  0.00000000000E+00 0. -1.
         22    1    4    4    0    0 -0.24904445833E+01 -0.73679503998E+01  0.16490472930E+02  0.18232517785E+02  0.00000000000E+00 0. -1.
<mgrwt>
<rscale>  0 0.88639971E+02</rscale>
<asrwt>0</asrwt>
<pdfrwt beam="1">  1        2 0.77121659E-02 0.88639971E+02</pdfrwt>
<pdfrwt beam="2">  1       -2 0.60283179E-02 0.88639971E+02</pdfrwt>
<totfact> 0.10958911E+05</totfact>
</mgrwt>
</event>
<event>
 7    1  0.3056193E-009  0.9179506E+02  0.7818608E-02  0.1298562E+00
         -2   -1    0    0    0  501 -0.00000000000E+00  0.00000000000E+00  0.48854639211E+01  0.48854645866E+01  0.25500000000E-02 0.  1.
          2   -1    0    0  501    0  0.00000000000E+00 -0.00000000000E+00 -0.43119403786E+03  0.43119403787E+03  0.25500000000E-02 0. -1.
         23    2    1    2    0    0  0.00000000000E+00  0.00000000000E+00 -0.42630857394E+03  0.43607950246E+03  0.91795055678E+02 0.  0.
    9000005    2    3    3    0    0  0.41626738018E+02 -0.16206336632E+02 -0.19535915187E+03  0.20084968670E+03  0.13415206437E+02 0.  0.
         22    1    3    3    0    0 -0.41626738018E+02  0.16206336632E+02 -0.23094942207E+03  0.23522981576E+03  0.00000000000E+00 0. -1.
         22    1    4    4    0    0  0.28474123298E+02 -0.16870332663E+02 -0.12758295317E+03  0.13180589426E+03  0.00000000000E+00 0. -1.
         22    1    4    4    0    0  0.13152614719E+02  0.66399603033E+00 -0.67776198696E+02  0.69043792439E+02  0.00000000000E+00 0. -1.
<mgrwt>
<rscale>  0 0.91795056E+02</rscale>
<asrwt>0</asrwt>
<pdfrwt beam="2">  1        2 0.66337514E-01 0.91795056E+02</pdfrwt>
<pdfrwt beam="1">  1       -2 0.75161022E-03 0.91795056E+02</pdfrwt>
<totfact> 0.20134765E+05</totfact>
</mgrwt>
</event>
<event>
 7    1  0.3056193E-009  0.8537636E+02  0.7818608E-02  0.1314451E+00
          2   -1    0    0  501    0  0.00000000000E+00  0.00000000000E+00  0.11886026061E+02  0.11886026334E+02  0.25500000000E-02 0. -1.
         -2   -1    0    0    0  501 -0.00000000000E+00 -0.00000000000E+00 -0.15331286910E+03  0.15331286913E+03  0.25500000000E-02 0.  1.
         23    2    1    2    0    0  0.22204460493E-15  0.00000000000E+00 -0.14142684304E+03  0.16519889546E+03  0.85376361646E+02 0.  0.
    9000005    2    3    3    0    0 -0.15391113711E+01  0.26732789036E+02 -0.13378416349E+03  0.13735250567E+03  0.15827114059E+02 0.  0.
         22    1    3    3    0    0  0.15391113711E+01 -0.26732789036E+02 -0.76426795505E+01  0.27846389787E+02  0.00000000000E+00 0. -1.
         22    1    4    4    0    0 -0.47118901546E+01  0.18105326070E+01 -0.12258730270E+02  0.13257315149E+02  0.00000000000E+00 0. -1.
         22    1    4    4    0    0  0.31727787835E+01  0.24922256429E+02 -0.12152543322E+03  0.12409519052E+03  0.00000000000E+00 0. -1.
<mgrwt>
<rscale>  0 0.85376362E+02</rscale>
<asrwt>0</asrwt>
<pdfrwt beam="1">  1        2 0.18286195E-02 0.85376362E+02</pdfrwt>
<pdfrwt beam="2">  1       -2 0.23586594E-01 0.85376362E+02</pdfrwt>
<totfact> 0.81839087E+04</totfact>
</mgrwt>
</event>
<event>
 7    1  0.3056193E-009  0.6537642E+02  0.7818608E-02  0.1376561E+00
         -2   -1    0    0    0  501 -0.00000000000E+00  0.00000000000E+00  0.57808524674E+01  0.57808530298E+01  0.25500000000E-02 0.  1.
          2   -1    0    0  501    0  0.00000000000E+00 -0.00000000000E+00 -0.18483759401E+03  0.18483759403E+03  0.25500000000E-02 0. -1.
         23    2    1    2    0    0  0.35527136788E-14  0.00000000000E+00 -0.17905674155E+03  0.19061844706E+03  0.65376415218E+02 0.  0.
    9000005    2    3    3    0    0 -0.30621663175E+02  0.55759215838E+01 -0.11806991722E+03  0.12214823530E+03  0.33028589984E+01 0.  0.
         22    1    3    3    0    0  0.30621663175E+02 -0.55759215838E+01 -0.60986824327E+02  0.68470211761E+02  0.00000000000E+00 0.  1.
         22    1    4    4    0    0 -0.71833270513E+01 -0.82640404165E-01 -0.26248668709E+02  0.27213960130E+02  0.00000000000E+00 0. -1.
         22    1    4    4    0    0 -0.23438336124E+02  0.56585619880E+01 -0.91821248511E+02  0.94934275170E+02  0.00000000000E+00 0. -1.
<mgrwt>
<rscale>  0 0.65376415E+02</rscale>
<asrwt>0</asrwt>
<pdfrwt beam="2">  1        2 0.28436549E-01 0.65376415E+02</pdfrwt>
<pdfrwt beam="1">  1       -2 0.88936210E-03 0.65376415E+02</pdfrwt>
<totfact> 0.36220232E+05</totfact>
</mgrwt>
</event>
<event>
 7    1  0.3056193E-009  0.8496783E+02  0.7818608E-02  0.1315517E+00
          2   -1    0    0  501    0  0.00000000000E+00  0.00000000000E+00  0.10983146990E+04  0.10983146990E+04  0.25500000000E-02 0. -1.
         -2   -1    0    0    0  501 -0.00000000000E+00 -0.00000000000E+00 -0.16433193114E+01  0.16433212899E+01  0.25500000000E-02 0.  1.
         23    2    1    2    0    0  0.00000000000E+00  0.00000000000E+00  0.10966713797E+04  0.10999580203E+04  0.84967825548E+02 0.  0.
    9000005    2    3    3    0    0 -0.23621126099E+02  0.62140038317E+01  0.99556792558E+03  0.99594609850E+03  0.12512603078E+02 0.  0.
         22    1    3    3    0    0  0.23621126099E+02 -0.62140038317E+01  0.10110345409E+03  0.10401192177E+03  0.00000000000E+00 0.  1.
         22    1    4    4    0    0 -0.18153677031E+02  0.15782039678E+01  0.51031655653E+03  0.51064178696E+03  0.00000000000E+00 0. -1.
         22    1    4    4    0    0 -0.54674490682E+01  0.46357998639E+01  0.48525136904E+03  0.48530431154E+03  0.00000000000E+00 0. -1.
<mgrwt>
<rscale>  0 0.84967826E+02</rscale>
<asrwt>0</asrwt>
<pdfrwt beam="1">  1        2 0.16897175E+00 0.84967826E+02</pdfrwt>
<pdfrwt beam="2">  1       -2 0.25281813E-03 0.84967826E+02</pdfrwt>
<totfact> 0.30105791E+05</totfact>
</mgrwt>
</event>
<event>
 7    1  0.3056193E-009  0.9203032E+02  0.7818608E-02  0.1298008E+00
         -2   -1    0    0    0  501 -0.00000000000E+00  0.00000000000E+00  0.19866632739E+02  0.19866632903E+02  0.25500000000E-02 0.  1.
          2   -1    0    0  501    0  0.00000000000E+00 -0.00000000000E+00 -0.10658045550E+03  0.10658045553E+03  0.25500000000E-02 0. -1.
         23    2    1    2    0    0  0.00000000000E+00  0.17763568394E-14 -0.86713822761E+02  0.12644708843E+03  0.92030316285E+02 0.  0.
    9000005    2    3    3    0    0  0.32987709843E+02  0.14227581595E+02 -0.53888167462E+01  0.37540566277E+02  0.94679296421E+01 0.  0.
         22    1    3    3    0    0 -0.32987709843E+02 -0.14227581595E+02 -0.81325006015E+02  0.88906522157E+02  0.00000000000E+00 0. -1.
         22    1    4    4    0    0  0.28150260670E+02  0.13298717974E+02 -0.13365953560E+01  0.31162149520E+02  0.00000000000E+00 0.  1.
         22    1    4    4    0    0  0.48374491730E+01  0.92886362096E+00 -0.40522213903E+01  0.63784167568E+01  0.00000000000E+00 0.  1.
<mgrwt>
<rscale>  0 0.92030316E+02</rscale>
<asrwt>0</asrwt>
<pdfrwt beam="2">  1        2 0.16396993E-01 0.92030316E+02</pdfrwt>
<pdfrwt beam="1">  1       -2 0.30564051E-02 0.92030316E+02</pdfrwt>
<totfact> 0.12193662E+05</totfact>
</mgrwt>
</event>
<event>
 7    1  0.3056193E-009  0.9043031E+02  0.7818608E-02  0.1301813E+00
         -2   -1    0    0    0  501 -0.00000000000E+00  0.00000000000E+00  0.11114925485E+03  0.11114925488E+03  0.25500000000E-02 0.  1.
          2   -1    0    0  501    0  0.00000000000E+00 -0.00000000000E+00 -0.18393379446E+02  0.18393379623E+02  0.25500000000E-02 0. -1.
         23    2    1    2    0    0  0.35527136788E-14  0.88817841970E-15  0.92755875401E+02  0.12954263450E+03  0.90430314230E+02 0.  0.
    9000005    2    3    3    0    0  0.29450497049E+02  0.78493436951E+01  0.21937342391E+01  0.33989270432E+02  0.14883348472E+02 0.  0.
         22    1    3    3    0    0 -0.29450497049E+02 -0.78493436951E+01  0.90562141162E+02  0.95553364068E+02  0.00000000000E+00 0.  1.
         22    1    4    4    0    0  0.79443455067E+01 -0.11674694331E+01  0.64310099632E+01  0.10287540987E+02  0.00000000000E+00 0.  1.
         22    1    4    4    0    0  0.21506151542E+02  0.90168131282E+01 -0.42372757241E+01  0.23701729445E+02  0.00000000000E+00 0.  1.
<mgrwt>
<rscale>  0 0.90430314E+02</rscale>
<asrwt>0</asrwt>
<pdfrwt beam="2">  1        2 0.28297507E-02 0.90430314E+02</pdfrwt>
<pdfrwt beam="1">  1       -2 0.17099885E-01 0.90430314E+02</pdfrwt>
<totfact> 0.78878777E+04</totfact>
</mgrwt>
</event>
<event>
 7    1  0.3056193E-009  0.9755653E+02  0.7818608E-02  0.1285520E+00
         -2   -1    0    0    0  501 -0.00000000000E+00  0.00000000000E+00  0.90593409675E+01  0.90593413263E+01  0.25500000000E-02 0.  1.
          2   -1    0    0  501    0  0.00000000000E+00 -0.00000000000E+00 -0.26263713174E+03  0.26263713176E+03  0.25500000000E-02 0. -1.
         23    2    1    2    0    0  0.00000000000E+00  0.00000000000E+00 -0.25357779078E+03  0.27169647308E+03  0.97556534945E+02 0.  0.
    9000005    2    3    3    0    0 -0.24726065577E+02 -0.40973030305E+02 -0.14448890042E+03  0.15257236330E+03  0.10541165421E+02 0.  0.
         22    1    3    3    0    0  0.24726065577E+02  0.40973030305E+02 -0.10908889036E+03  0.11912410978E+03  0.00000000000E+00 0.  1.
         22    1    4    4    0    0 -0.13399260306E+02 -0.25673434984E+02 -0.71506615530E+02  0.77148308505E+02  0.00000000000E+00 0.  1.
         22    1    4    4    0    0 -0.11326805271E+02 -0.15299595321E+02 -0.72982284888E+02  0.75424054798E+02  0.00000000000E+00 0.  1.
<mgrwt>
<rscale>  0 0.97556535E+02</rscale>
<asrwt>0</asrwt>
<pdfrwt beam="2">  1        2 0.40405707E-01 0.97556535E+02</pdfrwt>
<pdfrwt beam="1">  1       -2 0.13937450E-02 0.97556535E+02</pdfrwt>
<totfact> 0.14255475E+05</totfact>
</mgrwt>
</event>
<event>
 7    1  0.3056193E-009  0.8882063E+02  0.7818608E-02  0.1305733E+00
         -2   -1    0    0    0  501 -0.00000000000E+00  0.00000000000E+00  0.23960207852E+03  0.23960207853E+03  0.25500000000E-02 0.  1.
          2   -1    0    0  501    0  0.00000000000E+00 -0.00000000000E+00 -0.82314646743E+01  0.82314650693E+01  0.25500000000E-02 0. -1.
         23    2    1    2    0    0  0.00000000000E+00  0.00000000000E+00  0.23137061384E+03  0.24783354360E+03  0.88820630393E+02 0.  0.
    9000005    2    3    3    0    0 -0.13928980848E+02  0.38639774229E+02  0.16171834607E+03  0.16697263174E+03  0.63235778370E+01 0.  0.
         22    1    3    3    0    0  0.13928980848E+02 -0.38639774229E+02  0.69652267773E+02  0.80860911854E+02  0.00000000000E+00 0. -1.
         22    1    4    4    0    0 -0.56200758203E+01  0.11977796251E+02  0.63352032328E+02  0.64718875572E+02  0.00000000000E+00 0.  1.
         22    1    4    4    0    0 -0.83089050279E+01  0.26661977978E+02  0.98366313741E+02  0.10225375617E+03  0.00000000000E+00 0.  1.
<mgrwt>
<rscale>  0 0.88820630E+02</rscale>
<asrwt>0</asrwt>
<pdfrwt beam="2">  1        2 0.12663792E-02 0.88820630E+02</pdfrwt>
<pdfrwt beam="1">  1       -2 0.36861860E-01 0.88820630E+02</pdfrwt>
<totfact> 0.61342746E+04</totfact>
</mgrwt>
</event>
<event>
 7    1  0.3056193E-009  0.9171537E+02  0.7818608E-02  0.1298750E+00
          2   -1    0    0  501    0  0.00000000000E+00  0.00000000000E+00  0.67801850356E+01  0.67801855152E+01  0.25500000000E-02 0. -1.
         -2   -1    0    0    0  501 -0.00000000000E+00 -0.00000000000E+00 -0.31015780756E+03  0.31015780757E+03  0.25500000000E-02 0.  1.
         23    2    1    2    0    0  0.00000000000E+00  0.28449465006E-15 -0.30337762252E+03  0.31693799309E+03  0.91715372826E+02 0.  0.
    9000005    2    3    3    0    0  0.19304128815E+02 -0.41802814074E-01 -0.29480705376E+03  0.29581677660E+03  0.14957113249E+02 0.  0.
         22    1    3    3    0    0 -0.19304128815E+02  0.41802814074E-01 -0.85705687666E+01  0.21121216484E+02  0.00000000000E+00 0. -1.
         22    1    4    4    0    0  0.82850506999E+01  0.73746127003E+01 -0.14328400619E+03  0.14371267657E+03  0.00000000000E+00 0. -1.
         22    1    4    4    0    0  0.11019078115E+02 -0.74164155144E+01 -0.15152304757E+03  0.15210410003E+03  0.00000000000E+00 0. -1.
<mgrwt>
<rscale>  0 0.91715373E+02</rscale>
<asrwt>0</asrwt>
<pdfrwt beam="1">  1        2 0.10431057E-02 0.91715373E+02</pdfrwt>
<pdfrwt beam="2">  1       -2 0.47716575E-01 0.91715373E+02</pdfrwt>
<totfact> 0.49290675E+04</totfact>
</mgrwt>
</event>
<event>
 7    1  0.3056193E-009  0.9064036E+02  0.7818608E-02  0.1301308E+00
         -2   -1    0    0    0  501 -0.00000000000E+00  0.00000000000E+00  0.24118539728E+01  0.24118553208E+01  0.25500000000E-02 0.  1.
          2   -1    0    0  501    0  0.00000000000E+00 -0.00000000000E+00 -0.85159301968E+03  0.85159301968E+03  0.25500000000E-02 0. -1.
         23    2    1    2    0    0  0.00000000000E+00  0.00000000000E+00 -0.84918116571E+03  0.85400487500E+03  0.90640357125E+02 0.  0.
    9000005    2    3    3    0    0  0.10008959308E+02  0.22576918351E+02 -0.78121741538E+03  0.78169327243E+03  0.11568299655E+02 0.  0.
         22    1    3    3    0    0 -0.10008959308E+02 -0.22576918351E+02 -0.67963750323E+02  0.72311602573E+02  0.00000000000E+00 0.  1.
         22    1    4    4    0    0  0.59094007253E+01  0.16555035091E+02 -0.37630947206E+03  0.37671980166E+03  0.00000000000E+00 0.  1.
         22    1    4    4    0    0  0.40995585830E+01  0.60218832605E+01 -0.40490794333E+03  0.40497347077E+03  0.00000000000E+00 0.  1.
<mgrwt>
<rscale>  0 0.90640357E+02</rscale>
<asrwt>0</asrwt>
<pdfrwt beam="2">  1        2 0.13101407E+00 0.90640357E+02</pdfrwt>
<pdfrwt beam="1">  1       -2 0.37105524E-03 0.90640357E+02</pdfrwt>
<totfact> 0.25004473E+05</totfact>
</mgrwt>
</event>
<event>
 7    1  0.3056193E-009  0.9788135E+02  0.7818608E-02  0.1284815E+00
         -2   -1    0    0    0  501 -0.00000000000E+00  0.00000000000E+00  0.34322750078E+01  0.34322759550E+01  0.25500000000E-02 0.  1.
          2   -1    0    0  501    0  0.00000000000E+00 -0.00000000000E+00 -0.69784304787E+03  0.69784304788E+03  0.25500000000E-02 0. -1.
         23    2    1    2    0    0  0.00000000000E+00  0.00000000000E+00 -0.69441077286E+03  0.70127532383E+03  0.97881348301E+02 0.  0.
    9000005    2    3    3    0    0  0.73162276114E+01 -0.27467168966E+02 -0.63250430155E+03  0.63315496162E+03  0.39422563045E+01 0.  0.
         22    1    3    3    0    0 -0.73162276114E+01  0.27467168966E+02 -0.61906471309E+02  0.68120362208E+02  0.00000000000E+00 0.  1.
         22    1    4    4    0    0  0.29009787713E+01 -0.49690231281E+01 -0.13550712757E+03  0.13562923170E+03  0.00000000000E+00 0. -1.
         22    1    4    4    0    0  0.44152488401E+01 -0.22498145838E+02 -0.49699717398E+03  0.49752572992E+03  0.00000000000E+00 0. -1.
<mgrwt>
<rscale>  0 0.97881348E+02</rscale>
<asrwt>0</asrwt>
<pdfrwt beam="2">  1        2 0.10736036E+00 0.97881348E+02</pdfrwt>
<pdfrwt beam="1">  1       -2 0.52804294E-03 0.97881348E+02</pdfrwt>
<totfact> 0.19638376E+05</totfact>
</mgrwt>
</event>
<event>
 7    1  0.3056193E-009  0.8908350E+02  0.7818608E-02  0.1305086E+00
         -2   -1    0    0    0  501 -0.00000000000E+00  0.00000000000E+00  0.68866035638E+01  0.68866040359E+01  0.25500000000E-02 0.  1.
          2   -1    0    0  501    0  0.00000000000E+00 -0.00000000000E+00 -0.28809081386E+03  0.28809081387E+03  0.25500000000E-02 0. -1.
         23    2    1    2    0    0  0.00000000000E+00  0.00000000000E+00 -0.28120421029E+03  0.29497741791E+03  0.89083495592E+02 0.  0.
    9000005    2    3    3    0    0  0.27928575628E+02  0.18316946143E+02 -0.23684138797E+03  0.23944746331E+03  0.11212884468E+02 0.  0.
         22    1    3    3    0    0 -0.27928575628E+02 -0.18316946143E+02 -0.44362822322E+02  0.55529954592E+02  0.00000000000E+00 0.  1.
         22    1    4    4    0    0  0.15520732800E+02  0.16548475281E+02 -0.15528396004E+03  0.15693263977E+03  0.00000000000E+00 0. -1.
         22    1    4    4    0    0  0.12407842827E+02  0.17684708621E+01 -0.81557427933E+02  0.82514823540E+02  0.00000000000E+00 0. -1.
<mgrwt>
<rscale>  0 0.89083496E+02</rscale>
<asrwt>0</asrwt>
<pdfrwt beam="2">  1        2 0.44321654E-01 0.89083496E+02</pdfrwt>
<pdfrwt beam="1">  1       -2 0.10594777E-02 0.89083496E+02</pdfrwt>
<totfact> 0.18826983E+05</totfact>
</mgrwt>
</event>
<event>
 7    1  0.3056193E-009  0.9343477E+02  0.7818608E-02  0.1294741E+00
          2   -1    0    0  501    0  0.00000000000E+00  0.00000000000E+00  0.76971016456E+03  0.76971016456E+03  0.25500000000E-02 0. -1.
         -2   -1    0    0    0  501 -0.00000000000E+00 -0.00000000000E+00 -0.28355008340E+01  0.28355019806E+01  0.25500000000E-02 0.  1.
         23    2    1    2    0    0 -0.35527136788E-14  0.00000000000E+00  0.76687466373E+03  0.77254566654E+03  0.93434774213E+02 0.  0.
    9000005    2    3    3    0    0  0.24974461676E+02 -0.86767201019E+01  0.69993027636E+03  0.70056955795E+03  0.14010872996E+02 0.  0.
         22    1    3    3    0    0 -0.24974461676E+02  0.86767201019E+01  0.66944387367E+02  0.71976108589E+02  0.00000000000E+00 0.  1.
         22    1    4    4    0    0  0.90758407011E+01  0.11586668453E+01  0.36761259376E+03  0.36772643702E+03  0.00000000000E+00 0. -1.
         22    1    4    4    0    0  0.15898620975E+02 -0.98353869472E+01  0.33231768260E+03  0.33284312094E+03  0.00000000000E+00 0. -1.
<mgrwt>
<rscale>  0 0.93434774E+02</rscale>
<asrwt>0</asrwt>
<pdfrwt beam="1">  1        2 0.11841697E+00 0.93434774E+02</pdfrwt>
<pdfrwt beam="2">  1       -2 0.43623090E-03 0.93434774E+02</pdfrwt>
<totfact> 0.22687466E+05</totfact>
</mgrwt>
</event>
<event>
 7    1  0.3056193E-009  0.9161058E+02  0.7818608E-02  0.1298998E+00
          2   -1    0    0  501    0  0.00000000000E+00  0.00000000000E+00  0.13055695307E+03  0.13055695310E+03  0.25500000000E-02 0. -1.
         -2   -1    0    0    0  501 -0.00000000000E+00 -0.00000000000E+00 -0.16070569256E+02  0.16070569458E+02  0.25500000000E-02 0.  1.
         23    2    1    2    0    0  0.71054273576E-14  0.00000000000E+00  0.11448638382E+03  0.14662752256E+03  0.91610579583E+02 0.  0.
    9000005    2    3    3    0    0 -0.39212919051E+02  0.22316098221E+02  0.53153771020E+02  0.70487187301E+02  0.10366240380E+02 0.  0.
         22    1    3    3    0    0  0.39212919051E+02 -0.22316098221E+02  0.61332612798E+02  0.76140335256E+02  0.00000000000E+00 0. -1.
         22    1    4    4    0    0 -0.16409986486E+02  0.15060807920E+02  0.27833861822E+02  0.35648835263E+02  0.00000000000E+00 0.  1.
         22    1    4    4    0    0 -0.22802932565E+02  0.72552903011E+01  0.25319909198E+02  0.34838352038E+02  0.00000000000E+00 0.  1.
<mgrwt>
<rscale>  0 0.91610580E+02</rscale>
<asrwt>0</asrwt>
<pdfrwt beam="1">  1        2 0.20085685E-01 0.91610580E+02</pdfrwt>
<pdfrwt beam="2">  1       -2 0.24723952E-02 0.91610580E+02</pdfrwt>
<totfact> 0.13175008E+05</totfact>
</mgrwt>
</event>
<event>
 7    1  0.3056193E-009  0.8059470E+02  0.7818608E-02  0.1327372E+00
         -2   -1    0    0    0  501 -0.00000000000E+00  0.00000000000E+00  0.20316757758E+01  0.20316773761E+01  0.25500000000E-02 0.  1.
          2   -1    0    0  501    0  0.00000000000E+00 -0.00000000000E+00 -0.79927890654E+03  0.79927890654E+03  0.25500000000E-02 0. -1.
         23    2    1    2    0    0  0.00000000000E+00  0.00000000000E+00 -0.79724723076E+03  0.80131058392E+03  0.80594695491E+02 0.  0.
    9000005    2    3    3    0    0  0.42707861029E+01  0.33986248339E+02 -0.59589800513E+03  0.59706853303E+03  0.14936395862E+02 0.  0.
         22    1    3    3    0    0 -0.42707861029E+01 -0.33986248339E+02 -0.20134922563E+03  0.20424205089E+03  0.00000000000E+00 0.  1.
         22    1    4    4    0    0  0.69007118650E+01  0.13162701725E+02 -0.16800766875E+03  0.16866372846E+03  0.00000000000E+00 0. -1.
         22    1    4    4    0    0 -0.26299257620E+01  0.20823546614E+02 -0.42789033639E+03  0.42840480457E+03  0.00000000000E+00 0. -1.
<mgrwt>
<rscale>  0 0.80594695E+02</rscale>
<asrwt>0</asrwt>
<pdfrwt beam="2">  1        2 0.12296573E+00 0.80594695E+02</pdfrwt>
<pdfrwt beam="1">  1       -2 0.31256626E-03 0.80594695E+02</pdfrwt>
<totfact> 0.33663907E+05</totfact>
</mgrwt>
</event>
<event>
 7    1  0.3056193E-009  0.9105134E+02  0.7818608E-02  0.1300326E+00
         -2   -1    0    0    0  501 -0.00000000000E+00  0.00000000000E+00  0.60491109791E+01  0.60491115166E+01  0.25500000000E-02 0.  1.
          2   -1    0    0  501    0  0.00000000000E+00 -0.00000000000E+00 -0.34262664482E+03  0.34262664483E+03  0.25500000000E-02 0. -1.
         23    2    1    2    0    0 -0.71054273576E-14 -0.35527136788E-14 -0.33657753385E+03  0.34867575635E+03  0.91051341436E+02 0.  0.
    9000005    2    3    3    0    0  0.32046159258E+02  0.31291777638E+02 -0.18744137180E+03  0.19295894126E+03  0.96308608513E+01 0.  0.
         22    1    3    3    0    0 -0.32046159258E+02 -0.31291777638E+02 -0.14913616205E+03  0.15571681509E+03  0.00000000000E+00 0.  1.
         22    1    4    4    0    0  0.33414193340E+01  0.28211798360E+01 -0.34023873461E+02  0.34303762244E+02  0.00000000000E+00 0.  1.
         22    1    4    4    0    0  0.28704739924E+02  0.28470597802E+02 -0.15341749834E+03  0.15865517902E+03  0.00000000000E+00 0.  1.
<mgrwt>
<rscale>  0 0.91051341E+02</rscale>
<asrwt>0</asrwt>
<pdfrwt beam="2">  1        2 0.52711776E-01 0.91051341E+02</pdfrwt>
<pdfrwt beam="1">  1       -2 0.93063277E-03 0.91051341E+02</pdfrwt>
<totfact> 0.18941142E+05</totfact>
</mgrwt>
</event>
<event>
 7    1  0.3056193E-009  0.9086362E+02  0.7818608E-02  0.1300774E+00
          2   -1    0    0  501    0  0.00000000000E+00  0.00000000000E+00  0.46809062262E+03  0.46809062263E+03  0.25500000000E-02 0.  1.
         -2   -1    0    0    0  501 -0.00000000000E+00 -0.00000000000E+00 -0.44095079604E+01  0.44095086977E+01  0.25500000000E-02 0. -1.
         23    2    1    2    0    0  0.00000000000E+00 -0.33306690739E-15  0.46368111466E+03  0.47250013133E+03  0.90863623139E+02 0.  0.
    9000005    2    3    3    0    0 -0.44748950844E+02 -0.18850833827E+00  0.26576379298E+03  0.26958692239E+03  0.66491300718E+01 0.  0.
         22    1    3    3    0    0  0.44748950844E+02  0.18850833827E+00  0.19791732168E+03  0.20291320893E+03  0.00000000000E+00 0.  1.
         22    1    4    4    0    0 -0.29273523027E+02  0.30377894430E+01  0.17176023402E+03  0.17426343651E+03  0.00000000000E+00 0.  1.
         22    1    4    4    0    0 -0.15475427817E+02 -0.32262977813E+01  0.94003558958E+02  0.95323485880E+02  0.00000000000E+00 0.  1.
<mgrwt>
<rscale>  0 0.90863623E+02</rscale>
<asrwt>0</asrwt>
<pdfrwt beam="1">  1        2 0.72013871E-01 0.90863623E+02</pdfrwt>
<pdfrwt beam="2">  1       -2 0.67838657E-03 0.90863623E+02</pdfrwt>
<totfact> 0.21277497E+05</totfact>
</mgrwt>
</event>
<event>
 7    1  0.3056193E-009  0.9072971E+02  0.7818608E-02  0.1301094E+00
          2   -1    0    0  501    0  0.00000000000E+00  0.00000000000E+00  0.17107763017E+03  0.17107763019E+03  0.25500000000E-02 0. -1.
         -2   -1    0    0    0  501 -0.00000000000E+00 -0.00000000000E+00 -0.12029451942E+02  0.12029452213E+02  0.25500000000E-02 0.  1.
         23    2    1    2    0    0  0.11102230246E-15  0.00000000000E+00  0.15904817823E+03  0.18310708241E+03  0.90729711937E+02 0.  0.
    9000005    2    3    3    0    0 -0.60049277314E+00  0.41223876285E+02  0.41850584957E+02  0.58869228122E+02  0.37876101863E+01 0.  0.
         22    1    3    3    0    0  0.60049277314E+00 -0.41223876285E+02  0.11719759327E+03  0.12423785428E+03  0.00000000000E+00 0.  1.
         22    1    4    4    0    0  0.97939509117E+00  0.23810223503E+02  0.26003018983E+02  0.35270993100E+02  0.00000000000E+00 0.  1.
         22    1    4    4    0    0 -0.15798878643E+01  0.17413652782E+02  0.15847565974E+02  0.23598235023E+02  0.00000000000E+00 0.  1.
<mgrwt>
<rscale>  0 0.90729712E+02</rscale>
<asrwt>0</asrwt>
<pdfrwt beam="1">  1        2 0.26319636E-01 0.90729712E+02</pdfrwt>
<pdfrwt beam="2">  1       -2 0.18506849E-02 0.90729712E+02</pdfrwt>
<totfact> 0.14825776E+05</totfact>
</mgrwt>
</event>
<event>
 7    1  0.3973788E-009  0.9150550E+02  0.7818608E-02  0.1299246E+00
          2   -1    0    0  501    0  0.00000000000E+00  0.00000000000E+00  0.11500514565E+04  0.11500514565E+04  0.25500000000E-02 0. -1.
         -2   -1    0    0    0  501 -0.00000000000E+00 -0.00000000000E+00 -0.18201909518E+01  0.18201927381E+01  0.25500000000E-02 0.  1.
         23    2    1    2    0    0  0.35527136788E-14  0.17763568394E-14  0.11482312655E+04  0.11518716492E+04  0.91505503344E+02 0.  0.
    9000005    2    3    3    0    0 -0.31629487024E+02  0.12520264095E+02  0.95015550496E+03  0.95089605770E+03  0.15831850214E+02 0.  0.
         22    1    3    3    0    0  0.31629487024E+02 -0.12520264095E+02  0.19807576055E+03  0.20097559150E+03  0.00000000000E+00 0.  1.
         22    1    4    4    0    0 -0.92874851139E+01  0.30356691352E+01  0.12410905161E+03  0.12449308960E+03  0.00000000000E+00 0. -1.
         22    1    4    4    0    0 -0.22342001910E+02  0.94845949594E+01  0.82604645335E+03  0.82640296810E+03  0.00000000000E+00 0. -1.
<mgrwt>
<rscale>  0 0.91505503E+02</rscale>
<asrwt>0</asrwt>
<pdfrwt beam="1">  1        2 0.17693058E+00 0.91505503E+02</pdfrwt>
<pdfrwt beam="2">  1       -2 0.28003017E-03 0.91505503E+02</pdfrwt>
<totfact> 0.24727996E+05</totfact>
</mgrwt>
</event>
<event>
 7    1  0.3056193E-009  0.1013760E+03  0.7818608E-02  0.1277429E+00
          2   -1    0    0  501    0  0.00000000000E+00  0.00000000000E+00  0.17262778845E+03  0.17262778847E+03  0.25500000000E-02 0. -1.
         -2   -1    0    0    0  501 -0.00000000000E+00 -0.00000000000E+00 -0.14883306582E+02  0.14883306800E+02  0.25500000000E-02 0.  1.
         23    2    1    2    0    0  0.00000000000E+00  0.00000000000E+00  0.15774448187E+03  0.18751109527E+03  0.10137597984E+03 0.  0.
    9000005    2    3    3    0    0  0.32485941119E+02  0.13978398877E+02  0.14511082598E+03  0.14995658467E+03  0.13382580537E+02 0.  0.
         22    1    3    3    0    0 -0.32485941119E+02 -0.13978398877E+02  0.12633655886E+02  0.37554510603E+02  0.00000000000E+00 0.  1.
         22    1    4    4    0    0  0.24522577038E+02  0.15867743865E+02  0.10318546859E+03  0.10723983872E+03  0.00000000000E+00 0.  1.
         22    1    4    4    0    0  0.79633640810E+01 -0.18893449879E+01  0.41925357391E+02  0.42716745947E+02  0.00000000000E+00 0.  1.
<mgrwt>
<rscale>  0 0.10137598E+03</rscale>
<asrwt>0</asrwt>
<pdfrwt beam="1">  1        2 0.26558120E-01 0.10137598E+03</pdfrwt>
<pdfrwt beam="2">  1       -2 0.22897396E-02 0.10137598E+03</pdfrwt>
<totfact> 0.10996240E+05</totfact>
</mgrwt>
</event>
<event>
 7    1  0.3056193E-009  0.8951546E+02  0.7818608E-02  0.1304029E+00
          2   -1    0    0  501    0  0.00000000000E+00  0.00000000000E+00  0.69304588842E+01  0.69304593533E+01  0.25500000000E-02 0. -1.
         -2   -1    0    0    0  501 -0.00000000000E+00 -0.00000000000E+00 -0.28905074819E+03  0.28905074820E+03  0.25500000000E-02 0.  1.
         23    2    1    2    0    0  0.00000000000E+00 -0.71054273576E-14 -0.28212028930E+03  0.29598120755E+03  0.89515460047E+02 0.  0.
    9000005    2    3    3    0    0 -0.12620244394E+02  0.37624717385E+02 -0.86325966480E+02  0.96205566452E+02  0.15114516232E+02 0.  0.
         22    1    3    3    0    0  0.12620244394E+02 -0.37624717385E+02 -0.19579432282E+03  0.19977564110E+03  0.00000000000E+00 0.  1.
         22    1    4    4    0    0 -0.10738331470E+02  0.19961438097E+02 -0.33290467783E+02  0.40274384153E+02  0.00000000000E+00 0. -1.
         22    1    4    4    0    0 -0.18819129245E+01  0.17663279288E+02 -0.53035498697E+02  0.55931182300E+02  0.00000000000E+00 0. -1.
<mgrwt>
<rscale>  0 0.89515460E+02</rscale>
<asrwt>0</asrwt>
<pdfrwt beam="1">  1        2 0.10662247E-02 0.89515460E+02</pdfrwt>
<pdfrwt beam="2">  1       -2 0.44469337E-01 0.89515460E+02</pdfrwt>
<totfact> 0.54586325E+04</totfact>
</mgrwt>
</event>
<event>
 7    1  0.3056193E-009  0.9100118E+02  0.7818608E-02  0.1300445E+00
         -2   -1    0    0    0  501 -0.00000000000E+00  0.00000000000E+00  0.21536574578E+02  0.21536574729E+02  0.25500000000E-02 0.  1.
          2   -1    0    0  501    0  0.00000000000E+00 -0.00000000000E+00 -0.96129672368E+02  0.96129672402E+02  0.25500000000E-02 0. -1.
         23    2    1    2    0    0  0.00000000000E+00  0.00000000000E+00 -0.74593097790E+02  0.11766624713E+03  0.91001183927E+02 0.  0.
    9000005    2    3    3    0    0 -0.14501032478E+02  0.24568037838E+02 -0.82815912529E+02  0.87976465920E+02  0.82167366682E+01 0.  0.
         22    1    3    3    0    0  0.14501032478E+02 -0.24568037838E+02  0.82228147398E+01  0.29689781212E+02  0.00000000000E+00 0.  1.
         22    1    4    4    0    0 -0.94478485914E+01  0.83098681844E+01 -0.38426181230E+02  0.40433737846E+02  0.00000000000E+00 0.  1.
         22    1    4    4    0    0 -0.50531838868E+01  0.16258169654E+02 -0.44389731299E+02  0.47542728074E+02  0.00000000000E+00 0.  1.
<mgrwt>
<rscale>  0 0.91001184E+02</rscale>
<asrwt>0</asrwt>
<pdfrwt beam="2">  1        2 0.14789180E-01 0.91001184E+02</pdfrwt>
<pdfrwt beam="1">  1       -2 0.33133192E-02 0.91001184E+02</pdfrwt>
<totfact> 0.12186510E+05</totfact>
</mgrwt>
</event>
<event>
 7    1  0.3056193E-009  0.9131066E+02  0.7818608E-02  0.1299708E+00
         -2   -1    0    0    0  501 -0.00000000000E+00  0.00000000000E+00  0.66704824570E+01  0.66704829444E+01  0.25500000000E-02 0.  1.
          2   -1    0    0  501    0  0.00000000000E+00 -0.00000000000E+00 -0.31248249436E+03  0.31248249437E+03  0.25500000000E-02 0. -1.
         23    2    1    2    0    0  0.00000000000E+00  0.00000000000E+00 -0.30581201191E+03  0.31915297732E+03  0.91310658222E+02 0.  0.
    9000005    2    3    3    0    0 -0.94706879119E+01  0.14148352594E+02 -0.30042528026E+03  0.30129557861E+03  0.15290744342E+02 0.  0.
         22    1    3    3    0    0  0.94706879119E+01 -0.14148352594E+02 -0.53867316469E+01  0.17857398704E+02  0.00000000000E+00 0.  1.
         22    1    4    4    0    0 -0.38361468437E+01 -0.29768273691E+01 -0.63650065720E+02  0.63835009124E+02  0.00000000000E+00 0. -1.
         22    1    4    4    0    0 -0.56345410681E+01  0.17125179963E+02 -0.23677521454E+03  0.23746056949E+03  0.00000000000E+00 0. -1.
<mgrwt>
<rscale>  0 0.91310658E+02</rscale>
<asrwt>0</asrwt>
<pdfrwt beam="2">  1        2 0.48074219E-01 0.91310658E+02</pdfrwt>
<pdfrwt beam="1">  1       -2 0.10262284E-02 0.91310658E+02</pdfrwt>
<totfact> 0.18169218E+05</totfact>
</mgrwt>
</event>
<event>
 7    1  0.3563328E-009  0.9101305E+02  0.7818608E-02  0.1300417E+00
         -2   -1    0    0    0  501 -0.00000000000E+00  0.00000000000E+00  0.12751503477E+01  0.12751528974E+01  0.25500000000E-02 0. -1.
          2   -1    0    0  501    0  0.00000000000E+00 -0.00000000000E+00 -0.16239979488E+04  0.16239979488E+04  0.25500000000E-02 0.  1.
         23    2    1    2    0    0  0.00000000000E+00  0.00000000000E+00 -0.16227227985E+04  0.16252731017E+04  0.91013045719E+02 0.  0.
    9000005    2    3    3    0    0 -0.10589475524E+02  0.20977690726E+02 -0.15038720476E+04  0.15041215376E+04  0.14080621129E+02 0.  0.
         22    1    3    3    0    0  0.10589475524E+02 -0.20977690726E+02 -0.11885075091E+03  0.12115156413E+03  0.00000000000E+00 0. -1.
         22    1    4    4    0    0  0.69050969931E+00  0.88057489215E+01 -0.82252504348E+03  0.82257246803E+03  0.00000000000E+00 0.  1.
         22    1    4    4    0    0 -0.11279985224E+02  0.12171941805E+02 -0.68134700408E+03  0.68154906954E+03  0.00000000000E+00 0.  1.
<mgrwt>
<rscale>  0 0.91013046E+02</rscale>
<asrwt>0</asrwt>
<pdfrwt beam="2">  1        2 0.24984418E+00 0.91013046E+02</pdfrwt>
<pdfrwt beam="1">  1       -2 0.19617847E-03 0.91013046E+02</pdfrwt>
<totfact> 0.22895827E+05</totfact>
</mgrwt>
</event>
<event>
 7    1  0.3056193E-009  0.9222873E+02  0.7818608E-02  0.1297543E+00
         -2   -1    0    0    0  501 -0.00000000000E+00  0.00000000000E+00  0.35709320920E+02  0.35709321011E+02  0.25500000000E-02 0. -1.
          2   -1    0    0  501    0  0.00000000000E+00 -0.00000000000E+00 -0.59551254964E+02  0.59551255018E+02  0.25500000000E-02 0.  1.
         23    2    1    2    0    0  0.00000000000E+00  0.22204460493E-15 -0.23841934043E+02  0.95260576030E+02  0.92228734820E+02 0.  0.
    9000005    2    3    3    0    0 -0.42190655595E+02 -0.16478371091E+01 -0.29219581161E+02  0.52696672600E+02  0.11848569245E+02 0.  0.
         22    1    3    3    0    0  0.42190655595E+02  0.16478371091E+01  0.53776471179E+01  0.42563903430E+02  0.00000000000E+00 0. -1.
         22    1    4    4    0    0 -0.22081918622E+02  0.27251920128E+01 -0.94924634410E+01  0.24189763614E+02  0.00000000000E+00 0.  1.
         22    1    4    4    0    0 -0.20108736973E+02 -0.43730291219E+01 -0.19727117720E+02  0.28506908985E+02  0.00000000000E+00 0.  1.
<mgrwt>
<rscale>  0 0.92228735E+02</rscale>
<asrwt>0</asrwt>
<pdfrwt beam="2">  1        2 0.91617315E-02 0.92228735E+02</pdfrwt>
<pdfrwt beam="1">  1       -2 0.54937417E-02 0.92228735E+02</pdfrwt>
<totfact> 0.10247783E+05</totfact>
</mgrwt>
</event>
<event>
 7    1  0.3056193E-009  0.9228582E+02  0.7818608E-02  0.1297409E+00
          2   -1    0    0  501    0  0.00000000000E+00  0.00000000000E+00  0.23554732137E+03  0.23554732139E+03  0.25500000000E-02 0. -1.
         -2   -1    0    0    0  501 -0.00000000000E+00 -0.00000000000E+00 -0.90392372688E+01  0.90392376285E+01  0.25500000000E-02 0.  1.
         23    2    1    2    0    0  0.00000000000E+00  0.00000000000E+00  0.22650808410E+03  0.24458655902E+03  0.92285820614E+02 0.  0.
    9000005    2    3    3    0    0 -0.29039078239E+02  0.24881254651E+02  0.48341216704E+02  0.62362033945E+02  0.94765577781E+01 0.  0.
         22    1    3    3    0    0  0.29039078239E+02 -0.24881254651E+02  0.17816686740E+03  0.18222452507E+03  0.00000000000E+00 0. -1.
         22    1    4    4    0    0 -0.21481262236E+02  0.13674392451E+02  0.35728330380E+02  0.43874220539E+02  0.00000000000E+00 0. -1.
         22    1    4    4    0    0 -0.75578160028E+01  0.11206862200E+02  0.12612886324E+02  0.18487813406E+02  0.00000000000E+00 0. -1.
<mgrwt>
<rscale>  0 0.92285821E+02</rscale>
<asrwt>0</asrwt>
<pdfrwt beam="1">  1        2 0.36238045E-01 0.92285821E+02</pdfrwt>
<pdfrwt beam="2">  1       -2 0.13906521E-02 0.92285821E+02</pdfrwt>
<totfact> 0.15896335E+05</totfact>
</mgrwt>
</event>
<event>
 7    1  0.3056193E-009  0.9877375E+02  0.7818608E-02  0.1282896E+00
         -2   -1    0    0    0  501 -0.00000000000E+00  0.00000000000E+00  0.16348145733E+01  0.16348165621E+01  0.25500000000E-02 0.  1.
          2   -1    0    0  501    0  0.00000000000E+00 -0.00000000000E+00 -0.14919500881E+04  0.14919500882E+04  0.25500000000E-02 0. -1.
         23    2    1    2    0    0  0.00000000000E+00  0.00000000000E+00 -0.14903152736E+04  0.14935849047E+04  0.98773746180E+02 0.  0.
    9000005    2    3    3    0    0 -0.17601102745E+02  0.12071462565E+02 -0.14172935716E+04  0.14175080490E+04  0.12348346301E+02 0.  0.
         22    1    3    3    0    0  0.17601102745E+02 -0.12071462565E+02 -0.73021701950E+02  0.76076855758E+02  0.00000000000E+00 0.  1.
         22    1    4    4    0    0 -0.67669020098E+01  0.12014041950E+02 -0.75615975590E+03  0.75628546503E+03  0.00000000000E+00 0. -1.
         22    1    4    4    0    0 -0.10834200735E+02  0.57420614944E-01 -0.66113381572E+03  0.66122258392E+03  0.00000000000E+00 0. -1.
<mgrwt>
<rscale>  0 0.98773746E+02</rscale>
<asrwt>0</asrwt>
<pdfrwt beam="2">  1        2 0.22952969E+00 0.98773746E+02</pdfrwt>
<pdfrwt beam="1">  1       -2 0.25151128E-03 0.98773746E+02</pdfrwt>
<totfact> 0.19133714E+05</totfact>
</mgrwt>
</event>
<event>
 7    1  0.3056193E-009  0.9800522E+02  0.7818608E-02  0.1284547E+00
         -2   -1    0    0    0  501 -0.00000000000E+00  0.00000000000E+00  0.46980162368E+02  0.46980162437E+02  0.25500000000E-02 0.  1.
          2   -1    0    0  501    0  0.00000000000E+00 -0.00000000000E+00 -0.51112124526E+02  0.51112124590E+02  0.25500000000E-02 0. -1.
         23    2    1    2    0    0 -0.17763568394E-14  0.00000000000E+00 -0.41319621584E+01  0.98092287027E+02  0.98005222630E+02 0.  0.
    9000005    2    3    3    0    0  0.12703534896E+02 -0.47931357524E+01 -0.48219296957E+02  0.51961526803E+02  0.13803829886E+02 0.  0.
         22    1    3    3    0    0 -0.12703534896E+02  0.47931357524E+01  0.44087334798E+02  0.46130760224E+02  0.00000000000E+00 0.  1.
         22    1    4    4    0    0 -0.20072051898E+01 -0.13545722858E+01 -0.18146599690E+02  0.18307452556E+02  0.00000000000E+00 0. -1.
         22    1    4    4    0    0  0.14710740086E+02 -0.34385634666E+01 -0.30072697266E+02  0.33654074247E+02  0.00000000000E+00 0. -1.
<mgrwt>
<rscale>  0 0.98005223E+02</rscale>
<asrwt>0</asrwt>
<pdfrwt beam="2">  1        2 0.78634038E-02 0.98005223E+02</pdfrwt>
<pdfrwt beam="1">  1       -2 0.72277173E-02 0.98005223E+02</pdfrwt>
<totfact> 0.82624833E+04</totfact>
</mgrwt>
</event>
<event>
 7    1  0.3056193E-009  0.8986738E+02  0.7818608E-02  0.1303173E+00
          2   -1    0    0  501    0  0.00000000000E+00  0.00000000000E+00  0.25202358281E+02  0.25202358410E+02  0.25500000000E-02 0. -1.
         -2   -1    0    0    0  501 -0.00000000000E+00 -0.00000000000E+00 -0.80112994643E+02  0.80112994683E+02  0.25500000000E-02 0.  1.
         23    2    1    2    0    0  0.00000000000E+00  0.00000000000E+00 -0.54910636362E+02  0.10531535309E+03  0.89867377905E+02 0.  0.
    9000005    2    3    3    0    0  0.24715321823E+02  0.35912198370E+02 -0.27644048373E+02  0.53895513098E+02  0.15491926836E+02 0.  0.
         22    1    3    3    0    0 -0.24715321823E+02 -0.35912198370E+02 -0.27266587989E+02  0.51419839995E+02  0.00000000000E+00 0. -1.
         22    1    4    4    0    0  0.22166432125E+02  0.31240141965E+02 -0.29404297437E+02  0.48289852877E+02  0.00000000000E+00 0.  1.
         22    1    4    4    0    0  0.25488896978E+01  0.46720564051E+01  0.17602490642E+01  0.56056602209E+01  0.00000000000E+00 0.  1.
<mgrwt>
<rscale>  0 0.89867378E+02</rscale>
<asrwt>0</asrwt>
<pdfrwt beam="1">  1        2 0.38772859E-02 0.89867378E+02</pdfrwt>
<pdfrwt beam="2">  1       -2 0.12325076E-01 0.89867378E+02</pdfrwt>
<totfact> 0.88120955E+04</totfact>
</mgrwt>
</event>
<event>
 7    1  0.3056193E-009  0.9143755E+02  0.7818608E-02  0.1299407E+00
          2   -1    0    0  501    0  0.00000000000E+00  0.00000000000E+00  0.18790927556E+03  0.18790927558E+03  0.25500000000E-02 0.  1.
         -2   -1    0    0    0  501 -0.00000000000E+00 -0.00000000000E+00 -0.11123486254E+02  0.11123486547E+02  0.25500000000E-02 0. -1.
         23    2    1    2    0    0  0.00000000000E+00  0.00000000000E+00  0.17678578930E+03  0.19903276212E+03  0.91437547529E+02 0.  0.
    9000005    2    3    3    0    0  0.32687091011E+02 -0.11122849473E+02  0.15221154870E+03  0.15665284942E+03  0.13401342312E+02 0.  0.
         22    1    3    3    0    0 -0.32687091011E+02  0.11122849473E+02  0.24574240608E+02  0.42379912702E+02  0.00000000000E+00 0. -1.
         22    1    4    4    0    0 -0.10270211138E+01 -0.13853342573E+01  0.42443718396E+01  0.45813333960E+01  0.00000000000E+00 0. -1.
         22    1    4    4    0    0  0.33714112125E+02 -0.97375152155E+01  0.14796717686E+03  0.15207151602E+03  0.00000000000E+00 0. -1.
<mgrwt>
<rscale>  0 0.91437548E+02</rscale>
<asrwt>0</asrwt>
<pdfrwt beam="1">  1        2 0.28909116E-01 0.91437548E+02</pdfrwt>
<pdfrwt beam="2">  1       -2 0.17113058E-02 0.91437548E+02</pdfrwt>
<totfact> 0.15008644E+05</totfact>
</mgrwt>
</event>
<event>
 7    1  0.3056193E-009  0.9161990E+02  0.7818608E-02  0.1298976E+00
          2   -1    0    0  501    0  0.00000000000E+00  0.00000000000E+00  0.35032066631E+02  0.35032066724E+02  0.25500000000E-02 0. -1.
         -2   -1    0    0    0  501 -0.00000000000E+00 -0.00000000000E+00 -0.59903734094E+02  0.59903734148E+02  0.25500000000E-02 0.  1.
         23    2    1    2    0    0  0.00000000000E+00 -0.44408920985E-15 -0.24871667462E+02  0.94935800872E+02  0.91619902013E+02 0.  0.
    9000005    2    3    3    0    0 -0.38604072616E+02  0.16619468729E+01  0.11889384387E+02  0.41602777115E+02  0.98182031283E+01 0.  0.
         22    1    3    3    0    0  0.38604072616E+02 -0.16619468729E+01 -0.36761051849E+02  0.53333023756E+02  0.00000000000E+00 0.  1.
         22    1    4    4    0    0 -0.15748628738E+02 -0.39627468497E+01  0.62382055519E+01  0.17396490399E+02  0.00000000000E+00 0.  1.
         22    1    4    4    0    0 -0.22855443878E+02  0.56246937227E+01  0.56511788349E+01  0.24206286716E+02  0.00000000000E+00 0.  1.
<mgrwt>
<rscale>  0 0.91619902E+02</rscale>
<asrwt>0</asrwt>
<pdfrwt beam="1">  1        2 0.53895487E-02 0.91619902E+02</pdfrwt>
<pdfrwt beam="2">  1       -2 0.92159591E-02 0.91619902E+02</pdfrwt>
<totfact> 0.90858935E+04</totfact>
</mgrwt>
</event>
<event>
 7    1  0.3056193E-009  0.9085561E+02  0.7818608E-02  0.1300793E+00
          2   -1    0    0  501    0  0.00000000000E+00  0.00000000000E+00  0.52476540881E+03  0.52476540882E+03  0.25500000000E-02 0. -1.
         -2   -1    0    0    0  501 -0.00000000000E+00 -0.00000000000E+00 -0.39325861583E+01  0.39325869851E+01  0.25500000000E-02 0.  1.
         23    2    1    2    0    0  0.00000000000E+00  0.00000000000E+00  0.52083282265E+03  0.52869799580E+03  0.90855608594E+02 0.  0.
    9000005    2    3    3    0    0  0.34008844491E+02  0.28549751119E+02  0.30473514557E+03  0.30808544894E+03  0.90246944754E+01 0.  0.
         22    1    3    3    0    0 -0.34008844491E+02 -0.28549751119E+02  0.21609767708E+03  0.22061254686E+03  0.00000000000E+00 0. -1.
         22    1    4    4    0    0  0.23613696488E+02  0.14371683292E+02  0.19547758927E+03  0.19742249074E+03  0.00000000000E+00 0. -1.
         22    1    4    4    0    0  0.10395148003E+02  0.14178067826E+02  0.10925755630E+03  0.11066295820E+03  0.00000000000E+00 0. -1.
<mgrwt>
<rscale>  0 0.90855609E+02</rscale>
<asrwt>0</asrwt>
<pdfrwt beam="1">  1        2 0.80733102E-01 0.90855609E+02</pdfrwt>
<pdfrwt beam="2">  1       -2 0.60501361E-03 0.90855609E+02</pdfrwt>
<totfact> 0.22091097E+05</totfact>
</mgrwt>
</event>
<event>
 7    1  0.3056193E-009  0.9113878E+02  0.7818608E-02  0.1300117E+00
         -2   -1    0    0    0  501 -0.00000000000E+00  0.00000000000E+00  0.48759154058E+01  0.48759160726E+01  0.25500000000E-02 0.  1.
          2   -1    0    0  501    0  0.00000000000E+00 -0.00000000000E+00 -0.42588294322E+03  0.42588294323E+03  0.25500000000E-02 0. -1.
         23    2    1    2    0    0  0.00000000000E+00  0.00000000000E+00 -0.42100702781E+03  0.43075885930E+03  0.91138780969E+02 0.  0.
    9000005    2    3    3    0    0  0.15409526310E+02  0.33448250731E+02 -0.33695297135E+03  0.33899109052E+03  0.46276965255E+01 0.  0.
         22    1    3    3    0    0 -0.15409526310E+02 -0.33448250731E+02 -0.84054056464E+02  0.91767768775E+02  0.00000000000E+00 0.  1.
         22    1    4    4    0    0  0.13786581039E+01  0.25006070333E+01 -0.39625311665E+02  0.39728063862E+02  0.00000000000E+00 0. -1.
         22    1    4    4    0    0  0.14030868206E+02  0.30947643697E+02 -0.29732765968E+03  0.29926302666E+03  0.00000000000E+00 0. -1.
<mgrwt>
<rscale>  0 0.91138781E+02</rscale>
<asrwt>0</asrwt>
<pdfrwt beam="2">  1        2 0.65520423E-01 0.91138781E+02</pdfrwt>
<pdfrwt beam="1">  1       -2 0.75014122E-03 0.91138781E+02</pdfrwt>
<totfact> 0.20433184E+05</totfact>
</mgrwt>
</event>
<event>
 7    1  0.3056193E-009  0.9375725E+02  0.7818608E-02  0.1294000E+00
         -2   -1    0    0    0  501 -0.00000000000E+00  0.00000000000E+00  0.24828911400E+01  0.24828924494E+01  0.25500000000E-02 0.  1.
          2   -1    0    0  501    0  0.00000000000E+00 -0.00000000000E+00 -0.88509922323E+03  0.88509922324E+03  0.25500000000E-02 0. -1.
         23    2    1    2    0    0  0.17763568394E-14  0.00000000000E+00 -0.88261633209E+03  0.88758211569E+03  0.93757252565E+02 0.  0.
    9000005    2    3    3    0    0 -0.82802446340E+01  0.86432251829E+01 -0.87014359166E+03  0.87029521178E+03  0.10982611071E+02 0.  0.
         22    1    3    3    0    0  0.82802446340E+01 -0.86432251829E+01 -0.12472740431E+02  0.17286903905E+02  0.00000000000E+00 0.  1.
         22    1    4    4    0    0 -0.97644139268E+01  0.28463227362E+01 -0.59075191702E+03  0.59083946449E+03  0.00000000000E+00 0. -1.
         22    1    4    4    0    0  0.14841692927E+01  0.57969024467E+01 -0.27939167464E+03  0.27945574729E+03  0.00000000000E+00 0. -1.
<mgrwt>
<rscale>  0 0.93757253E+02</rscale>
<asrwt>0</asrwt>
<pdfrwt beam="2">  1        2 0.13616886E+00 0.93757253E+02</pdfrwt>
<pdfrwt beam="1">  1       -2 0.38198406E-03 0.93757253E+02</pdfrwt>
<totfact> 0.22989312E+05</totfact>
</mgrwt>
</event>
<event>
 7    1  0.3056193E-009  0.9027889E+02  0.7818608E-02  0.1302178E+00
          2   -1    0    0  501    0  0.00000000000E+00  0.00000000000E+00  0.57505032049E+01  0.57505037703E+01  0.25500000000E-02 0. -1.
         -2   -1    0    0    0  501 -0.00000000000E+00 -0.00000000000E+00 -0.35432888530E+03  0.35432888531E+03  0.25500000000E-02 0.  1.
         23    2    1    2    0    0  0.00000000000E+00  0.35527136788E-14 -0.34857838209E+03  0.36007938908E+03  0.90278889979E+02 0.  0.
    9000005    2    3    3    0    0  0.19646834494E+02  0.25011304552E+02 -0.30110184281E+03  0.30293408968E+03  0.97559974187E+01 0.  0.
         22    1    3    3    0    0 -0.19646834494E+02 -0.25011304552E+02 -0.47476539287E+02  0.57145299401E+02  0.00000000000E+00 0. -1.
         22    1    4    4    0    0  0.14444409517E+01 -0.67904305425E+00 -0.23078050568E+02  0.23133178060E+02  0.00000000000E+00 0. -1.
         22    1    4    4    0    0  0.18202393542E+02  0.25690347606E+02 -0.27802379224E+03  0.27980091162E+03  0.00000000000E+00 0. -1.
<mgrwt>
<rscale>  0 0.90278890E+02</rscale>
<asrwt>0</asrwt>
<pdfrwt beam="1">  1        2 0.88469312E-03 0.90278890E+02</pdfrwt>
<pdfrwt beam="2">  1       -2 0.54512119E-01 0.90278890E+02</pdfrwt>
<totfact> 0.47394636E+04</totfact>
</mgrwt>
</event>
<event>
 7    1  0.3056193E-009  0.9253975E+02  0.7818608E-02  0.1296815E+00
          2   -1    0    0  501    0  0.00000000000E+00  0.00000000000E+00  0.13201469469E+04  0.13201469469E+04  0.25500000000E-02 0. -1.
         -2   -1    0    0    0  501 -0.00000000000E+00 -0.00000000000E+00 -0.16217134072E+01  0.16217154120E+01  0.25500000000E-02 0.  1.
         23    2    1    2    0    0  0.17763568394E-14  0.35527136788E-14  0.13185252335E+04  0.13217686624E+04  0.92539749944E+02 0.  0.
    9000005    2    3    3    0    0 -0.11652764614E+02 -0.27807041432E+02  0.11588141240E+04  0.11592366440E+04  0.83907315354E+01 0.  0.
         22    1    3    3    0    0  0.11652764614E+02  0.27807041432E+02  0.15971110953E+03  0.16253201833E+03  0.00000000000E+00 0.  1.
         22    1    4    4    0    0 -0.11116288784E+02 -0.26564962851E+02  0.11435906710E+04  0.11439531861E+04  0.00000000000E+00 0.  1.
         22    1    4    4    0    0 -0.53647582990E+00 -0.12420785803E+01  0.15223452958E+02  0.15283457903E+02  0.00000000000E+00 0.  1.
<mgrwt>
<rscale>  0 0.92539750E+02</rscale>
<asrwt>0</asrwt>
<pdfrwt beam="1">  1        2 0.20309856E+00 0.92539750E+02</pdfrwt>
<pdfrwt beam="2">  1       -2 0.24949571E-03 0.92539750E+02</pdfrwt>
<totfact> 0.23553814E+05</totfact>
</mgrwt>
</event>
<event>
 7    1  0.3056193E-009  0.1075151E+03  0.7818608E-02  0.1265242E+00
         -2   -1    0    0    0  501 -0.00000000000E+00  0.00000000000E+00  0.36152545513E+02  0.36152545603E+02  0.25500000000E-02 0.  1.
          2   -1    0    0  501    0  0.00000000000E+00 -0.00000000000E+00 -0.79935528730E+02  0.79935528771E+02  0.25500000000E-02 0. -1.
         23    2    1    2    0    0 -0.44408920985E-15  0.00000000000E+00 -0.43782983217E+02  0.11608807437E+03  0.10751507519E+03 0.  0.
    9000005    2    3    3    0    0 -0.24311513091E+01  0.34117091730E+02 -0.66138564135E+02  0.75226620130E+02  0.10716728302E+02 0.  0.
         22    1    3    3    0    0  0.24311513091E+01 -0.34117091730E+02  0.22355580918E+02  0.40861454245E+02  0.00000000000E+00 0.  1.
         22    1    4    4    0    0  0.36909174973E+01  0.74843764329E+01 -0.18751579840E+02  0.20524631764E+02  0.00000000000E+00 0. -1.
         22    1    4    4    0    0 -0.61220688065E+01  0.26632715297E+02 -0.47386984295E+02  0.54701988366E+02  0.00000000000E+00 0. -1.
<mgrwt>
<rscale>  0 0.10751508E+03</rscale>
<asrwt>0</asrwt>
<pdfrwt beam="2">  1        2 0.12297774E-01 0.10751508E+03</pdfrwt>
<pdfrwt beam="1">  1       -2 0.55619301E-02 0.10751508E+03</pdfrwt>
<totfact> 0.72149106E+04</totfact>
</mgrwt>
</event>
<event>
 7    1  0.3056193E-009  0.1020215E+03  0.7818608E-02  0.1276102E+00
         -2   -1    0    0    0  501 -0.00000000000E+00  0.00000000000E+00  0.10144121466E+01  0.10144153516E+01  0.25500000000E-02 0.  1.
          2   -1    0    0  501    0  0.00000000000E+00 -0.00000000000E+00 -0.25651211336E+04  0.25651211336E+04  0.25500000000E-02 0. -1.
         23    2    1    2    0    0  0.00000000000E+00  0.00000000000E+00 -0.25641067215E+04  0.25661355490E+04  0.10202145165E+03 0.  0.
    9000005    2    3    3    0    0  0.11648942232E+02 -0.18616552045E+02 -0.24390242247E+04  0.24391398606E+04  0.90452778214E+01 0.  0.
         22    1    3    3    0    0 -0.11648942232E+02  0.18616552045E+02 -0.12508249680E+03  0.12699568839E+03  0.00000000000E+00 0.  1.
         22    1    4    4    0    0  0.10447872620E+02 -0.13897117425E+02 -0.21835961855E+04  0.21836654023E+04  0.00000000000E+00 0. -1.
         22    1    4    4    0    0  0.12010696125E+01 -0.47194346199E+01 -0.25542803918E+03  0.25547445827E+03  0.00000000000E+00 0. -1.
<mgrwt>
<rscale>  0 0.10202145E+03</rscale>
<asrwt>0</asrwt>
<pdfrwt beam="2">  1        2 0.39462883E+00 0.10202145E+03</pdfrwt>
<pdfrwt beam="1">  1       -2 0.15606571E-03 0.10202145E+03</pdfrwt>
<totfact> 0.10535806E+05</totfact>
</mgrwt>
</event>
<event>
 7    1  0.3056193E-009  0.7231074E+02  0.7818608E-02  0.1352407E+00
          2   -1    0    0  501    0  0.00000000000E+00  0.00000000000E+00  0.70970244888E+03  0.70970244888E+03  0.25500000000E-02 0. -1.
         -2   -1    0    0    0  501 -0.00000000000E+00 -0.00000000000E+00 -0.18419129885E+01  0.18419147537E+01  0.25500000000E-02 0.  1.
         23    2    1    2    0    0  0.00000000000E+00 -0.17763568394E-14  0.70786053589E+03  0.71154436363E+03  0.72310740231E+02 0.  0.
    9000005    2    3    3    0    0 -0.93783888684E+01  0.13447853875E+02  0.66958245039E+03  0.66990290856E+03  0.12666888747E+02 0.  0.
         22    1    3    3    0    0  0.93783888684E+01 -0.13447853875E+02  0.38278085492E+02  0.41641455072E+02  0.00000000000E+00 0.  1.
         22    1    4    4    0    0 -0.85793209401E+00 -0.21346198056E+01  0.14866556126E+03  0.14868336071E+03  0.00000000000E+00 0.  1.
         22    1    4    4    0    0 -0.85204567744E+01  0.15582473681E+02  0.52091688914E+03  0.52121954785E+03  0.00000000000E+00 0.  1.
<mgrwt>
<rscale>  0 0.72310740E+02</rscale>
<asrwt>0</asrwt>
<pdfrwt beam="1">  1        2 0.10918509E+00 0.72310740E+02</pdfrwt>
<pdfrwt beam="2">  1       -2 0.28337112E-03 0.72310740E+02</pdfrwt>
<totfact> 0.43527702E+05</totfact>
</mgrwt>
</event>
<event>
 7    1  0.3056193E-009  0.9511630E+02  0.7818608E-02  0.1290914E+00
          2   -1    0    0  501    0  0.00000000000E+00  0.00000000000E+00  0.21422970591E+03  0.21422970592E+03  0.25500000000E-02 0. -1.
         -2   -1    0    0    0  501 -0.00000000000E+00 -0.00000000000E+00 -0.10557720990E+02  0.10557721298E+02  0.25500000000E-02 0.  1.
         23    2    1    2    0    0  0.00000000000E+00  0.00000000000E+00  0.20367198492E+03  0.22478742722E+03  0.95116297216E+02 0.  0.
    9000005    2    3    3    0    0  0.28037880255E+02  0.22376455000E+02  0.34089100043E+02  0.51451962557E+02  0.14085781544E+02 0.  0.
         22    1    3    3    0    0 -0.28037880255E+02 -0.22376455000E+02  0.16958288487E+03  0.17333546466E+03  0.00000000000E+00 0. -1.
         22    1    4    4    0    0  0.40869225708E+01  0.36986381460E+01 -0.36194419930E+00  0.55239355389E+01  0.00000000000E+00 0. -1.
         22    1    4    4    0    0  0.23950957684E+02  0.18677816854E+02  0.34451044242E+02  0.45928027018E+02  0.00000000000E+00 0. -1.
<mgrwt>
<rscale>  0 0.95116297E+02</rscale>
<asrwt>0</asrwt>
<pdfrwt beam="1">  1        2 0.32958415E-01 0.95116297E+02</pdfrwt>
<pdfrwt beam="2">  1       -2 0.16242649E-02 0.95116297E+02</pdfrwt>
<totfact> 0.14149681E+05</totfact>
</mgrwt>
</event>
<event>
 7    1  0.3056193E-009  0.9173498E+02  0.7818608E-02  0.1298704E+00
          2   -1    0    0  501    0  0.00000000000E+00  0.00000000000E+00  0.20394535774E+03  0.20394535775E+03  0.25500000000E-02 0. -1.
         -2   -1    0    0    0  501 -0.00000000000E+00 -0.00000000000E+00 -0.10315638443E+02  0.10315638758E+02  0.25500000000E-02 0.  1.
         23    2    1    2    0    0  0.88817841970E-15  0.00000000000E+00  0.19362971929E+03  0.21426099651E+03  0.91734979327E+02 0.  0.
    9000005    2    3    3    0    0  0.70753971277E+01  0.34177636834E+02  0.16465002149E+03  0.16889586685E+03  0.14071679333E+02 0.  0.
         22    1    3    3    0    0 -0.70753971277E+01 -0.34177636834E+02  0.28979697801E+02  0.45365129656E+02  0.00000000000E+00 0.  1.
         22    1    4    4    0    0 -0.18670087032E+01  0.19724491700E+02  0.10587464038E+03  0.10771249125E+03  0.00000000000E+00 0.  1.
         22    1    4    4    0    0  0.89424058309E+01  0.14453145134E+02  0.58775381109E+02  0.61183375608E+02  0.00000000000E+00 0.  1.
<mgrwt>
<rscale>  0 0.91734979E+02</rscale>
<asrwt>0</asrwt>
<pdfrwt beam="1">  1        2 0.31376207E-01 0.91734979E+02</pdfrwt>
<pdfrwt beam="2">  1       -2 0.15870214E-02 0.91734979E+02</pdfrwt>
<totfact> 0.15323742E+05</totfact>
</mgrwt>
</event>
<event>
 7    1  0.3056193E-009  0.9009231E+02  0.7818608E-02  0.1302628E+00
         -2   -1    0    0    0  501 -0.00000000000E+00  0.00000000000E+00  0.39799236596E+01  0.39799244765E+01  0.25500000000E-02 0.  1.
          2   -1    0    0  501    0  0.00000000000E+00 -0.00000000000E+00 -0.50984797869E+03  0.50984797869E+03  0.25500000000E-02 0. -1.
         23    2    1    2    0    0  0.00000000000E+00  0.00000000000E+00 -0.50586805503E+03  0.51382790317E+03  0.90092313650E+02 0.  0.
    9000005    2    3    3    0    0  0.26143740444E+02  0.18871129169E+02 -0.43133268682E+03  0.43261746176E+03  0.83884931857E+01 0.  0.
         22    1    3    3    0    0 -0.26143740444E+02 -0.18871129169E+02 -0.74535368209E+02  0.81210441414E+02  0.00000000000E+00 0.  1.
         22    1    4    4    0    0  0.34292217483E+01 -0.24299796407E+00 -0.61005139705E+02  0.61101928613E+02  0.00000000000E+00 0.  1.
         22    1    4    4    0    0  0.22714518696E+02  0.19114127134E+02 -0.37032754711E+03  0.37151553314E+03  0.00000000000E+00 0.  1.
<mgrwt>
<rscale>  0 0.90092314E+02</rscale>
<asrwt>0</asrwt>
<pdfrwt beam="2">  1        2 0.78438099E-01 0.90092314E+02</pdfrwt>
<pdfrwt beam="1">  1       -2 0.61229641E-03 0.90092314E+02</pdfrwt>
<totfact> 0.22382832E+05</totfact>
</mgrwt>
</event>
<event>
 7    1  0.3056193E-009  0.8989498E+02  0.7818608E-02  0.1303106E+00
         -2   -1    0    0    0  501 -0.00000000000E+00  0.00000000000E+00  0.30899624536E+03  0.30899624537E+03  0.25500000000E-02 0.  1.
          2   -1    0    0  501    0  0.00000000000E+00 -0.00000000000E+00 -0.65381924528E+01  0.65381929501E+01  0.25500000000E-02 0. -1.
         23    2    1    2    0    0  0.00000000000E+00  0.00000000000E+00  0.30245805291E+03  0.31553443832E+03  0.89894983163E+02 0.  0.
    9000005    2    3    3    0    0  0.16276489512E+02  0.38400552381E+02  0.20273699018E+03  0.20744273241E+03  0.13808457942E+02 0.  0.
         22    1    3    3    0    0 -0.16276489512E+02 -0.38400552381E+02  0.99721062730E+02  0.10809170591E+03  0.00000000000E+00 0. -1.
         22    1    4    4    0    0  0.20194059270E+01  0.70845664759E+01  0.67349229121E+02  0.67750924316E+02  0.00000000000E+00 0.  1.
         22    1    4    4    0    0  0.14257083585E+02  0.31315985906E+02  0.13538776105E+03  0.13969180810E+03  0.00000000000E+00 0.  1.
<mgrwt>
<rscale>  0 0.89894983E+02</rscale>
<asrwt>0</asrwt>
<pdfrwt beam="2">  1        2 0.10058760E-02 0.89894983E+02</pdfrwt>
<pdfrwt beam="1">  1       -2 0.47537876E-01 0.89894983E+02</pdfrwt>
<totfact> 0.52014350E+04</totfact>
</mgrwt>
</event>
<event>
 7    1  0.3056193E-009  0.1048931E+03  0.7818608E-02  0.1270330E+00
          2   -1    0    0  501    0  0.00000000000E+00  0.00000000000E+00  0.29713720161E+03  0.29713720162E+03  0.25500000000E-02 0. -1.
         -2   -1    0    0    0  501 -0.00000000000E+00 -0.00000000000E+00 -0.92571320665E+01  0.92571324177E+01  0.25500000000E-02 0.  1.
         23    2    1    2    0    0  0.00000000000E+00  0.00000000000E+00  0.28788006954E+03  0.30639433404E+03  0.10489305740E+03 0.  0.
    9000005    2    3    3    0    0 -0.49099047430E+02 -0.11728404061E+02  0.11825721392E+03  0.12941923672E+03  0.14707082279E+02 0.  0.
         22    1    3    3    0    0  0.49099047430E+02  0.11728404061E+02  0.16962285562E+03  0.17697509731E+03  0.00000000000E+00 0. -1.
         22    1    4    4    0    0 -0.25132821503E+02 -0.37454656044E+01  0.76564621365E+02  0.80671113008E+02  0.00000000000E+00 0.  1.
         22    1    4    4    0    0 -0.23966225928E+02 -0.79829384569E+01  0.41692592558E+02  0.48748123716E+02  0.00000000000E+00 0.  1.
<mgrwt>
<rscale>  0 0.10489306E+03</rscale>
<asrwt>0</asrwt>
<pdfrwt beam="1">  1        2 0.45713410E-01 0.10489306E+03</pdfrwt>
<pdfrwt beam="2">  1       -2 0.14241744E-02 0.10489306E+03</pdfrwt>
<totfact> 0.12278644E+05</totfact>
</mgrwt>
</event>
<event>
 7    1  0.3056193E-009  0.8971906E+02  0.7818608E-02  0.1303533E+00
          2   -1    0    0  501    0  0.00000000000E+00  0.00000000000E+00  0.45731586639E+02  0.45731586710E+02  0.25500000000E-02 0. -1.
         -2   -1    0    0    0  501 -0.00000000000E+00 -0.00000000000E+00 -0.44004105880E+02  0.44004105953E+02  0.25500000000E-02 0.  1.
         23    2    1    2    0    0  0.00000000000E+00  0.00000000000E+00  0.17274807598E+01  0.89735692664E+02  0.89719063460E+02 0.  0.
    9000005    2    3    3    0    0  0.26771452553E+02 -0.21394908547E+02 -0.26409708484E+02  0.45394355267E+02  0.13737612761E+02 0.  0.
         22    1    3    3    0    0 -0.26771452553E+02  0.21394908547E+02  0.28137189244E+02  0.44341337397E+02  0.00000000000E+00 0. -1.
         22    1    4    4    0    0 -0.10690340122E+01 -0.11592755439E+01  0.55495631904E+00  0.16717446043E+01  0.00000000000E+00 0.  1.
         22    1    4    4    0    0  0.27840486566E+02 -0.20235633003E+02 -0.26964664803E+02  0.43722610663E+02  0.00000000000E+00 0.  1.
<mgrwt>
<rscale>  0 0.89719063E+02</rscale>
<asrwt>0</asrwt>
<pdfrwt beam="1">  1        2 0.70356287E-02 0.89719063E+02</pdfrwt>
<pdfrwt beam="2">  1       -2 0.67698625E-02 0.89719063E+02</pdfrwt>
<totfact> 0.10341746E+05</totfact>
</mgrwt>
</event>
<event>
 7    1  0.3056193E-009  0.1061004E+03  0.7818608E-02  0.1267967E+00
         -2   -1    0    0    0  501 -0.00000000000E+00  0.00000000000E+00  0.33182924606E+01  0.33182934404E+01  0.25500000000E-02 0.  1.
          2   -1    0    0  501    0  0.00000000000E+00 -0.00000000000E+00 -0.84812396834E+03  0.84812396834E+03  0.25500000000E-02 0. -1.
         23    2    1    2    0    0  0.00000000000E+00  0.00000000000E+00 -0.84480567588E+03  0.85144226178E+03  0.10610040129E+03 0.  0.
    9000005    2    3    3    0    0  0.32031773276E+02 -0.26357804000E+02 -0.68766535731E+03  0.68891888485E+03  0.21949769809E+01 0.  0.
         22    1    3    3    0    0 -0.32031773276E+02  0.26357804000E+02 -0.15714031856E+03  0.16252337693E+03  0.00000000000E+00 0.  1.
         22    1    4    4    0    0  0.12333395915E+02 -0.11159255691E+02 -0.26333428463E+03  0.26385902884E+03  0.00000000000E+00 0.  1.
         22    1    4    4    0    0  0.19698377361E+02 -0.15198548309E+02 -0.42433107269E+03  0.42505985601E+03  0.00000000000E+00 0.  1.
<mgrwt>
<rscale>  0 0.10610040E+03</rscale>
<asrwt>0</asrwt>
<pdfrwt beam="2">  1        2 0.13048044E+00 0.10610040E+03</pdfrwt>
<pdfrwt beam="1">  1       -2 0.51050728E-03 0.10610040E+03</pdfrwt>
<totfact> 0.16453485E+05</totfact>
</mgrwt>
</event>
<event>
 7    1  0.3056193E-009  0.9490005E+02  0.7818608E-02  0.1291401E+00
          2   -1    0    0  501    0  0.00000000000E+00  0.00000000000E+00  0.94839132252E+02  0.94839132287E+02  0.25500000000E-02 0.  1.
         -2   -1    0    0    0  501 -0.00000000000E+00 -0.00000000000E+00 -0.23740250654E+02  0.23740250791E+02  0.25500000000E-02 0. -1.
         23    2    1    2    0    0  0.00000000000E+00  0.71054273576E-14  0.71098881599E+02  0.11857938308E+03  0.94900048085E+02 0.  0.
    9000005    2    3    3    0    0 -0.32437038229E+02  0.32406482408E+02  0.47597539900E+02  0.67056042612E+02  0.11342199748E+02 0.  0.
         22    1    3    3    0    0  0.32437038229E+02 -0.32406482408E+02  0.23501341699E+02  0.51523340466E+02  0.00000000000E+00 0.  1.
         22    1    4    4    0    0 -0.30949980851E+02  0.33120889995E+02  0.44372530654E+02  0.63433556935E+02  0.00000000000E+00 0.  1.
         22    1    4    4    0    0 -0.14870573771E+01 -0.71440758688E+00  0.32250092461E+01  0.36224856770E+01  0.00000000000E+00 0.  1.
<mgrwt>
<rscale>  0 0.94900048E+02</rscale>
<asrwt>0</asrwt>
<pdfrwt beam="1">  1        2 0.14590635E-01 0.94900048E+02</pdfrwt>
<pdfrwt beam="2">  1       -2 0.36523463E-02 0.94900048E+02</pdfrwt>
<totfact> 0.10806012E+05</totfact>
</mgrwt>
</event>
<event>
 7    1  0.3290173E-009  0.9002130E+02  0.7818608E-02  0.1302800E+00
         -2   -1    0    0    0  501 -0.00000000000E+00  0.00000000000E+00  0.41783789469E+01  0.41783797250E+01  0.25500000000E-02 0.  1.
          2   -1    0    0  501    0  0.00000000000E+00 -0.00000000000E+00 -0.48486710241E+03  0.48486710242E+03  0.25500000000E-02 0. -1.
         23    2    1    2    0    0  0.88817841970E-15  0.35527136788E-14 -0.48068872346E+03  0.48904548214E+03  0.90021301583E+02 0.  0.
    9000005    2    3    3    0    0 -0.73548376648E+01 -0.19135768127E+02 -0.45711342051E+03  0.45780342446E+03  0.14526698809E+02 0.  0.
         22    1    3    3    0    0  0.73548376648E+01  0.19135768127E+02 -0.23575302955E+02  0.31242057683E+02  0.00000000000E+00 0.  1.
         22    1    4    4    0    0 -0.10987959827E+02 -0.17205367348E+02 -0.33557417673E+03  0.33619456868E+03  0.00000000000E+00 0. -1.
         22    1    4    4    0    0  0.36331221626E+01 -0.19304007784E+01 -0.12153924378E+03  0.12160885578E+03  0.00000000000E+00 0. -1.
<mgrwt>
<rscale>  0 0.90021302E+02</rscale>
<asrwt>0</asrwt>
<pdfrwt beam="2">  1        2 0.74594894E-01 0.90021302E+02</pdfrwt>
<pdfrwt beam="1">  1       -2 0.64282798E-03 0.90021302E+02</pdfrwt>
<totfact> 0.22065642E+05</totfact>
</mgrwt>
</event>
<event>
 7    1  0.3056193E-009  0.8935486E+02  0.7818608E-02  0.1304422E+00
         -2   -1    0    0    0  501 -0.00000000000E+00  0.00000000000E+00  0.74851762050E+01  0.74851766393E+01  0.25500000000E-02 0.  1.
          2   -1    0    0  501    0  0.00000000000E+00 -0.00000000000E+00 -0.26667010177E+03  0.26667010179E+03  0.25500000000E-02 0. -1.
         23    2    1    2    0    0 -0.35527136788E-14  0.00000000000E+00 -0.25918492557E+03  0.27415527843E+03  0.89354860228E+02 0.  0.
    9000005    2    3    3    0    0  0.29272790072E+02  0.31643668709E+02 -0.16409025671E+03  0.16974639923E+03  0.54781108907E+01 0.  0.
         22    1    3    3    0    0 -0.29272790072E+02 -0.31643668709E+02 -0.95094668863E+02  0.10440887919E+03  0.00000000000E+00 0.  1.
         22    1    4    4    0    0  0.22500886242E+02  0.21381448989E+02 -0.11167774290E+03  0.11591106290E+03  0.00000000000E+00 0. -1.
         22    1    4    4    0    0  0.67719038302E+01  0.10262219720E+02 -0.52412513802E+02  0.53835336334E+02  0.00000000000E+00 0. -1.
<mgrwt>
<rscale>  0 0.89354860E+02</rscale>
<asrwt>0</asrwt>
<pdfrwt beam="2">  1        2 0.41026162E-01 0.89354860E+02</pdfrwt>
<pdfrwt beam="1">  1       -2 0.11515658E-02 0.89354860E+02</pdfrwt>
<totfact> 0.18145873E+05</totfact>
</mgrwt>
</event>
<event>
 7    1  0.3056193E-009  0.8663263E+02  0.7818608E-02  0.1311217E+00
         -2   -1    0    0    0  501 -0.00000000000E+00  0.00000000000E+00  0.71051344912E+02  0.71051344958E+02  0.25500000000E-02 0.  1.
          2   -1    0    0  501    0  0.00000000000E+00 -0.00000000000E+00 -0.26407705685E+02  0.26407705808E+02  0.25500000000E-02 0. -1.
         23    2    1    2    0    0  0.00000000000E+00  0.00000000000E+00  0.44643639227E+02  0.97459050766E+02  0.86632626953E+02 0.  0.
    9000005    2    3    3    0    0 -0.39123408884E+02 -0.43662637450E+01  0.39603930637E+02  0.57771470285E+02  0.14811011957E+02 0.  0.
         22    1    3    3    0    0  0.39123408884E+02  0.43662637450E+01  0.50397085897E+01  0.39687580481E+02  0.00000000000E+00 0. -1.
         22    1    4    4    0    0 -0.12779549616E+01  0.19252818634E+01 -0.39895869908E+00  0.23450047294E+01  0.00000000000E+00 0. -1.
         22    1    4    4    0    0 -0.37845453922E+02 -0.62915456084E+01  0.40002889336E+02  0.55426465555E+02  0.00000000000E+00 0. -1.
<mgrwt>
<rscale>  0 0.86632627E+02</rscale>
<asrwt>0</asrwt>
<pdfrwt beam="2">  1        2 0.40627240E-02 0.86632627E+02</pdfrwt>
<pdfrwt beam="1">  1       -2 0.10930976E-01 0.86632627E+02</pdfrwt>
<totfact> 0.99537680E+04</totfact>
</mgrwt>
</event>
<event>
 7    1  0.3056193E-009  0.8911638E+02  0.7818608E-02  0.1305006E+00
         -2   -1    0    0    0  501 -0.00000000000E+00  0.00000000000E+00  0.25401996953E+03  0.25401996954E+03  0.25500000000E-02 0.  1.
          2   -1    0    0  501    0  0.00000000000E+00 -0.00000000000E+00 -0.78160475698E+01  0.78160479858E+01  0.25500000000E-02 0. -1.
         23    2    1    2    0    0  0.00000000000E+00  0.00000000000E+00  0.24620392196E+03  0.26183601753E+03  0.89116378329E+02 0.  0.
    9000005    2    3    3    0    0 -0.19823594551E+01  0.14260883242E+02  0.24681115741E+03  0.24742521343E+03  0.98074603011E+01 0.  0.
         22    1    3    3    0    0  0.19823594551E+01 -0.14260883242E+02 -0.60723545338E+00  0.14410804098E+02  0.00000000000E+00 0. -1.
         22    1    4    4    0    0 -0.50882289748E+01  0.42133660228E+01  0.73973851334E+02  0.74268251686E+02  0.00000000000E+00 0.  1.
         22    1    4    4    0    0  0.31058695197E+01  0.10047517219E+02  0.17283730608E+03  0.17315696174E+03  0.00000000000E+00 0.  1.
<mgrwt>
<rscale>  0 0.89116378E+02</rscale>
<asrwt>0</asrwt>
<pdfrwt beam="2">  1        2 0.12024690E-02 0.89116378E+02</pdfrwt>
<pdfrwt beam="1">  1       -2 0.39079993E-01 0.89116378E+02</pdfrwt>
<totfact> 0.59093626E+04</totfact>
</mgrwt>
</event>
<event>
 7    1  0.3056193E-009  0.9269435E+02  0.7818608E-02  0.1296455E+00
          2   -1    0    0  501    0  0.00000000000E+00  0.00000000000E+00  0.15090003269E+03  0.15090003271E+03  0.25500000000E-02 0. -1.
         -2   -1    0    0    0  501 -0.00000000000E+00 -0.00000000000E+00 -0.14234990961E+02  0.14234991189E+02  0.25500000000E-02 0.  1.
         23    2    1    2    0    0  0.35527136788E-14  0.88817841970E-15  0.13666504173E+03  0.16513502390E+03  0.92694349817E+02 0.  0.
    9000005    2    3    3    0    0  0.30041941176E+02  0.77117602811E+01  0.12964478613E+03  0.13333449773E+03  0.28858685166E+01 0.  0.
         22    1    3    3    0    0 -0.30041941176E+02 -0.77117602811E+01  0.70202555992E+01  0.31800526174E+02  0.00000000000E+00 0.  1.
         22    1    4    4    0    0  0.25446541054E+02  0.66603378145E+01  0.10513932787E+03  0.10837972511E+03  0.00000000000E+00 0.  1.
         22    1    4    4    0    0  0.45954001223E+01  0.10514224666E+01  0.24505458265E+02  0.24954772615E+02  0.00000000000E+00 0.  1.
<mgrwt>
<rscale>  0 0.92694350E+02</rscale>
<asrwt>0</asrwt>
<pdfrwt beam="1">  1        2 0.23215388E-01 0.92694350E+02</pdfrwt>
<pdfrwt beam="2">  1       -2 0.21899988E-02 0.92694350E+02</pdfrwt>
<totfact> 0.13394637E+05</totfact>
</mgrwt>
</event>
<event>
 7    1  0.3056193E-009  0.9150690E+02  0.7818608E-02  0.1299243E+00
         -2   -1    0    0    0  501 -0.00000000000E+00  0.00000000000E+00  0.25418278865E+03  0.25418278866E+03  0.25500000000E-02 0.  1.
          2   -1    0    0  501    0  0.00000000000E+00 -0.00000000000E+00 -0.82357202068E+01  0.82357206016E+01  0.25500000000E-02 0. -1.
         23    2    1    2    0    0  0.35527136788E-14 -0.35527136788E-14  0.24594706844E+03  0.26241850926E+03  0.91506904268E+02 0.  0.
    9000005    2    3    3    0    0  0.26751400165E+02 -0.26039002475E+02  0.56407065560E+02  0.69237040811E+02  0.14776458119E+02 0.  0.
         22    1    3    3    0    0 -0.26751400165E+02  0.26039002475E+02  0.18954000288E+03  0.19318146845E+03  0.00000000000E+00 0.  1.
         22    1    4    4    0    0  0.15962453678E+02 -0.23531821453E+02  0.45748023156E+02  0.53864906674E+02  0.00000000000E+00 0.  1.
         22    1    4    4    0    0  0.10788946486E+02 -0.25071810225E+01  0.10659042404E+02  0.15372134137E+02  0.00000000000E+00 0.  1.
<mgrwt>
<rscale>  0 0.91506904E+02</rscale>
<asrwt>0</asrwt>
<pdfrwt beam="2">  1        2 0.12670341E-02 0.91506904E+02</pdfrwt>
<pdfrwt beam="1">  1       -2 0.39105039E-01 0.91506904E+02</pdfrwt>
<totfact> 0.55196362E+04</totfact>
</mgrwt>
</event>
<event>
 7    1  0.3056193E-009  0.9507568E+02  0.7818608E-02  0.1291006E+00
          2   -1    0    0  501    0  0.00000000000E+00  0.00000000000E+00  0.55808653168E+01  0.55808658993E+01  0.25500000000E-02 0. -1.
         -2   -1    0    0    0  501 -0.00000000000E+00 -0.00000000000E+00 -0.40492753696E+03  0.40492753696E+03  0.25500000000E-02 0.  1.
         23    2    1    2    0    0  0.00000000000E+00  0.00000000000E+00 -0.39934667164E+03  0.41050840286E+03  0.95075678657E+02 0.  0.
    9000005    2    3    3    0    0 -0.20692508718E+02 -0.42354240254E+02 -0.20158223769E+03  0.20720362446E+03  0.87110191398E+01 0.  0.
         22    1    3    3    0    0  0.20692508718E+02  0.42354240254E+02 -0.19776443395E+03  0.20330477840E+03  0.00000000000E+00 0.  1.
         22    1    4    4    0    0 -0.18707932548E+01 -0.89998754539E+01 -0.51367692525E+02  0.52183689606E+02  0.00000000000E+00 0.  1.
         22    1    4    4    0    0 -0.18821715464E+02 -0.33354364801E+02 -0.15021454516E+03  0.15501993485E+03  0.00000000000E+00 0.  1.
<mgrwt>
<rscale>  0 0.95075679E+02</rscale>
<asrwt>0</asrwt>
<pdfrwt beam="1">  1        2 0.85859503E-03 0.95075679E+02</pdfrwt>
<pdfrwt beam="2">  1       -2 0.62296521E-01 0.95075679E+02</pdfrwt>
<totfact> 0.37987915E+04</totfact>
</mgrwt>
</event>
<event>
 7    1  0.3056193E-009  0.9480101E+02  0.7818608E-02  0.1291625E+00
         -2   -1    0    0    0  501 -0.00000000000E+00  0.00000000000E+00  0.74652582736E+01  0.74652587091E+01  0.25500000000E-02 0.  1.
          2   -1    0    0  501    0  0.00000000000E+00 -0.00000000000E+00 -0.30096855833E+03  0.30096855835E+03  0.25500000000E-02 0. -1.
         23    2    1    2    0    0  0.00000000000E+00  0.35527136788E-14 -0.29350330006E+03  0.30843381705E+03  0.94801014531E+02 0.  0.
    9000005    2    3    3    0    0  0.40954995904E+02  0.17645953857E+02 -0.19499862202E+03  0.20030489875E+03  0.10435444300E+02 0.  0.
         22    1    3    3    0    0 -0.40954995904E+02 -0.17645953857E+02 -0.98504678042E+02  0.10812891830E+03  0.00000000000E+00 0.  1.
         22    1    4    4    0    0  0.31790393351E+02  0.16520644542E+02 -0.13860771838E+03  0.14316305529E+03  0.00000000000E+00 0.  1.
         22    1    4    4    0    0  0.91646025537E+01  0.11253093156E+01 -0.56390903641E+02  0.57141843464E+02  0.00000000000E+00 0.  1.
<mgrwt>
<rscale>  0 0.94801015E+02</rscale>
<asrwt>0</asrwt>
<pdfrwt beam="2">  1        2 0.46302846E-01 0.94801015E+02</pdfrwt>
<pdfrwt beam="1">  1       -2 0.11485015E-02 0.94801015E+02</pdfrwt>
<totfact> 0.16206304E+05</totfact>
</mgrwt>
</event>
<event>
 7    1  0.3056193E-009  0.9172505E+02  0.7818608E-02  0.1298727E+00
          2   -1    0    0  501    0  0.00000000000E+00  0.00000000000E+00  0.42249288598E+03  0.42249288598E+03  0.25500000000E-02 0. -1.
         -2   -1    0    0    0  501 -0.00000000000E+00 -0.00000000000E+00 -0.49784763931E+01  0.49784770462E+01  0.25500000000E-02 0.  1.
         23    2    1    2    0    0 -0.71054273576E-14  0.00000000000E+00  0.41751440958E+03  0.42747136303E+03  0.91725045660E+02 0.  0.
    9000005    2    3    3    0    0 -0.37075986241E+02  0.23624985620E+02  0.24842940406E+03  0.25276444332E+03  0.15489554701E+02 0.  0.
         22    1    3    3    0    0  0.37075986241E+02 -0.23624985620E+02  0.16908500552E+03  0.17470691970E+03  0.00000000000E+00 0.  1.
         22    1    4    4    0    0 -0.25313471099E+02  0.23764779481E+02  0.17707964447E+03  0.18045148115E+03  0.00000000000E+00 0. -1.
         22    1    4    4    0    0 -0.11762515142E+02 -0.13979386153E+00  0.71349759589E+02  0.72312962172E+02  0.00000000000E+00 0. -1.
<mgrwt>
<rscale>  0 0.91725046E+02</rscale>
<asrwt>0</asrwt>
<pdfrwt beam="1">  1        2 0.64998912E-01 0.91725046E+02</pdfrwt>
<pdfrwt beam="2">  1       -2 0.76591942E-03 0.91725046E+02</pdfrwt>
<totfact> 0.20032054E+05</totfact>
</mgrwt>
</event>
<event>
 7    1  0.3056193E-009  0.9278600E+02  0.7818608E-02  0.1296242E+00
          2   -1    0    0  501    0  0.00000000000E+00  0.00000000000E+00  0.25977906669E+02  0.25977906794E+02  0.25500000000E-02 0. -1.
         -2   -1    0    0    0  501 -0.00000000000E+00 -0.00000000000E+00 -0.82851580601E+02  0.82851580641E+02  0.25500000000E-02 0.  1.
         23    2    1    2    0    0  0.00000000000E+00  0.00000000000E+00 -0.56873673932E+02  0.10882948744E+03  0.92786004057E+02 0.  0.
    9000005    2    3    3    0    0  0.44773303181E+02  0.84151419910E+01 -0.27080496149E+02  0.54395153280E+02  0.12248107453E+02 0.  0.
         22    1    3    3    0    0 -0.44773303181E+02 -0.84151419910E+01 -0.29793177783E+02  0.54434334155E+02  0.00000000000E+00 0.  1.
         22    1    4    4    0    0  0.18607607078E+02 -0.17422783921E+01 -0.73320217619E+01  0.20075784375E+02  0.00000000000E+00 0. -1.
         22    1    4    4    0    0  0.26165696104E+02  0.10157420383E+02 -0.19748474387E+02  0.34319368905E+02  0.00000000000E+00 0. -1.
<mgrwt>
<rscale>  0 0.92786004E+02</rscale>
<asrwt>0</asrwt>
<pdfrwt beam="1">  1        2 0.39966011E-02 0.92786004E+02</pdfrwt>
<pdfrwt beam="2">  1       -2 0.12746397E-01 0.92786004E+02</pdfrwt>
<totfact> 0.80700936E+04</totfact>
</mgrwt>
</event>
<event>
 7    1  0.3056193E-009  0.9445808E+02  0.7818608E-02  0.1292401E+00
          2   -1    0    0  501    0  0.00000000000E+00  0.00000000000E+00  0.62238089826E+03  0.62238089827E+03  0.25500000000E-02 0. -1.
         -2   -1    0    0    0  501 -0.00000000000E+00 -0.00000000000E+00 -0.35839499652E+01  0.35839508723E+01  0.25500000000E-02 0.  1.
         23    2    1    2    0    0  0.00000000000E+00  0.00000000000E+00  0.61879694830E+03  0.62596484914E+03  0.94458081374E+02 0.  0.
    9000005    2    3    3    0    0 -0.37411655013E+01  0.32271212185E+02  0.53554293872E+03  0.53659674764E+03  0.86257120468E+01 0.  0.
         22    1    3    3    0    0  0.37411655013E+01 -0.32271212185E+02  0.83254009573E+02  0.89368101497E+02  0.00000000000E+00 0.  1.
         22    1    4    4    0    0 -0.42764562364E+01  0.22680346161E+02  0.42948318833E+03  0.43010288913E+03  0.00000000000E+00 0. -1.
         22    1    4    4    0    0  0.53529073510E+00  0.95908660238E+01  0.10605975040E+03  0.10649385852E+03  0.00000000000E+00 0. -1.
<mgrwt>
<rscale>  0 0.94458081E+02</rscale>
<asrwt>0</asrwt>
<pdfrwt beam="1">  1        2 0.95750920E-01 0.94458081E+02</pdfrwt>
<pdfrwt beam="2">  1       -2 0.55137691E-03 0.94458081E+02</pdfrwt>
<totfact> 0.20962599E+05</totfact>
</mgrwt>
</event>
<event>
 7    1  0.3056193E-009  0.9446979E+02  0.7818608E-02  0.1292375E+00
          2   -1    0    0  501    0  0.00000000000E+00  0.00000000000E+00  0.73416139636E+02  0.73416139681E+02  0.25500000000E-02 0. -1.
         -2   -1    0    0    0  501 -0.00000000000E+00 -0.00000000000E+00 -0.30390254405E+02  0.30390254512E+02  0.25500000000E-02 0.  1.
         23    2    1    2    0    0 -0.44408920985E-15  0.35527136788E-14  0.43025885231E+02  0.10380639419E+03  0.94469787104E+02 0.  0.
    9000005    2    3    3    0    0  0.32463889599E+01 -0.31504516518E+02  0.58699699232E+02  0.68468849744E+02  0.15467872932E+02 0.  0.
         22    1    3    3    0    0 -0.32463889599E+01  0.31504516518E+02 -0.15673814001E+02  0.35337544449E+02  0.00000000000E+00 0.  1.
         22    1    4    4    0    0  0.40019254745E+01 -0.10090783615E+02  0.81779294793E+01  0.13591094586E+02  0.00000000000E+00 0.  1.
         22    1    4    4    0    0 -0.75553651466E+00 -0.21413732903E+02  0.50521769753E+02  0.54877755158E+02  0.00000000000E+00 0.  1.
<mgrwt>
<rscale>  0 0.94469787E+02</rscale>
<asrwt>0</asrwt>
<pdfrwt beam="1">  1        2 0.11294791E-01 0.94469787E+02</pdfrwt>
<pdfrwt beam="2">  1       -2 0.46754238E-02 0.94469787E+02</pdfrwt>
<totfact> 0.10149063E+05</totfact>
</mgrwt>
</event>
<event>
 7    1  0.3056193E-009  0.8977139E+02  0.7818608E-02  0.1303406E+00
         -2   -1    0    0    0  501 -0.00000000000E+00  0.00000000000E+00  0.13242717558E+02  0.13242717803E+02  0.25500000000E-02 0.  1.
          2   -1    0    0  501    0  0.00000000000E+00 -0.00000000000E+00 -0.15213837708E+03  0.15213837710E+03  0.25500000000E-02 0. -1.
         23    2    1    2    0    0 -0.35527136788E-14  0.17763568394E-14 -0.13889565952E+03  0.16538109490E+03  0.89771389194E+02 0.  0.
    9000005    2    3    3    0    0 -0.29924657478E+02  0.12459885066E+02 -0.17597565376E+02  0.39826479281E+02  0.15024655860E+02 0.  0.
         22    1    3    3    0    0  0.29924657478E+02 -0.12459885066E+02 -0.12129809414E+03  0.12555461562E+03  0.00000000000E+00 0.  1.
         22    1    4    4    0    0 -0.28715994909E+01  0.46262129738E+01 -0.87485847633E+01  0.10304642909E+02  0.00000000000E+00 0.  1.
         22    1    4    4    0    0 -0.27053057987E+02  0.78336720922E+01 -0.88489806129E+01  0.29521836372E+02  0.00000000000E+00 0.  1.
<mgrwt>
<rscale>  0 0.89771389E+02</rscale>
<asrwt>0</asrwt>
<pdfrwt beam="2">  1        2 0.23405903E-01 0.89771389E+02</pdfrwt>
<pdfrwt beam="1">  1       -2 0.20373413E-02 0.89771389E+02</pdfrwt>
<totfact> 0.14652264E+05</totfact>
</mgrwt>
</event>
<event>
 7    1  0.3976221E-009  0.9145528E+02  0.7818608E-02  0.1299365E+00
         -2   -1    0    0    0  501 -0.00000000000E+00  0.00000000000E+00  0.70821107697E+01  0.70821112288E+01  0.25500000000E-02 0. -1.
          2   -1    0    0  501    0  0.00000000000E+00 -0.00000000000E+00 -0.29525338580E+03  0.29525338581E+03  0.25500000000E-02 0.  1.
         23    2    1    2    0    0 -0.17763568394E-14  0.00000000000E+00 -0.28817127503E+03  0.30233549704E+03  0.91455284252E+02 0.  0.
    9000005    2    3    3    0    0  0.10172232128E+02 -0.32176429465E+02 -0.24367340021E+03  0.24648876228E+03  0.15530197734E+02 0.  0.
         22    1    3    3    0    0 -0.10172232128E+02  0.32176429465E+02 -0.44497874818E+02  0.55846734755E+02  0.00000000000E+00 0. -1.
         22    1    4    4    0    0  0.36845414084E+01 -0.29964872492E+02 -0.19101469688E+03  0.19338584192E+03  0.00000000000E+00 0. -1.
         22    1    4    4    0    0  0.64876907196E+01 -0.22115569729E+01 -0.52658703325E+02  0.53102920363E+02  0.00000000000E+00 0. -1.
<mgrwt>
<rscale>  0 0.91455284E+02</rscale>
<asrwt>0</asrwt>
<pdfrwt beam="2">  1        2 0.45423588E-01 0.91455284E+02</pdfrwt>
<pdfrwt beam="1">  1       -2 0.10895558E-02 0.91455284E+02</pdfrwt>
<totfact> 0.17714711E+05</totfact>
</mgrwt>
</event>
<event>
 7    1  0.3056193E-009  0.9229133E+02  0.7818608E-02  0.1297396E+00
          2   -1    0    0  501    0  0.00000000000E+00  0.00000000000E+00  0.69416896457E+02  0.69416896504E+02  0.25500000000E-02 0. -1.
         -2   -1    0    0    0  501 -0.00000000000E+00 -0.00000000000E+00 -0.30675848270E+02  0.30675848376E+02  0.25500000000E-02 0.  1.
         23    2    1    2    0    0 -0.35527136788E-14  0.00000000000E+00  0.38741048188E+02  0.10009274488E+03  0.92291325502E+02 0.  0.
    9000005    2    3    3    0    0  0.26395878991E+02 -0.18756818583E+02 -0.15191485584E+02  0.37185838501E+02  0.10170775764E+02 0.  0.
         22    1    3    3    0    0 -0.26395878991E+02  0.18756818583E+02  0.53932533772E+02  0.62906906379E+02  0.00000000000E+00 0. -1.
         22    1    4    4    0    0  0.21674693635E+02 -0.18408977438E+02 -0.15598330686E+02  0.32434406341E+02  0.00000000000E+00 0.  1.
         22    1    4    4    0    0  0.47211853568E+01 -0.34784114486E+00  0.40684510164E+00  0.47514321601E+01  0.00000000000E+00 0.  1.
<mgrwt>
<rscale>  0 0.92291326E+02</rscale>
<asrwt>0</asrwt>
<pdfrwt beam="1">  1        2 0.10679522E-01 0.92291326E+02</pdfrwt>
<pdfrwt beam="2">  1       -2 0.47193614E-02 0.92291326E+02</pdfrwt>
<totfact> 0.10666681E+05</totfact>
</mgrwt>
</event>
<event>
 7    1  0.3056193E-009  0.9141511E+02  0.7818608E-02  0.1299461E+00
          2   -1    0    0  501    0  0.00000000000E+00  0.00000000000E+00  0.22943365059E+04  0.22943365059E+04  0.25500000000E-02 0. -1.
         -2   -1    0    0    0  501 -0.00000000000E+00 -0.00000000000E+00 -0.91057971255E+00  0.91058328307E+00  0.25500000000E-02 0.  1.
         23    2    1    2    0    0  0.00000000000E+00 -0.17763568394E-14  0.22934259262E+04  0.22952470892E+04  0.91415105431E+02 0.  0.
    9000005    2    3    3    0    0 -0.17753578868E+02 -0.97108881180E+01  0.21731153383E+04  0.21732465627E+04  0.12682969495E+02 0.  0.
         22    1    3    3    0    0  0.17753578868E+02  0.97108881180E+01  0.12031058789E+03  0.12200052651E+03  0.00000000000E+00 0.  1.
         22    1    4    4    0    0 -0.94331600358E+01 -0.91807205294E+01  0.82097048869E+03  0.82107600954E+03  0.00000000000E+00 0.  1.
         22    1    4    4    0    0 -0.83204188324E+01 -0.53016758860E+00  0.13521448496E+04  0.13521705531E+04  0.00000000000E+00 0.  1.
<mgrwt>
<rscale>  0 0.91415105E+02</rscale>
<asrwt>0</asrwt>
<pdfrwt beam="1">  1        2 0.35297261E+00 0.91415105E+02</pdfrwt>
<pdfrwt beam="2">  1       -2 0.14009035E-03 0.91415105E+02</pdfrwt>
<totfact> 0.16754147E+05</totfact>
</mgrwt>
</event>
<event>
 7    1  0.3056193E-009  0.8730660E+02  0.7818608E-02  0.1309508E+00
          2   -1    0    0  501    0  0.00000000000E+00  0.00000000000E+00  0.94389623116E+02  0.94389623151E+02  0.25500000000E-02 0. -1.
         -2   -1    0    0    0  501 -0.00000000000E+00 -0.00000000000E+00 -0.20188773354E+02  0.20188773515E+02  0.25500000000E-02 0.  1.
         23    2    1    2    0    0  0.00000000000E+00  0.00000000000E+00  0.74200849762E+02  0.11457839667E+03  0.87306602712E+02 0.  0.
    9000005    2    3    3    0    0 -0.49782306515E+01 -0.43079357343E+02  0.31510590836E+02  0.53725524781E+02  0.35917779289E+01 0.  0.
         22    1    3    3    0    0  0.49782306515E+01  0.43079357343E+02  0.42690258927E+02  0.60852871885E+02  0.00000000000E+00 0. -1.
         22    1    4    4    0    0 -0.38253905707E+00 -0.16667143186E+02  0.11055993235E+02  0.20004374135E+02  0.00000000000E+00 0.  1.
         22    1    4    4    0    0 -0.45956915944E+01 -0.26412214156E+02  0.20454597601E+02  0.33721150646E+02  0.00000000000E+00 0.  1.
<mgrwt>
<rscale>  0 0.87306603E+02</rscale>
<asrwt>0</asrwt>
<pdfrwt beam="1">  1        2 0.14521481E-01 0.87306603E+02</pdfrwt>
<pdfrwt beam="2">  1       -2 0.31059651E-02 0.87306603E+02</pdfrwt>
<totfact> 0.13581793E+05</totfact>
</mgrwt>
</event>
<event>
 7    1  0.3056193E-009  0.9031641E+02  0.7818608E-02  0.1302087E+00
         -2   -1    0    0    0  501 -0.00000000000E+00  0.00000000000E+00  0.14459750297E+02  0.14459750522E+02  0.25500000000E-02 0.  1.
          2   -1    0    0  501    0  0.00000000000E+00 -0.00000000000E+00 -0.14103033880E+03  0.14103033883E+03  0.25500000000E-02 0. -1.
         23    2    1    2    0    0  0.00000000000E+00  0.00000000000E+00 -0.12657058851E+03  0.15549008935E+03  0.90316410529E+02 0.  0.
    9000005    2    3    3    0    0 -0.36229946187E+01  0.41416987955E+02 -0.89909762463E+02  0.10005987063E+03  0.14132209399E+02 0.  0.
         22    1    3    3    0    0  0.36229946187E+01 -0.41416987955E+02 -0.36660826043E+02  0.55430218721E+02  0.00000000000E+00 0.  1.
         22    1    4    4    0    0 -0.72358446042E+01  0.19390144953E+02 -0.33288257335E+02  0.39197490288E+02  0.00000000000E+00 0. -1.
         22    1    4    4    0    0  0.36128499855E+01  0.22026843002E+02 -0.56621505128E+02  0.60862380340E+02  0.00000000000E+00 0. -1.
<mgrwt>
<rscale>  0 0.90316411E+02</rscale>
<asrwt>0</asrwt>
<pdfrwt beam="2">  1        2 0.21696974E-01 0.90316411E+02</pdfrwt>
<pdfrwt beam="1">  1       -2 0.22245771E-02 0.90316411E+02</pdfrwt>
<totfact> 0.14050127E+05</totfact>
</mgrwt>
</event>
<event>
 7    1  0.3056193E-009  0.9173081E+02  0.7818608E-02  0.1298714E+00
         -2   -1    0    0    0  501 -0.00000000000E+00  0.00000000000E+00  0.11070358303E+03  0.11070358306E+03  0.25500000000E-02 0.  1.
          2   -1    0    0  501    0  0.00000000000E+00 -0.00000000000E+00 -0.19002413028E+02  0.19002413199E+02  0.25500000000E-02 0. -1.
         23    2    1    2    0    0  0.35527136788E-14  0.00000000000E+00  0.91701170000E+02  0.12970599626E+03  0.91730806634E+02 0.  0.
    9000005    2    3    3    0    0  0.14867293596E+02  0.35769533067E+02  0.16084274013E+02  0.44744764666E+02  0.15585062714E+02 0.  0.
         22    1    3    3    0    0 -0.14867293596E+02 -0.35769533067E+02  0.75616895988E+02  0.84961231591E+02  0.00000000000E+00 0.  1.
         22    1    4    4    0    0 -0.19915001567E+01  0.65269621729E+01 -0.10273873373E+01  0.69009298520E+01  0.00000000000E+00 0. -1.
         22    1    4    4    0    0  0.16858793752E+02  0.29242570894E+02  0.17111661350E+02  0.37843834814E+02  0.00000000000E+00 0. -1.
<mgrwt>
<rscale>  0 0.91730807E+02</rscale>
<asrwt>0</asrwt>
<pdfrwt beam="2">  1        2 0.29234481E-02 0.91730807E+02</pdfrwt>
<pdfrwt beam="1">  1       -2 0.17031321E-01 0.91730807E+02</pdfrwt>
<totfact> 0.76207165E+04</totfact>
</mgrwt>
</event>
<event>
 6    1  0.3056193E-009  0.1443063E+03  0.7818608E-02  0.1207649E+00
          2   -1    0    0  501    0  0.00000000000E+00  0.00000000000E+00  0.25787495261E+03  0.25787495262E+03  0.25500000000E-02 0.  1.
         -2   -1    0    0    0  501 -0.00000000000E+00 -0.00000000000E+00 -0.20188382381E+02  0.20188382542E+02  0.25500000000E-02 0. -1.
    9000005    2    1    2    0    0  0.14170241821E+02  0.48248020316E+02  0.20640088531E+02  0.55267818074E+02  0.99925593527E+01 0.  0.
         22    1    1    2    0    0 -0.14170241821E+02 -0.48248020316E+02  0.21704648170E+03  0.22279551709E+03  0.00000000000E+00 0.  1.
         22    1    3    3    0    0  0.11719904287E+02  0.31121850541E+02  0.17851656837E+02  0.37743971564E+02  0.00000000000E+00 0.  1.
         22    1    3    3    0    0  0.24503375346E+01  0.17126169775E+02  0.27884316933E+01  0.17523846510E+02  0.00000000000E+00 0.  1.
<mgrwt>
<rscale>  0 0.14430632E+03</rscale>
<asrwt>0</asrwt>
<pdfrwt beam="1">  1        2 0.39673066E-01 0.14430632E+03</pdfrwt>
<pdfrwt beam="2">  1       -2 0.31059053E-02 0.14430632E+03</pdfrwt>
<totfact> 0.47981735E+04</totfact>
</mgrwt>
</event>
<event>
 7    1  0.3056193E-009  0.9305012E+02  0.7818608E-02  0.1295629E+00
          2   -1    0    0  501    0  0.00000000000E+00  0.00000000000E+00  0.58892474836E+02  0.58892474891E+02  0.25500000000E-02 0. -1.
         -2   -1    0    0    0  501 -0.00000000000E+00 -0.00000000000E+00 -0.36754799242E+02  0.36754799331E+02  0.25500000000E-02 0.  1.
         23    2    1    2    0    0  0.71054273576E-14  0.44408920985E-15  0.22137675594E+02  0.95647274222E+02  0.93050117600E+02 0.  0.
    9000005    2    3    3    0    0  0.43983417691E+02  0.22108412341E+01 -0.42546515956E+01  0.44305441520E+02  0.23326459956E+01 0.  0.
         22    1    3    3    0    0 -0.43983417691E+02 -0.22108412341E+01  0.26392327190E+02  0.51341832702E+02  0.00000000000E+00 0. -1.
         22    1    4    4    0    0  0.45883014804E+01  0.24977887423E+00 -0.11664683864E+01  0.47408383707E+01  0.00000000000E+00 0. -1.
         22    1    4    4    0    0  0.39395116210E+02  0.19610623599E+01 -0.30881832092E+01  0.39564603149E+02  0.00000000000E+00 0. -1.
<mgrwt>
<rscale>  0 0.93050118E+02</rscale>
<asrwt>0</asrwt>
<pdfrwt beam="1">  1        2 0.90603805E-02 0.93050118E+02</pdfrwt>
<pdfrwt beam="2">  1       -2 0.56545847E-02 0.93050118E+02</pdfrwt>
<totfact> 0.99635403E+04</totfact>
</mgrwt>
</event>
<event>
 7    1  0.3056193E-009  0.9154302E+02  0.7818608E-02  0.1299157E+00
          2   -1    0    0  501    0  0.00000000000E+00  0.00000000000E+00  0.59805855212E+03  0.59805855213E+03  0.25500000000E-02 0. -1.
         -2   -1    0    0    0  501 -0.00000000000E+00 -0.00000000000E+00 -0.35030533234E+01  0.35030542515E+01  0.25500000000E-02 0.  1.
         23    2    1    2    0    0  0.00000000000E+00  0.00000000000E+00  0.59455549880E+03  0.60156160638E+03  0.91543023314E+02 0.  0.
    9000005    2    3    3    0    0  0.36402566327E+02 -0.42968815068E+01  0.47299306662E+03  0.47459296874E+03  0.13131446373E+02 0.  0.
         22    1    3    3    0    0 -0.36402566327E+02  0.42968815068E+01  0.12156243218E+03  0.12696863763E+03  0.00000000000E+00 0.  1.
         22    1    4    4    0    0  0.31511777780E+02 -0.62031313272E+01  0.34481275378E+03  0.34630522108E+03  0.00000000000E+00 0. -1.
         22    1    4    4    0    0  0.48907885474E+01  0.19062498204E+01  0.12818031284E+03  0.12828774767E+03  0.00000000000E+00 0. -1.
<mgrwt>
<rscale>  0 0.91543023E+02</rscale>
<asrwt>0</asrwt>
<pdfrwt beam="1">  1        2 0.92008974E-01 0.91543023E+02</pdfrwt>
<pdfrwt beam="2">  1       -2 0.53893155E-03 0.91543023E+02</pdfrwt>
<totfact> 0.22524160E+05</totfact>
</mgrwt>
</event>
<event>
 7    1  0.3056193E-009  0.9323352E+02  0.7818608E-02  0.1295205E+00
         -2   -1    0    0    0  501 -0.00000000000E+00  0.00000000000E+00  0.18582437849E+01  0.18582455345E+01  0.25500000000E-02 0.  1.
          2   -1    0    0  501    0  0.00000000000E+00 -0.00000000000E+00 -0.11694489540E+04  0.11694489540E+04  0.25500000000E-02 0. -1.
         23    2    1    2    0    0 -0.44408920985E-15 -0.71054273576E-14 -0.11675907102E+04  0.11713071995E+04  0.93233519226E+02 0.  0.
    9000005    2    3    3    0    0  0.27394092816E+01  0.33737380679E+02 -0.98139180114E+03  0.98205670691E+03  0.12640926645E+02 0.  0.
         22    1    3    3    0    0 -0.27394092816E+01 -0.33737380679E+02 -0.18619890906E+03  0.18925049261E+03  0.00000000000E+00 0.  1.
         22    1    4    4    0    0 -0.79691719590E+00  0.31625888178E+02 -0.81463935159E+03  0.81525339928E+03  0.00000000000E+00 0. -1.
         22    1    4    4    0    0  0.35363264775E+01  0.21114925011E+01 -0.16675244955E+03  0.16680330763E+03  0.00000000000E+00 0. -1.
<mgrwt>
<rscale>  0 0.93233519E+02</rscale>
<asrwt>0</asrwt>
<pdfrwt beam="2">  1        2 0.17991464E+00 0.93233519E+02</pdfrwt>
<pdfrwt beam="1">  1       -2 0.28588473E-03 0.93233519E+02</pdfrwt>
<totfact> 0.23507754E+05</totfact>
</mgrwt>
</event>
<event>
 7    1  0.3056193E-009  0.8937232E+02  0.7818608E-02  0.1304379E+00
          2   -1    0    0  501    0  0.00000000000E+00  0.00000000000E+00  0.75154733638E+02  0.75154733682E+02  0.25500000000E-02 0. -1.
         -2   -1    0    0    0  501 -0.00000000000E+00 -0.00000000000E+00 -0.26569890774E+02  0.26569890897E+02  0.25500000000E-02 0.  1.
         23    2    1    2    0    0  0.00000000000E+00  0.00000000000E+00  0.48584842864E+02  0.10172462458E+03  0.89372323957E+02 0.  0.
    9000005    2    3    3    0    0  0.40812944042E+02 -0.97254352067E+01  0.40660785432E+02  0.59027186979E+02  0.84040965856E+01 0.  0.
         22    1    3    3    0    0 -0.40812944042E+02  0.97254352067E+01  0.79240574324E+01  0.42697437599E+02  0.00000000000E+00 0.  1.
         22    1    4    4    0    0  0.19217377871E+02 -0.36433622812E+01  0.24634786229E+02  0.31455593994E+02  0.00000000000E+00 0. -1.
         22    1    4    4    0    0  0.21595566171E+02 -0.60820729255E+01  0.16025999203E+02  0.27571592986E+02  0.00000000000E+00 0. -1.
<mgrwt>
<rscale>  0 0.89372324E+02</rscale>
<asrwt>0</asrwt>
<pdfrwt beam="1">  1        2 0.11562266E-01 0.89372324E+02</pdfrwt>
<pdfrwt beam="2">  1       -2 0.40876756E-02 0.89372324E+02</pdfrwt>
<totfact> 0.11928703E+05</totfact>
</mgrwt>
</event>
<event>
 7    1  0.3056193E-009  0.8420713E+02  0.7818608E-02  0.1317519E+00
         -2   -1    0    0    0  501 -0.00000000000E+00  0.00000000000E+00  0.48111113936E+01  0.48111120694E+01  0.25500000000E-02 0. -1.
          2   -1    0    0  501    0  0.00000000000E+00 -0.00000000000E+00 -0.36846161382E+03  0.36846161383E+03  0.25500000000E-02 0.  1.
         23    2    1    2    0    0  0.11102230246E-15  0.00000000000E+00 -0.36365050243E+03  0.37327272590E+03  0.84207125498E+02 0.  0.
    9000005    2    3    3    0    0 -0.16052787890E+00  0.30286436809E+02 -0.30867224058E+03  0.31050407688E+03  0.14728734898E+02 0.  0.
         22    1    3    3    0    0  0.16052787890E+00 -0.30286436809E+02 -0.54978261849E+02  0.62768649020E+02  0.00000000000E+00 0. -1.
         22    1    4    4    0    0 -0.73251744704E+01  0.12754331560E+02 -0.14152361354E+03  0.14228585434E+03  0.00000000000E+00 0. -1.
         22    1    4    4    0    0  0.71646465915E+01  0.17532105249E+02 -0.16714862704E+03  0.16821822254E+03  0.00000000000E+00 0. -1.
<mgrwt>
<rscale>  0 0.84207125E+02</rscale>
<asrwt>0</asrwt>
<pdfrwt beam="2">  1        2 0.56686380E-01 0.84207125E+02</pdfrwt>
<pdfrwt beam="1">  1       -2 0.74017132E-03 0.84207125E+02</pdfrwt>
<totfact> 0.23917457E+05</totfact>
</mgrwt>
</event>
<event>
 7    1  0.3056193E-009  0.9229585E+02  0.7818608E-02  0.1297385E+00
         -2   -1    0    0    0  501 -0.00000000000E+00  0.00000000000E+00  0.89062320165E+01  0.89062323815E+01  0.25500000000E-02 0.  1.
          2   -1    0    0  501    0  0.00000000000E+00 -0.00000000000E+00 -0.23911695758E+03  0.23911695760E+03  0.25500000000E-02 0. -1.
         23    2    1    2    0    0  0.00000000000E+00  0.00000000000E+00 -0.23021072557E+03  0.24802318998E+03  0.92295853650E+02 0.  0.
    9000005    2    3    3    0    0 -0.25955488018E+02 -0.17080986100E+02 -0.20675049353E+03  0.20908952933E+03  0.26864949104E+01 0.  0.
         22    1    3    3    0    0  0.25955488018E+02  0.17080986100E+02 -0.23460232034E+02  0.38933660649E+02  0.00000000000E+00 0.  1.
         22    1    4    4    0    0 -0.10391397967E+02 -0.53677356891E+01 -0.74727644337E+02  0.75637388680E+02  0.00000000000E+00 0. -1.
         22    1    4    4    0    0 -0.15564090051E+02 -0.11713250411E+02 -0.13202284919E+03  0.13345214065E+03  0.00000000000E+00 0. -1.
<mgrwt>
<rscale>  0 0.92295854E+02</rscale>
<asrwt>0</asrwt>
<pdfrwt beam="2">  1        2 0.36787219E-01 0.92295854E+02</pdfrwt>
<pdfrwt beam="1">  1       -2 0.13701898E-02 0.92295854E+02</pdfrwt>
<totfact> 0.15980261E+05</totfact>
</mgrwt>
</event>
<event>
 7    1  0.3056193E-009  0.8857659E+02  0.7818608E-02  0.1306336E+00
          2   -1    0    0  501    0  0.00000000000E+00  0.00000000000E+00  0.19215590771E+03  0.19215590772E+03  0.25500000000E-02 0. -1.
         -2   -1    0    0    0  501 -0.00000000000E+00 -0.00000000000E+00 -0.10207611648E+02  0.10207611966E+02  0.25500000000E-02 0.  1.
         23    2    1    2    0    0  0.00000000000E+00  0.44408920985E-15  0.18194829606E+03  0.20236351969E+03  0.88576586424E+02 0.  0.
    9000005    2    3    3    0    0  0.38260089574E+02 -0.37280674998E+01  0.45782319617E+02  0.60875336148E+02  0.11491423766E+02 0.  0.
         22    1    3    3    0    0 -0.38260089574E+02  0.37280674998E+01  0.13616597644E+03  0.14148818354E+03  0.00000000000E+00 0.  1.
         22    1    4    4    0    0  0.15493076461E+02 -0.54241730243E+01  0.25558534758E+02  0.30375907727E+02  0.00000000000E+00 0.  1.
         22    1    4    4    0    0  0.22767013113E+02  0.16961055245E+01  0.20223784858E+02  0.30499428422E+02  0.00000000000E+00 0.  1.
<mgrwt>
<rscale>  0 0.88576586E+02</rscale>
<asrwt>0</asrwt>
<pdfrwt beam="1">  1        2 0.29562444E-01 0.88576586E+02</pdfrwt>
<pdfrwt beam="2">  1       -2 0.15704020E-02 0.88576586E+02</pdfrwt>
<totfact> 0.16479843E+05</totfact>
</mgrwt>
</event>
<event>
 7    1  0.3056193E-009  0.8945054E+02  0.7818608E-02  0.1304188E+00
         -2   -1    0    0    0  501 -0.00000000000E+00  0.00000000000E+00  0.80527330536E+01  0.80527334573E+01  0.25500000000E-02 0. -1.
          2   -1    0    0  501    0  0.00000000000E+00 -0.00000000000E+00 -0.24840631096E+03  0.24840631098E+03  0.25500000000E-02 0.  1.
         23    2    1    2    0    0  0.71054273576E-14  0.17763568394E-14 -0.24035357791E+03  0.25645904444E+03  0.89450539729E+02 0.  0.
    9000005    2    3    3    0    0 -0.33471713410E+02 -0.89998616269E+01 -0.20005055759E+03  0.20330185720E+03  0.10491255421E+02 0.  0.
         22    1    3    3    0    0  0.33471713410E+02  0.89998616269E+01 -0.40303020322E+02  0.53157187238E+02  0.00000000000E+00 0. -1.
         22    1    4    4    0    0 -0.34085898305E+02 -0.95295226724E+01 -0.19621181880E+03  0.19937837923E+03  0.00000000000E+00 0.  1.
         22    1    4    4    0    0  0.61418489494E+00  0.52966104550E+00 -0.38387387862E+01  0.39234779695E+01  0.00000000000E+00 0.  1.
<mgrwt>
<rscale>  0 0.89450540E+02</rscale>
<asrwt>0</asrwt>
<pdfrwt beam="2">  1        2 0.38216350E-01 0.89450540E+02</pdfrwt>
<pdfrwt beam="1">  1       -2 0.12388822E-02 0.89450540E+02</pdfrwt>
<totfact> 0.17624562E+05</totfact>
</mgrwt>
</event>
<event>
 7    1  0.3056193E-009  0.9021013E+02  0.7818608E-02  0.1302344E+00
         -2   -1    0    0    0  501 -0.00000000000E+00  0.00000000000E+00  0.28090794540E+03  0.28090794541E+03  0.25500000000E-02 0.  1.
          2   -1    0    0  501    0  0.00000000000E+00 -0.00000000000E+00 -0.72424680629E+01  0.72424685118E+01  0.25500000000E-02 0. -1.
         23    2    1    2    0    0  0.00000000000E+00  0.88817841970E-15  0.27366547733E+03  0.28815041392E+03  0.90210130019E+02 0.  0.
    9000005    2    3    3    0    0 -0.42754577032E+02  0.76343738990E+01  0.12051845306E+03  0.12896420671E+03  0.14860402497E+02 0.  0.
         22    1    3    3    0    0  0.42754577032E+02 -0.76343738990E+01  0.15314702428E+03  0.15918620721E+03  0.00000000000E+00 0.  1.
         22    1    4    4    0    0 -0.27434750682E+02  0.85989452999E+00  0.90706700912E+02  0.94768721390E+02  0.00000000000E+00 0. -1.
         22    1    4    4    0    0 -0.15319826350E+02  0.67744793690E+01  0.29811752144E+02  0.34195485316E+02  0.00000000000E+00 0. -1.
<mgrwt>
<rscale>  0 0.90210130E+02</rscale>
<asrwt>0</asrwt>
<pdfrwt beam="2">  1        2 0.11142260E-02 0.90210130E+02</pdfrwt>
<pdfrwt beam="1">  1       -2 0.43216603E-01 0.90210130E+02</pdfrwt>
<totfact> 0.54349808E+04</totfact>
</mgrwt>
</event>
<event>
 7    1  0.3056193E-009  0.9103543E+02  0.7818608E-02  0.1300363E+00
         -2   -1    0    0    0  501 -0.00000000000E+00  0.00000000000E+00  0.19356905109E+01  0.19356921906E+01  0.25500000000E-02 0. -1.
          2   -1    0    0  501    0  0.00000000000E+00 -0.00000000000E+00 -0.10703475721E+04  0.10703475721E+04  0.25500000000E-02 0.  1.
         23    2    1    2    0    0  0.00000000000E+00  0.35527136788E-14 -0.10684118816E+04  0.10722832643E+04  0.91035433560E+02 0.  0.
    9000005    2    3    3    0    0  0.11102995633E+02 -0.26488780048E+02 -0.94811247460E+03  0.94860271084E+03  0.10242389479E+02 0.  0.
         22    1    3    3    0    0 -0.11102995633E+02  0.26488780048E+02 -0.12029940699E+03  0.12368055346E+03  0.00000000000E+00 0. -1.
         22    1    4    4    0    0  0.89527681090E+01 -0.17009093488E+02 -0.75616941270E+03  0.75641367123E+03  0.00000000000E+00 0.  1.
         22    1    4    4    0    0  0.21502275241E+01 -0.94796865592E+01 -0.19194306190E+03  0.19218903962E+03  0.00000000000E+00 0.  1.
<mgrwt>
<rscale>  0 0.91035434E+02</rscale>
<asrwt>0</asrwt>
<pdfrwt beam="2">  1        2 0.16466838E+00 0.91035434E+02</pdfrwt>
<pdfrwt beam="1">  1       -2 0.29779953E-03 0.91035434E+02</pdfrwt>
<totfact> 0.25134738E+05</totfact>
</mgrwt>
</event>
<event>
 7    1  0.3056193E-009  0.9003088E+02  0.7818608E-02  0.1302777E+00
         -2   -1    0    0    0  501 -0.00000000000E+00  0.00000000000E+00  0.31375795657E+03  0.31375795658E+03  0.25500000000E-02 0.  1.
          2   -1    0    0  501    0  0.00000000000E+00 -0.00000000000E+00 -0.64584486041E+01  0.64584491075E+01  0.25500000000E-02 0. -1.
         23    2    1    2    0    0  0.00000000000E+00 -0.35527136788E-14  0.30729950796E+03  0.32021640568E+03  0.90030877344E+02 0.  0.
    9000005    2    3    3    0    0  0.25245382501E+02 -0.30445571942E+02  0.22890047982E+03  0.23240598602E+03  0.72698339792E+01 0.  0.
         22    1    3    3    0    0 -0.25245382501E+02  0.30445571942E+02  0.78399028139E+02  0.87810419665E+02  0.00000000000E+00 0. -1.
         22    1    4    4    0    0  0.12507866297E+02 -0.11348045082E+02  0.81812721712E+02  0.83537693770E+02  0.00000000000E+00 0.  1.
         22    1    4    4    0    0  0.12737516204E+02 -0.19097526860E+02  0.14708775811E+03  0.14886829225E+03  0.00000000000E+00 0.  1.
<mgrwt>
<rscale>  0 0.90030877E+02</rscale>
<asrwt>0</asrwt>
<pdfrwt beam="2">  1        2 0.99360749E-03 0.90030877E+02</pdfrwt>
<pdfrwt beam="1">  1       -2 0.48270456E-01 0.90030877E+02</pdfrwt>
<totfact> 0.51358480E+04</totfact>
</mgrwt>
</event>
<event>
 7    1  0.3056193E-009  0.9186504E+02  0.7818608E-02  0.1298397E+00
          2   -1    0    0  501    0  0.00000000000E+00  0.00000000000E+00  0.13939226889E+02  0.13939227122E+02  0.25500000000E-02 0.  1.
         -2   -1    0    0    0  501 -0.00000000000E+00 -0.00000000000E+00 -0.15135676939E+03  0.15135676941E+03  0.25500000000E-02 0. -1.
         23    2    1    2    0    0  0.00000000000E+00  0.00000000000E+00 -0.13741754250E+03  0.16529599653E+03  0.91865039501E+02 0.  0.
    9000005    2    3    3    0    0 -0.78360845602E+00  0.39311993894E+02 -0.28912860626E+02  0.49886668942E+02  0.10328568265E+02 0.  0.
         22    1    3    3    0    0  0.78360845602E+00 -0.39311993894E+02 -0.10850468187E+03  0.11540932759E+03  0.00000000000E+00 0. -1.
         22    1    4    4    0    0  0.15058752211E+01  0.75261995106E+01 -0.14356995905E+01  0.78084936172E+01  0.00000000000E+00 0. -1.
         22    1    4    4    0    0 -0.22894836771E+01  0.31785794383E+02 -0.27477161035E+02  0.42078175325E+02  0.00000000000E+00 0. -1.
<mgrwt>
<rscale>  0 0.91865040E+02</rscale>
<asrwt>0</asrwt>
<pdfrwt beam="1">  1        2 0.21444966E-02 0.91865040E+02</pdfrwt>
<pdfrwt beam="2">  1       -2 0.23285656E-01 0.91865040E+02</pdfrwt>
<totfact> 0.68312695E+04</totfact>
</mgrwt>
</event>
<event>
 7    1  0.3056193E-009  0.9176927E+02  0.7818608E-02  0.1298623E+00
         -2   -1    0    0    0  501 -0.00000000000E+00  0.00000000000E+00  0.32231539522E+01  0.32231549609E+01  0.25500000000E-02 0.  1.
          2   -1    0    0  501    0  0.00000000000E+00 -0.00000000000E+00 -0.65321098384E+03  0.65321098385E+03  0.25500000000E-02 0. -1.
         23    2    1    2    0    0  0.35527136788E-14 -0.35527136788E-14 -0.64998782989E+03  0.65643413881E+03  0.91769273658E+02 0.  0.
    9000005    2    3    3    0    0  0.20903008766E+02 -0.19845569438E+02 -0.57749795540E+03  0.57842411186E+03  0.15484904948E+02 0.  0.
         22    1    3    3    0    0 -0.20903008766E+02  0.19845569438E+02 -0.72489874490E+02  0.78010026954E+02  0.00000000000E+00 0.  1.
         22    1    4    4    0    0  0.59270059988E+00 -0.72706492252E+00 -0.16270907776E+01  0.18781218814E+01  0.00000000000E+00 0.  1.
         22    1    4    4    0    0  0.20310308166E+02 -0.19118504516E+02 -0.57587086462E+03  0.57654598997E+03  0.00000000000E+00 0.  1.
<mgrwt>
<rscale>  0 0.91769274E+02</rscale>
<asrwt>0</asrwt>
<pdfrwt beam="2">  1        2 0.10049389E+00 0.91769274E+02</pdfrwt>
<pdfrwt beam="1">  1       -2 0.49587044E-03 0.91769274E+02</pdfrwt>
<totfact> 0.22919738E+05</totfact>
</mgrwt>
</event>
<event>
 7    1  0.3262830E-009  0.9390923E+02  0.7818608E-02  0.1293652E+00
         -2   -1    0    0    0  501 -0.00000000000E+00  0.00000000000E+00  0.44631259429E+01  0.44631266713E+01  0.25500000000E-02 0.  1.
          2   -1    0    0  501    0  0.00000000000E+00 -0.00000000000E+00 -0.49398911718E+03  0.49398911719E+03  0.25500000000E-02 0. -1.
         23    2    1    2    0    0  0.17763568394E-14  0.00000000000E+00 -0.48952599124E+03  0.49845224386E+03  0.93909229101E+02 0.  0.
    9000005    2    3    3    0    0  0.15786400957E+02  0.40547460022E+02 -0.32654984167E+03  0.32976753116E+03  0.14782372779E+02 0.  0.
         22    1    3    3    0    0 -0.15786400957E+02 -0.40547460022E+02 -0.16297614957E+03  0.16868471270E+03  0.00000000000E+00 0.  1.
         22    1    4    4    0    0  0.18012712118E+02  0.32610373589E+02 -0.28330954807E+03  0.28574848082E+03  0.00000000000E+00 0.  1.
         22    1    4    4    0    0 -0.22263111606E+01  0.79370864330E+01 -0.43240293596E+02  0.44019050338E+02  0.00000000000E+00 0.  1.
<mgrwt>
<rscale>  0 0.93909229E+02</rscale>
<asrwt>0</asrwt>
<pdfrwt beam="2">  1        2 0.75998283E-01 0.93909229E+02</pdfrwt>
<pdfrwt beam="1">  1       -2 0.68663521E-03 0.93909229E+02</pdfrwt>
<totfact> 0.19847994E+05</totfact>
</mgrwt>
</event>
<event>
 7    1  0.3056193E-009  0.9393668E+02  0.7818608E-02  0.1293589E+00
         -2   -1    0    0    0  501 -0.00000000000E+00  0.00000000000E+00  0.35152399794E+02  0.35152399887E+02  0.25500000000E-02 0.  1.
          2   -1    0    0  501    0  0.00000000000E+00 -0.00000000000E+00 -0.62756025442E+02  0.62756025494E+02  0.25500000000E-02 0. -1.
         23    2    1    2    0    0  0.00000000000E+00  0.00000000000E+00 -0.27603625648E+02  0.97908425380E+02  0.93936678734E+02 0.  0.
    9000005    2    3    3    0    0 -0.34336212361E+02  0.20846921041E+02 -0.38357822047E+02  0.56324506176E+02  0.93572371729E+01 0.  0.
         22    1    3    3    0    0  0.34336212361E+02 -0.20846921041E+02  0.10754196400E+02  0.41583919205E+02  0.00000000000E+00 0.  1.
         22    1    4    4    0    0  0.20754652912E+00  0.11466899535E+01 -0.14572887094E+00  0.11743978521E+01  0.00000000000E+00 0. -1.
         22    1    4    4    0    0 -0.34543758890E+02  0.19700231088E+02 -0.38212093176E+02  0.55150108324E+02  0.00000000000E+00 0. -1.
<mgrwt>
<rscale>  0 0.93936679E+02</rscale>
<asrwt>0</asrwt>
<pdfrwt beam="2">  1        2 0.96547731E-02 0.93936679E+02</pdfrwt>
<pdfrwt beam="1">  1       -2 0.54080615E-02 0.93936679E+02</pdfrwt>
<totfact> 0.98690796E+04</totfact>
</mgrwt>
</event>
<event>
 7    1  0.3056193E-009  0.8272667E+02  0.7818608E-02  0.1321487E+00
          2   -1    0    0  501    0  0.00000000000E+00  0.00000000000E+00  0.23715360041E+03  0.23715360043E+03  0.25500000000E-02 0. -1.
         -2   -1    0    0    0  501 -0.00000000000E+00 -0.00000000000E+00 -0.72144181857E+01  0.72144186364E+01  0.25500000000E-02 0.  1.
         23    2    1    2    0    0  0.00000000000E+00  0.00000000000E+00  0.22993918223E+03  0.24436801906E+03  0.82726665698E+02 0.  0.
    9000005    2    3    3    0    0 -0.16762319976E+02 -0.35594687569E+02  0.15253848607E+03  0.15754161226E+03  0.18473506098E+01 0.  0.
         22    1    3    3    0    0  0.16762319976E+02  0.35594687569E+02  0.77400696154E+02  0.86826406809E+02  0.00000000000E+00 0. -1.
         22    1    4    4    0    0 -0.11747703887E+02 -0.26389802103E+02  0.10974219800E+03  0.11348030764E+03  0.00000000000E+00 0. -1.
         22    1    4    4    0    0 -0.50146160890E+01 -0.92048854659E+01  0.42796288076E+02  0.44061304611E+02  0.00000000000E+00 0. -1.
<mgrwt>
<rscale>  0 0.82726666E+02</rscale>
<asrwt>0</asrwt>
<pdfrwt beam="1">  1        2 0.36485161E-01 0.82726666E+02</pdfrwt>
<pdfrwt beam="2">  1       -2 0.11099108E-02 0.82726666E+02</pdfrwt>
<totfact> 0.21332867E+05</totfact>
</mgrwt>
</event>
<event>
 7    1  0.3056193E-009  0.9855901E+02  0.7818608E-02  0.1283356E+00
         -2   -1    0    0    0  501 -0.00000000000E+00  0.00000000000E+00  0.58750496635E+02  0.58750496691E+02  0.25500000000E-02 0. -1.
          2   -1    0    0  501    0  0.00000000000E+00 -0.00000000000E+00 -0.41335306105E+02  0.41335306183E+02  0.25500000000E-02 0.  1.
         23    2    1    2    0    0  0.35527136788E-14 -0.17763568394E-14  0.17415190531E+02  0.10008580287E+03  0.98559013163E+02 0.  0.
    9000005    2    3    3    0    0 -0.18607457163E+02  0.13881753778E+02 -0.34830465968E+02  0.42914576081E+02  0.94635580308E+01 0.  0.
         22    1    3    3    0    0  0.18607457163E+02 -0.13881753778E+02  0.52245656499E+02  0.57171226793E+02  0.00000000000E+00 0. -1.
         22    1    4    4    0    0 -0.20965383444E+01  0.60571414981E+01 -0.59860603977E+01  0.87702540010E+01  0.00000000000E+00 0. -1.
         22    1    4    4    0    0 -0.16510918819E+02  0.78246122798E+01 -0.28844405571E+02  0.34144322080E+02  0.00000000000E+00 0. -1.
<mgrwt>
<rscale>  0 0.98559013E+02</rscale>
<asrwt>0</asrwt>
<pdfrwt beam="2">  1        2 0.63592779E-02 0.98559013E+02</pdfrwt>
<pdfrwt beam="1">  1       -2 0.90385379E-02 0.98559013E+02</pdfrwt>
<totfact> 0.76660748E+04</totfact>
</mgrwt>
</event>
<event>
 7    1  0.3056193E-009  0.9054074E+02  0.7818608E-02  0.1301547E+00
         -2   -1    0    0    0  501 -0.00000000000E+00  0.00000000000E+00  0.25722481302E+03  0.25722481303E+03  0.25500000000E-02 0.  1.
          2   -1    0    0  501    0  0.00000000000E+00 -0.00000000000E+00 -0.79673735622E+01  0.79673739702E+01  0.25500000000E-02 0. -1.
         23    2    1    2    0    0  0.71054273576E-14  0.00000000000E+00  0.24925743946E+03  0.26519218700E+03  0.90540736259E+02 0.  0.
    9000005    2    3    3    0    0 -0.33798000304E+02  0.22422687306E+02  0.18284394409E+03  0.18737294711E+03  0.56242055283E+01 0.  0.
         22    1    3    3    0    0  0.33798000304E+02 -0.22422687306E+02  0.66413495370E+02  0.77819239895E+02  0.00000000000E+00 0. -1.
         22    1    4    4    0    0 -0.31938561100E+02  0.21216123870E+02  0.17737254980E+03  0.18146960357E+03  0.00000000000E+00 0. -1.
         22    1    4    4    0    0 -0.18594392039E+01  0.12065634366E+01  0.54713942868E+01  0.59033435374E+01  0.00000000000E+00 0. -1.
<mgrwt>
<rscale>  0 0.90540736E+02</rscale>
<asrwt>0</asrwt>
<pdfrwt beam="2">  1        2 0.12257497E-02 0.90540736E+02</pdfrwt>
<pdfrwt beam="1">  1       -2 0.39573051E-01 0.90540736E+02</pdfrwt>
<totfact> 0.56380594E+04</totfact>
</mgrwt>
</event>
<event>
 7    1  0.3056193E-009  0.9393923E+02  0.7818608E-02  0.1293583E+00
          2   -1    0    0  501    0  0.00000000000E+00  0.00000000000E+00  0.11367566706E+02  0.11367566992E+02  0.25500000000E-02 0. -1.
         -2   -1    0    0    0  501 -0.00000000000E+00 -0.00000000000E+00 -0.19407361138E+03  0.19407361140E+03  0.25500000000E-02 0.  1.
         23    2    1    2    0    0  0.00000000000E+00  0.00000000000E+00 -0.18270604467E+03  0.20544117839E+03  0.93939230449E+02 0.  0.
    9000005    2    3    3    0    0  0.41813672667E+02  0.36240737533E+01 -0.46984028031E+02  0.63377872310E+02  0.69093180562E+01 0.  0.
         22    1    3    3    0    0 -0.41813672667E+02 -0.36240737533E+01 -0.13572201664E+03  0.14206330608E+03  0.00000000000E+00 0.  1.
         22    1    4    4    0    0  0.16412485388E+02 -0.83620918921E+00 -0.14626725222E+02  0.22000227571E+02  0.00000000000E+00 0.  1.
         22    1    4    4    0    0  0.25401187279E+02  0.44602829425E+01 -0.32357302809E+02  0.41377644739E+02  0.00000000000E+00 0.  1.
<mgrwt>
<rscale>  0 0.93939230E+02</rscale>
<asrwt>0</asrwt>
<pdfrwt beam="1">  1        2 0.17488566E-02 0.93939230E+02</pdfrwt>
<pdfrwt beam="2">  1       -2 0.29857476E-01 0.93939230E+02</pdfrwt>
<totfact> 0.58494101E+04</totfact>
</mgrwt>
</event>
<event>
 7    1  0.3056193E-009  0.9241009E+02  0.7818608E-02  0.1297118E+00
          2   -1    0    0  501    0  0.00000000000E+00  0.00000000000E+00  0.27018493150E+03  0.27018493151E+03  0.25500000000E-02 0. -1.
         -2   -1    0    0    0  501 -0.00000000000E+00 -0.00000000000E+00 -0.79016484715E+01  0.79016488829E+01  0.25500000000E-02 0.  1.
         23    2    1    2    0    0  0.00000000000E+00  0.00000000000E+00  0.26228328303E+03  0.27808658040E+03  0.92410094901E+02 0.  0.
    9000005    2    3    3    0    0  0.43564307811E+02  0.74744636802E+01  0.11027889966E+03  0.11978607791E+03  0.15282415695E+02 0.  0.
         22    1    3    3    0    0 -0.43564307811E+02 -0.74744636802E+01  0.15200438337E+03  0.15830050248E+03  0.00000000000E+00 0.  1.
         22    1    4    4    0    0  0.91558537390E+01 -0.35864163311E+01  0.15569498314E+02  0.18414703841E+02  0.00000000000E+00 0.  1.
         22    1    4    4    0    0  0.34408454072E+02  0.11060880011E+02  0.94709401344E+02  0.10137137407E+03  0.00000000000E+00 0.  1.
<mgrwt>
<rscale>  0 0.92410095E+02</rscale>
<asrwt>0</asrwt>
<pdfrwt beam="1">  1        2 0.41566912E-01 0.92410095E+02</pdfrwt>
<pdfrwt beam="2">  1       -2 0.12156383E-02 0.92410095E+02</pdfrwt>
<totfact> 0.16667566E+05</totfact>
</mgrwt>
</event>
<event>
 7    1  0.3056193E-009  0.8201056E+02  0.7818608E-02  0.1323441E+00
         -2   -1    0    0    0  501 -0.00000000000E+00  0.00000000000E+00  0.48586903921E+02  0.48586903988E+02  0.25500000000E-02 0.  1.
          2   -1    0    0  501    0  0.00000000000E+00 -0.00000000000E+00 -0.34606708923E+02  0.34606709017E+02  0.25500000000E-02 0. -1.
         23    2    1    2    0    0  0.00000000000E+00  0.00000000000E+00  0.13980194998E+02  0.83193613006E+02  0.82010556593E+02 0.  0.
    9000005    2    3    3    0    0  0.19010275994E+02 -0.17441992144E+02 -0.25192489099E+02  0.36288252302E+02  0.40696516836E+01 0.  0.
         22    1    3    3    0    0 -0.19010275994E+02  0.17441992144E+02  0.39172684097E+02  0.46905360703E+02  0.00000000000E+00 0.  1.
         22    1    4    4    0    0  0.15732207201E+02 -0.15386744628E+02 -0.19482321368E+02  0.29390731525E+02  0.00000000000E+00 0. -1.
         22    1    4    4    0    0  0.32780687931E+01 -0.20552475164E+01 -0.57101677307E+01  0.68975207777E+01  0.00000000000E+00 0. -1.
<mgrwt>
<rscale>  0 0.82010557E+02</rscale>
<asrwt>0</asrwt>
<pdfrwt beam="2">  1        2 0.53241091E-02 0.82010557E+02</pdfrwt>
<pdfrwt beam="1">  1       -2 0.74749083E-02 0.82010557E+02</pdfrwt>
<totfact> 0.12482185E+05</totfact>
</mgrwt>
</event>
<event>
 7    1  0.3056193E-009  0.9659084E+02  0.7818608E-02  0.1287633E+00
          2   -1    0    0  501    0  0.00000000000E+00  0.00000000000E+00  0.32607443460E+03  0.32607443461E+03  0.25500000000E-02 0. -1.
         -2   -1    0    0    0  501 -0.00000000000E+00 -0.00000000000E+00 -0.71531142807E+01  0.71531147352E+01  0.25500000000E-02 0.  1.
         23    2    1    2    0    0  0.00000000000E+00  0.00000000000E+00  0.31892132032E+03  0.33322754935E+03  0.96590843710E+02 0.  0.
    9000005    2    3    3    0    0  0.96289540241E+01 -0.21893936703E+02  0.30405908628E+03  0.30506823081E+03  0.65296461081E+01 0.  0.
         22    1    3    3    0    0 -0.96289540241E+01  0.21893936703E+02  0.14862234042E+02  0.28159318541E+02  0.00000000000E+00 0.  1.
         22    1    4    4    0    0  0.58887879201E+01 -0.79302234751E+01  0.95744936000E+02  0.96253098845E+02  0.00000000000E+00 0.  1.
         22    1    4    4    0    0  0.37401661040E+01 -0.13963713228E+02  0.20831415028E+03  0.20881513196E+03  0.00000000000E+00 0.  1.
<mgrwt>
<rscale>  0 0.96590844E+02</rscale>
<asrwt>0</asrwt>
<pdfrwt beam="1">  1        2 0.50165313E-01 0.96590844E+02</pdfrwt>
<pdfrwt beam="2">  1       -2 0.11004788E-02 0.96590844E+02</pdfrwt>
<totfact> 0.15881972E+05</totfact>
</mgrwt>
</event>
<event>
 7    1  0.3056193E-009  0.9278767E+02  0.7818608E-02  0.1296238E+00
          2   -1    0    0  501    0  0.00000000000E+00  0.00000000000E+00  0.12278003214E+03  0.12278003217E+03  0.25500000000E-02 0. -1.
         -2   -1    0    0    0  501 -0.00000000000E+00 -0.00000000000E+00 -0.17530437647E+02  0.17530437833E+02  0.25500000000E-02 0.  1.
         23    2    1    2    0    0  0.00000000000E+00  0.00000000000E+00  0.10524959450E+03  0.14031047000E+03  0.92787665402E+02 0.  0.
    9000005    2    3    3    0    0  0.83335265530E+01 -0.41036485444E+02  0.26060648996E+02  0.50731845924E+02  0.11879476517E+02 0.  0.
         22    1    3    3    0    0 -0.83335265530E+01  0.41036485444E+02  0.79188945501E+02  0.89578624079E+02  0.00000000000E+00 0. -1.
         22    1    4    4    0    0  0.82362740804E+01 -0.24230938412E+02  0.21212456337E+02  0.33240681264E+02  0.00000000000E+00 0. -1.
         22    1    4    4    0    0  0.97252472683E-01 -0.16805547032E+02  0.48481926590E+01  0.17491164660E+02  0.00000000000E+00 0. -1.
<mgrwt>
<rscale>  0 0.92787665E+02</rscale>
<asrwt>0</asrwt>
<pdfrwt beam="1">  1        2 0.18889235E-01 0.92787665E+02</pdfrwt>
<pdfrwt beam="2">  1       -2 0.26969905E-02 0.92787665E+02</pdfrwt>
<totfact> 0.12470019E+05</totfact>
</mgrwt>
</event>
<event>
 7    1  0.3056193E-009  0.9011253E+02  0.7818608E-02  0.1302579E+00
          2   -1    0    0  501    0  0.00000000000E+00  0.00000000000E+00  0.19581303550E+03  0.19581303551E+03  0.25500000000E-02 0. -1.
         -2   -1    0    0    0  501 -0.00000000000E+00 -0.00000000000E+00 -0.10367373742E+02  0.10367374055E+02  0.25500000000E-02 0.  1.
         23    2    1    2    0    0  0.35527136788E-14  0.00000000000E+00  0.18544566176E+03  0.20618040957E+03  0.90112528686E+02 0.  0.
    9000005    2    3    3    0    0  0.28093591138E+02 -0.31215941160E+02  0.67738036064E+02  0.81205332088E+02  0.15562120170E+02 0.  0.
         22    1    3    3    0    0 -0.28093591138E+02  0.31215941160E+02  0.11770762569E+03  0.12497507748E+03  0.00000000000E+00 0.  1.
         22    1    4    4    0    0  0.17135164057E+02 -0.23507746262E+02  0.33099150400E+02  0.44065652597E+02  0.00000000000E+00 0. -1.
         22    1    4    4    0    0  0.10958427080E+02 -0.77081948982E+01  0.34638885664E+02  0.37139679491E+02  0.00000000000E+00 0. -1.
<mgrwt>
<rscale>  0 0.90112529E+02</rscale>
<asrwt>0</asrwt>
<pdfrwt beam="1">  1        2 0.30125083E-01 0.90112529E+02</pdfrwt>
<pdfrwt beam="2">  1       -2 0.15949806E-02 0.90112529E+02</pdfrwt>
<totfact> 0.15842907E+05</totfact>
</mgrwt>
</event>
<event>
 7    1  0.3056193E-009  0.9298742E+02  0.7818608E-02  0.1295774E+00
         -2   -1    0    0    0  501 -0.00000000000E+00  0.00000000000E+00  0.50490074022E+02  0.50490074087E+02  0.25500000000E-02 0. -1.
          2   -1    0    0  501    0  0.00000000000E+00 -0.00000000000E+00 -0.42813666375E+02  0.42813666451E+02  0.25500000000E-02 0.  1.
         23    2    1    2    0    0  0.00000000000E+00  0.00000000000E+00  0.76764076473E+01  0.93303740537E+02  0.92987422611E+02 0.  0.
    9000005    2    3    3    0    0  0.33183707524E+02 -0.13589184752E+02  0.32342766868E+02  0.49780716005E+02  0.12093003350E+02 0.  0.
         22    1    3    3    0    0 -0.33183707524E+02  0.13589184752E+02 -0.24666359220E+02  0.43523024532E+02  0.00000000000E+00 0.  1.
         22    1    4    4    0    0  0.26202619405E+02 -0.10726673938E+02  0.31230048285E+02  0.42153940662E+02  0.00000000000E+00 0. -1.
         22    1    4    4    0    0  0.69810881187E+01 -0.28625108144E+01  0.11127185827E+01  0.76267753427E+01  0.00000000000E+00 0. -1.
<mgrwt>
<rscale>  0 0.92987423E+02</rscale>
<asrwt>0</asrwt>
<pdfrwt beam="2">  1        2 0.65867179E-02 0.92987423E+02</pdfrwt>
<pdfrwt beam="1">  1       -2 0.77677037E-02 0.92987423E+02</pdfrwt>
<totfact> 0.91716726E+04</totfact>
</mgrwt>
</event>
<event>
 7    1  0.3056193E-009  0.8981132E+02  0.7818608E-02  0.1303309E+00
          2   -1    0    0  501    0  0.00000000000E+00  0.00000000000E+00  0.10694479238E+02  0.10694479542E+02  0.25500000000E-02 0. -1.
         -2   -1    0    0    0  501 -0.00000000000E+00 -0.00000000000E+00 -0.18855695842E+03  0.18855695844E+03  0.25500000000E-02 0.  1.
         23    2    1    2    0    0  0.00000000000E+00  0.00000000000E+00 -0.17786247918E+03  0.19925143798E+03  0.89811324654E+02 0.  0.
    9000005    2    3    3    0    0  0.23096497552E+02 -0.24987836735E+02 -0.29137733116E+02  0.46683779951E+02  0.13134977561E+02 0.  0.
         22    1    3    3    0    0 -0.23096497552E+02  0.24987836735E+02 -0.14872474607E+03  0.15256765803E+03  0.00000000000E+00 0.  1.
         22    1    4    4    0    0  0.20984674877E+02 -0.15561450329E+02 -0.25050919752E+02  0.36194804827E+02  0.00000000000E+00 0.  1.
         22    1    4    4    0    0  0.21118226749E+01 -0.94263864059E+01 -0.40868133636E+01  0.10488975124E+02  0.00000000000E+00 0.  1.
<mgrwt>
<rscale>  0 0.89811325E+02</rscale>
<asrwt>0</asrwt>
<pdfrwt beam="1">  1        2 0.16453047E-02 0.89811325E+02</pdfrwt>
<pdfrwt beam="2">  1       -2 0.29008760E-01 0.89811325E+02</pdfrwt>
<totfact> 0.66404067E+04</totfact>
</mgrwt>
</event>
<event>
 7    1  0.3056193E-009  0.9296832E+02  0.7818608E-02  0.1295819E+00
         -2   -1    0    0    0  501 -0.00000000000E+00  0.00000000000E+00  0.10518818298E+02  0.10518818607E+02  0.25500000000E-02 0. -1.
          2   -1    0    0  501    0  0.00000000000E+00 -0.00000000000E+00 -0.20542011500E+03  0.20542011501E+03  0.25500000000E-02 0.  1.
         23    2    1    2    0    0  0.00000000000E+00  0.00000000000E+00 -0.19490129670E+03  0.21593893362E+03  0.92968315020E+02 0.  0.
    9000005    2    3    3    0    0 -0.32914841333E+02 -0.13331496972E+02 -0.28536372293E+02  0.45826019165E+02  0.49582151370E+01 0.  0.
         22    1    3    3    0    0  0.32914841333E+02  0.13331496972E+02 -0.16636492441E+03  0.17011291446E+03  0.00000000000E+00 0.  1.
         22    1    4    4    0    0 -0.48797513040E+01 -0.46076438228E+00 -0.51938774607E+01  0.71414732151E+01  0.00000000000E+00 0. -1.
         22    1    4    4    0    0 -0.28035090029E+02 -0.12870732590E+02 -0.23342494832E+02  0.38684545950E+02  0.00000000000E+00 0. -1.
<mgrwt>
<rscale>  0 0.92968315E+02</rscale>
<asrwt>0</asrwt>
<pdfrwt beam="2">  1        2 0.31603092E-01 0.92968315E+02</pdfrwt>
<pdfrwt beam="1">  1       -2 0.16182799E-02 0.92968315E+02</pdfrwt>
<totfact> 0.14820438E+05</totfact>
</mgrwt>
</event>
<event>
 7    1  0.3056193E-009  0.9078627E+02  0.7818608E-02  0.1300959E+00
          2   -1    0    0  501    0  0.00000000000E+00  0.00000000000E+00  0.12661163268E+03  0.12661163270E+03  0.25500000000E-02 0.  1.
         -2   -1    0    0    0  501 -0.00000000000E+00 -0.00000000000E+00 -0.16274464757E+02  0.16274464957E+02  0.25500000000E-02 0. -1.
         23    2    1    2    0    0 -0.35527136788E-14  0.00000000000E+00  0.11033716792E+03  0.14288609766E+03  0.90786267021E+02 0.  0.
    9000005    2    3    3    0    0 -0.24893379197E+02  0.29284015609E+01 -0.33560830585E+01  0.26462684285E+02  0.77945174666E+01 0.  0.
         22    1    3    3    0    0  0.24893379197E+02 -0.29284015609E+01  0.11369325098E+03  0.11642341337E+03  0.00000000000E+00 0.  1.
         22    1    4    4    0    0 -0.18174089150E+02  0.55489155239E+01 -0.18250162077E+01  0.19089752856E+02  0.00000000000E+00 0.  1.
         22    1    4    4    0    0 -0.67192900467E+01 -0.26205139631E+01 -0.15310668508E+01  0.73729314295E+01  0.00000000000E+00 0.  1.
<mgrwt>
<rscale>  0 0.90786267E+02</rscale>
<asrwt>0</asrwt>
<pdfrwt beam="1">  1        2 0.19478713E-01 0.90786267E+02</pdfrwt>
<pdfrwt beam="2">  1       -2 0.25037638E-02 0.90786267E+02</pdfrwt>
<totfact> 0.13369096E+05</totfact>
</mgrwt>
</event>
<event>
 7    1  0.3056193E-009  0.9276645E+02  0.7818608E-02  0.1296287E+00
          2   -1    0    0  501    0  0.00000000000E+00  0.00000000000E+00  0.50788194540E+03  0.50788194540E+03  0.25500000000E-02 0. -1.
         -2   -1    0    0    0  501 -0.00000000000E+00 -0.00000000000E+00 -0.42360302065E+01  0.42360309740E+01  0.25500000000E-02 0.  1.
         23    2    1    2    0    0  0.00000000000E+00 -0.44408920985E-15  0.50364591519E+03  0.51211797638E+03  0.92766447818E+02 0.  0.
    9000005    2    3    3    0    0 -0.38908811834E+02  0.23789566916E+01  0.38478365653E+03  0.38702684317E+03  0.14551973344E+02 0.  0.
         22    1    3    3    0    0  0.38908811834E+02 -0.23789566916E+01  0.11886225866E+03  0.12509113321E+03  0.00000000000E+00 0.  1.
         22    1    4    4    0    0 -0.13251215548E+02  0.78120342279E+01  0.14213997899E+03  0.14296991369E+03  0.00000000000E+00 0. -1.
         22    1    4    4    0    0 -0.25657596286E+02 -0.54330775363E+01  0.24264367754E+03  0.24405692948E+03  0.00000000000E+00 0. -1.
<mgrwt>
<rscale>  0 0.92766448E+02</rscale>
<asrwt>0</asrwt>
<pdfrwt beam="1">  1        2 0.78135739E-01 0.92766448E+02</pdfrwt>
<pdfrwt beam="2">  1       -2 0.65169655E-03 0.92766448E+02</pdfrwt>
<totfact> 0.20689488E+05</totfact>
</mgrwt>
</event>
<event>
 7    1  0.3056193E-009  0.9232826E+02  0.7818608E-02  0.1297309E+00
         -2   -1    0    0    0  501 -0.00000000000E+00  0.00000000000E+00  0.69964428683E+03  0.69964428684E+03  0.25500000000E-02 0. -1.
          2   -1    0    0  501    0  0.00000000000E+00 -0.00000000000E+00 -0.30460142888E+01  0.30460153562E+01  0.25500000000E-02 0.  1.
         23    2    1    2    0    0  0.00000000000E+00 -0.35527136788E-14  0.69659827255E+03  0.70269030220E+03  0.92328259410E+02 0.  0.
    9000005    2    3    3    0    0  0.21593975144E+02 -0.21638999198E+02  0.61150097748E+03  0.61226853669E+03  0.21839226763E+01 0.  0.
         22    1    3    3    0    0 -0.21593975144E+02  0.21638999198E+02  0.85097295070E+02  0.90421765505E+02  0.00000000000E+00 0.  1.
         22    1    4    4    0    0  0.19348879507E+02 -0.19487132259E+02  0.53490086740E+03  0.53560532616E+03  0.00000000000E+00 0. -1.
         22    1    4    4    0    0  0.22450956373E+01 -0.21518669388E+01  0.76600110076E+02  0.76663210534E+02  0.00000000000E+00 0. -1.
<mgrwt>
<rscale>  0 0.92328259E+02</rscale>
<asrwt>0</asrwt>
<pdfrwt beam="2">  1        2 0.46861694E-03 0.92328259E+02</pdfrwt>
<pdfrwt beam="1">  1       -2 0.10763775E+00 0.92328259E+02</pdfrwt>
<totfact> 0.26323721E+04</totfact>
</mgrwt>
</event>
<event>
 7    1  0.3056193E-009  0.8895019E+02  0.7818608E-02  0.1305414E+00
         -2   -1    0    0    0  501 -0.00000000000E+00  0.00000000000E+00  0.33077817103E+01  0.33077826932E+01  0.25500000000E-02 0.  1.
          2   -1    0    0  501    0  0.00000000000E+00 -0.00000000000E+00 -0.59799407734E+03  0.59799407734E+03  0.25500000000E-02 0. -1.
         23    2    1    2    0    0  0.35527136788E-14  0.00000000000E+00 -0.59468629563E+03  0.60130186004E+03  0.88950192108E+02 0.  0.
    9000005    2    3    3    0    0 -0.25266348847E+02 -0.14202420560E+02 -0.52234390085E+03  0.52336907351E+03  0.15229550756E+02 0.  0.
         22    1    3    3    0    0  0.25266348847E+02  0.14202420560E+02 -0.72342394773E+02  0.77932786523E+02  0.00000000000E+00 0. -1.
         22    1    4    4    0    0 -0.42361457570E+01  0.32290405499E+01 -0.10146613407E+03  0.10160584627E+03  0.00000000000E+00 0.  1.
         22    1    4    4    0    0 -0.21030203090E+02 -0.17431461110E+02 -0.42087776679E+03  0.42176322724E+03  0.00000000000E+00 0.  1.
<mgrwt>
<rscale>  0 0.88950192E+02</rscale>
<asrwt>0</asrwt>
<pdfrwt beam="2">  1        2 0.91999003E-01 0.88950192E+02</pdfrwt>
<pdfrwt beam="1">  1       -2 0.50889004E-03 0.88950192E+02</pdfrwt>
<totfact> 0.24297068E+05</totfact>
</mgrwt>
</event>
<event>
 7    1  0.3056193E-009  0.9022121E+02  0.7818608E-02  0.1302317E+00
         -2   -1    0    0    0  501 -0.00000000000E+00  0.00000000000E+00  0.65728833895E+02  0.65728833944E+02  0.25500000000E-02 0.  1.
          2   -1    0    0  501    0  0.00000000000E+00 -0.00000000000E+00 -0.30960026734E+02  0.30960026839E+02  0.25500000000E-02 0. -1.
         23    2    1    2    0    0  0.35527136788E-14  0.44408920985E-15  0.34768807160E+02  0.96688860784E+02  0.90221205092E+02 0.  0.
    9000005    2    3    3    0    0 -0.25146793528E+02 -0.28455358811E+01  0.56393099894E+02  0.63401200376E+02  0.14109294602E+02 0.  0.
         22    1    3    3    0    0  0.25146793528E+02  0.28455358811E+01 -0.21624292734E+02  0.33287660408E+02  0.00000000000E+00 0. -1.
         22    1    4    4    0    0 -0.42222377418E+01 -0.25203390678E+00  0.13215707171E+01  0.44314063004E+01  0.00000000000E+00 0. -1.
         22    1    4    4    0    0 -0.20924555787E+02 -0.25935019743E+01  0.55071529177E+02  0.58969794075E+02  0.00000000000E+00 0. -1.
<mgrwt>
<rscale>  0 0.90221205E+02</rscale>
<asrwt>0</asrwt>
<pdfrwt beam="2">  1        2 0.47630810E-02 0.90221205E+02</pdfrwt>
<pdfrwt beam="1">  1       -2 0.10112128E-01 0.90221205E+02</pdfrwt>
<totfact> 0.92030916E+04</totfact>
</mgrwt>
</event>
<event>
 7    1  0.3056193E-009  0.9209326E+02  0.7818608E-02  0.1297860E+00
         -2   -1    0    0    0  501 -0.00000000000E+00  0.00000000000E+00  0.13295039621E+02  0.13295039866E+02  0.25500000000E-02 0.  1.
          2   -1    0    0  501    0  0.00000000000E+00 -0.00000000000E+00 -0.15947993299E+03  0.15947993301E+03  0.25500000000E-02 0. -1.
         23    2    1    2    0    0  0.00000000000E+00 -0.11102230246E-15 -0.14618489337E+03  0.17277497288E+03  0.92093258187E+02 0.  0.
    9000005    2    3    3    0    0  0.33520012040E+02  0.74759411068E+00 -0.18446055439E+02  0.40709228568E+02  0.13886476343E+02 0.  0.
         22    1    3    3    0    0 -0.33520012040E+02 -0.74759411068E+00 -0.12773883793E+03  0.13206574431E+03  0.00000000000E+00 0. -1.
         22    1    4    4    0    0  0.26265977289E+02 -0.28774359732E+01 -0.19054733991E+02  0.32577048488E+02  0.00000000000E+00 0.  1.
         22    1    4    4    0    0  0.72540347516E+01  0.36250300838E+01  0.60867855135E+00  0.81321800807E+01  0.00000000000E+00 0.  1.
<mgrwt>
<rscale>  0 0.92093258E+02</rscale>
<asrwt>0</asrwt>
<pdfrwt beam="2">  1        2 0.24535373E-01 0.92093258E+02</pdfrwt>
<pdfrwt beam="1">  1       -2 0.20453908E-02 0.92093258E+02</pdfrwt>
<totfact> 0.13895395E+05</totfact>
</mgrwt>
</event>
<event>
 7    1  0.3056193E-009  0.9136455E+02  0.7818608E-02  0.1299580E+00
         -2   -1    0    0    0  501 -0.00000000000E+00  0.00000000000E+00  0.36797928017E+01  0.36797936852E+01  0.25500000000E-02 0.  1.
          2   -1    0    0  501    0  0.00000000000E+00 -0.00000000000E+00 -0.56711620002E+03  0.56711620003E+03  0.25500000000E-02 0. -1.
         23    2    1    2    0    0  0.00000000000E+00  0.00000000000E+00 -0.56343640722E+03  0.57079599371E+03  0.91364552521E+02 0.  0.
    9000005    2    3    3    0    0 -0.16020469446E+02  0.17897583022E+02 -0.52389264921E+03  0.52452842714E+03  0.94648855570E+01 0.  0.
         22    1    3    3    0    0  0.16020469446E+02 -0.17897583022E+02 -0.39543758009E+02  0.46267566575E+02  0.00000000000E+00 0.  1.
         22    1    4    4    0    0 -0.34266581104E+01  0.59801681297E+01 -0.24526103912E+03  0.24535786458E+03  0.00000000000E+00 0. -1.
         22    1    4    4    0    0 -0.12593811336E+02  0.11917414893E+02 -0.27863161009E+03  0.27917056256E+03  0.00000000000E+00 0. -1.
<mgrwt>
<rscale>  0 0.91364553E+02</rscale>
<asrwt>0</asrwt>
<pdfrwt beam="2">  1        2 0.87248577E-01 0.91364553E+02</pdfrwt>
<pdfrwt beam="1">  1       -2 0.56612249E-03 0.91364553E+02</pdfrwt>
<totfact> 0.22292639E+05</totfact>
</mgrwt>
</event>
<event>
 7    1  0.3056193E-009  0.8707580E+02  0.7818608E-02  0.1310092E+00
         -2   -1    0    0    0  501 -0.00000000000E+00  0.00000000000E+00  0.36822326565E+03  0.36822326566E+03  0.25500000000E-02 0.  1.
          2   -1    0    0  501    0  0.00000000000E+00 -0.00000000000E+00 -0.51478236873E+01  0.51478243189E+01  0.25500000000E-02 0. -1.
         23    2    1    2    0    0  0.00000000000E+00  0.00000000000E+00  0.36307544196E+03  0.37337108998E+03  0.87075796147E+02 0.  0.
    9000005    2    3    3    0    0 -0.33106187263E+02  0.24913104893E+02  0.22661269438E+03  0.23075705172E+03  0.13372405678E+02 0.  0.
         22    1    3    3    0    0  0.33106187263E+02 -0.24913104893E+02  0.13646274758E+03  0.14261403826E+03  0.00000000000E+00 0. -1.
         22    1    4    4    0    0 -0.20018520120E+02  0.69362713852E+01  0.10220538069E+03  0.10437812439E+03  0.00000000000E+00 0. -1.
         22    1    4    4    0    0 -0.13087667144E+02  0.17976833508E+02  0.12440731368E+03  0.12637892733E+03  0.00000000000E+00 0. -1.
<mgrwt>
<rscale>  0 0.87075796E+02</rscale>
<asrwt>0</asrwt>
<pdfrwt beam="2">  1        2 0.79197252E-03 0.87075796E+02</pdfrwt>
<pdfrwt beam="1">  1       -2 0.56649762E-01 0.87075796E+02</pdfrwt>
<totfact> 0.50764667E+04</totfact>
</mgrwt>
</event>
<event>
 7    1  0.3056193E-009  0.9097518E+02  0.7818608E-02  0.1300507E+00
         -2   -1    0    0    0  501 -0.00000000000E+00  0.00000000000E+00  0.14228398707E+02  0.14228398936E+02  0.25500000000E-02 0.  1.
          2   -1    0    0  501    0  0.00000000000E+00 -0.00000000000E+00 -0.14542191735E+03  0.14542191737E+03  0.25500000000E-02 0. -1.
         23    2    1    2    0    0 -0.35527136788E-14  0.00000000000E+00 -0.13119351864E+03  0.15965031631E+03  0.90975184328E+02 0.  0.
    9000005    2    3    3    0    0 -0.19904442143E+02  0.23660390163E+01 -0.13675738883E+03  0.13884787393E+03  0.13204686188E+02 0.  0.
         22    1    3    3    0    0  0.19904442143E+02 -0.23660390163E+01  0.55638701839E+01  0.20802442383E+02  0.00000000000E+00 0.  1.
         22    1    4    4    0    0 -0.14518679475E+02  0.75734890476E+01 -0.86681042587E+02  0.88214244508E+02  0.00000000000E+00 0.  1.
         22    1    4    4    0    0 -0.53857626687E+01 -0.52074500313E+01 -0.50076346239E+02  0.50633629417E+02  0.00000000000E+00 0.  1.
<mgrwt>
<rscale>  0 0.90975184E+02</rscale>
<asrwt>0</asrwt>
<pdfrwt beam="2">  1        2 0.22372602E-01 0.90975184E+02</pdfrwt>
<pdfrwt beam="1">  1       -2 0.21889845E-02 0.90975184E+02</pdfrwt>
<totfact> 0.13918367E+05</totfact>
</mgrwt>
</event>
<event>
 7    1  0.3056193E-009  0.9210319E+02  0.7818608E-02  0.1297837E+00
          2   -1    0    0  501    0  0.00000000000E+00  0.00000000000E+00  0.12739743232E+02  0.12739743488E+02  0.25500000000E-02 0. -1.
         -2   -1    0    0    0  501 -0.00000000000E+00 -0.00000000000E+00 -0.16646718666E+03  0.16646718668E+03  0.25500000000E-02 0.  1.
         23    2    1    2    0    0  0.00000000000E+00  0.00000000000E+00 -0.15372744343E+03  0.17920693017E+03  0.92103186467E+02 0.  0.
    9000005    2    3    3    0    0  0.94411365153E+01 -0.44422798775E+02 -0.84067555388E+02  0.96050330241E+02  0.97873367540E+01 0.  0.
         22    1    3    3    0    0 -0.94411365153E+01  0.44422798775E+02 -0.69659888044E+02  0.83156599930E+02  0.00000000000E+00 0. -1.
         22    1    4    4    0    0  0.81475994286E+00 -0.20548786067E+02 -0.30676153242E+02  0.36931596504E+02  0.00000000000E+00 0. -1.
         22    1    4    4    0    0  0.86263765725E+01 -0.23874012708E+02 -0.53391402145E+02  0.59118733736E+02  0.00000000000E+00 0. -1.
<mgrwt>
<rscale>  0 0.92103186E+02</rscale>
<asrwt>0</asrwt>
<pdfrwt beam="1">  1        2 0.19599606E-02 0.92103186E+02</pdfrwt>
<pdfrwt beam="2">  1       -2 0.25610335E-01 0.92103186E+02</pdfrwt>
<totfact> 0.65475332E+04</totfact>
</mgrwt>
</event>
<event>
 7    1  0.3056193E-009  0.9060261E+02  0.7818608E-02  0.1301399E+00
          2   -1    0    0  501    0  0.00000000000E+00  0.00000000000E+00  0.14153394894E+03  0.14153394896E+03  0.25500000000E-02 0. -1.
         -2   -1    0    0    0  501 -0.00000000000E+00 -0.00000000000E+00 -0.14499758345E+02  0.14499758569E+02  0.25500000000E-02 0.  1.
         23    2    1    2    0    0  0.35527136788E-14  0.35527136788E-14  0.12703419059E+03  0.15603370753E+03  0.90602606506E+02 0.  0.
    9000005    2    3    3    0    0  0.22433028407E+02  0.22167968952E+02  0.80626457817E+01  0.32952888204E+02  0.51212276832E+01 0.  0.
         22    1    3    3    0    0 -0.22433028407E+02 -0.22167968952E+02  0.11897154481E+03  0.12308081933E+03  0.00000000000E+00 0. -1.
         22    1    4    4    0    0  0.47076494509E+01  0.65604720282E+01  0.25652338344E+00  0.80788341258E+01  0.00000000000E+00 0.  1.
         22    1    4    4    0    0  0.17725378957E+02  0.15607496924E+02  0.78061223982E+01  0.24874054078E+02  0.00000000000E+00 0.  1.
<mgrwt>
<rscale>  0 0.90602607E+02</rscale>
<asrwt>0</asrwt>
<pdfrwt beam="1">  1        2 0.21774453E-01 0.90602607E+02</pdfrwt>
<pdfrwt beam="2">  1       -2 0.22307321E-02 0.90602607E+02</pdfrwt>
<totfact> 0.13946623E+05</totfact>
</mgrwt>
</event>
<event>
 7    1  0.3056193E-009  0.8773577E+02  0.7818608E-02  0.1308429E+00
          2   -1    0    0  501    0  0.00000000000E+00  0.00000000000E+00  0.53152254506E+02  0.53152254567E+02  0.25500000000E-02 0. -1.
         -2   -1    0    0    0  501 -0.00000000000E+00 -0.00000000000E+00 -0.36205258462E+02  0.36205258552E+02  0.25500000000E-02 0.  1.
         23    2    1    2    0    0  0.00000000000E+00  0.00000000000E+00  0.16946996043E+02  0.89357513119E+02  0.87735765090E+02 0.  0.
    9000005    2    3    3    0    0 -0.41102479587E+02 -0.93379571366E+01  0.14225258063E+02  0.47119862506E+02  0.15534226855E+02 0.  0.
         22    1    3    3    0    0  0.41102479587E+02  0.93379571366E+01  0.27217379803E+01  0.42237650613E+02  0.00000000000E+00 0. -1.
         22    1    4    4    0    0 -0.31122572556E+02 -0.13318110611E+02  0.13169328982E+02  0.36323791358E+02  0.00000000000E+00 0.  1.
         22    1    4    4    0    0 -0.99799070306E+01  0.39801534746E+01  0.10559290810E+01  0.10796071149E+02  0.00000000000E+00 0.  1.
<mgrwt>
<rscale>  0 0.87735765E+02</rscale>
<asrwt>0</asrwt>
<pdfrwt beam="1">  1        2 0.81772700E-02 0.87735765E+02</pdfrwt>
<pdfrwt beam="2">  1       -2 0.55700398E-02 0.87735765E+02</pdfrwt>
<totfact> 0.11451666E+05</totfact>
</mgrwt>
</event>
<event>
 7    1  0.3056193E-009  0.9312147E+02  0.7818608E-02  0.1295464E+00
         -2   -1    0    0    0  501 -0.00000000000E+00  0.00000000000E+00  0.75766336363E+01  0.75766340655E+01  0.25500000000E-02 0.  1.
          2   -1    0    0  501    0  0.00000000000E+00 -0.00000000000E+00 -0.28612997551E+03  0.28612997553E+03  0.25500000000E-02 0. -1.
         23    2    1    2    0    0 -0.71054273576E-14  0.00000000000E+00 -0.27855334188E+03  0.29370660959E+03  0.93121470382E+02 0.  0.
    9000005    2    3    3    0    0 -0.39100925288E+02  0.67563170617E+01 -0.21302143453E+03  0.21709746484E+03  0.13365907843E+02 0.  0.
         22    1    3    3    0    0  0.39100925288E+02 -0.67563170617E+01 -0.65531907344E+02  0.76609144746E+02  0.00000000000E+00 0.  1.
         22    1    4    4    0    0 -0.27662274978E+02 -0.95680649900E+00 -0.12744080885E+03  0.13041194998E+03  0.00000000000E+00 0. -1.
         22    1    4    4    0    0 -0.11438650310E+02  0.77131235607E+01 -0.85580625679E+02  0.86685514866E+02  0.00000000000E+00 0. -1.
<mgrwt>
<rscale>  0 0.93121470E+02</rscale>
<asrwt>0</asrwt>
<pdfrwt beam="2">  1        2 0.44019988E-01 0.93121470E+02</pdfrwt>
<pdfrwt beam="1">  1       -2 0.11656362E-02 0.93121470E+02</pdfrwt>
<totfact> 0.16682723E+05</totfact>
</mgrwt>
</event>
<event>
 7    1  0.5235971E-009  0.9160972E+02  0.7818608E-02  0.1299000E+00
         -2   -1    0    0    0  501 -0.00000000000E+00  0.00000000000E+00  0.65659036240E+01  0.65659041191E+01  0.25500000000E-02 0.  1.
          2   -1    0    0  501    0  0.00000000000E+00 -0.00000000000E+00 -0.31954247609E+03  0.31954247610E+03  0.25500000000E-02 0. -1.
         23    2    1    2    0    0  0.00000000000E+00 -0.88817841970E-15 -0.31297657246E+03  0.32610838022E+03  0.91609719662E+02 0.  0.
    9000005    2    3    3    0    0 -0.12875757568E+02 -0.61466631198E+01 -0.31099894181E+03  0.31170429665E+03  0.15351226087E+02 0.  0.
         22    1    3    3    0    0  0.12875757568E+02  0.61466631198E+01 -0.19776306554E+01  0.14404083569E+02  0.00000000000E+00 0.  1.
         22    1    4    4    0    0 -0.54647631695E+01 -0.32596595886E+01 -0.26093088218E+03  0.26100845636E+03  0.00000000000E+00 0.  1.
         22    1    4    4    0    0 -0.74109943985E+01 -0.28870035312E+01 -0.50068059626E+02  0.50695840284E+02  0.00000000000E+00 0.  1.
<mgrwt>
<rscale>  0 0.91609720E+02</rscale>
<asrwt>0</asrwt>
<pdfrwt beam="2">  1        2 0.49160369E-01 0.91609720E+02</pdfrwt>
<pdfrwt beam="1">  1       -2 0.10101393E-02 0.91609720E+02</pdfrwt>
<totfact> 0.18161341E+05</totfact>
</mgrwt>
</event>
<event>
 7    1  0.3056193E-009  0.9081316E+02  0.7818608E-02  0.1300894E+00
          2   -1    0    0  501    0  0.00000000000E+00  0.00000000000E+00  0.29396459690E+03  0.29396459691E+03  0.25500000000E-02 0.  1.
         -2   -1    0    0    0  501 -0.00000000000E+00 -0.00000000000E+00 -0.70136255472E+01  0.70136260107E+01  0.25500000000E-02 0. -1.
         23    2    1    2    0    0 -0.35527136788E-14  0.71054273576E-14  0.28695097135E+03  0.30097822292E+03  0.90813163764E+02 0.  0.
    9000005    2    3    3    0    0 -0.26429214090E+02  0.36130240856E+02  0.15546767503E+03  0.16208346105E+03  0.98464565745E+01 0.  0.
         22    1    3    3    0    0  0.26429214090E+02 -0.36130240856E+02  0.13148329633E+03  0.13889476187E+03  0.00000000000E+00 0.  1.
         22    1    4    4    0    0 -0.17748406214E+01  0.21641741484E+01  0.21865871544E+02  0.22044274707E+02  0.00000000000E+00 0.  1.
         22    1    4    4    0    0 -0.24654373469E+02  0.33966066708E+02  0.13360180348E+03  0.14003918635E+03  0.00000000000E+00 0.  1.
<mgrwt>
<rscale>  0 0.90813164E+02</rscale>
<asrwt>0</asrwt>
<pdfrwt beam="1">  1        2 0.45225319E-01 0.90813164E+02</pdfrwt>
<pdfrwt beam="2">  1       -2 0.10790194E-02 0.90813164E+02</pdfrwt>
<totfact> 0.18021660E+05</totfact>
</mgrwt>
</event>
<event>
 7    1  0.3056193E-009  0.9475433E+02  0.7818608E-02  0.1291730E+00
         -2   -1    0    0    0  501 -0.00000000000E+00  0.00000000000E+00  0.12970899434E+02  0.12970899685E+02  0.25500000000E-02 0.  1.
          2   -1    0    0  501    0  0.00000000000E+00 -0.00000000000E+00 -0.17304859079E+03  0.17304859081E+03  0.25500000000E-02 0. -1.
         23    2    1    2    0    0  0.00000000000E+00 -0.17763568394E-14 -0.16007769136E+03  0.18601949049E+03  0.94754332744E+02 0.  0.
    9000005    2    3    3    0    0  0.10964382842E+00  0.14995076956E+02 -0.16775321396E+03  0.16917377882E+03  0.15929918080E+02 0.  0.
         22    1    3    3    0    0 -0.10964382842E+00 -0.14995076956E+02  0.76755226045E+01  0.16845711678E+02  0.00000000000E+00 0.  1.
         22    1    4    4    0    0 -0.45370276689E-02 -0.24823340000E+01 -0.62088675308E+01  0.66867061164E+01  0.00000000000E+00 0.  1.
         22    1    4    4    0    0  0.11418085608E+00  0.17477410956E+02 -0.16154434643E+03  0.16248707270E+03  0.00000000000E+00 0.  1.
<mgrwt>
<rscale>  0 0.94754333E+02</rscale>
<asrwt>0</asrwt>
<pdfrwt beam="2">  1        2 0.26622858E-01 0.94754333E+02</pdfrwt>
<pdfrwt beam="1">  1       -2 0.19955231E-02 0.94754333E+02</pdfrwt>
<totfact> 0.13233601E+05</totfact>
</mgrwt>
</event>
<event>
 7    1  0.3056193E-009  0.9402518E+02  0.7818608E-02  0.1293387E+00
         -2   -1    0    0    0  501 -0.00000000000E+00  0.00000000000E+00  0.27926243961E+02  0.27926244077E+02  0.25500000000E-02 0.  1.
          2   -1    0    0  501    0  0.00000000000E+00 -0.00000000000E+00 -0.79143596401E+02  0.79143596442E+02  0.25500000000E-02 0. -1.
         23    2    1    2    0    0  0.00000000000E+00  0.00000000000E+00 -0.51217352440E+02  0.10706984052E+03  0.94025175128E+02 0.  0.
    9000005    2    3    3    0    0  0.32640514622E+01 -0.13130747024E+02 -0.76456596467E+02  0.78432627170E+02  0.11090325157E+02 0.  0.
         22    1    3    3    0    0 -0.32640514622E+01  0.13130747024E+02  0.25239244027E+02  0.28637213349E+02  0.00000000000E+00 0.  1.
         22    1    4    4    0    0 -0.13071343177E+01 -0.69683262483E+01 -0.16121429345E+02  0.17611548909E+02  0.00000000000E+00 0.  1.
         22    1    4    4    0    0  0.45711857799E+01 -0.61624207753E+01 -0.60335167122E+02  0.60821078261E+02  0.00000000000E+00 0.  1.
<mgrwt>
<rscale>  0 0.94025175E+02</rscale>
<asrwt>0</asrwt>
<pdfrwt beam="2">  1        2 0.12175938E-01 0.94025175E+02</pdfrwt>
<pdfrwt beam="1">  1       -2 0.42963453E-02 0.94025175E+02</pdfrwt>
<totfact> 0.10508547E+05</totfact>
</mgrwt>
</event>
<event>
 7    1  0.3346940E-009  0.9063192E+02  0.7818608E-02  0.1301329E+00
         -2   -1    0    0    0  501 -0.00000000000E+00  0.00000000000E+00  0.17826221330E+01  0.17826239568E+01  0.25500000000E-02 0.  1.
          2   -1    0    0  501    0  0.00000000000E+00 -0.00000000000E+00 -0.11519745535E+04  0.11519745535E+04  0.25500000000E-02 0. -1.
         23    2    1    2    0    0  0.00000000000E+00  0.00000000000E+00 -0.11501919314E+04  0.11537571775E+04  0.90631923505E+02 0.  0.
    9000005    2    3    3    0    0 -0.22257446452E+02 -0.24574260493E+02 -0.96263578492E+03  0.96329301739E+03  0.12903284150E+02 0.  0.
         22    1    3    3    0    0  0.22257446452E+02  0.24574260493E+02 -0.18755614648E+03  0.19046416011E+03  0.00000000000E+00 0.  1.
         22    1    4    4    0    0 -0.27017802211E+01 -0.80192719856E+01 -0.37987996285E+03  0.37997420243E+03  0.00000000000E+00 0. -1.
         22    1    4    4    0    0 -0.19555666230E+02 -0.16554988507E+02 -0.58275582208E+03  0.58331881496E+03  0.00000000000E+00 0. -1.
<mgrwt>
<rscale>  0 0.90631924E+02</rscale>
<asrwt>0</asrwt>
<pdfrwt beam="2">  1        2 0.17722626E+00 0.90631924E+02</pdfrwt>
<pdfrwt beam="1">  1       -2 0.27425062E-03 0.90631924E+02</pdfrwt>
<totfact> 0.25357368E+05</totfact>
</mgrwt>
</event>
<event>
 7    1  0.3056193E-009  0.8816941E+02  0.7818608E-02  0.1307346E+00
          2   -1    0    0  501    0  0.00000000000E+00  0.00000000000E+00  0.15648277589E+04  0.15648277589E+04  0.25500000000E-02 0. -1.
         -2   -1    0    0    0  501 -0.00000000000E+00 -0.00000000000E+00 -0.12419635976E+01  0.12419662155E+01  0.25500000000E-02 0.  1.
         23    2    1    2    0    0  0.00000000000E+00  0.00000000000E+00  0.15635857953E+04  0.15660697251E+04  0.88169408858E+02 0.  0.
    9000005    2    3    3    0    0 -0.17073884273E+02  0.13775614840E+02  0.14606725902E+04  0.14608441918E+04  0.44779141381E+01 0.  0.
         22    1    3    3    0    0  0.17073884273E+02 -0.13775614840E+02  0.10291320510E+03  0.10522553337E+03  0.00000000000E+00 0.  1.
         22    1    4    4    0    0 -0.11295720700E+02  0.75130258997E+01  0.10094360664E+04  0.10095272215E+04  0.00000000000E+00 0.  1.
         22    1    4    4    0    0 -0.57781635725E+01  0.62625889398E+01  0.45123652381E+03  0.45131697023E+03  0.00000000000E+00 0.  1.
<mgrwt>
<rscale>  0 0.88169409E+02</rscale>
<asrwt>0</asrwt>
<pdfrwt beam="1">  1        2 0.24074052E+00 0.88169409E+02</pdfrwt>
<pdfrwt beam="2">  1       -2 0.19107328E-03 0.88169409E+02</pdfrwt>
<totfact> 0.25331442E+05</totfact>
</mgrwt>
</event>
<event>
 7    1  0.3056193E-009  0.9096767E+02  0.7818608E-02  0.1300525E+00
         -2   -1    0    0    0  501 -0.00000000000E+00  0.00000000000E+00  0.22991716759E+01  0.22991730900E+01  0.25500000000E-02 0. -1.
          2   -1    0    0  501    0  0.00000000000E+00 -0.00000000000E+00 -0.89979298157E+03  0.89979298158E+03  0.25500000000E-02 0.  1.
         23    2    1    2    0    0 -0.44408920985E-15  0.71054273576E-14 -0.89749380990E+03  0.90209215467E+03  0.90967668474E+02 0.  0.
    9000005    2    3    3    0    0  0.95801488143E+00  0.36441026748E+02 -0.71063127894E+03  0.71170709302E+03  0.14188214210E+02 0.  0.
         22    1    3    3    0    0 -0.95801488143E+00 -0.36441026748E+02 -0.18686253096E+03  0.19038506165E+03  0.00000000000E+00 0. -1.
         22    1    4    4    0    0 -0.37839707493E+01  0.31559920284E+02 -0.53440639638E+03  0.53535086018E+03  0.00000000000E+00 0.  1.
         22    1    4    4    0    0  0.47419856307E+01  0.48811064642E+01 -0.17622488256E+03  0.17635623284E+03  0.00000000000E+00 0.  1.
<mgrwt>
<rscale>  0 0.90967668E+02</rscale>
<asrwt>0</asrwt>
<pdfrwt beam="2">  1        2 0.13842941E+00 0.90967668E+02</pdfrwt>
<pdfrwt beam="1">  1       -2 0.35371955E-03 0.90967668E+02</pdfrwt>
<totfact> 0.24943940E+05</totfact>
</mgrwt>
</event>
<event>
 7    1  0.3056193E-009  0.9273421E+02  0.7818608E-02  0.1296362E+00
          2   -1    0    0  501    0  0.00000000000E+00  0.00000000000E+00  0.54984325784E+03  0.54984325784E+03  0.25500000000E-02 0. -1.
         -2   -1    0    0    0  501 -0.00000000000E+00 -0.00000000000E+00 -0.39100386445E+01  0.39100394760E+01  0.25500000000E-02 0.  1.
         23    2    1    2    0    0  0.71054273576E-14  0.88817841970E-15  0.54593321919E+03  0.55375329732E+03  0.92734214149E+02 0.  0.
    9000005    2    3    3    0    0 -0.40719724792E+02 -0.77789658222E+01  0.38565637049E+03  0.38820186565E+03  0.15850681412E+02 0.  0.
         22    1    3    3    0    0  0.40719724792E+02  0.77789658222E+01  0.16027684871E+03  0.16555143167E+03  0.00000000000E+00 0. -1.
         22    1    4    4    0    0 -0.15277723436E+02 -0.74268197373E+01  0.21357837504E+03  0.21425286176E+03  0.00000000000E+00 0. -1.
         22    1    4    4    0    0 -0.25442001356E+02 -0.35214608489E+00  0.17207799545E+03  0.17394900390E+03  0.00000000000E+00 0. -1.
<mgrwt>
<rscale>  0 0.92734214E+02</rscale>
<asrwt>0</asrwt>
<pdfrwt beam="1">  1        2 0.84591225E-01 0.92734214E+02</pdfrwt>
<pdfrwt beam="2">  1       -2 0.60154479E-03 0.92734214E+02</pdfrwt>
<totfact> 0.21232099E+05</totfact>
</mgrwt>
</event>
<event>
 7    1  0.3056193E-009  0.9277950E+02  0.7818608E-02  0.1296257E+00
         -2   -1    0    0    0  501 -0.00000000000E+00  0.00000000000E+00  0.65004393253E+01  0.65004398255E+01  0.25500000000E-02 0.  1.
          2   -1    0    0  501    0  0.00000000000E+00 -0.00000000000E+00 -0.33105592809E+03  0.33105592810E+03  0.25500000000E-02 0. -1.
         23    2    1    2    0    0  0.00000000000E+00  0.22204460493E-15 -0.32455548876E+03  0.33755636792E+03  0.92779503338E+02 0.  0.
    9000005    2    3    3    0    0  0.41312505242E+02  0.10818016342E+01 -0.23595817767E+03  0.23979453019E+03  0.10828744886E+02 0.  0.
         22    1    3    3    0    0 -0.41312505242E+02 -0.10818016342E+01 -0.88597311096E+02  0.97761837736E+02  0.00000000000E+00 0. -1.
         22    1    4    4    0    0  0.16776955526E+02  0.37913301287E+01 -0.12096792809E+03  0.12218461461E+03  0.00000000000E+00 0. -1.
         22    1    4    4    0    0  0.24535549716E+02 -0.27095284945E+01 -0.11499024958E+03  0.11760991558E+03  0.00000000000E+00 0. -1.
<mgrwt>
<rscale>  0 0.92779503E+02</rscale>
<asrwt>0</asrwt>
<pdfrwt beam="2">  1        2 0.50931668E-01 0.92779503E+02</pdfrwt>
<pdfrwt beam="1">  1       -2 0.10000679E-02 0.92779503E+02</pdfrwt>
<totfact> 0.17788295E+05</totfact>
</mgrwt>
</event>
<event>
 7    1  0.3056193E-009  0.9236862E+02  0.7818608E-02  0.1297215E+00
          2   -1    0    0  501    0  0.00000000000E+00  0.00000000000E+00  0.48892855086E+02  0.48892855153E+02  0.25500000000E-02 0. -1.
         -2   -1    0    0    0  501 -0.00000000000E+00 -0.00000000000E+00 -0.43625810012E+02  0.43625810087E+02  0.25500000000E-02 0.  1.
         23    2    1    2    0    0  0.00000000000E+00  0.35527136788E-14  0.52670450743E+01  0.92518665240E+02  0.92368618339E+02 0.  0.
    9000005    2    3    3    0    0 -0.32598966773E+02 -0.26054456220E+02 -0.16607298736E+02  0.45401638161E+02  0.66316704420E+01 0.  0.
         22    1    3    3    0    0  0.32598966773E+02  0.26054456220E+02  0.21874343810E+02  0.47117027078E+02  0.00000000000E+00 0. -1.
         22    1    4    4    0    0 -0.10870910743E+02 -0.11604302599E+02 -0.38723997951E+01  0.16365574214E+02  0.00000000000E+00 0.  1.
         22    1    4    4    0    0 -0.21728056030E+02 -0.14450153622E+02 -0.12734898941E+02  0.29036063947E+02  0.00000000000E+00 0.  1.
<mgrwt>
<rscale>  0 0.92368618E+02</rscale>
<asrwt>0</asrwt>
<pdfrwt beam="1">  1        2 0.75219777E-02 0.92368618E+02</pdfrwt>
<pdfrwt beam="2">  1       -2 0.67116631E-02 0.92368618E+02</pdfrwt>
<totfact> 0.96820389E+04</totfact>
</mgrwt>
</event>
<event>
 7    1  0.3056193E-009  0.9663298E+02  0.7818608E-02  0.1287540E+00
         -2   -1    0    0    0  501 -0.00000000000E+00  0.00000000000E+00  0.87493856841E+01  0.87493860557E+01  0.25500000000E-02 0. -1.
          2   -1    0    0  501    0  0.00000000000E+00 -0.00000000000E+00 -0.26681679392E+03  0.26681679393E+03  0.25500000000E-02 0.  1.
         23    2    1    2    0    0  0.00000000000E+00 -0.55511151231E-16 -0.25806740824E+03  0.27556617999E+03  0.96632977598E+02 0.  0.
    9000005    2    3    3    0    0 -0.17289893830E+02  0.35108704219E+00 -0.25734555495E+03  0.25825766292E+03  0.13085186950E+02 0.  0.
         22    1    3    3    0    0  0.17289893830E+02 -0.35108704219E+00 -0.72185328896E+00  0.17308517063E+02  0.00000000000E+00 0. -1.
         22    1    4    4    0    0 -0.37222763755E+01  0.18047197976E+01 -0.14884125250E+03  0.14889872666E+03  0.00000000000E+00 0.  1.
         22    1    4    4    0    0 -0.13567617454E+02 -0.14536327554E+01 -0.10850430245E+03  0.10935893627E+03  0.00000000000E+00 0.  1.
<mgrwt>
<rscale>  0 0.96632978E+02</rscale>
<asrwt>0</asrwt>
<pdfrwt beam="2">  1        2 0.41048731E-01 0.96632978E+02</pdfrwt>
<pdfrwt beam="1">  1       -2 0.13460596E-02 0.96632978E+02</pdfrwt>
<totfact> 0.14712898E+05</totfact>
</mgrwt>
</event>
<event>
 7    1  0.3056193E-009  0.9230829E+02  0.7818608E-02  0.1297356E+00
         -2   -1    0    0    0  501 -0.00000000000E+00  0.00000000000E+00  0.11011988186E+02  0.11011988481E+02  0.25500000000E-02 0.  1.
          2   -1    0    0  501    0  0.00000000000E+00 -0.00000000000E+00 -0.19344417188E+03  0.19344417190E+03  0.25500000000E-02 0. -1.
         23    2    1    2    0    0  0.00000000000E+00  0.00000000000E+00 -0.18243218369E+03  0.20445616038E+03  0.92308287109E+02 0.  0.
    9000005    2    3    3    0    0 -0.93309525686E+01 -0.20014301299E+02 -0.18064340845E+03  0.18230128170E+03  0.10680700376E+02 0.  0.
         22    1    3    3    0    0  0.93309525686E+01  0.20014301299E+02 -0.17887752432E+01  0.22154878677E+02  0.00000000000E+00 0.  1.
         22    1    4    4    0    0 -0.65645845442E+01 -0.40333475209E+01 -0.40854093823E+02  0.41574254588E+02  0.00000000000E+00 0.  1.
         22    1    4    4    0    0 -0.27663680244E+01 -0.15980953778E+02 -0.13978931463E+03  0.14072702711E+03  0.00000000000E+00 0.  1.
<mgrwt>
<rscale>  0 0.92308287E+02</rscale>
<asrwt>0</asrwt>
<pdfrwt beam="2">  1        2 0.29760639E-01 0.92308287E+02</pdfrwt>
<pdfrwt beam="1">  1       -2 0.16941522E-02 0.92308287E+02</pdfrwt>
<totfact> 0.14782834E+05</totfact>
</mgrwt>
</event>
<event>
 7    1  0.3056193E-009  0.9173039E+02  0.7818608E-02  0.1298715E+00
          2   -1    0    0  501    0  0.00000000000E+00  0.00000000000E+00  0.13465550843E+03  0.13465550845E+03  0.25500000000E-02 0. -1.
         -2   -1    0    0    0  501 -0.00000000000E+00 -0.00000000000E+00 -0.15622205919E+02  0.15622206127E+02  0.25500000000E-02 0.  1.
         23    2    1    2    0    0  0.00000000000E+00  0.00000000000E+00  0.11903330251E+03  0.15027771458E+03  0.91730389691E+02 0.  0.
    9000005    2    3    3    0    0  0.38015403803E+02  0.21790897551E+02  0.41584459279E+02  0.61292673926E+02  0.10368726104E+02 0.  0.
         22    1    3    3    0    0 -0.38015403803E+02 -0.21790897551E+02  0.77448843232E+02  0.88985040655E+02  0.00000000000E+00 0. -1.
         22    1    4    4    0    0  0.35793780682E+02  0.18537944564E+02  0.40643069101E+02  0.57242547027E+02  0.00000000000E+00 0. -1.
         22    1    4    4    0    0  0.22216231212E+01  0.32529529868E+01  0.94139017788E+00  0.40501268985E+01  0.00000000000E+00 0. -1.
<mgrwt>
<rscale>  0 0.91730390E+02</rscale>
<asrwt>0</asrwt>
<pdfrwt beam="1">  1        2 0.20716233E-01 0.91730390E+02</pdfrwt>
<pdfrwt beam="2">  1       -2 0.24034162E-02 0.91730390E+02</pdfrwt>
<totfact> 0.13262819E+05</totfact>
</mgrwt>
</event>
<event>
 7    1  0.3056193E-009  0.9196049E+02  0.7818608E-02  0.1298172E+00
          2   -1    0    0  501    0  0.00000000000E+00  0.00000000000E+00  0.44883064644E+02  0.44883064717E+02  0.25500000000E-02 0. -1.
         -2   -1    0    0    0  501 -0.00000000000E+00 -0.00000000000E+00 -0.47104250488E+02  0.47104250557E+02  0.25500000000E-02 0.  1.
         23    2    1    2    0    0  0.88817841970E-15  0.00000000000E+00 -0.22211858438E+01  0.91987315273E+02  0.91960494261E+02 0.  0.
    9000005    2    3    3    0    0  0.69420470389E+01 -0.29557707833E+02 -0.35057445995E+02  0.47265172098E+02  0.91171193008E+01 0.  0.
         22    1    3    3    0    0 -0.69420470389E+01  0.29557707833E+02  0.32836260151E+02  0.44722143175E+02  0.00000000000E+00 0. -1.
         22    1    4    4    0    0  0.29123375701E+01 -0.23327134295E+02 -0.21738337185E+02  0.32018622833E+02  0.00000000000E+00 0.  1.
         22    1    4    4    0    0  0.40297094689E+01 -0.62305735387E+01 -0.13319108810E+02  0.15246549266E+02  0.00000000000E+00 0.  1.
<mgrwt>
<rscale>  0 0.91960494E+02</rscale>
<asrwt>0</asrwt>
<pdfrwt beam="1">  1        2 0.69050869E-02 0.91960494E+02</pdfrwt>
<pdfrwt beam="2">  1       -2 0.72468078E-02 0.91960494E+02</pdfrwt>
<totfact> 0.95885085E+04</totfact>
</mgrwt>
</event>
<event>
 7    1  0.3056193E-009  0.9702227E+02  0.7818608E-02  0.1286685E+00
         -2   -1    0    0    0  501 -0.00000000000E+00  0.00000000000E+00  0.50309003522E+01  0.50309009985E+01  0.25500000000E-02 0. -1.
          2   -1    0    0  501    0  0.00000000000E+00 -0.00000000000E+00 -0.46777510457E+03  0.46777510458E+03  0.25500000000E-02 0.  1.
         23    2    1    2    0    0  0.00000000000E+00 -0.71054273576E-14 -0.46274420422E+03  0.47280600558E+03  0.97022267398E+02 0.  0.
    9000005    2    3    3    0    0  0.30613498021E+02 -0.34296543101E+02 -0.30482436555E+03  0.30833073517E+03  0.60422916552E+01 0.  0.
         22    1    3    3    0    0 -0.30613498021E+02  0.34296543101E+02 -0.15791983867E+03  0.16447527041E+03  0.00000000000E+00 0. -1.
         22    1    4    4    0    0  0.88619653376E+01 -0.11845197477E+02 -0.11539870282E+03  0.11634304339E+03  0.00000000000E+00 0. -1.
         22    1    4    4    0    0  0.21751532684E+02 -0.22451345623E+02 -0.18942566273E+03  0.19198769178E+03  0.00000000000E+00 0. -1.
<mgrwt>
<rscale>  0 0.97022267E+02</rscale>
<asrwt>0</asrwt>
<pdfrwt beam="2">  1        2 0.71965367E-01 0.97022267E+02</pdfrwt>
<pdfrwt beam="1">  1       -2 0.77398509E-03 0.97022267E+02</pdfrwt>
<totfact> 0.17869719E+05</totfact>
</mgrwt>
</event>
<event>
 7    1  0.3056193E-009  0.8869261E+02  0.7818608E-02  0.1306049E+00
          2   -1    0    0  501    0  0.00000000000E+00  0.00000000000E+00  0.14745416630E+04  0.14745416630E+04  0.25500000000E-02 0.  1.
         -2   -1    0    0    0  501 -0.00000000000E+00 -0.00000000000E+00 -0.13336978084E+01  0.13337002461E+01  0.25500000000E-02 0. -1.
         23    2    1    2    0    0 -0.17763568394E-14  0.00000000000E+00  0.14732079651E+04  0.14758753632E+04  0.88692610397E+02 0.  0.
    9000005    2    3    3    0    0  0.10316560275E+02  0.18900652416E+02  0.13781290782E+04  0.13783886419E+04  0.15869026461E+02 0.  0.
         22    1    3    3    0    0 -0.10316560275E+02 -0.18900652416E+02  0.95078886971E+02  0.97486721277E+02  0.00000000000E+00 0. -1.
         22    1    4    4    0    0  0.11332917432E+02  0.79420395117E+01  0.10108036553E+04  0.10108983829E+04  0.00000000000E+00 0. -1.
         22    1    4    4    0    0 -0.10163571570E+01  0.10958612905E+02  0.36732542287E+03  0.36749025901E+03  0.00000000000E+00 0. -1.
<mgrwt>
<rscale>  0 0.88692610E+02</rscale>
<asrwt>0</asrwt>
<pdfrwt beam="1">  1        2 0.22685372E+00 0.88692610E+02</pdfrwt>
<pdfrwt beam="2">  1       -2 0.20518342E-03 0.88692610E+02</pdfrwt>
<totfact> 0.25535403E+05</totfact>
</mgrwt>
</event>
<event>
 7    1  0.3056193E-009  0.9293541E+02  0.7818608E-02  0.1295895E+00
          2   -1    0    0  501    0  0.00000000000E+00  0.00000000000E+00  0.47337201415E+02  0.47337201484E+02  0.25500000000E-02 0. -1.
         -2   -1    0    0    0  501 -0.00000000000E+00 -0.00000000000E+00 -0.45614181159E+02  0.45614181230E+02  0.25500000000E-02 0.  1.
         23    2    1    2    0    0  0.17763568394E-14  0.00000000000E+00  0.17230202564E+01  0.92951382714E+02  0.92935411710E+02 0.  0.
    9000005    2    3    3    0    0 -0.97562601798E+01 -0.34337026366E+02 -0.28789587464E+02  0.45991450620E+02  0.34867164194E+01 0.  0.
         22    1    3    3    0    0  0.97562601798E+01  0.34337026366E+02  0.30512607720E+02  0.46959932094E+02  0.00000000000E+00 0. -1.
         22    1    4    4    0    0  0.26358679654E+00 -0.10144407908E+01 -0.58866593757E+00  0.12021213348E+01  0.00000000000E+00 0.  1.
         22    1    4    4    0    0 -0.10019846976E+02 -0.33322585576E+02 -0.28200921526E+02  0.44789329285E+02  0.00000000000E+00 0.  1.
<mgrwt>
<rscale>  0 0.92935412E+02</rscale>
<asrwt>0</asrwt>
<pdfrwt beam="1">  1        2 0.72826464E-02 0.92935412E+02</pdfrwt>
<pdfrwt beam="2">  1       -2 0.70175663E-02 0.92935412E+02</pdfrwt>
<totfact> 0.94327167E+04</totfact>
</mgrwt>
</event>
<event>
 7    1  0.3056193E-009  0.9467024E+02  0.7818608E-02  0.1291921E+00
         -2   -1    0    0    0  501 -0.00000000000E+00  0.00000000000E+00  0.13433464600E+02  0.13433464842E+02  0.25500000000E-02 0.  1.
          2   -1    0    0  501    0  0.00000000000E+00 -0.00000000000E+00 -0.16679342844E+03  0.16679342846E+03  0.25500000000E-02 0. -1.
         23    2    1    2    0    0  0.00000000000E+00  0.00000000000E+00 -0.15335996384E+03  0.18022689330E+03  0.94670241154E+02 0.  0.
    9000005    2    3    3    0    0 -0.36510252752E+02  0.91981104063E+01 -0.22551903814E+02  0.44108002773E+02  0.43958789716E+01 0.  0.
         22    1    3    3    0    0  0.36510252752E+02 -0.91981104063E+01 -0.13080806003E+03  0.13611889053E+03  0.00000000000E+00 0. -1.
         22    1    4    4    0    0 -0.16289082202E+02  0.31393408491E+01 -0.76444424597E+01  0.18265463598E+02  0.00000000000E+00 0.  1.
         22    1    4    4    0    0 -0.20221170550E+02  0.60587695571E+01 -0.14907461354E+02  0.25842539174E+02  0.00000000000E+00 0.  1.
<mgrwt>
<rscale>  0 0.94670241E+02</rscale>
<asrwt>0</asrwt>
<pdfrwt beam="2">  1        2 0.25660526E-01 0.94670241E+02</pdfrwt>
<pdfrwt beam="1">  1       -2 0.20666870E-02 0.94670241E+02</pdfrwt>
<totfact> 0.13094440E+05</totfact>
</mgrwt>
</event>
<event>
 7    1  0.3056193E-009  0.9060180E+02  0.7818608E-02  0.1301401E+00
         -2   -1    0    0    0  501 -0.00000000000E+00  0.00000000000E+00  0.36708679432E+02  0.36708679521E+02  0.25500000000E-02 0.  1.
          2   -1    0    0  501    0  0.00000000000E+00 -0.00000000000E+00 -0.55904259733E+02  0.55904259791E+02  0.25500000000E-02 0. -1.
         23    2    1    2    0    0  0.00000000000E+00  0.00000000000E+00 -0.19195580301E+02  0.92612939312E+02  0.90601800340E+02 0.  0.
    9000005    2    3    3    0    0 -0.24667106864E+02 -0.24972112241E+02  0.17949896487E+02  0.41506589446E+02  0.12981742283E+02 0.  0.
         22    1    3    3    0    0  0.24667106864E+02  0.24972112241E+02 -0.37145476788E+02  0.51106349866E+02  0.00000000000E+00 0. -1.
         22    1    4    4    0    0 -0.54501991524E+01  0.54859084676E+00  0.26005549190E+01  0.60637041983E+01  0.00000000000E+00 0. -1.
         22    1    4    4    0    0 -0.19216907712E+02 -0.25520703087E+02  0.15349341568E+02  0.35442885248E+02  0.00000000000E+00 0. -1.
<mgrwt>
<rscale>  0 0.90601800E+02</rscale>
<asrwt>0</asrwt>
<pdfrwt beam="2">  1        2 0.86006554E-02 0.90601800E+02</pdfrwt>
<pdfrwt beam="1">  1       -2 0.56474892E-02 0.90601800E+02</pdfrwt>
<totfact> 0.10596865E+05</totfact>
</mgrwt>
</event>
<event>
 7    1  0.3056193E-009  0.9407447E+02  0.7818608E-02  0.1293274E+00
         -2   -1    0    0    0  501 -0.00000000000E+00  0.00000000000E+00  0.57769501813E+02  0.57769501870E+02  0.25500000000E-02 0.  1.
          2   -1    0    0  501    0  0.00000000000E+00 -0.00000000000E+00 -0.38298784000E+02  0.38298784085E+02  0.25500000000E-02 0. -1.
         23    2    1    2    0    0  0.00000000000E+00  0.00000000000E+00  0.19470717814E+02  0.96068285954E+02  0.94074474296E+02 0.  0.
    9000005    2    3    3    0    0  0.27767653569E+02  0.28492810816E+02 -0.14997792560E+02  0.43428367068E+02  0.88434400288E+01 0.  0.
         22    1    3    3    0    0 -0.27767653569E+02 -0.28492810816E+02  0.34468510374E+02  0.52639918886E+02  0.00000000000E+00 0.  1.
         22    1    4    4    0    0  0.14515108971E+02  0.13616118698E+02 -0.12109750595E+02  0.23296633583E+02  0.00000000000E+00 0. -1.
         22    1    4    4    0    0  0.13252544598E+02  0.14876692118E+02 -0.28880419657E+01  0.20131733485E+02  0.00000000000E+00 0. -1.
<mgrwt>
<rscale>  0 0.94074474E+02</rscale>
<asrwt>0</asrwt>
<pdfrwt beam="2">  1        2 0.58921206E-02 0.94074474E+02</pdfrwt>
<pdfrwt beam="1">  1       -2 0.88876156E-02 0.94074474E+02</pdfrwt>
<totfact> 0.86088681E+04</totfact>
</mgrwt>
</event>
<event>
 7    1  0.3056193E-009  0.8977331E+02  0.7818608E-02  0.1303402E+00
          2   -1    0    0  501    0  0.00000000000E+00  0.00000000000E+00  0.13472731044E+03  0.13472731046E+03  0.25500000000E-02 0. -1.
         -2   -1    0    0    0  501 -0.00000000000E+00 -0.00000000000E+00 -0.14954740016E+02  0.14954740234E+02  0.25500000000E-02 0.  1.
         23    2    1    2    0    0  0.00000000000E+00  0.00000000000E+00  0.11977257042E+03  0.14968205070E+03  0.89773312712E+02 0.  0.
    9000005    2    3    3    0    0 -0.17673992624E+02  0.92948095551E+01  0.12673834877E+03  0.12853292382E+03  0.77032431851E+01 0.  0.
         22    1    3    3    0    0  0.17673992624E+02 -0.92948095551E+01 -0.69657783463E+01  0.21149126883E+02  0.00000000000E+00 0.  1.
         22    1    4    4    0    0 -0.56335529112E+01  0.64650639421E+01  0.65417277432E+02  0.65976921395E+02  0.00000000000E+00 0. -1.
         22    1    4    4    0    0 -0.12040439713E+02  0.28297456130E+01  0.61321071339E+02  0.62556002420E+02  0.00000000000E+00 0. -1.
<mgrwt>
<rscale>  0 0.89773313E+02</rscale>
<asrwt>0</asrwt>
<pdfrwt beam="1">  1        2 0.20727279E-01 0.89773313E+02</pdfrwt>
<pdfrwt beam="2">  1       -2 0.23007292E-02 0.89773313E+02</pdfrwt>
<totfact> 0.14066849E+05</totfact>
</mgrwt>
</event>
<event>
 7    1  0.3056193E-009  0.8951419E+02  0.7818608E-02  0.1304032E+00
          2   -1    0    0  501    0  0.00000000000E+00  0.00000000000E+00  0.15761273503E+03  0.15761273505E+03  0.25500000000E-02 0. -1.
         -2   -1    0    0    0  501 -0.00000000000E+00 -0.00000000000E+00 -0.12709616808E+02  0.12709617064E+02  0.25500000000E-02 0.  1.
         23    2    1    2    0    0  0.00000000000E+00  0.00000000000E+00  0.14490311823E+03  0.17032235212E+03  0.89514188593E+02 0.  0.
    9000005    2    3    3    0    0 -0.17158923957E+02 -0.15410272082E+02  0.14506148947E+03  0.14725873925E+03  0.10506921608E+02 0.  0.
         22    1    3    3    0    0  0.17158923957E+02  0.15410272082E+02 -0.15837124386E+00  0.23063612867E+02  0.00000000000E+00 0.  1.
         22    1    4    4    0    0 -0.12978486734E+02 -0.53823066754E+01  0.94875873034E+02  0.95910591839E+02  0.00000000000E+00 0. -1.
         22    1    4    4    0    0 -0.41804372232E+01 -0.10027965407E+02  0.50185616437E+02  0.51348147413E+02  0.00000000000E+00 0. -1.
<mgrwt>
<rscale>  0 0.89514189E+02</rscale>
<asrwt>0</asrwt>
<pdfrwt beam="1">  1        2 0.24248113E-01 0.89514189E+02</pdfrwt>
<pdfrwt beam="2">  1       -2 0.19553257E-02 0.89514189E+02</pdfrwt>
<totfact> 0.14945554E+05</totfact>
</mgrwt>
</event>
<event>
 7    1  0.3056193E-009  0.9103460E+02  0.7818608E-02  0.1300365E+00
         -2   -1    0    0    0  501 -0.00000000000E+00  0.00000000000E+00  0.36090378719E+01  0.36090387728E+01  0.25500000000E-02 0.  1.
          2   -1    0    0  501    0  0.00000000000E+00 -0.00000000000E+00 -0.57406552644E+03  0.57406552644E+03  0.25500000000E-02 0. -1.
         23    2    1    2    0    0  0.00000000000E+00  0.00000000000E+00 -0.57045648857E+03  0.57767456522E+03  0.91034597549E+02 0.  0.
    9000005    2    3    3    0    0  0.17389944483E+02 -0.71010478562E+01 -0.54812637971E+03  0.54849462671E+03  0.71408923716E+01 0.  0.
         22    1    3    3    0    0 -0.17389944483E+02  0.71010478562E+01 -0.22330108853E+02  0.29179938505E+02  0.00000000000E+00 0.  1.
         22    1    4    4    0    0  0.73477008506E+01 -0.56855735429E+01 -0.33266242140E+03  0.33279212891E+03  0.00000000000E+00 0.  1.
         22    1    4    4    0    0  0.10042243632E+02 -0.14154743133E+01 -0.21546395832E+03  0.21570249780E+03  0.00000000000E+00 0.  1.
<mgrwt>
<rscale>  0 0.91034598E+02</rscale>
<asrwt>0</asrwt>
<pdfrwt beam="2">  1        2 0.88317701E-01 0.91034598E+02</pdfrwt>
<pdfrwt beam="1">  1       -2 0.55523712E-03 0.91034598E+02</pdfrwt>
<totfact> 0.22588428E+05</totfact>
</mgrwt>
</event>
<event>
 7    1  0.3056193E-009  0.9353552E+02  0.7818608E-02  0.1294509E+00
         -2   -1    0    0    0  501 -0.00000000000E+00  0.00000000000E+00  0.69363167527E+01  0.69363172214E+01  0.25500000000E-02 0.  1.
          2   -1    0    0  501    0  0.00000000000E+00 -0.00000000000E+00 -0.31532921846E+03  0.31532921847E+03  0.25500000000E-02 0. -1.
         23    2    1    2    0    0  0.00000000000E+00  0.00000000000E+00 -0.30839290170E+03  0.32226553569E+03  0.93535520906E+02 0.  0.
    9000005    2    3    3    0    0 -0.32384872840E+02  0.28403321831E+02 -0.10113805033E+03  0.11058156818E+03  0.11993719935E+02 0.  0.
         22    1    3    3    0    0  0.32384872840E+02 -0.28403321831E+02 -0.20725485137E+03  0.21168396750E+03  0.00000000000E+00 0. -1.
         22    1    4    4    0    0 -0.28388286357E+02  0.19736222551E+02 -0.85952252488E+02  0.92645577286E+02  0.00000000000E+00 0.  1.
         22    1    4    4    0    0 -0.39965864824E+01  0.86670992797E+01 -0.15185797841E+02  0.17935990898E+02  0.00000000000E+00 0.  1.
<mgrwt>
<rscale>  0 0.93535521E+02</rscale>
<asrwt>0</asrwt>
<pdfrwt beam="2">  1        2 0.48512176E-01 0.93535521E+02</pdfrwt>
<pdfrwt beam="1">  1       -2 0.10671259E-02 0.93535521E+02</pdfrwt>
<totfact> 0.17095053E+05</totfact>
</mgrwt>
</event>
<event>
 7    1  0.3056193E-009  0.9101804E+02  0.7818608E-02  0.1300405E+00
          2   -1    0    0  501    0  0.00000000000E+00  0.00000000000E+00  0.21688831672E+03  0.21688831674E+03  0.25500000000E-02 0. -1.
         -2   -1    0    0    0  501 -0.00000000000E+00 -0.00000000000E+00 -0.95490195318E+01  0.95490198723E+01  0.25500000000E-02 0.  1.
         23    2    1    2    0    0  0.00000000000E+00  0.00000000000E+00  0.20733929719E+03  0.22643733661E+03  0.91018038055E+02 0.  0.
    9000005    2    3    3    0    0  0.36932422654E+02  0.13507094011E+02  0.16052822956E+03  0.16530042890E+03  0.29109924683E+01 0.  0.
         22    1    3    3    0    0 -0.36932422654E+02 -0.13507094011E+02  0.46811067635E+02  0.61136907714E+02  0.00000000000E+00 0.  1.
         22    1    4    4    0    0  0.51619977369E+01  0.27228198187E+01  0.21092444085E+02  0.21884952956E+02  0.00000000000E+00 0.  1.
         22    1    4    4    0    0  0.31770424917E+02  0.10784274192E+02  0.13943578547E+03  0.14341547594E+03  0.00000000000E+00 0.  1.
<mgrwt>
<rscale>  0 0.91018038E+02</rscale>
<asrwt>0</asrwt>
<pdfrwt beam="1">  1        2 0.33367435E-01 0.91018038E+02</pdfrwt>
<pdfrwt beam="2">  1       -2 0.14690799E-02 0.91018038E+02</pdfrwt>
<totfact> 0.16005612E+05</totfact>
</mgrwt>
</event>
<event>
 7    1  0.3056193E-009  0.9074196E+02  0.7818608E-02  0.1301065E+00
          2   -1    0    0  501    0  0.00000000000E+00  0.00000000000E+00  0.65610279477E+01  0.65610284432E+01  0.25500000000E-02 0. -1.
         -2   -1    0    0    0  501 -0.00000000000E+00 -0.00000000000E+00 -0.31375050692E+03  0.31375050693E+03  0.25500000000E-02 0.  1.
         23    2    1    2    0    0  0.00000000000E+00 -0.44408920985E-15 -0.30718947897E+03  0.32031153537E+03  0.90741962190E+02 0.  0.
    9000005    2    3    3    0    0 -0.38409498584E+02  0.30641645658E+01 -0.81905863499E+02  0.91756539614E+02  0.15033742063E+02 0.  0.
         22    1    3    3    0    0  0.38409498584E+02 -0.30641645658E+01 -0.22528361547E+03  0.22855499576E+03  0.00000000000E+00 0.  1.
         22    1    4    4    0    0 -0.47434552939E+01  0.14295108933E+01 -0.26065637591E+02  0.26532269645E+02  0.00000000000E+00 0.  1.
         22    1    4    4    0    0 -0.33666043290E+02  0.16346536726E+01 -0.55840225908E+02  0.65224269969E+02  0.00000000000E+00 0.  1.
<mgrwt>
<rscale>  0 0.90741962E+02</rscale>
<asrwt>0</asrwt>
<pdfrwt beam="1">  1        2 0.10093892E-02 0.90741962E+02</pdfrwt>
<pdfrwt beam="2">  1       -2 0.48269297E-01 0.90741962E+02</pdfrwt>
<totfact> 0.50329643E+04</totfact>
</mgrwt>
</event>
<event>
 7    1  0.3056193E-009  0.9039812E+02  0.7818608E-02  0.1301890E+00
          2   -1    0    0  501    0  0.00000000000E+00  0.00000000000E+00  0.77415969890E+02  0.77415969932E+02  0.25500000000E-02 0. -1.
         -2   -1    0    0    0  501 -0.00000000000E+00 -0.00000000000E+00 -0.26389322884E+02  0.26389323007E+02  0.25500000000E-02 0.  1.
         23    2    1    2    0    0  0.17763568394E-14  0.17763568394E-14  0.51026647007E+02  0.10380529294E+03  0.90398120209E+02 0.  0.
    9000005    2    3    3    0    0  0.99754314336E+01 -0.15005447306E+02 -0.20060102143E+02  0.30470454112E+02  0.14190426163E+02 0.  0.
         22    1    3    3    0    0 -0.99754314336E+01  0.15005447306E+02  0.71086749149E+02  0.73334838827E+02  0.00000000000E+00 0. -1.
         22    1    4    4    0    0  0.12844574021E+02 -0.11721331298E+02 -0.19412381138E+02  0.26061719641E+02  0.00000000000E+00 0. -1.
         22    1    4    4    0    0 -0.28691425871E+01 -0.32841160081E+01 -0.64772100408E+00  0.44087344714E+01  0.00000000000E+00 0. -1.
<mgrwt>
<rscale>  0 0.90398120E+02</rscale>
<asrwt>0</asrwt>
<pdfrwt beam="1">  1        2 0.11910149E-01 0.90398120E+02</pdfrwt>
<pdfrwt beam="2">  1       -2 0.40598958E-02 0.90398120E+02</pdfrwt>
<totfact> 0.11653231E+05</totfact>
</mgrwt>
</event>
<event>
 7    1  0.3056193E-009  0.9185567E+02  0.7818608E-02  0.1298419E+00
          2   -1    0    0  501    0  0.00000000000E+00  0.00000000000E+00  0.30370240167E+02  0.30370240275E+02  0.25500000000E-02 0.  1.
         -2   -1    0    0    0  501 -0.00000000000E+00 -0.00000000000E+00 -0.69455030575E+02  0.69455030622E+02  0.25500000000E-02 0. -1.
         23    2    1    2    0    0  0.00000000000E+00  0.00000000000E+00 -0.39084790407E+02  0.99825270896E+02  0.91855668678E+02 0.  0.
    9000005    2    3    3    0    0 -0.40924585674E+02 -0.12900592175E+02 -0.34566240588E+02  0.56678263079E+02  0.13279816497E+02 0.  0.
         22    1    3    3    0    0  0.40924585674E+02  0.12900592175E+02 -0.45185498197E+01  0.43147007817E+02  0.00000000000E+00 0.  1.
         22    1    4    4    0    0 -0.41196586954E+02 -0.10628717322E+02 -0.33512543040E+02  0.54159200045E+02  0.00000000000E+00 0. -1.
         22    1    4    4    0    0  0.27200127927E+00 -0.22718748535E+01 -0.10536975477E+01  0.25190630338E+01  0.00000000000E+00 0. -1.
<mgrwt>
<rscale>  0 0.91855669E+02</rscale>
<asrwt>0</asrwt>
<pdfrwt beam="1">  1        2 0.46723447E-02 0.91855669E+02</pdfrwt>
<pdfrwt beam="2">  1       -2 0.10685389E-01 0.91855669E+02</pdfrwt>
<totfact> 0.86822015E+04</totfact>
</mgrwt>
</event>
<event>
 7    1  0.3056193E-009  0.9307826E+02  0.7818608E-02  0.1295564E+00
         -2   -1    0    0    0  501 -0.00000000000E+00  0.00000000000E+00  0.18326438465E+02  0.18326438643E+02  0.25500000000E-02 0.  1.
          2   -1    0    0  501    0  0.00000000000E+00 -0.00000000000E+00 -0.11818392945E+03  0.11818392947E+03  0.25500000000E-02 0. -1.
         23    2    1    2    0    0  0.17763568394E-14  0.00000000000E+00 -0.99857490981E+02  0.13651036812E+03  0.93078257924E+02 0.  0.
    9000005    2    3    3    0    0 -0.96744290947E+01  0.19936865931E+02 -0.10987615579E+03  0.11219068789E+03  0.47861923399E+01 0.  0.
         22    1    3    3    0    0  0.96744290947E+01 -0.19936865931E+02  0.10018664811E+02  0.24319680222E+02  0.00000000000E+00 0.  1.
         22    1    4    4    0    0 -0.93559554728E+01  0.17895435656E+02 -0.10445743718E+03  0.10639143153E+03  0.00000000000E+00 0.  1.
         22    1    4    4    0    0 -0.31847362183E+00  0.20414302758E+01 -0.54187186086E+01  0.57992563642E+01  0.00000000000E+00 0.  1.
<mgrwt>
<rscale>  0 0.93078258E+02</rscale>
<asrwt>0</asrwt>
<pdfrwt beam="2">  1        2 0.18182143E-01 0.93078258E+02</pdfrwt>
<pdfrwt beam="1">  1       -2 0.28194522E-02 0.93078258E+02</pdfrwt>
<totfact> 0.12212289E+05</totfact>
</mgrwt>
</event>
<event>
 7    1  0.3056193E-009  0.1031480E+03  0.7818608E-02  0.1273812E+00
         -2   -1    0    0    0  501 -0.00000000000E+00  0.00000000000E+00  0.41288613939E+02  0.41288614017E+02  0.25500000000E-02 0.  1.
          2   -1    0    0  501    0  0.00000000000E+00 -0.00000000000E+00 -0.64421615777E+02  0.64421615828E+02  0.25500000000E-02 0. -1.
         23    2    1    2    0    0  0.35527136788E-14  0.71054273576E-14 -0.23133001839E+02  0.10571022984E+03  0.10314803401E+03 0.  0.
    9000005    2    3    3    0    0 -0.19282624368E+02 -0.40920010818E+02  0.12335659982E+02  0.48227250980E+02  0.11288593450E+02 0.  0.
         22    1    3    3    0    0  0.19282624368E+02  0.40920010818E+02 -0.35468661820E+02  0.57482978865E+02  0.00000000000E+00 0.  1.
         22    1    4    4    0    0 -0.19736520251E+02 -0.32359515189E+02  0.11523194521E+02  0.39616315665E+02  0.00000000000E+00 0. -1.
         22    1    4    4    0    0  0.45389588297E+00 -0.85604956283E+01  0.81246546025E+00  0.86109353150E+01  0.00000000000E+00 0. -1.
<mgrwt>
<rscale>  0 0.10314803E+03</rscale>
<asrwt>0</asrwt>
<pdfrwt beam="2">  1        2 0.99110178E-02 0.10314803E+03</pdfrwt>
<pdfrwt beam="1">  1       -2 0.63520945E-02 0.10314803E+03</pdfrwt>
<totfact> 0.76141525E+04</totfact>
</mgrwt>
</event>
<event>
 7    1  0.3056193E-009  0.9215524E+02  0.7818608E-02  0.1297715E+00
          2   -1    0    0  501    0  0.00000000000E+00  0.00000000000E+00  0.56992338019E+03  0.56992338020E+03  0.25500000000E-02 0. -1.
         -2   -1    0    0    0  501 -0.00000000000E+00 -0.00000000000E+00 -0.37253201016E+01  0.37253209744E+01  0.25500000000E-02 0.  1.
         23    2    1    2    0    0  0.00000000000E+00  0.00000000000E+00  0.56619806009E+03  0.57364870117E+03  0.92155244595E+02 0.  0.
    9000005    2    3    3    0    0 -0.37152645574E+02  0.19952742631E+02  0.39425388997E+03  0.39660851181E+03  0.91515501764E+01 0.  0.
         22    1    3    3    0    0  0.37152645574E+02 -0.19952742631E+02  0.17194417012E+03  0.17704018936E+03  0.00000000000E+00 0.  1.
         22    1    4    4    0    0 -0.19090223036E+02  0.14974617722E+02  0.20565628852E+03  0.20708255551E+03  0.00000000000E+00 0.  1.
         22    1    4    4    0    0 -0.18062422537E+02  0.49781249088E+01  0.18859760145E+03  0.18952595629E+03  0.00000000000E+00 0.  1.
<mgrwt>
<rscale>  0 0.92155245E+02</rscale>
<asrwt>0</asrwt>
<pdfrwt beam="1">  1        2 0.87680441E-01 0.92155245E+02</pdfrwt>
<pdfrwt beam="2">  1       -2 0.57312675E-03 0.92155245E+02</pdfrwt>
<totfact> 0.21822301E+05</totfact>
</mgrwt>
</event>
<event>
 7    1  0.3056193E-009  0.9166585E+02  0.7818608E-02  0.1298867E+00
          2   -1    0    0  501    0  0.00000000000E+00  0.00000000000E+00  0.49890429195E+02  0.49890429260E+02  0.25500000000E-02 0. -1.
         -2   -1    0    0    0  501 -0.00000000000E+00 -0.00000000000E+00 -0.42105408680E+02  0.42105408757E+02  0.25500000000E-02 0.  1.
         23    2    1    2    0    0  0.71054273576E-14 -0.17763568394E-14  0.77850205156E+01  0.91995838017E+02  0.91665847883E+02 0.  0.
    9000005    2    3    3    0    0 -0.39184985567E+02  0.88822801331E+01  0.25206899002E+02  0.48202232957E+02  0.85854243039E+01 0.  0.
         22    1    3    3    0    0  0.39184985567E+02 -0.88822801331E+01 -0.17421878487E+02  0.43793605061E+02  0.00000000000E+00 0.  1.
         22    1    4    4    0    0 -0.35219443319E+02  0.52087546027E+01  0.20842531448E+02  0.41254714026E+02  0.00000000000E+00 0.  1.
         22    1    4    4    0    0 -0.39655422472E+01  0.36735255304E+01  0.43643675546E+01  0.69475189304E+01  0.00000000000E+00 0.  1.
<mgrwt>
<rscale>  0 0.91665848E+02</rscale>
<asrwt>0</asrwt>
<pdfrwt beam="1">  1        2 0.76754506E-02 0.91665848E+02</pdfrwt>
<pdfrwt beam="2">  1       -2 0.64777552E-02 0.91665848E+02</pdfrwt>
<totfact> 0.99487149E+04</totfact>
</mgrwt>
</event>
<event>
 7    1  0.3056193E-009  0.8185460E+02  0.7818608E-02  0.1323869E+00
         -2   -1    0    0    0  501 -0.00000000000E+00  0.00000000000E+00  0.29227110007E+01  0.29227121131E+01  0.25500000000E-02 0.  1.
          2   -1    0    0  501    0  0.00000000000E+00 -0.00000000000E+00 -0.57311301656E+03  0.57311301657E+03  0.25500000000E-02 0. -1.
         23    2    1    2    0    0  0.00000000000E+00  0.00000000000E+00 -0.57019030556E+03  0.57603572868E+03  0.81854603784E+02 0.  0.
    9000005    2    3    3    0    0 -0.35739463829E+01  0.33688221585E+02 -0.44221795942E+03  0.44365525148E+03  0.11206657311E+02 0.  0.
         22    1    3    3    0    0  0.35739463829E+01 -0.33688221585E+02 -0.12797234614E+03  0.13238047720E+03  0.00000000000E+00 0.  1.
         22    1    4    4    0    0 -0.47974448983E+01  0.55486192053E+01 -0.74541046452E+02  0.74901069811E+02  0.00000000000E+00 0.  1.
         22    1    4    4    0    0  0.12234985154E+01  0.28139602380E+02 -0.36767691297E+03  0.36875418167E+03  0.00000000000E+00 0.  1.
<mgrwt>
<rscale>  0 0.81854604E+02</rscale>
<asrwt>0</asrwt>
<pdfrwt beam="2">  1        2 0.88171144E-01 0.81854604E+02</pdfrwt>
<pdfrwt beam="1">  1       -2 0.44964839E-03 0.81854604E+02</pdfrwt>
<totfact> 0.29850448E+05</totfact>
</mgrwt>
</event>
<event>
 7    1  0.3056193E-009  0.9036788E+02  0.7818608E-02  0.1301963E+00
         -2   -1    0    0    0  501 -0.00000000000E+00  0.00000000000E+00  0.22900090839E+01  0.22900105036E+01  0.25500000000E-02 0. -1.
          2   -1    0    0  501    0  0.00000000000E+00 -0.00000000000E+00 -0.89151953092E+03  0.89151953092E+03  0.25500000000E-02 0.  1.
         23    2    1    2    0    0  0.35527136788E-14  0.00000000000E+00 -0.88922952183E+03  0.89380954142E+03  0.90367880585E+02 0.  0.
    9000005    2    3    3    0    0  0.30928771383E+02 -0.44808910519E+01 -0.76191444425E+03  0.76271493336E+03  0.15613517464E+02 0.  0.
         22    1    3    3    0    0 -0.30928771383E+02  0.44808910519E+01 -0.12731507759E+03  0.13109460807E+03  0.00000000000E+00 0. -1.
         22    1    4    4    0    0  0.61352080919E+01  0.11074586417E+00 -0.33518646723E+03  0.33524262983E+03  0.00000000000E+00 0.  1.
         22    1    4    4    0    0  0.24793563291E+02 -0.45916369160E+01 -0.42672797702E+03  0.42747230352E+03  0.00000000000E+00 0.  1.
<mgrwt>
<rscale>  0 0.90367881E+02</rscale>
<asrwt>0</asrwt>
<pdfrwt beam="2">  1        2 0.13715657E+00 0.90367881E+02</pdfrwt>
<pdfrwt beam="1">  1       -2 0.35230991E-03 0.90367881E+02</pdfrwt>
<totfact> 0.25355078E+05</totfact>
</mgrwt>
</event>
<event>
 7    1  0.3056193E-009  0.9099381E+02  0.7818608E-02  0.1300463E+00
          2   -1    0    0  501    0  0.00000000000E+00  0.00000000000E+00  0.11661063945E+02  0.11661064224E+02  0.25500000000E-02 0. -1.
         -2   -1    0    0    0  501 -0.00000000000E+00 -0.00000000000E+00 -0.17751111387E+03  0.17751111389E+03  0.25500000000E-02 0.  1.
         23    2    1    2    0    0 -0.88817841970E-15 -0.35527136788E-14 -0.16585004993E+03  0.18917217812E+03  0.90993812492E+02 0.  0.
    9000005    2    3    3    0    0 -0.61849405236E+01 -0.24294906085E+02 -0.16156901250E+03  0.16373945839E+03  0.88072973080E+01 0.  0.
         22    1    3    3    0    0  0.61849405236E+01  0.24294906085E+02 -0.42810374345E+01  0.25432719722E+02  0.00000000000E+00 0. -1.
         22    1    4    4    0    0 -0.65629245015E+01 -0.23536854733E+02 -0.13741162452E+03  0.13956722417E+03  0.00000000000E+00 0. -1.
         22    1    4    4    0    0  0.37798397790E+00 -0.75805135148E+00 -0.24157387976E+02  0.24172234227E+02  0.00000000000E+00 0. -1.
<mgrwt>
<rscale>  0 0.90993812E+02</rscale>
<asrwt>0</asrwt>
<pdfrwt beam="1">  1        2 0.17940100E-02 0.90993812E+02</pdfrwt>
<pdfrwt beam="2">  1       -2 0.27309400E-01 0.90993812E+02</pdfrwt>
<totfact> 0.65837185E+04</totfact>
</mgrwt>
</event>
<event>
 7    1  0.3056193E-009  0.9162163E+02  0.7818608E-02  0.1298972E+00
          2   -1    0    0  501    0  0.00000000000E+00  0.00000000000E+00  0.85653660189E+03  0.85653660190E+03  0.25500000000E-02 0. -1.
         -2   -1    0    0    0  501 -0.00000000000E+00 -0.00000000000E+00 -0.24501346299E+01  0.24501359569E+01  0.25500000000E-02 0.  1.
         23    2    1    2    0    0  0.00000000000E+00  0.00000000000E+00  0.85408646726E+03  0.85898673785E+03  0.91621625430E+02 0.  0.
    9000005    2    3    3    0    0 -0.25688325053E+02 -0.74117163105E+01  0.77452625707E+03  0.77505432082E+03  0.10171221781E+02 0.  0.
         22    1    3    3    0    0  0.25688325053E+02  0.74117163105E+01  0.79560210195E+02  0.83932417032E+02  0.00000000000E+00 0.  1.
         22    1    4    4    0    0 -0.16076677534E+02 -0.33898768266E+01  0.33293632382E+03  0.33334148638E+03  0.00000000000E+00 0.  1.
         22    1    4    4    0    0 -0.96116475190E+01 -0.40218394839E+01  0.44158993325E+03  0.44171283444E+03  0.00000000000E+00 0.  1.
<mgrwt>
<rscale>  0 0.91621625E+02</rscale>
<asrwt>0</asrwt>
<pdfrwt beam="1">  1        2 0.13177489E+00 0.91621625E+02</pdfrwt>
<pdfrwt beam="2">  1       -2 0.37694382E-03 0.91621625E+02</pdfrwt>
<totfact> 0.24325177E+05</totfact>
</mgrwt>
</event>
<event>
 7    1  0.3056193E-009  0.9207397E+02  0.7818608E-02  0.1297906E+00
         -2   -1    0    0    0  501 -0.00000000000E+00  0.00000000000E+00  0.11406082607E+02  0.11406082892E+02  0.25500000000E-02 0.  1.
          2   -1    0    0  501    0  0.00000000000E+00 -0.00000000000E+00 -0.18581347160E+03  0.18581347161E+03  0.25500000000E-02 0. -1.
         23    2    1    2    0    0  0.00000000000E+00  0.00000000000E+00 -0.17440738899E+03  0.19721955450E+03  0.92073966707E+02 0.  0.
    9000005    2    3    3    0    0 -0.14494563041E+02  0.24743584917E+02 -0.16345497123E+03  0.16652276628E+03  0.13782841489E+02 0.  0.
         22    1    3    3    0    0  0.14494563041E+02 -0.24743584917E+02 -0.10952417762E+02  0.30696788222E+02  0.00000000000E+00 0.  1.
         22    1    4    4    0    0 -0.14947075494E+02  0.12279449930E+02 -0.99145884469E+02  0.10101537687E+03  0.00000000000E+00 0. -1.
         22    1    4    4    0    0  0.45251245344E+00  0.12464134987E+02 -0.64309086757E+02  0.65507389416E+02  0.00000000000E+00 0. -1.
<mgrwt>
<rscale>  0 0.92073967E+02</rscale>
<asrwt>0</asrwt>
<pdfrwt beam="2">  1        2 0.28586686E-01 0.92073967E+02</pdfrwt>
<pdfrwt beam="1">  1       -2 0.17547821E-02 0.92073967E+02</pdfrwt>
<totfact> 0.14671030E+05</totfact>
</mgrwt>
</event>
<event>
 7    1  0.3056193E-009  0.9160274E+02  0.7818608E-02  0.1299016E+00
          2   -1    0    0  501    0  0.00000000000E+00  0.00000000000E+00  0.14514321167E+03  0.14514321169E+03  0.25500000000E-02 0. -1.
         -2   -1    0    0    0  501 -0.00000000000E+00 -0.00000000000E+00 -0.14453071760E+02  0.14453071985E+02  0.25500000000E-02 0.  1.
         23    2    1    2    0    0 -0.17763568394E-14 -0.35527136788E-14  0.13069013991E+03  0.15959628367E+03  0.91602735187E+02 0.  0.
    9000005    2    3    3    0    0 -0.10523252286E+02 -0.30761467233E+02  0.94154673972E+01  0.34039312951E+02  0.36079211251E+01 0.  0.
         22    1    3    3    0    0  0.10523252286E+02  0.30761467233E+02  0.12127467251E+03  0.12555697072E+03  0.00000000000E+00 0. -1.
         22    1    4    4    0    0 -0.38650776618E+01 -0.10965405938E+02  0.51802092586E+01  0.12728453193E+02  0.00000000000E+00 0. -1.
         22    1    4    4    0    0 -0.66581746244E+01 -0.19796061295E+02  0.42352581386E+01  0.21310859758E+02  0.00000000000E+00 0. -1.
<mgrwt>
<rscale>  0 0.91602735E+02</rscale>
<asrwt>0</asrwt>
<pdfrwt beam="1">  1        2 0.22329726E-01 0.91602735E+02</pdfrwt>
<pdfrwt beam="2">  1       -2 0.22235494E-02 0.91602735E+02</pdfrwt>
<totfact> 0.13651763E+05</totfact>
</mgrwt>
</event>
<event>
 7    1  0.3056193E-009  0.9130559E+02  0.7818608E-02  0.1299720E+00
         -2   -1    0    0    0  501 -0.00000000000E+00  0.00000000000E+00  0.20565294654E+02  0.20565294812E+02  0.25500000000E-02 0.  1.
          2   -1    0    0  501    0  0.00000000000E+00 -0.00000000000E+00 -0.10134440188E+03  0.10134440191E+03  0.25500000000E-02 0. -1.
         23    2    1    2    0    0  0.00000000000E+00  0.00000000000E+00 -0.80779107227E+02  0.12190969672E+03  0.91305585761E+02 0.  0.
    9000005    2    3    3    0    0  0.12730870611E+02  0.99581855947E+01 -0.96800804364E+02  0.99151504662E+02  0.14120362053E+02 0.  0.
         22    1    3    3    0    0 -0.12730870611E+02 -0.99581855947E+01  0.16021697136E+02  0.22758192063E+02  0.00000000000E+00 0.  1.
         22    1    4    4    0    0  0.48312248185E+01 -0.14880954086E+01 -0.51913186206E+02  0.52158739088E+02  0.00000000000E+00 0. -1.
         22    1    4    4    0    0  0.78996457924E+01  0.11446281003E+02 -0.44887618157E+02  0.46992765574E+02  0.00000000000E+00 0. -1.
<mgrwt>
<rscale>  0 0.91305586E+02</rscale>
<asrwt>0</asrwt>
<pdfrwt beam="2">  1        2 0.15591446E-01 0.91305586E+02</pdfrwt>
<pdfrwt beam="1">  1       -2 0.31638915E-02 0.91305586E+02</pdfrwt>
<totfact> 0.12269919E+05</totfact>
</mgrwt>
</event>
<event>
 7    1  0.3056193E-009  0.9016458E+02  0.7818608E-02  0.1302454E+00
          2   -1    0    0  501    0  0.00000000000E+00  0.00000000000E+00  0.81965631775E+01  0.81965635741E+01  0.25500000000E-02 0. -1.
         -2   -1    0    0    0  501 -0.00000000000E+00 -0.00000000000E+00 -0.24795912544E+03  0.24795912546E+03  0.25500000000E-02 0.  1.
         23    2    1    2    0    0  0.35527136788E-14  0.00000000000E+00 -0.23976256227E+03  0.25615568903E+03  0.90164575962E+02 0.  0.
    9000005    2    3    3    0    0  0.26570565249E+02 -0.29818713754E+02 -0.66052763285E+02  0.77913592741E+02  0.10602347319E+02 0.  0.
         22    1    3    3    0    0 -0.26570565249E+02  0.29818713754E+02 -0.17370979898E+03  0.17824209629E+03  0.00000000000E+00 0.  1.
         22    1    4    4    0    0  0.25021486211E+02 -0.21904361558E+02 -0.53553565004E+02  0.63038560835E+02  0.00000000000E+00 0. -1.
         22    1    4    4    0    0  0.15490790376E+01 -0.79143521963E+01 -0.12499198280E+02  0.14875031906E+02  0.00000000000E+00 0. -1.
<mgrwt>
<rscale>  0 0.90164576E+02</rscale>
<asrwt>0</asrwt>
<pdfrwt beam="1">  1        2 0.12610099E-02 0.90164576E+02</pdfrwt>
<pdfrwt beam="2">  1       -2 0.38147552E-01 0.90164576E+02</pdfrwt>
<totfact> 0.58044674E+04</totfact>
</mgrwt>
</event>
<event>
 7    1  0.3056193E-009  0.1036292E+03  0.7818608E-02  0.1272844E+00
         -2   -1    0    0    0  501 -0.00000000000E+00  0.00000000000E+00  0.70375243461E+02  0.70375243507E+02  0.25500000000E-02 0.  1.
          2   -1    0    0  501    0  0.00000000000E+00 -0.00000000000E+00 -0.38149096881E+02  0.38149096966E+02  0.25500000000E-02 0. -1.
         23    2    1    2    0    0  0.00000000000E+00  0.00000000000E+00  0.32226146579E+02  0.10852434047E+03  0.10362918485E+03 0.  0.
    9000005    2    3    3    0    0  0.41997506283E+02  0.28781582296E+02  0.79317979460E+01  0.52111705462E+02  0.77811576295E+01 0.  0.
         22    1    3    3    0    0 -0.41997506283E+02 -0.28781582296E+02  0.24294348634E+02  0.56412635012E+02  0.00000000000E+00 0.  1.
         22    1    4    4    0    0  0.29242726358E+02  0.22582245740E+02  0.28878604148E+01  0.37059878646E+02  0.00000000000E+00 0.  1.
         22    1    4    4    0    0  0.12754779925E+02  0.61993365559E+01  0.50439375311E+01  0.15051826815E+02  0.00000000000E+00 0.  1.
<mgrwt>
<rscale>  0 0.10362918E+03</rscale>
<asrwt>0</asrwt>
<pdfrwt beam="2">  1        2 0.58690919E-02 0.10362918E+03</pdfrwt>
<pdfrwt beam="1">  1       -2 0.10826960E-01 0.10362918E+03</pdfrwt>
<totfact> 0.64564852E+04</totfact>
</mgrwt>
</event>
<event>
 7    1  0.3056193E-009  0.9000125E+02  0.7818608E-02  0.1302849E+00
          2   -1    0    0  501    0  0.00000000000E+00  0.00000000000E+00  0.82242734348E+01  0.82242738301E+01  0.25500000000E-02 0. -1.
         -2   -1    0    0    0  501 -0.00000000000E+00 -0.00000000000E+00 -0.24622920578E+03  0.24622920579E+03  0.25500000000E-02 0.  1.
         23    2    1    2    0    0  0.00000000000E+00  0.35527136788E-14 -0.23800493234E+03  0.25445347962E+03  0.90001252612E+02 0.  0.
    9000005    2    3    3    0    0 -0.18865868499E+02  0.19111127325E+02 -0.22104612648E+03  0.22269254012E+03  0.30693991757E+01 0.  0.
         22    1    3    3    0    0  0.18865868499E+02 -0.19111127325E+02 -0.16958805867E+02  0.31760939506E+02  0.00000000000E+00 0. -1.
         22    1    4    4    0    0 -0.12204863131E+02  0.14123408378E+02 -0.15845621802E+03  0.15955187989E+03  0.00000000000E+00 0. -1.
         22    1    4    4    0    0 -0.66610053674E+01  0.49877189472E+01 -0.62589908457E+02  0.63140660223E+02  0.00000000000E+00 0. -1.
<mgrwt>
<rscale>  0 0.90001253E+02</rscale>
<asrwt>0</asrwt>
<pdfrwt beam="1">  1        2 0.12652731E-02 0.90001253E+02</pdfrwt>
<pdfrwt beam="2">  1       -2 0.37881411E-01 0.90001253E+02</pdfrwt>
<totfact> 0.58517286E+04</totfact>
</mgrwt>
</event>
<event>
 7    1  0.3056193E-009  0.1022951E+03  0.7818608E-02  0.1275542E+00
         -2   -1    0    0    0  501 -0.00000000000E+00  0.00000000000E+00  0.26538008740E+01  0.26538020992E+01  0.25500000000E-02 0.  1.
          2   -1    0    0  501    0  0.00000000000E+00 -0.00000000000E+00 -0.98578348012E+03  0.98578348012E+03  0.25500000000E-02 0. -1.
         23    2    1    2    0    0  0.00000000000E+00  0.00000000000E+00 -0.98312967925E+03  0.98843728222E+03  0.10229513514E+03 0.  0.
    9000005    2    3    3    0    0 -0.16893163700E+02 -0.59964662820E+01 -0.95427757854E+03  0.95446994052E+03  0.67700701396E+01 0.  0.
         22    1    3    3    0    0  0.16893163700E+02  0.59964662820E+01 -0.28852100701E+02  0.33967341705E+02  0.00000000000E+00 0.  1.
         22    1    4    4    0    0 -0.47680635989E+01  0.60927934614E+00 -0.35936593259E+03  0.35939807896E+03  0.00000000000E+00 0.  1.
         22    1    4    4    0    0 -0.12125100101E+02 -0.66057456281E+01 -0.59491164595E+03  0.59507186156E+03  0.00000000000E+00 0.  1.
<mgrwt>
<rscale>  0 0.10229514E+03</rscale>
<asrwt>0</asrwt>
<pdfrwt beam="2">  1        2 0.15165870E+00 0.10229514E+03</pdfrwt>
<pdfrwt beam="1">  1       -2 0.40827794E-03 0.10229514E+03</pdfrwt>
<totfact> 0.18421827E+05</totfact>
</mgrwt>
</event>
<event>
 7    1  0.3056193E-009  0.8989620E+02  0.7818608E-02  0.1303103E+00
          2   -1    0    0  501    0  0.00000000000E+00  0.00000000000E+00  0.27428041227E+03  0.27428041229E+03  0.25500000000E-02 0. -1.
         -2   -1    0    0    0  501 -0.00000000000E+00 -0.00000000000E+00 -0.73659345272E+01  0.73659349686E+01  0.25500000000E-02 0.  1.
         23    2    1    2    0    0  0.35527136788E-14 -0.35527136788E-14  0.26691447775E+03  0.28164634726E+03  0.89896198423E+02 0.  0.
    9000005    2    3    3    0    0 -0.31418327898E+02  0.31674736747E+02  0.15021786130E+03  0.15671236243E+03  0.17200018872E+01 0.  0.
         22    1    3    3    0    0  0.31418327898E+02 -0.31674736747E+02  0.11669661644E+03  0.12493398483E+03  0.00000000000E+00 0. -1.
         22    1    4    4    0    0 -0.21009439477E+02  0.21446435248E+02  0.10380245489E+03  0.10805690988E+03  0.00000000000E+00 0.  1.
         22    1    4    4    0    0 -0.10408888421E+02  0.10228301499E+02  0.46415406413E+02  0.48655452543E+02  0.00000000000E+00 0.  1.
<mgrwt>
<rscale>  0 0.89896198E+02</rscale>
<asrwt>0</asrwt>
<pdfrwt beam="1">  1        2 0.42196982E-01 0.89896198E+02</pdfrwt>
<pdfrwt beam="2">  1       -2 0.11332209E-02 0.89896198E+02</pdfrwt>
<totfact> 0.18043954E+05</totfact>
</mgrwt>
</event>
<event>
 7    1  0.3056193E-009  0.9347867E+02  0.7818608E-02  0.1294640E+00
         -2   -1    0    0    0  501 -0.00000000000E+00  0.00000000000E+00  0.18957545254E+03  0.18957545255E+03  0.25500000000E-02 0.  1.
          2   -1    0    0  501    0  0.00000000000E+00 -0.00000000000E+00 -0.11523462602E+02  0.11523462884E+02  0.25500000000E-02 0. -1.
         23    2    1    2    0    0  0.00000000000E+00 -0.35527136788E-14  0.17805198993E+03  0.20109891544E+03  0.93478674951E+02 0.  0.
    9000005    2    3    3    0    0 -0.36434192792E+02 -0.27445943251E+02  0.10591783609E+03  0.11575217352E+03  0.99623022911E+01 0.  0.
         22    1    3    3    0    0  0.36434192792E+02  0.27445943251E+02  0.72134153841E+02  0.85346741917E+02  0.00000000000E+00 0. -1.
         22    1    4    4    0    0 -0.86420302533E+01 -0.98594726631E+01  0.39839249487E+02  0.41941145523E+02  0.00000000000E+00 0. -1.
         22    1    4    4    0    0 -0.27792162539E+02 -0.17586470587E+02  0.66078586606E+02  0.73811027998E+02  0.00000000000E+00 0. -1.
<mgrwt>
<rscale>  0 0.93478675E+02</rscale>
<asrwt>0</asrwt>
<pdfrwt beam="2">  1        2 0.17728407E-02 0.93478675E+02</pdfrwt>
<pdfrwt beam="1">  1       -2 0.29165450E-01 0.93478675E+02</pdfrwt>
<totfact> 0.59824786E+04</totfact>
</mgrwt>
</event>
<event>
 7    1  0.3056193E-009  0.9104800E+02  0.7818608E-02  0.1300333E+00
          2   -1    0    0  501    0  0.00000000000E+00  0.00000000000E+00  0.32080165154E+03  0.32080165155E+03  0.25500000000E-02 0. -1.
         -2   -1    0    0    0  501 -0.00000000000E+00 -0.00000000000E+00 -0.64601737571E+01  0.64601742604E+01  0.25500000000E-02 0.  1.
         23    2    1    2    0    0  0.00000000000E+00  0.17763568394E-14  0.31434147778E+03  0.32726182581E+03  0.91047998210E+02 0.  0.
    9000005    2    3    3    0    0  0.38996135902E+02 -0.15236188795E+02  0.97163919863E+02  0.10608557996E+03  0.77770745246E+01 0.  0.
         22    1    3    3    0    0 -0.38996135902E+02  0.15236188795E+02  0.21717755792E+03  0.22117624585E+03  0.00000000000E+00 0. -1.
         22    1    4    4    0    0  0.75677970826E+01 -0.72860629756E+00  0.23386988929E+02  0.24591739893E+02  0.00000000000E+00 0. -1.
         22    1    4    4    0    0  0.31428338819E+02 -0.14507582497E+02  0.73776930934E+02  0.81493840067E+02  0.00000000000E+00 0. -1.
<mgrwt>
<rscale>  0 0.91047998E+02</rscale>
<asrwt>0</asrwt>
<pdfrwt beam="1">  1        2 0.49354090E-01 0.91047998E+02</pdfrwt>
<pdfrwt beam="2">  1       -2 0.99387312E-03 0.91047998E+02</pdfrwt>
<totfact> 0.18488649E+05</totfact>
</mgrwt>
</event>
<event>
 7    1  0.3056193E-009  0.8503298E+02  0.7818608E-02  0.1315346E+00
          2   -1    0    0  501    0  0.00000000000E+00  0.00000000000E+00  0.54376129948E+02  0.54376130008E+02  0.25500000000E-02 0. -1.
         -2   -1    0    0    0  501 -0.00000000000E+00 -0.00000000000E+00 -0.33243480934E+02  0.33243481032E+02  0.25500000000E-02 0.  1.
         23    2    1    2    0    0  0.88817841970E-15  0.88817841970E-15  0.21132649014E+02  0.87619611040E+02  0.85032978217E+02 0.  0.
    9000005    2    3    3    0    0 -0.79401627892E+01 -0.66907176288E+01  0.52939839735E+02  0.54160542477E+02  0.47880938486E+01 0.  0.
         22    1    3    3    0    0  0.79401627892E+01  0.66907176288E+01 -0.31807190721E+02  0.33459068563E+02  0.00000000000E+00 0.  1.
         22    1    4    4    0    0 -0.19000466055E+01 -0.46091065288E+01  0.20490125877E+02  0.21087894597E+02  0.00000000000E+00 0.  1.
         22    1    4    4    0    0 -0.60401161838E+01 -0.20816111000E+01  0.32449713858E+02  0.33072647880E+02  0.00000000000E+00 0.  1.
<mgrwt>
<rscale>  0 0.85032978E+02</rscale>
<asrwt>0</asrwt>
<pdfrwt beam="1">  1        2 0.83655583E-02 0.85032978E+02</pdfrwt>
<pdfrwt beam="2">  1       -2 0.51143818E-02 0.85032978E+02</pdfrwt>
<totfact> 0.12576240E+05</totfact>
</mgrwt>
</event>
<event>
 7    1  0.3056193E-009  0.9680664E+02  0.7818608E-02  0.1287158E+00
          2   -1    0    0  501    0  0.00000000000E+00  0.00000000000E+00  0.56870864487E+02  0.56870864544E+02  0.25500000000E-02 0. -1.
         -2   -1    0    0    0  501 -0.00000000000E+00 -0.00000000000E+00 -0.41196515277E+02  0.41196515356E+02  0.25500000000E-02 0.  1.
         23    2    1    2    0    0  0.00000000000E+00  0.00000000000E+00  0.15674349209E+02  0.98067379900E+02  0.96806641184E+02 0.  0.
    9000005    2    3    3    0    0  0.92068450910E+01 -0.46562656952E+02  0.15527625365E+02  0.50602987490E+02  0.81675072385E+01 0.  0.
         22    1    3    3    0    0 -0.92068450910E+01  0.46562656952E+02  0.14672384410E+00  0.47464392410E+02  0.00000000000E+00 0. -1.
         22    1    4    4    0    0  0.24879297031E+01 -0.22877449756E+01  0.11101948740E+01  0.35575418394E+01  0.00000000000E+00 0. -1.
         22    1    4    4    0    0  0.67189153878E+01 -0.44274911976E+02  0.14417430491E+02  0.47045445651E+02  0.00000000000E+00 0. -1.
<mgrwt>
<rscale>  0 0.96806641E+02</rscale>
<asrwt>0</asrwt>
<pdfrwt beam="1">  1        2 0.87493638E-02 0.96806641E+02</pdfrwt>
<pdfrwt beam="2">  1       -2 0.63379255E-02 0.96806641E+02</pdfrwt>
<totfact> 0.88162028E+04</totfact>
</mgrwt>
</event>
<event>
 7    1  0.3056193E-009  0.9175901E+02  0.7818608E-02  0.1298647E+00
         -2   -1    0    0    0  501 -0.00000000000E+00  0.00000000000E+00  0.37496217744E+03  0.37496217745E+03  0.25500000000E-02 0.  1.
          2   -1    0    0  501    0  0.00000000000E+00 -0.00000000000E+00 -0.56137092740E+01  0.56137098532E+01  0.25500000000E-02 0. -1.
         23    2    1    2    0    0  0.00000000000E+00  0.00000000000E+00  0.36934846816E+03  0.38057588730E+03  0.91759005329E+02 0.  0.
    9000005    2    3    3    0    0  0.14048976142E+02  0.22754307177E+02  0.33889551126E+03  0.34004793633E+03  0.82036103399E+01 0.  0.
         22    1    3    3    0    0 -0.14048976142E+02 -0.22754307177E+02  0.30452956901E+02  0.40527950970E+02  0.00000000000E+00 0. -1.
         22    1    4    4    0    0  0.85221416128E+01  0.19875810898E+02  0.27516208650E+03  0.27601059510E+03  0.00000000000E+00 0. -1.
         22    1    4    4    0    0  0.55268345295E+01  0.28784962797E+01  0.63733424757E+02  0.64037341232E+02  0.00000000000E+00 0. -1.
<mgrwt>
<rscale>  0 0.91759005E+02</rscale>
<asrwt>0</asrwt>
<pdfrwt beam="2">  1        2 0.86364737E-03 0.91759005E+02</pdfrwt>
<pdfrwt beam="1">  1       -2 0.57686506E-01 0.91759005E+02</pdfrwt>
<totfact> 0.43833631E+04</totfact>
</mgrwt>
</event>
<event>
 7    1  0.3056193E-009  0.9046892E+02  0.7818608E-02  0.1301720E+00
          2   -1    0    0  501    0  0.00000000000E+00  0.00000000000E+00  0.12374416826E+03  0.12374416829E+03  0.25500000000E-02 0. -1.
         -2   -1    0    0    0  501 -0.00000000000E+00 -0.00000000000E+00 -0.16535376403E+02  0.16535376600E+02  0.25500000000E-02 0.  1.
         23    2    1    2    0    0  0.00000000000E+00  0.00000000000E+00  0.10720879186E+03  0.14027954489E+03  0.90468920973E+02 0.  0.
    9000005    2    3    3    0    0  0.38214800642E+02  0.13171354307E+02  0.83945413025E+02  0.93642216950E+02  0.93902537201E+01 0.  0.
         22    1    3    3    0    0 -0.38214800642E+02 -0.13171354307E+02  0.23263378831E+02  0.46637327936E+02  0.00000000000E+00 0.  1.
         22    1    4    4    0    0  0.13813685733E+02  0.44070642726E+01  0.40869371042E+02  0.43365258196E+02  0.00000000000E+00 0. -1.
         22    1    4    4    0    0  0.24401114908E+02  0.87642900346E+01  0.43076041983E+02  0.50276958753E+02  0.00000000000E+00 0. -1.
<mgrwt>
<rscale>  0 0.90468921E+02</rscale>
<asrwt>0</asrwt>
<pdfrwt beam="1">  1        2 0.19037564E-01 0.90468921E+02</pdfrwt>
<pdfrwt beam="2">  1       -2 0.25439041E-02 0.90468921E+02</pdfrwt>
<totfact> 0.13397411E+05</totfact>
</mgrwt>
</event>
<event>
 7    1  0.3056193E-009  0.8111005E+02  0.7818608E-02  0.1325930E+00
          2   -1    0    0  501    0  0.00000000000E+00  0.00000000000E+00  0.17144718540E+03  0.17144718542E+03  0.25500000000E-02 0. -1.
         -2   -1    0    0    0  501 -0.00000000000E+00 -0.00000000000E+00 -0.95930992015E+01  0.95930995405E+01  0.25500000000E-02 0.  1.
         23    2    1    2    0    0  0.00000000000E+00  0.44408920985E-15  0.16185408620E+03  0.18104028496E+03  0.81110045981E+02 0.  0.
    9000005    2    3    3    0    0 -0.33600501679E+02 -0.23205677089E+01  0.32996060424E+02  0.47853312796E+02  0.81743987237E+01 0.  0.
         22    1    3    3    0    0  0.33600501679E+02  0.23205677089E+01  0.12885802578E+03  0.13318697216E+03  0.00000000000E+00 0. -1.
         22    1    4    4    0    0 -0.17531318351E+02  0.16140439218E+01  0.12912344007E+02  0.21833022894E+02  0.00000000000E+00 0. -1.
         22    1    4    4    0    0 -0.16069183328E+02 -0.39346116307E+01  0.20083716416E+02  0.26020289902E+02  0.00000000000E+00 0. -1.
<mgrwt>
<rscale>  0 0.81110046E+02</rscale>
<asrwt>0</asrwt>
<pdfrwt beam="1">  1        2 0.26376489E-01 0.81110046E+02</pdfrwt>
<pdfrwt beam="2">  1       -2 0.14758615E-02 0.81110046E+02</pdfrwt>
<totfact> 0.20039067E+05</totfact>
</mgrwt>
</event>
<event>
 7    1  0.3056193E-009  0.8941611E+02  0.7818608E-02  0.1304272E+00
          2   -1    0    0  501    0  0.00000000000E+00  0.00000000000E+00  0.32117982798E+03  0.32117982799E+03  0.25500000000E-02 0. -1.
         -2   -1    0    0    0  501 -0.00000000000E+00 -0.00000000000E+00 -0.62233364075E+01  0.62233369299E+01  0.25500000000E-02 0.  1.
         23    2    1    2    0    0  0.00000000000E+00  0.00000000000E+00  0.31495649157E+03  0.32740316492E+03  0.89416110494E+02 0.  0.
    9000005    2    3    3    0    0 -0.30536947333E+02 -0.28673444373E+02  0.21328876914E+03  0.21744409367E+03  0.59298623935E+01 0.  0.
         22    1    3    3    0    0  0.30536947333E+02  0.28673444373E+02  0.10166772243E+03  0.10995907125E+03  0.00000000000E+00 0.  1.
         22    1    4    4    0    0 -0.20018770507E+02 -0.21660330036E+02  0.14001898634E+03  0.14309171047E+03  0.00000000000E+00 0.  1.
         22    1    4    4    0    0 -0.10518176825E+02 -0.70131143368E+01  0.73269782798E+02  0.74352383201E+02  0.00000000000E+00 0.  1.
<mgrwt>
<rscale>  0 0.89416110E+02</rscale>
<asrwt>0</asrwt>
<pdfrwt beam="1">  1        2 0.49412295E-01 0.89416110E+02</pdfrwt>
<pdfrwt beam="2">  1       -2 0.95743615E-03 0.89416110E+02</pdfrwt>
<totfact> 0.19408366E+05</totfact>
</mgrwt>
</event>
<event>
 7    1  0.3056193E-009  0.9045853E+02  0.7818608E-02  0.1301745E+00
          2   -1    0    0  501    0  0.00000000000E+00  0.00000000000E+00  0.33179419833E+02  0.33179419931E+02  0.25500000000E-02 0. -1.
         -2   -1    0    0    0  501 -0.00000000000E+00 -0.00000000000E+00 -0.61655273684E+02  0.61655273737E+02  0.25500000000E-02 0.  1.
         23    2    1    2    0    0  0.00000000000E+00  0.00000000000E+00 -0.28475853851E+02  0.94834693668E+02  0.90458525693E+02 0.  0.
    9000005    2    3    3    0    0  0.38911230318E+02 -0.19706005775E+02 -0.50274222144E+01  0.45314602243E+02  0.11212836119E+02 0.  0.
         22    1    3    3    0    0 -0.38911230318E+02  0.19706005775E+02 -0.23448431637E+02  0.49520091425E+02  0.00000000000E+00 0.  1.
         22    1    4    4    0    0  0.14869265820E+02 -0.68232003347E+01  0.35125920090E+01  0.16732884732E+02  0.00000000000E+00 0. -1.
         22    1    4    4    0    0  0.24041964499E+02 -0.12882805440E+02 -0.85400142233E+01  0.28581717511E+02  0.00000000000E+00 0. -1.
<mgrwt>
<rscale>  0 0.90458526E+02</rscale>
<asrwt>0</asrwt>
<pdfrwt beam="1">  1        2 0.51045261E-02 0.90458526E+02</pdfrwt>
<pdfrwt beam="2">  1       -2 0.94854267E-02 0.90458526E+02</pdfrwt>
<totfact> 0.92992496E+04</totfact>
</mgrwt>
</event>
<event>
 7    1  0.3056193E-009  0.9839826E+02  0.7818608E-02  0.1283701E+00
         -2   -1    0    0    0  501 -0.00000000000E+00  0.00000000000E+00  0.11072027413E+02  0.11072027707E+02  0.25500000000E-02 0.  1.
          2   -1    0    0  501    0  0.00000000000E+00 -0.00000000000E+00 -0.21861891056E+03  0.21861891057E+03  0.25500000000E-02 0. -1.
         23    2    1    2    0    0  0.35527136788E-14  0.00000000000E+00 -0.20754688314E+03  0.22969093828E+03  0.98398264336E+02 0.  0.
    9000005    2    3    3    0    0 -0.23133935210E+02 -0.40399126256E+02 -0.14087731187E+03  0.14837611740E+03  0.13367326934E+01 0.  0.
         22    1    3    3    0    0  0.23133935210E+02  0.40399126256E+02 -0.66669571271E+02  0.81314820876E+02  0.00000000000E+00 0.  1.
         22    1    4    4    0    0 -0.15455007867E+02 -0.26330849550E+02 -0.94102444743E+02  0.98931496566E+02  0.00000000000E+00 0. -1.
         22    1    4    4    0    0 -0.76789273430E+01 -0.14068276707E+02 -0.46774867129E+02  0.49444620836E+02  0.00000000000E+00 0. -1.
<mgrwt>
<rscale>  0 0.98398264E+02</rscale>
<asrwt>0</asrwt>
<pdfrwt beam="2">  1        2 0.33633675E-01 0.98398264E+02</pdfrwt>
<pdfrwt beam="1">  1       -2 0.17033890E-02 0.98398264E+02</pdfrwt>
<totfact> 0.13005127E+05</totfact>
</mgrwt>
</event>
<event>
 7    1  0.3056193E-009  0.9079415E+02  0.7818608E-02  0.1300940E+00
          2   -1    0    0  501    0  0.00000000000E+00  0.00000000000E+00  0.13009521023E+03  0.13009521025E+03  0.25500000000E-02 0.  1.
         -2   -1    0    0    0  501 -0.00000000000E+00 -0.00000000000E+00 -0.15841431451E+02  0.15841431656E+02  0.25500000000E-02 0. -1.
         23    2    1    2    0    0  0.00000000000E+00  0.35527136788E-14  0.11425377877E+03  0.14593664191E+03  0.90794148968E+02 0.  0.
    9000005    2    3    3    0    0  0.46408388110E+01  0.26987967480E+02 -0.10299085600E+01  0.27445223066E+02  0.15138639026E+01 0.  0.
         22    1    3    3    0    0 -0.46408388110E+01 -0.26987967480E+02  0.11528368733E+03  0.11849141884E+03  0.00000000000E+00 0.  1.
         22    1    4    4    0    0  0.93023387152E+00  0.76757628825E+01 -0.85443090739E+00  0.77789924193E+01  0.00000000000E+00 0.  1.
         22    1    4    4    0    0  0.37106049395E+01  0.19312204598E+02 -0.17547765257E+00  0.19666230646E+02  0.00000000000E+00 0.  1.
<mgrwt>
<rscale>  0 0.90794149E+02</rscale>
<asrwt>0</asrwt>
<pdfrwt beam="1">  1        2 0.20014648E-01 0.90794149E+02</pdfrwt>
<pdfrwt beam="2">  1       -2 0.24371433E-02 0.90794149E+02</pdfrwt>
<totfact> 0.13484944E+05</totfact>
</mgrwt>
</event>
<event>
 7    1  0.3056193E-009  0.9068611E+02  0.7818608E-02  0.1301199E+00
          2   -1    0    0  501    0  0.00000000000E+00  0.00000000000E+00  0.72295177127E+02  0.72295177172E+02  0.25500000000E-02 0. -1.
         -2   -1    0    0    0  501 -0.00000000000E+00 -0.00000000000E+00 -0.28438862570E+02  0.28438862684E+02  0.25500000000E-02 0.  1.
         23    2    1    2    0    0  0.44408920985E-15  0.71054273576E-14  0.43856314557E+02  0.10073403986E+03  0.90686109516E+02 0.  0.
    9000005    2    3    3    0    0  0.30117108698E+01  0.35229681538E+02  0.52604644475E+02  0.64309677954E+02  0.10875899714E+02 0.  0.
         22    1    3    3    0    0 -0.30117108698E+01 -0.35229681538E+02 -0.87483299181E+01  0.36424361902E+02  0.00000000000E+00 0.  1.
         22    1    4    4    0    0  0.40832732182E+01  0.33752651455E+02  0.52413760236E+02  0.62474929872E+02  0.00000000000E+00 0. -1.
         22    1    4    4    0    0 -0.10715623484E+01  0.14770300824E+01  0.19088423873E+00  0.18347480818E+01  0.00000000000E+00 0. -1.
<mgrwt>
<rscale>  0 0.90686110E+02</rscale>
<asrwt>0</asrwt>
<pdfrwt beam="1">  1        2 0.11122335E-01 0.90686110E+02</pdfrwt>
<pdfrwt beam="2">  1       -2 0.43752096E-02 0.90686110E+02</pdfrwt>
<totfact> 0.11331016E+05</totfact>
</mgrwt>
</event>
<event>
 7    1  0.3056193E-009  0.9049848E+02  0.7818608E-02  0.1301649E+00
         -2   -1    0    0    0  501 -0.00000000000E+00  0.00000000000E+00  0.10761683138E+02  0.10761683440E+02  0.25500000000E-02 0.  1.
          2   -1    0    0  501    0  0.00000000000E+00 -0.00000000000E+00 -0.19025777278E+03  0.19025777279E+03  0.25500000000E-02 0. -1.
         23    2    1    2    0    0  0.00000000000E+00  0.00000000000E+00 -0.17949608964E+03  0.20101945623E+03  0.90498483905E+02 0.  0.
    9000005    2    3    3    0    0  0.43231382252E+02 -0.35539925744E+01 -0.10788010815E+03  0.11729113320E+03  0.15411324296E+02 0.  0.
         22    1    3    3    0    0 -0.43231382252E+02  0.35539925744E+01 -0.71615981485E+02  0.83728323038E+02  0.00000000000E+00 0. -1.
         22    1    4    4    0    0  0.14498086585E+02  0.38389483181E+00 -0.56077761882E+02  0.57922856175E+02  0.00000000000E+00 0. -1.
         22    1    4    4    0    0  0.28733295667E+02 -0.39378874063E+01 -0.51802346273E+02  0.59368277022E+02  0.00000000000E+00 0. -1.
<mgrwt>
<rscale>  0 0.90498484E+02</rscale>
<asrwt>0</asrwt>
<pdfrwt beam="2">  1        2 0.29270424E-01 0.90498484E+02</pdfrwt>
<pdfrwt beam="1">  1       -2 0.16556437E-02 0.90498484E+02</pdfrwt>
<totfact> 0.15500887E+05</totfact>
</mgrwt>
</event>
<event>
 7    1  0.3056193E-009  0.8985282E+02  0.7818608E-02  0.1303209E+00
          2   -1    0    0  501    0  0.00000000000E+00  0.00000000000E+00  0.39691581645E+03  0.39691581646E+03  0.25500000000E-02 0. -1.
         -2   -1    0    0    0  501 -0.00000000000E+00 -0.00000000000E+00 -0.50851644163E+01  0.50851650557E+01  0.25500000000E-02 0.  1.
         23    2    1    2    0    0  0.35527136788E-14  0.35527136788E-14  0.39183065203E+03  0.40200098151E+03  0.89852820017E+02 0.  0.
    9000005    2    3    3    0    0  0.29548740413E+02  0.27384267286E+02  0.27864208084E+03  0.28185657339E+03  0.13367594888E+02 0.  0.
         22    1    3    3    0    0 -0.29548740413E+02 -0.27384267286E+02  0.11318857120E+03  0.12014440813E+03  0.00000000000E+00 0.  1.
         22    1    4    4    0    0  0.14869713170E+02  0.17064307130E+02  0.11293358320E+03  0.11517939556E+03  0.00000000000E+00 0. -1.
         22    1    4    4    0    0  0.14679027243E+02  0.10319960156E+02  0.16570849764E+03  0.16667717783E+03  0.00000000000E+00 0. -1.
<mgrwt>
<rscale>  0 0.89852820E+02</rscale>
<asrwt>0</asrwt>
<pdfrwt beam="1">  1        2 0.61064008E-01 0.89852820E+02</pdfrwt>
<pdfrwt beam="2">  1       -2 0.78233258E-03 0.89852820E+02</pdfrwt>
<totfact> 0.20694706E+05</totfact>
</mgrwt>
</event>
<event>
 7    1  0.3056193E-009  0.8963880E+02  0.7818608E-02  0.1303729E+00
          2   -1    0    0  501    0  0.00000000000E+00  0.00000000000E+00  0.16242778715E+03  0.16242778717E+03  0.25500000000E-02 0. -1.
         -2   -1    0    0    0  501 -0.00000000000E+00 -0.00000000000E+00 -0.12367209187E+02  0.12367209450E+02  0.25500000000E-02 0.  1.
         23    2    1    2    0    0 -0.71054273576E-14  0.00000000000E+00  0.15006057797E+03  0.17479499662E+03  0.89638796204E+02 0.  0.
    9000005    2    3    3    0    0  0.42947175516E+02  0.43357908784E+01  0.55847848331E+02  0.71164415265E+02  0.90627186590E+01 0.  0.
         22    1    3    3    0    0 -0.42947175516E+02 -0.43357908784E+01  0.94212729635E+02  0.10363058136E+03  0.00000000000E+00 0. -1.
         22    1    4    4    0    0  0.23446298559E+02  0.13896202825E+01  0.23145796244E+02  0.32975564353E+02  0.00000000000E+00 0.  1.
         22    1    4    4    0    0  0.19500876957E+02  0.29461705959E+01  0.32702052087E+02  0.38188850912E+02  0.00000000000E+00 0.  1.
<mgrwt>
<rscale>  0 0.89638796E+02</rscale>
<asrwt>0</asrwt>
<pdfrwt beam="1">  1        2 0.24988889E-01 0.89638796E+02</pdfrwt>
<pdfrwt beam="2">  1       -2 0.19026477E-02 0.89638796E+02</pdfrwt>
<totfact> 0.15044317E+05</totfact>
</mgrwt>
</event>
<event>
 7    1  0.3056193E-009  0.9210038E+02  0.7818608E-02  0.1297844E+00
         -2   -1    0    0    0  501 -0.00000000000E+00  0.00000000000E+00  0.65150802034E+02  0.65150802084E+02  0.25500000000E-02 0.  1.
          2   -1    0    0  501    0  0.00000000000E+00 -0.00000000000E+00 -0.32549408446E+02  0.32549408546E+02  0.25500000000E-02 0. -1.
         23    2    1    2    0    0  0.00000000000E+00  0.00000000000E+00  0.32601393587E+02  0.97700210630E+02  0.92100381613E+02 0.  0.
    9000005    2    3    3    0    0 -0.23467438585E+02  0.39375812548E+02  0.18193978953E+02  0.49650768552E+02  0.57447941766E+01 0.  0.
         22    1    3    3    0    0  0.23467438585E+02 -0.39375812548E+02  0.14407414634E+02  0.48049442078E+02  0.00000000000E+00 0.  1.
         22    1    4    4    0    0 -0.31085687200E+01  0.74210122079E+01  0.52696575659E+01  0.96178954319E+01  0.00000000000E+00 0.  1.
         22    1    4    4    0    0 -0.20358869865E+02  0.31954800340E+02  0.12924321387E+02  0.40032873120E+02  0.00000000000E+00 0.  1.
<mgrwt>
<rscale>  0 0.92100382E+02</rscale>
<asrwt>0</asrwt>
<pdfrwt beam="2">  1        2 0.50076013E-02 0.92100382E+02</pdfrwt>
<pdfrwt beam="1">  1       -2 0.10023200E-01 0.92100382E+02</pdfrwt>
<totfact> 0.87749708E+04</totfact>
</mgrwt>
</event>
<event>
 7    1  0.3056193E-009  0.8795305E+02  0.7818608E-02  0.1307886E+00
          2   -1    0    0  501    0  0.00000000000E+00  0.00000000000E+00  0.25631208344E+02  0.25631208471E+02  0.25500000000E-02 0. -1.
         -2   -1    0    0    0  501 -0.00000000000E+00 -0.00000000000E+00 -0.75452346513E+02  0.75452346556E+02  0.25500000000E-02 0.  1.
         23    2    1    2    0    0  0.00000000000E+00  0.17763568394E-14 -0.49821138169E+02  0.10108355503E+03  0.87953051615E+02 0.  0.
    9000005    2    3    3    0    0  0.32245642840E+02 -0.93304167842E+01 -0.56148611166E+02  0.66924001838E+02  0.14117978842E+02 0.  0.
         22    1    3    3    0    0 -0.32245642840E+02  0.93304167842E+01  0.63274729975E+01  0.34159553189E+02  0.00000000000E+00 0. -1.
         22    1    4    4    0    0  0.11042473116E+02 -0.73645310615E+01 -0.11935398016E+02  0.17850105212E+02  0.00000000000E+00 0.  1.
         22    1    4    4    0    0  0.21203169724E+02 -0.19658857227E+01 -0.44213213150E+02  0.49073896626E+02  0.00000000000E+00 0.  1.
<mgrwt>
<rscale>  0 0.87953052E+02</rscale>
<asrwt>0</asrwt>
<pdfrwt beam="1">  1        2 0.39432629E-02 0.87953052E+02</pdfrwt>
<pdfrwt beam="2">  1       -2 0.11608053E-01 0.87953052E+02</pdfrwt>
<totfact> 0.94416659E+04</totfact>
</mgrwt>
</event>
<event>
 7    1  0.3056193E-009  0.9248427E+02  0.7818608E-02  0.1296945E+00
         -2   -1    0    0    0  501 -0.00000000000E+00  0.00000000000E+00  0.46177770142E+03  0.46177770142E+03  0.25500000000E-02 0.  1.
          2   -1    0    0  501    0  0.00000000000E+00 -0.00000000000E+00 -0.46306582011E+01  0.46306589032E+01  0.25500000000E-02 0. -1.
         23    2    1    2    0    0  0.00000000000E+00  0.00000000000E+00  0.45714704322E+03  0.46640836033E+03  0.92484266025E+02 0.  0.
    9000005    2    3    3    0    0 -0.15118991018E+02 -0.16100892133E+02  0.43278419254E+03  0.43352415272E+03  0.12377845587E+02 0.  0.
         22    1    3    3    0    0  0.15118991018E+02  0.16100892133E+02  0.24362850672E+02  0.32884207604E+02  0.00000000000E+00 0. -1.
         22    1    4    4    0    0 -0.72965429609E+01 -0.91904124568E+01  0.33061383524E+03  0.33082202356E+03  0.00000000000E+00 0.  1.
         22    1    4    4    0    0 -0.78224480574E+01 -0.69104796762E+01  0.10217035730E+03  0.10270212916E+03  0.00000000000E+00 0.  1.
<mgrwt>
<rscale>  0 0.92484266E+02</rscale>
<asrwt>0</asrwt>
<pdfrwt beam="2">  1        2 0.71240937E-03 0.92484266E+02</pdfrwt>
<pdfrwt beam="1">  1       -2 0.71042688E-01 0.92484266E+02</pdfrwt>
<totfact> 0.37167055E+04</totfact>
</mgrwt>
</event>
<event>
 7    1  0.3056193E-009  0.9309993E+02  0.7818608E-02  0.1295514E+00
         -2   -1    0    0    0  501 -0.00000000000E+00  0.00000000000E+00  0.27786646193E+02  0.27786646310E+02  0.25500000000E-02 0.  1.
          2   -1    0    0  501    0  0.00000000000E+00 -0.00000000000E+00 -0.77983466800E+02  0.77983466841E+02  0.25500000000E-02 0. -1.
         23    2    1    2    0    0  0.17763568394E-14  0.00000000000E+00 -0.50196820606E+02  0.10577011315E+03  0.93099925012E+02 0.  0.
    9000005    2    3    3    0    0 -0.15153671035E+02 -0.41499391493E+02 -0.36994535931E+02  0.59660097311E+02  0.15456334700E+02 0.  0.
         22    1    3    3    0    0  0.15153671035E+02  0.41499391493E+02 -0.13202284676E+02  0.46110015840E+02  0.00000000000E+00 0.  1.
         22    1    4    4    0    0 -0.26709804455E+01 -0.28372881708E+02 -0.19947045870E+02  0.34785617601E+02  0.00000000000E+00 0. -1.
         22    1    4    4    0    0 -0.12482690590E+02 -0.13126509785E+02 -0.17047490061E+02  0.24874479711E+02  0.00000000000E+00 0. -1.
<mgrwt>
<rscale>  0 0.93099925E+02</rscale>
<asrwt>0</asrwt>
<pdfrwt beam="2">  1        2 0.11997456E-01 0.93099925E+02</pdfrwt>
<pdfrwt beam="1">  1       -2 0.42748687E-02 0.93099925E+02</pdfrwt>
<totfact> 0.10757260E+05</totfact>
</mgrwt>
</event>
<event>
 7    1  0.3056193E-009  0.8968870E+02  0.7818608E-02  0.1303607E+00
          2   -1    0    0  501    0  0.00000000000E+00  0.00000000000E+00  0.14580177825E+04  0.14580177825E+04  0.25500000000E-02 0. -1.
         -2   -1    0    0    0  501 -0.00000000000E+00 -0.00000000000E+00 -0.13792794901E+01  0.13792818473E+01  0.25500000000E-02 0.  1.
         23    2    1    2    0    0  0.00000000000E+00  0.00000000000E+00  0.14566385030E+04  0.14593970644E+04  0.89688700409E+02 0.  0.
    9000005    2    3    3    0    0  0.41241107693E+01 -0.10068442467E+02  0.14355973263E+04  0.14357092417E+04  0.14246461991E+02 0.  0.
         22    1    3    3    0    0 -0.41241107693E+01  0.10068442467E+02  0.21041176735E+02  0.23687822646E+02  0.00000000000E+00 0.  1.
         22    1    4    4    0    0  0.27047776305E+01 -0.90074285826E+00  0.10372110335E+04  0.10372149513E+04  0.00000000000E+00 0.  1.
         22    1    4    4    0    0  0.14193331388E+01 -0.91676996090E+01  0.39838629276E+03  0.39849429040E+03  0.00000000000E+00 0.  1.
<mgrwt>
<rscale>  0 0.89688700E+02</rscale>
<asrwt>0</asrwt>
<pdfrwt beam="1">  1        2 0.22431077E+00 0.89688700E+02</pdfrwt>
<pdfrwt beam="2">  1       -2 0.21219670E-03 0.89688700E+02</pdfrwt>
<totfact> 0.24893133E+05</totfact>
</mgrwt>
</event>
<event>
 6    1  0.3057593E-009  0.1957340E+03  0.7818608E-02  0.1153389E+00
          2   -1    0    0  501    0  0.00000000000E+00  0.00000000000E+00  0.25907680105E+03  0.25907680106E+03  0.25500000000E-02 0. -1.
         -2   -1    0    0    0  501 -0.00000000000E+00 -0.00000000000E+00 -0.36969555605E+02  0.36969555693E+02  0.25500000000E-02 0.  1.
    9000005    2    1    2    0    0 -0.80855475381E+02  0.28383108741E+02  0.40490421282E+02  0.95228330722E+02  0.92602373433E+01 0.  0.
         22    1    1    2    0    0  0.80855475381E+02 -0.28383108741E+02  0.18161682416E+03  0.20081802603E+03  0.00000000000E+00 0. -1.
         22    1    3    3    0    0 -0.39919135463E+02  0.13956518712E+02  0.14869909808E+02  0.44826733188E+02  0.00000000000E+00 0.  1.
         22    1    3    3    0    0 -0.40936339918E+02  0.14426590030E+02  0.25620511474E+02  0.50401597534E+02  0.00000000000E+00 0.  1.
<mgrwt>
<rscale>  0 0.19573405E+03</rscale>
<asrwt>0</asrwt>
<pdfrwt beam="1">  1        2 0.39857968E-01 0.19573405E+03</pdfrwt>
<pdfrwt beam="2">  1       -2 0.56876241E-02 0.19573405E+03</pdfrwt>
<totfact> 0.19875211E+04</totfact>
</mgrwt>
</event>
<event>
 7    1  0.3056193E-009  0.8542873E+02  0.7818608E-02  0.1314315E+00
          2   -1    0    0  501    0  0.00000000000E+00  0.00000000000E+00  0.11934460453E+03  0.11934460455E+03  0.25500000000E-02 0.  1.
         -2   -1    0    0    0  501 -0.00000000000E+00 -0.00000000000E+00 -0.15287805299E+02  0.15287805511E+02  0.25500000000E-02 0. -1.
         23    2    1    2    0    0  0.71054273576E-14  0.00000000000E+00  0.10405679923E+03  0.13463241006E+03  0.85428732721E+02 0.  0.
    9000005    2    3    3    0    0 -0.38552428769E+02 -0.13340388980E+02  0.42148479900E+02  0.60491357037E+02  0.14780195401E+02 0.  0.
         22    1    3    3    0    0  0.38552428769E+02  0.13340388980E+02  0.61908319327E+02  0.74141053028E+02  0.00000000000E+00 0. -1.
         22    1    4    4    0    0 -0.26135797358E+02 -0.15782290682E+02  0.27043882469E+02  0.40786421536E+02  0.00000000000E+00 0. -1.
         22    1    4    4    0    0 -0.12416631412E+02  0.24419017021E+01  0.15104597431E+02  0.19704935501E+02  0.00000000000E+00 0. -1.
<mgrwt>
<rscale>  0 0.85428733E+02</rscale>
<asrwt>0</asrwt>
<pdfrwt beam="1">  1        2 0.18360709E-01 0.85428733E+02</pdfrwt>
<pdfrwt beam="2">  1       -2 0.23519700E-02 0.85428733E+02</pdfrwt>
<totfact> 0.15476100E+05</totfact>
</mgrwt>
</event>
<event>
 7    1  0.3056193E-009  0.9430290E+02  0.7818608E-02  0.1292754E+00
         -2   -1    0    0    0  501 -0.00000000000E+00  0.00000000000E+00  0.70976199773E+01  0.70976204353E+01  0.25500000000E-02 0.  1.
          2   -1    0    0  501    0  0.00000000000E+00 -0.00000000000E+00 -0.31324012196E+03  0.31324012197E+03  0.25500000000E-02 0. -1.
         23    2    1    2    0    0 -0.71054273576E-14  0.22204460493E-15 -0.30614250198E+03  0.32033774241E+03  0.94302903929E+02 0.  0.
    9000005    2    3    3    0    0 -0.44192592523E+02  0.13689891191E+01 -0.20347220322E+03  0.20855201159E+03  0.11753496989E+02 0.  0.
         22    1    3    3    0    0  0.44192592523E+02 -0.13689891191E+01 -0.10267029876E+03  0.11178573081E+03  0.00000000000E+00 0.  1.
         22    1    4    4    0    0 -0.30565431648E+02 -0.11918347379E+01 -0.16080148070E+03  0.16368500933E+03  0.00000000000E+00 0.  1.
         22    1    4    4    0    0 -0.13627160875E+02  0.25608238570E+01 -0.42670722517E+02  0.44867002268E+02  0.00000000000E+00 0.  1.
<mgrwt>
<rscale>  0 0.94302904E+02</rscale>
<asrwt>0</asrwt>
<pdfrwt beam="2">  1        2 0.48190777E-01 0.94302904E+02</pdfrwt>
<pdfrwt beam="1">  1       -2 0.10919418E-02 0.94302904E+02</pdfrwt>
<totfact> 0.16683962E+05</totfact>
</mgrwt>
</event>
<event>
 7    1  0.3056193E-009  0.8952183E+02  0.7818608E-02  0.1304014E+00
          2   -1    0    0  501    0  0.00000000000E+00  0.00000000000E+00  0.87547895391E+02  0.87547895429E+02  0.25500000000E-02 0. -1.
         -2   -1    0    0    0  501 -0.00000000000E+00 -0.00000000000E+00 -0.22885069135E+02  0.22885069277E+02  0.25500000000E-02 0.  1.
         23    2    1    2    0    0 -0.17763568394E-14  0.00000000000E+00  0.64662826256E+02  0.11043296471E+03  0.89521833060E+02 0.  0.
    9000005    2    3    3    0    0 -0.11018984274E+02  0.21819447543E+02 -0.11958297085E+02  0.30007204856E+02  0.12646152322E+02 0.  0.
         22    1    3    3    0    0  0.11018984274E+02 -0.21819447543E+02  0.76621123341E+02  0.80425759850E+02  0.00000000000E+00 0. -1.
         22    1    4    4    0    0 -0.74093349620E+01  0.20234688511E+02 -0.13869403724E+02  0.25626182380E+02  0.00000000000E+00 0.  1.
         22    1    4    4    0    0 -0.36096493124E+01  0.15847590321E+01  0.19111066389E+01  0.43810224758E+01  0.00000000000E+00 0.  1.
<mgrwt>
<rscale>  0 0.89521833E+02</rscale>
<asrwt>0</asrwt>
<pdfrwt beam="1">  1        2 0.13468907E-01 0.89521833E+02</pdfrwt>
<pdfrwt beam="2">  1       -2 0.35207799E-02 0.89521833E+02</pdfrwt>
<totfact> 0.12401370E+05</totfact>
</mgrwt>
</event>
<event>
 7    1  0.3056193E-009  0.9014341E+02  0.7818608E-02  0.1302505E+00
          2   -1    0    0  501    0  0.00000000000E+00  0.00000000000E+00  0.90502385026E+02  0.90502385062E+02  0.25500000000E-02 0. -1.
         -2   -1    0    0    0  501 -0.00000000000E+00 -0.00000000000E+00 -0.22446463032E+02  0.22446463177E+02  0.25500000000E-02 0.  1.
         23    2    1    2    0    0  0.00000000000E+00  0.17763568394E-14  0.68055921994E+02  0.11294884824E+03  0.90143406858E+02 0.  0.
    9000005    2    3    3    0    0 -0.27855477820E+02  0.15782633323E+02  0.73186400022E+02  0.80524459825E+02  0.10144965389E+02 0.  0.
         22    1    3    3    0    0  0.27855477820E+02 -0.15782633323E+02 -0.51304780288E+01  0.32424388413E+02  0.00000000000E+00 0.  1.
         22    1    4    4    0    0 -0.13311797099E+01  0.20340457190E+00  0.11652400746E+02  0.11729955498E+02  0.00000000000E+00 0.  1.
         22    1    4    4    0    0 -0.26524298110E+02  0.15579228751E+02  0.61533999277E+02  0.68794504328E+02  0.00000000000E+00 0.  1.
<mgrwt>
<rscale>  0 0.90143407E+02</rscale>
<asrwt>0</asrwt>
<pdfrwt beam="1">  1        2 0.13923444E-01 0.90143407E+02</pdfrwt>
<pdfrwt beam="2">  1       -2 0.34533020E-02 0.90143407E+02</pdfrwt>
<totfact> 0.12285937E+05</totfact>
</mgrwt>
</event>
<event>
 7    1  0.3056193E-009  0.9179072E+02  0.7818608E-02  0.1298572E+00
         -2   -1    0    0    0  501 -0.00000000000E+00  0.00000000000E+00  0.10090068087E+02  0.10090068409E+02  0.25500000000E-02 0.  1.
          2   -1    0    0  501    0  0.00000000000E+00 -0.00000000000E+00 -0.20875817495E+03  0.20875817497E+03  0.25500000000E-02 0. -1.
         23    2    1    2    0    0  0.35527136788E-14  0.00000000000E+00 -0.19866810687E+03  0.21884824338E+03  0.91790723626E+02 0.  0.
    9000005    2    3    3    0    0  0.27606433860E+02  0.34240534537E+02 -0.78608530879E+02  0.90985695374E+02  0.12828337378E+02 0.  0.
         22    1    3    3    0    0 -0.27606433860E+02 -0.34240534537E+02 -0.12005957599E+03  0.12786254801E+03  0.00000000000E+00 0. -1.
         22    1    4    4    0    0  0.12177246472E+02  0.11873246196E+02 -0.19148619925E+02  0.25611109931E+02  0.00000000000E+00 0.  1.
         22    1    4    4    0    0  0.15429187389E+02  0.22367288340E+02 -0.59459910953E+02  0.65374585442E+02  0.00000000000E+00 0.  1.
<mgrwt>
<rscale>  0 0.91790724E+02</rscale>
<asrwt>0</asrwt>
<pdfrwt beam="2">  1        2 0.32116639E-01 0.91790724E+02</pdfrwt>
<pdfrwt beam="1">  1       -2 0.15523183E-02 0.91790724E+02</pdfrwt>
<totfact> 0.15429006E+05</totfact>
</mgrwt>
</event>
<event>
 7    1  0.3056193E-009  0.9200555E+02  0.7818608E-02  0.1298066E+00
         -2   -1    0    0    0  501 -0.00000000000E+00  0.00000000000E+00  0.14502864965E+03  0.14502864967E+03  0.25500000000E-02 0. -1.
          2   -1    0    0  501    0  0.00000000000E+00 -0.00000000000E+00 -0.14591980323E+02  0.14591980546E+02  0.25500000000E-02 0.  1.
         23    2    1    2    0    0  0.00000000000E+00 -0.17763568394E-14  0.13043666933E+03  0.15962063022E+03  0.92005548127E+02 0.  0.
    9000005    2    3    3    0    0  0.94887944982E+01  0.11983024797E+02  0.14039348352E+03  0.14137869356E+03  0.66313401956E+01 0.  0.
         22    1    3    3    0    0 -0.94887944982E+01 -0.11983024797E+02 -0.99568141919E+01  0.18241936661E+02  0.00000000000E+00 0.  1.
         22    1    4    4    0    0  0.79712518230E+01  0.81795649889E+01  0.12207263498E+03  0.12260576801E+03  0.00000000000E+00 0. -1.
         22    1    4    4    0    0  0.15175426752E+01  0.38034598078E+01  0.18320848545E+02  0.18772925549E+02  0.00000000000E+00 0. -1.
<mgrwt>
<rscale>  0 0.92005548E+02</rscale>
<asrwt>0</asrwt>
<pdfrwt beam="2">  1        2 0.22449200E-02 0.92005548E+02</pdfrwt>
<pdfrwt beam="1">  1       -2 0.22312101E-01 0.92005548E+02</pdfrwt>
<totfact> 0.69109963E+04</totfact>
</mgrwt>
</event>
<event>
 7    1  0.3056193E-009  0.9003837E+02  0.7818608E-02  0.1302759E+00
         -2   -1    0    0    0  501 -0.00000000000E+00  0.00000000000E+00  0.45381304510E+02  0.45381304582E+02  0.25500000000E-02 0.  1.
          2   -1    0    0  501    0  0.00000000000E+00 -0.00000000000E+00 -0.44659953238E+02  0.44659953311E+02  0.25500000000E-02 0. -1.
         23    2    1    2    0    0  0.00000000000E+00  0.00000000000E+00  0.72135127198E+00  0.90041257893E+02  0.90038368350E+02 0.  0.
    9000005    2    3    3    0    0  0.12354152690E+02  0.19186807257E+02  0.37746820034E+02  0.46548223985E+02  0.14871317094E+02 0.  0.
         22    1    3    3    0    0 -0.12354152690E+02 -0.19186807257E+02 -0.37025468762E+02  0.43493033907E+02  0.00000000000E+00 0. -1.
         22    1    4    4    0    0  0.18973511667E+01 -0.23927664648E+01  0.26594092573E+01  0.40494111180E+01  0.00000000000E+00 0.  1.
         22    1    4    4    0    0  0.10456801523E+02  0.21579573722E+02  0.35087410777E+02  0.42498812867E+02  0.00000000000E+00 0.  1.
<mgrwt>
<rscale>  0 0.90038368E+02</rscale>
<asrwt>0</asrwt>
<pdfrwt beam="2">  1        2 0.68707621E-02 0.90038368E+02</pdfrwt>
<pdfrwt beam="1">  1       -2 0.69817391E-02 0.90038368E+02</pdfrwt>
<totfact> 0.10175074E+05</totfact>
</mgrwt>
</event>
<event>
 7    1  0.3056193E-009  0.8256550E+02  0.7818608E-02  0.1321925E+00
         -2   -1    0    0    0  501 -0.00000000000E+00  0.00000000000E+00  0.73363356696E+00  0.73363799865E+00  0.25500000000E-02 0.  1.
          2   -1    0    0  501    0  0.00000000000E+00 -0.00000000000E+00 -0.23230403545E+04  0.23230403545E+04  0.25500000000E-02 0. -1.
         23    2    1    2    0    0  0.00000000000E+00  0.00000000000E+00 -0.23223067209E+04  0.23237739925E+04  0.82565502050E+02 0.  0.
    9000005    2    3    3    0    0  0.59122222267E+01 -0.92503610632E+01 -0.22805473961E+04  0.22805957021E+04  0.99903460853E+01 0.  0.
         22    1    3    3    0    0 -0.59122222267E+01  0.92503610632E+01 -0.41759324786E+02  0.43178290356E+02  0.00000000000E+00 0.  1.
         22    1    4    4    0    0  0.14676949389E+01 -0.66663498384E+01 -0.57436209901E+03  0.57440265940E+03  0.00000000000E+00 0. -1.
         22    1    4    4    0    0  0.44445272878E+01 -0.25840112248E+01 -0.17061852971E+04  0.17061930427E+04  0.00000000000E+00 0. -1.
<mgrwt>
<rscale>  0 0.82565502E+02</rscale>
<asrwt>0</asrwt>
<pdfrwt beam="2">  1        2 0.35738494E+00 0.82565502E+02</pdfrwt>
<pdfrwt beam="1">  1       -2 0.11286890E-03 0.82565502E+02</pdfrwt>
<totfact> 0.21556011E+05</totfact>
</mgrwt>
</event>
<event>
 7    1  0.3056193E-009  0.7895590E+02  0.7818608E-02  0.1332041E+00
         -2   -1    0    0    0  501 -0.00000000000E+00  0.00000000000E+00  0.16916669276E+03  0.16916669278E+03  0.25500000000E-02 0.  1.
          2   -1    0    0  501    0  0.00000000000E+00 -0.00000000000E+00 -0.92128577517E+01  0.92128581046E+01  0.25500000000E-02 0. -1.
         23    2    1    2    0    0  0.35527136788E-14  0.00000000000E+00  0.15995383501E+03  0.17837955089E+03  0.78955904401E+02 0.  0.
    9000005    2    3    3    0    0 -0.19889876222E+02 -0.43944199815E+01  0.15542484053E+03  0.15751259389E+03  0.15440792711E+02 0.  0.
         22    1    3    3    0    0  0.19889876222E+02  0.43944199815E+01  0.45289944854E+01  0.20866956993E+02  0.00000000000E+00 0. -1.
         22    1    4    4    0    0 -0.11295410369E+02  0.10526704724E+01  0.38251198538E+02  0.39897977394E+02  0.00000000000E+00 0.  1.
         22    1    4    4    0    0 -0.85944658531E+01 -0.54470904539E+01  0.11717364199E+03  0.11761461650E+03  0.00000000000E+00 0.  1.
<mgrwt>
<rscale>  0 0.78955904E+02</rscale>
<asrwt>0</asrwt>
<pdfrwt beam="2">  1        2 0.14173627E-02 0.78955904E+02</pdfrwt>
<pdfrwt beam="1">  1       -2 0.26025645E-01 0.78955904E+02</pdfrwt>
<totfact> 0.96163624E+04</totfact>
</mgrwt>
</event>
<event>
 7    1  0.3056193E-009  0.9147237E+02  0.7818608E-02  0.1299325E+00
         -2   -1    0    0    0  501 -0.00000000000E+00  0.00000000000E+00  0.23948749674E+03  0.23948749675E+03  0.25500000000E-02 0. -1.
          2   -1    0    0  501    0  0.00000000000E+00 -0.00000000000E+00 -0.87344789769E+01  0.87344793491E+01  0.25500000000E-02 0.  1.
         23    2    1    2    0    0 -0.88817841970E-15  0.00000000000E+00  0.23075301776E+03  0.24822197610E+03  0.91472368579E+02 0.  0.
    9000005    2    3    3    0    0 -0.77673485393E+01 -0.20004339104E+02  0.22435164616E+03  0.22582816346E+03  0.14289611197E+02 0.  0.
         22    1    3    3    0    0  0.77673485393E+01  0.20004339104E+02  0.64013715959E+01  0.22393812641E+02  0.00000000000E+00 0.  1.
         22    1    4    4    0    0 -0.10900612423E+02 -0.18876383312E+02  0.20812259055E+03  0.20926097079E+03  0.00000000000E+00 0. -1.
         22    1    4    4    0    0  0.31332638838E+01 -0.11279557913E+01  0.16229055615E+02  0.16567192671E+02  0.00000000000E+00 0. -1.
<mgrwt>
<rscale>  0 0.91472369E+02</rscale>
<asrwt>0</asrwt>
<pdfrwt beam="2">  1        2 0.13437659E-02 0.91472369E+02</pdfrwt>
<pdfrwt beam="1">  1       -2 0.36844234E-01 0.91472369E+02</pdfrwt>
<totfact> 0.56902932E+04</totfact>
</mgrwt>
</event>
<event>
 7    1  0.3056193E-009  0.9195297E+02  0.7818608E-02  0.1298190E+00
         -2   -1    0    0    0  501 -0.00000000000E+00  0.00000000000E+00  0.63377728964E+01  0.63377734094E+01  0.25500000000E-02 0.  1.
          2   -1    0    0  501    0  0.00000000000E+00 -0.00000000000E+00 -0.33352991869E+03  0.33352991870E+03  0.25500000000E-02 0. -1.
         23    2    1    2    0    0  0.17763568394E-14  0.00000000000E+00 -0.32719214579E+03  0.33986769211E+03  0.91952965535E+02 0.  0.
    9000005    2    3    3    0    0 -0.10848786341E+02  0.37695810424E+02 -0.24744941767E+03  0.25099940205E+03  0.15192604727E+02 0.  0.
         22    1    3    3    0    0  0.10848786341E+02 -0.37695810424E+02 -0.79742728128E+02  0.88868290058E+02  0.00000000000E+00 0. -1.
         22    1    4    4    0    0 -0.13818899628E+02  0.29696089534E+02 -0.17400272241E+03  0.17705865448E+03  0.00000000000E+00 0.  1.
         22    1    4    4    0    0  0.29701132867E+01  0.79997208898E+01 -0.73446695260E+02  0.73940747574E+02  0.00000000000E+00 0.  1.
<mgrwt>
<rscale>  0 0.91952966E+02</rscale>
<asrwt>0</asrwt>
<pdfrwt beam="2">  1        2 0.51312282E-01 0.91952966E+02</pdfrwt>
<pdfrwt beam="1">  1       -2 0.97504228E-03 0.91952966E+02</pdfrwt>
<totfact> 0.18268364E+05</totfact>
</mgrwt>
</event>
<event>
 7    1  0.3056193E-009  0.9239034E+02  0.7818608E-02  0.1297164E+00
         -2   -1    0    0    0  501 -0.00000000000E+00  0.00000000000E+00  0.18671911196E+03  0.18671911198E+03  0.25500000000E-02 0.  1.
          2   -1    0    0  501    0  0.00000000000E+00 -0.00000000000E+00 -0.11428898575E+02  0.11428898859E+02  0.25500000000E-02 0. -1.
         23    2    1    2    0    0  0.00000000000E+00  0.00000000000E+00  0.17529021338E+03  0.19814801084E+03  0.92390341973E+02 0.  0.
    9000005    2    3    3    0    0 -0.14742237179E+02  0.35343540318E+02  0.14180730382E+03  0.14727950750E+03  0.10744417698E+02 0.  0.
         22    1    3    3    0    0  0.14742237179E+02 -0.35343540318E+02  0.33482909562E+02  0.50868503339E+02  0.00000000000E+00 0. -1.
         22    1    4    4    0    0 -0.49257005119E+01  0.25064996953E+02  0.93104180698E+02  0.96544834462E+02  0.00000000000E+00 0. -1.
         22    1    4    4    0    0 -0.98165366670E+01  0.10278543365E+02  0.48703123125E+02  0.50734673035E+02  0.00000000000E+00 0. -1.
<mgrwt>
<rscale>  0 0.92390342E+02</rscale>
<asrwt>0</asrwt>
<pdfrwt beam="2">  1        2 0.17582921E-02 0.92390342E+02</pdfrwt>
<pdfrwt beam="1">  1       -2 0.28726017E-01 0.92390342E+02</pdfrwt>
<totfact> 0.62032822E+04</totfact>
</mgrwt>
</event>
<event>
 7    1  0.3056193E-009  0.9251094E+02  0.7818608E-02  0.1296883E+00
          2   -1    0    0  501    0  0.00000000000E+00  0.00000000000E+00  0.39472627738E+03  0.39472627739E+03  0.25500000000E-02 0. -1.
         -2   -1    0    0    0  501 -0.00000000000E+00 -0.00000000000E+00 -0.54203847683E+01  0.54203853681E+01  0.25500000000E-02 0.  1.
         23    2    1    2    0    0  0.00000000000E+00  0.00000000000E+00  0.38930589261E+03  0.40014666276E+03  0.92510938233E+02 0.  0.
    9000005    2    3    3    0    0 -0.30425217934E+02  0.34017660434E+02  0.20472923837E+03  0.21001135200E+03  0.10383246842E+02 0.  0.
         22    1    3    3    0    0  0.30425217934E+02 -0.34017660434E+02  0.18457665424E+03  0.19013531076E+03  0.00000000000E+00 0.  1.
         22    1    4    4    0    0 -0.43842993512E+01  0.20917891996E+01  0.12371934233E+02  0.13291441590E+02  0.00000000000E+00 0. -1.
         22    1    4    4    0    0 -0.26040918583E+02  0.31925871234E+02  0.19235730414E+03  0.19671991041E+03  0.00000000000E+00 0. -1.
<mgrwt>
<rscale>  0 0.92510938E+02</rscale>
<asrwt>0</asrwt>
<pdfrwt beam="1">  1        2 0.60727120E-01 0.92510938E+02</pdfrwt>
<pdfrwt beam="2">  1       -2 0.83390540E-03 0.92510938E+02</pdfrwt>
<totfact> 0.19115110E+05</totfact>
</mgrwt>
</event>
<event>
 7    1  0.3056193E-009  0.9285884E+02  0.7818608E-02  0.1296073E+00
          2   -1    0    0  501    0  0.00000000000E+00  0.00000000000E+00  0.40284108797E+03  0.40284108798E+03  0.25500000000E-02 0. -1.
         -2   -1    0    0    0  501 -0.00000000000E+00 -0.00000000000E+00 -0.53512190586E+01  0.53512196662E+01  0.25500000000E-02 0.  1.
         23    2    1    2    0    0  0.00000000000E+00  0.00000000000E+00  0.39748986891E+03  0.40819230764E+03  0.92858839820E+02 0.  0.
    9000005    2    3    3    0    0  0.23257075473E+02 -0.25455270605E+02  0.33539714268E+03  0.33716858617E+03  0.15968159004E+01 0.  0.
         22    1    3    3    0    0 -0.23257075473E+02  0.25455270605E+02  0.62092726228E+02  0.71023721471E+02  0.00000000000E+00 0.  1.
         22    1    4    4    0    0  0.94810842979E+01 -0.92300685669E+01  0.12795904127E+03  0.12864136725E+03  0.00000000000E+00 0.  1.
         22    1    4    4    0    0  0.13775991175E+02 -0.16225202038E+02  0.20743810141E+03  0.20852721892E+03  0.00000000000E+00 0.  1.
<mgrwt>
<rscale>  0 0.92858840E+02</rscale>
<asrwt>0</asrwt>
<pdfrwt beam="1">  1        2 0.61975540E-01 0.92858840E+02</pdfrwt>
<pdfrwt beam="2">  1       -2 0.82326468E-03 0.92858840E+02</pdfrwt>
<totfact> 0.19063704E+05</totfact>
</mgrwt>
</event>
<event>
 7    1  0.3056193E-009  0.9532611E+02  0.7818608E-02  0.1290443E+00
         -2   -1    0    0    0  501 -0.00000000000E+00  0.00000000000E+00  0.33243811785E+01  0.33243821565E+01  0.25500000000E-02 0.  1.
          2   -1    0    0  501    0  0.00000000000E+00 -0.00000000000E+00 -0.68336522479E+03  0.68336522480E+03  0.25500000000E-02 0. -1.
         23    2    1    2    0    0  0.00000000000E+00  0.00000000000E+00 -0.68004084361E+03  0.68668960695E+03  0.95326110353E+02 0.  0.
    9000005    2    3    3    0    0  0.26202528083E+02 -0.91989860185E+01 -0.61759822762E+03  0.61835020314E+03  0.12578121445E+02 0.  0.
         22    1    3    3    0    0 -0.26202528083E+02  0.91989860185E+01 -0.62442615989E+02  0.68339403812E+02  0.00000000000E+00 0.  1.
         22    1    4    4    0    0  0.50967651163E+00  0.16751145603E+01 -0.88168426271E+02  0.88185810480E+02  0.00000000000E+00 0.  1.
         22    1    4    4    0    0  0.25692851572E+02 -0.10874100579E+02 -0.52942980135E+03  0.53016439266E+03  0.00000000000E+00 0.  1.
<mgrwt>
<rscale>  0 0.95326110E+02</rscale>
<asrwt>0</asrwt>
<pdfrwt beam="2">  1        2 0.10513300E+00 0.95326110E+02</pdfrwt>
<pdfrwt beam="1">  1       -2 0.51144388E-03 0.95326110E+02</pdfrwt>
<totfact> 0.20961104E+05</totfact>
</mgrwt>
</event>
<event>
 7    1  0.3056193E-009  0.9483291E+02  0.7818608E-02  0.1291553E+00
          2   -1    0    0  501    0  0.00000000000E+00  0.00000000000E+00  0.10810466001E+04  0.10810466001E+04  0.25500000000E-02 0. -1.
         -2   -1    0    0    0  501 -0.00000000000E+00 -0.00000000000E+00 -0.20797617604E+01  0.20797633237E+01  0.25500000000E-02 0.  1.
         23    2    1    2    0    0  0.00000000000E+00  0.17763568394E-14  0.10789668384E+04  0.10831263635E+04  0.94832910499E+02 0.  0.
    9000005    2    3    3    0    0  0.34859905651E+02  0.94085446063E+01  0.88265712598E+03  0.88352366580E+03  0.15057630977E+02 0.  0.
         22    1    3    3    0    0 -0.34859905651E+02 -0.94085446063E+01  0.19630971238E+03  0.19960269765E+03  0.00000000000E+00 0.  1.
         22    1    4    4    0    0  0.30653381805E+02  0.12554830712E+02  0.80992160597E+03  0.81059870553E+03  0.00000000000E+00 0.  1.
         22    1    4    4    0    0  0.42065238451E+01 -0.31462861060E+01  0.72735520020E+02  0.72924960279E+02  0.00000000000E+00 0.  1.
<mgrwt>
<rscale>  0 0.94832910E+02</rscale>
<asrwt>0</asrwt>
<pdfrwt beam="1">  1        2 0.16631487E+00 0.94832910E+02</pdfrwt>
<pdfrwt beam="2">  1       -2 0.31996346E-03 0.94832910E+02</pdfrwt>
<totfact> 0.22563652E+05</totfact>
</mgrwt>
</event>
<event>
 7    1  0.3056193E-009  0.9247394E+02  0.7818608E-02  0.1296969E+00
          2   -1    0    0  501    0  0.00000000000E+00  0.00000000000E+00  0.30435770659E+03  0.30435770660E+03  0.25500000000E-02 0. -1.
         -2   -1    0    0    0  501 -0.00000000000E+00 -0.00000000000E+00 -0.70241602461E+01  0.70241607090E+01  0.25500000000E-02 0.  1.
         23    2    1    2    0    0  0.00000000000E+00 -0.35527136788E-14  0.29733354634E+03  0.31138186731E+03  0.92473939614E+02 0.  0.
    9000005    2    3    3    0    0  0.16031020392E+02  0.27100989596E+02  0.26085672491E+03  0.26319456863E+03  0.15287013264E+02 0.  0.
         22    1    3    3    0    0 -0.16031020392E+02 -0.27100989596E+02  0.36476821430E+02  0.48187298674E+02  0.00000000000E+00 0.  1.
         22    1    4    4    0    0  0.37819302697E+01  0.15434445133E+02  0.80998223205E+02  0.82542336140E+02  0.00000000000E+00 0. -1.
         22    1    4    4    0    0  0.12249090122E+02  0.11666544463E+02  0.17985850171E+03  0.18065223249E+03  0.00000000000E+00 0. -1.
<mgrwt>
<rscale>  0 0.92473940E+02</rscale>
<asrwt>0</asrwt>
<pdfrwt beam="1">  1        2 0.46824270E-01 0.92473940E+02</pdfrwt>
<pdfrwt beam="2">  1       -2 0.10806399E-02 0.92473940E+02</pdfrwt>
<totfact> 0.17393843E+05</totfact>
</mgrwt>
</event>
<event>
 7    1  0.3056193E-009  0.9473301E+02  0.7818608E-02  0.1291779E+00
         -2   -1    0    0    0  501 -0.00000000000E+00  0.00000000000E+00  0.46101523261E+01  0.46101530314E+01  0.25500000000E-02 0. -1.
          2   -1    0    0  501    0  0.00000000000E+00 -0.00000000000E+00 -0.48666197297E+03  0.48666197298E+03  0.25500000000E-02 0.  1.
         23    2    1    2    0    0  0.00000000000E+00  0.71054273576E-14 -0.48205182065E+03  0.49127212601E+03  0.94733014343E+02 0.  0.
    9000005    2    3    3    0    0  0.23127919857E+02 -0.40656091790E+02 -0.25028807994E+03  0.25483555950E+03  0.10450882719E+02 0.  0.
         22    1    3    3    0    0 -0.23127919857E+02  0.40656091790E+02 -0.23176374071E+03  0.23643656652E+03  0.00000000000E+00 0.  1.
         22    1    4    4    0    0  0.22164928082E+02 -0.39323682754E+02 -0.24762637482E+03  0.25170708685E+03  0.00000000000E+00 0. -1.
         22    1    4    4    0    0  0.96299177523E+00 -0.13324090364E+01 -0.26617051129E+01  0.31284726478E+01  0.00000000000E+00 0. -1.
<mgrwt>
<rscale>  0 0.94733014E+02</rscale>
<asrwt>0</asrwt>
<pdfrwt beam="2">  1        2 0.74871032E-01 0.94733014E+02</pdfrwt>
<pdfrwt beam="1">  1       -2 0.70925464E-03 0.94733014E+02</pdfrwt>
<totfact> 0.19297249E+05</totfact>
</mgrwt>
</event>
<event>
 7    1  0.3056193E-009  0.8969167E+02  0.7818608E-02  0.1303600E+00
         -2   -1    0    0    0  501 -0.00000000000E+00  0.00000000000E+00  0.50122755212E+01  0.50122761699E+01  0.25500000000E-02 0.  1.
          2   -1    0    0  501    0  0.00000000000E+00 -0.00000000000E+00 -0.40124467914E+03  0.40124467915E+03  0.25500000000E-02 0. -1.
         23    2    1    2    0    0  0.00000000000E+00  0.00000000000E+00 -0.39623240362E+03  0.40625695532E+03  0.89691672226E+02 0.  0.
    9000005    2    3    3    0    0  0.16336216379E+02 -0.38411272775E+02 -0.26839910021E+03  0.27178148803E+03  0.92088218975E+01 0.  0.
         22    1    3    3    0    0 -0.16336216379E+02  0.38411272775E+02 -0.12783330341E+03  0.13447546729E+03  0.00000000000E+00 0. -1.
         22    1    4    4    0    0  0.91353490481E+00  0.23263216502E+00 -0.11093711313E+02  0.11133691860E+02  0.00000000000E+00 0.  1.
         22    1    4    4    0    0  0.15422681475E+02 -0.38643904940E+02 -0.25730538889E+03  0.26064779617E+03  0.00000000000E+00 0.  1.
<mgrwt>
<rscale>  0 0.89691672E+02</rscale>
<asrwt>0</asrwt>
<pdfrwt beam="2">  1        2 0.61729925E-01 0.89691672E+02</pdfrwt>
<pdfrwt beam="1">  1       -2 0.77111968E-03 0.89691672E+02</pdfrwt>
<totfact> 0.20874054E+05</totfact>
</mgrwt>
</event>
<event>
 7    1  0.3056193E-009  0.9138509E+02  0.7818608E-02  0.1299532E+00
         -2   -1    0    0    0  501 -0.00000000000E+00  0.00000000000E+00  0.24725127399E+01  0.24725140549E+01  0.25500000000E-02 0.  1.
          2   -1    0    0  501    0  0.00000000000E+00 -0.00000000000E+00 -0.84440751409E+03  0.84440751409E+03  0.25500000000E-02 0. -1.
         23    2    1    2    0    0 -0.17763568394E-14  0.35527136788E-14 -0.84193500135E+03  0.84688002815E+03  0.91385094949E+02 0.  0.
    9000005    2    3    3    0    0 -0.10927979952E+02  0.27595480851E+02 -0.73954667106E+03  0.74027655030E+03  0.14112439319E+02 0.  0.
         22    1    3    3    0    0  0.10927979952E+02 -0.27595480851E+02 -0.10238833029E+03  0.10660347785E+03  0.00000000000E+00 0.  1.
         22    1    4    4    0    0  0.23946414823E+01  0.79908042306E+01 -0.27387982972E+03  0.27400684004E+03  0.00000000000E+00 0.  1.
         22    1    4    4    0    0 -0.13322621434E+02  0.19604676620E+02 -0.46566684134E+03  0.46626971026E+03  0.00000000000E+00 0.  1.
<mgrwt>
<rscale>  0 0.91385095E+02</rscale>
<asrwt>0</asrwt>
<pdfrwt beam="2">  1        2 0.12990862E+00 0.91385095E+02</pdfrwt>
<pdfrwt beam="1">  1       -2 0.38038735E-03 0.91385095E+02</pdfrwt>
<totfact> 0.24441048E+05</totfact>
</mgrwt>
</event>
<event>
 7    1  0.3056193E-009  0.8528115E+02  0.7818608E-02  0.1314699E+00
         -2   -1    0    0    0  501 -0.00000000000E+00  0.00000000000E+00  0.12054635116E+02  0.12054635386E+02  0.25500000000E-02 0.  1.
          2   -1    0    0  501    0  0.00000000000E+00 -0.00000000000E+00 -0.15083149272E+03  0.15083149274E+03  0.25500000000E-02 0. -1.
         23    2    1    2    0    0  0.00000000000E+00  0.00000000000E+00 -0.13877685760E+03  0.16288612812E+03  0.85281149908E+02 0.  0.
    9000005    2    3    3    0    0  0.15489889733E+02 -0.20047221825E+02 -0.13432461216E+03  0.13716356456E+03  0.11354039938E+02 0.  0.
         22    1    3    3    0    0 -0.15489889733E+02  0.20047221825E+02 -0.44522454358E+01  0.25722563563E+02  0.00000000000E+00 0.  1.
         22    1    4    4    0    0  0.74971628509E+01 -0.17548738267E+02 -0.83431765508E+02  0.85586360838E+02  0.00000000000E+00 0. -1.
         22    1    4    4    0    0  0.79927268823E+01 -0.24984835581E+01 -0.50892846656E+02  0.51577203723E+02  0.00000000000E+00 0. -1.
<mgrwt>
<rscale>  0 0.85281150E+02</rscale>
<asrwt>0</asrwt>
<pdfrwt beam="2">  1        2 0.23204844E-01 0.85281150E+02</pdfrwt>
<pdfrwt beam="1">  1       -2 0.18545594E-02 0.85281150E+02</pdfrwt>
<totfact> 0.16778099E+05</totfact>
</mgrwt>
</event>
<event>
 7    1  0.3056193E-009  0.9012114E+02  0.7818608E-02  0.1302559E+00
         -2   -1    0    0    0  501 -0.00000000000E+00  0.00000000000E+00  0.36645765360E+02  0.36645765448E+02  0.25500000000E-02 0.  1.
          2   -1    0    0  501    0  0.00000000000E+00 -0.00000000000E+00 -0.55407625373E+02  0.55407625432E+02  0.25500000000E-02 0. -1.
         23    2    1    2    0    0  0.00000000000E+00  0.00000000000E+00 -0.18761860013E+02  0.92053390880E+02  0.90121137262E+02 0.  0.
    9000005    2    3    3    0    0  0.30027999797E+02  0.11671736705E+02  0.22449413519E+02  0.39743934033E+02  0.61395370778E+01 0.  0.
         22    1    3    3    0    0 -0.30027999797E+02 -0.11671736705E+02 -0.41211273532E+02  0.52309456847E+02  0.00000000000E+00 0. -1.
         22    1    4    4    0    0  0.18807136952E+02  0.63034167255E+01  0.17156682244E+02  0.26225811872E+02  0.00000000000E+00 0.  1.
         22    1    4    4    0    0  0.11220862845E+02  0.53683199795E+01  0.52927312748E+01  0.13518122160E+02  0.00000000000E+00 0.  1.
<mgrwt>
<rscale>  0 0.90121137E+02</rscale>
<asrwt>0</asrwt>
<pdfrwt beam="2">  1        2 0.85242500E-02 0.90121137E+02</pdfrwt>
<pdfrwt beam="1">  1       -2 0.56378101E-02 0.90121137E+02</pdfrwt>
<totfact> 0.10732088E+05</totfact>
</mgrwt>
</event>
<event>
 7    1  0.3056193E-009  0.8782917E+02  0.7818608E-02  0.1308195E+00
          2   -1    0    0  501    0  0.00000000000E+00  0.00000000000E+00  0.34131326726E+03  0.34131326727E+03  0.25500000000E-02 0. -1.
         -2   -1    0    0    0  501 -0.00000000000E+00 -0.00000000000E+00 -0.56502076413E+01  0.56502082167E+01  0.25500000000E-02 0.  1.
         23    2    1    2    0    0 -0.71054273576E-14  0.00000000000E+00  0.33566305962E+03  0.34696347549E+03  0.87829173564E+02 0.  0.
    9000005    2    3    3    0    0 -0.41363742064E+02 -0.76688335508E+01  0.21586474593E+03  0.21999337614E+03  0.54522329668E+01 0.  0.
         22    1    3    3    0    0  0.41363742064E+02  0.76688335508E+01  0.11979831370E+03  0.12697009935E+03  0.00000000000E+00 0.  1.
         22    1    4    4    0    0 -0.35027236097E+02 -0.48757418633E+01  0.17366841561E+03  0.17723261186E+03  0.00000000000E+00 0.  1.
         22    1    4    4    0    0 -0.63365059671E+01 -0.27930916875E+01  0.42196330318E+02  0.42760764274E+02  0.00000000000E+00 0.  1.
<mgrwt>
<rscale>  0 0.87829174E+02</rscale>
<asrwt>0</asrwt>
<pdfrwt beam="1">  1        2 0.52509735E-01 0.87829174E+02</pdfrwt>
<pdfrwt beam="2">  1       -2 0.86926273E-03 0.87829174E+02</pdfrwt>
<totfact> 0.20812887E+05</totfact>
</mgrwt>
</event>
<event>
 7    1  0.3056193E-009  0.9156185E+02  0.7818608E-02  0.1299113E+00
          2   -1    0    0  501    0  0.00000000000E+00  0.00000000000E+00  0.37737481266E+03  0.37737481267E+03  0.25500000000E-02 0. -1.
         -2   -1    0    0    0  501 -0.00000000000E+00 -0.00000000000E+00 -0.55538760922E+01  0.55538766776E+01  0.25500000000E-02 0.  1.
         23    2    1    2    0    0  0.00000000000E+00  0.00000000000E+00  0.37182093656E+03  0.38292868934E+03  0.91561849338E+02 0.  0.
    9000005    2    3    3    0    0 -0.13205665417E+02  0.45916511760E+01  0.36814434931E+03  0.36847219760E+03  0.67842182916E+01 0.  0.
         22    1    3    3    0    0  0.13205665417E+02 -0.45916511760E+01  0.36765872566E+01  0.14456491742E+02  0.00000000000E+00 0.  1.
         22    1    4    4    0    0 -0.13115040683E+02  0.52965692501E+01  0.36337604957E+03  0.36365122210E+03  0.00000000000E+00 0. -1.
         22    1    4    4    0    0 -0.90624733809E-01 -0.70491807411E+00  0.47682997406E+01  0.48209754977E+01  0.00000000000E+00 0. -1.
<mgrwt>
<rscale>  0 0.91561849E+02</rscale>
<asrwt>0</asrwt>
<pdfrwt beam="1">  1        2 0.58057652E-01 0.91561849E+02</pdfrwt>
<pdfrwt beam="2">  1       -2 0.85444269E-03 0.91561849E+02</pdfrwt>
<totfact> 0.19330248E+05</totfact>
</mgrwt>
</event>
<event>
 7    1  0.3056193E-009  0.8798849E+02  0.7818608E-02  0.1307797E+00
         -2   -1    0    0    0  501 -0.00000000000E+00  0.00000000000E+00  0.23939540509E+02  0.23939540644E+02  0.25500000000E-02 0.  1.
          2   -1    0    0  501    0  0.00000000000E+00 -0.00000000000E+00 -0.80849232399E+02  0.80849232439E+02  0.25500000000E-02 0. -1.
         23    2    1    2    0    0  0.17763568394E-14 -0.35527136788E-14 -0.56909691891E+02  0.10478877308E+03  0.87988487504E+02 0.  0.
    9000005    2    3    3    0    0  0.15585545221E+02 -0.22667974854E+02 -0.69062499191E+02  0.74714913519E+02  0.74795189526E+01 0.  0.
         22    1    3    3    0    0 -0.15585545221E+02  0.22667974854E+02  0.12152807301E+02  0.30073859565E+02  0.00000000000E+00 0.  1.
         22    1    4    4    0    0  0.14269350092E+02 -0.20581540200E+02 -0.66901128147E+02  0.71435111090E+02  0.00000000000E+00 0.  1.
         22    1    4    4    0    0  0.13161951288E+01 -0.20864346544E+01 -0.21613710445E+01  0.32798024294E+01  0.00000000000E+00 0.  1.
<mgrwt>
<rscale>  0 0.87988488E+02</rscale>
<asrwt>0</asrwt>
<pdfrwt beam="2">  1        2 0.12438343E-01 0.87988488E+02</pdfrwt>
<pdfrwt beam="1">  1       -2 0.36830063E-02 0.87988488E+02</pdfrwt>
<totfact> 0.12713156E+05</totfact>
</mgrwt>
</event>
<event>
 7    1  0.3056193E-009  0.9011438E+02  0.7818608E-02  0.1302575E+00
         -2   -1    0    0    0  501 -0.00000000000E+00  0.00000000000E+00  0.20775266171E+02  0.20775266328E+02  0.25500000000E-02 0.  1.
          2   -1    0    0  501    0  0.00000000000E+00 -0.00000000000E+00 -0.97719576676E+02  0.97719576709E+02  0.25500000000E-02 0. -1.
         23    2    1    2    0    0  0.00000000000E+00  0.00000000000E+00 -0.76944310505E+02  0.11849484304E+03  0.90114376807E+02 0.  0.
    9000005    2    3    3    0    0  0.75199177446E+01 -0.32890033679E+02 -0.77542184503E+02  0.84750792722E+02  0.56216555639E+01 0.  0.
         22    1    3    3    0    0 -0.75199177446E+01  0.32890033679E+02  0.59787399831E+00  0.33744050314E+02  0.00000000000E+00 0.  1.
         22    1    4    4    0    0  0.38817760923E+01 -0.17967781103E+02 -0.35235530644E+02  0.39742319549E+02  0.00000000000E+00 0. -1.
         22    1    4    4    0    0  0.36381416523E+01 -0.14922252576E+02 -0.42306653859E+02  0.45008473174E+02  0.00000000000E+00 0. -1.
<mgrwt>
<rscale>  0 0.90114377E+02</rscale>
<asrwt>0</asrwt>
<pdfrwt beam="2">  1        2 0.15033781E-01 0.90114377E+02</pdfrwt>
<pdfrwt beam="1">  1       -2 0.31961949E-02 0.90114377E+02</pdfrwt>
<totfact> 0.12581268E+05</totfact>
</mgrwt>
</event>
<event>
 7    1  0.3056193E-009  0.8915084E+02  0.7818608E-02  0.1304921E+00
         -2   -1    0    0    0  501 -0.00000000000E+00  0.00000000000E+00  0.24620233167E+01  0.24620246373E+01  0.25500000000E-02 0.  1.
          2   -1    0    0  501    0  0.00000000000E+00 -0.00000000000E+00 -0.80704658524E+03  0.80704658525E+03  0.25500000000E-02 0. -1.
         23    2    1    2    0    0 -0.35527136788E-14 -0.35527136788E-14 -0.80458456193E+03  0.80950860989E+03  0.89150839518E+02 0.  0.
    9000005    2    3    3    0    0  0.24244637868E+02  0.17597463468E+02 -0.70107444717E+03  0.70175046846E+03  0.71320632999E+01 0.  0.
         22    1    3    3    0    0 -0.24244637868E+02 -0.17597463468E+02 -0.10351011476E+03  0.10775814143E+03  0.00000000000E+00 0.  1.
         22    1    4    4    0    0  0.20654242304E+02  0.17221253156E+02 -0.64464681329E+03  0.64520747296E+03  0.00000000000E+00 0. -1.
         22    1    4    4    0    0  0.35903955639E+01  0.37621031181E+00 -0.56427633880E+02  0.56542995498E+02  0.00000000000E+00 0. -1.
<mgrwt>
<rscale>  0 0.89150840E+02</rscale>
<asrwt>0</asrwt>
<pdfrwt beam="2">  1        2 0.12416080E+00 0.89150840E+02</pdfrwt>
<pdfrwt beam="1">  1       -2 0.37877356E-03 0.89150840E+02</pdfrwt>
<totfact> 0.25898293E+05</totfact>
</mgrwt>
</event>
<event>
 7    1  0.3056193E-009  0.9157090E+02  0.7818608E-02  0.1299092E+00
          2   -1    0    0  501    0  0.00000000000E+00  0.00000000000E+00  0.38036539530E+02  0.38036539615E+02  0.25500000000E-02 0. -1.
         -2   -1    0    0    0  501 -0.00000000000E+00 -0.00000000000E+00 -0.55112991568E+02  0.55112991627E+02  0.25500000000E-02 0.  1.
         23    2    1    2    0    0  0.00000000000E+00  0.00000000000E+00 -0.17076452038E+02  0.93149531242E+02  0.91570901254E+02 0.  0.
    9000005    2    3    3    0    0  0.43492165530E+02 -0.61793258065E+01  0.15840422006E+01  0.45421483145E+02  0.11438942762E+02 0.  0.
         22    1    3    3    0    0 -0.43492165530E+02  0.61793258065E+01 -0.18660494239E+02  0.47728048097E+02  0.00000000000E+00 0.  1.
         22    1    4    4    0    0  0.41396244880E+02 -0.35893937297E+01  0.32839180904E+01  0.41681134288E+02  0.00000000000E+00 0.  1.
         22    1    4    4    0    0  0.20959206503E+01 -0.25899320768E+01 -0.16998758898E+01  0.37403488575E+01  0.00000000000E+00 0.  1.
<mgrwt>
<rscale>  0 0.91570901E+02</rscale>
<asrwt>0</asrwt>
<pdfrwt beam="1">  1        2 0.58517754E-02 0.91570901E+02</pdfrwt>
<pdfrwt beam="2">  1       -2 0.84789217E-02 0.91570901E+02</pdfrwt>
<totfact> 0.92977925E+04</totfact>
</mgrwt>
</event>
<event>
 7    1  0.3056193E-009  0.9079002E+02  0.7818608E-02  0.1300950E+00
         -2   -1    0    0    0  501 -0.00000000000E+00  0.00000000000E+00  0.26059367155E+03  0.26059367156E+03  0.25500000000E-02 0.  1.
          2   -1    0    0  501    0  0.00000000000E+00 -0.00000000000E+00 -0.79077388049E+01  0.79077392161E+01  0.25500000000E-02 0. -1.
         23    2    1    2    0    0  0.33306690739E-15  0.00000000000E+00  0.25268593274E+03  0.26850141078E+03  0.90790015876E+02 0.  0.
    9000005    2    3    3    0    0 -0.44075236033E+00 -0.44094463674E+02  0.14755806713E+03  0.15449972606E+03  0.12339618666E+02 0.  0.
         22    1    3    3    0    0  0.44075236033E+00  0.44094463674E+02  0.10512786561E+03  0.11400168472E+03  0.00000000000E+00 0.  1.
         22    1    4    4    0    0 -0.53564870876E+01 -0.11966244250E+02  0.48822578657E+02  0.50552221930E+02  0.00000000000E+00 0. -1.
         22    1    4    4    0    0  0.49157347273E+01 -0.32128219424E+02  0.98735488471E+02  0.10394750413E+03  0.00000000000E+00 0. -1.
<mgrwt>
<rscale>  0 0.90790016E+02</rscale>
<asrwt>0</asrwt>
<pdfrwt beam="2">  1        2 0.12165755E-02 0.90790016E+02</pdfrwt>
<pdfrwt beam="1">  1       -2 0.40091326E-01 0.90790016E+02</pdfrwt>
<totfact> 0.55613592E+04</totfact>
</mgrwt>
</event>
<event>
 7    1  0.3056193E-009  0.8996939E+02  0.7818608E-02  0.1302926E+00
          2   -1    0    0  501    0  0.00000000000E+00  0.00000000000E+00  0.12237666656E+02  0.12237666922E+02  0.25500000000E-02 0. -1.
         -2   -1    0    0    0  501 -0.00000000000E+00 -0.00000000000E+00 -0.16536016790E+03  0.16536016792E+03  0.25500000000E-02 0.  1.
         23    2    1    2    0    0  0.00000000000E+00  0.00000000000E+00 -0.15312250124E+03  0.17759783484E+03  0.89969386755E+02 0.  0.
    9000005    2    3    3    0    0  0.42900453897E+02 -0.32725901877E+01 -0.53101567684E+02  0.68715577603E+02  0.71340958575E+01 0.  0.
         22    1    3    3    0    0 -0.42900453897E+02  0.32725901877E+01 -0.10002093356E+03  0.10888225724E+03  0.00000000000E+00 0.  1.
         22    1    4    4    0    0  0.12939472134E+02 -0.40709331319E+01 -0.14699195563E+02  0.20001719573E+02  0.00000000000E+00 0.  1.
         22    1    4    4    0    0  0.29960981763E+02  0.79834294425E+00 -0.38402372121E+02  0.48713858030E+02  0.00000000000E+00 0.  1.
<mgrwt>
<rscale>  0 0.89969387E+02</rscale>
<asrwt>0</asrwt>
<pdfrwt beam="1">  1        2 0.18827181E-02 0.89969387E+02</pdfrwt>
<pdfrwt beam="2">  1       -2 0.25440024E-01 0.89969387E+02</pdfrwt>
<totfact> 0.69670547E+04</totfact>
</mgrwt>
</event>
<event>
 7    1  0.3056193E-009  0.9193576E+02  0.7818608E-02  0.1298231E+00
          2   -1    0    0  501    0  0.00000000000E+00  0.00000000000E+00  0.34110841488E+03  0.34110841489E+03  0.25500000000E-02 0. -1.
         -2   -1    0    0    0  501 -0.00000000000E+00 -0.00000000000E+00 -0.61946462758E+01  0.61946468006E+01  0.25500000000E-02 0.  1.
         23    2    1    2    0    0  0.00000000000E+00  0.00000000000E+00  0.33491376860E+03  0.34730306169E+03  0.91935761587E+02 0.  0.
    9000005    2    3    3    0    0  0.34316681002E+02 -0.29683142020E+02  0.18371945602E+03  0.18944729311E+03  0.88721379814E+01 0.  0.
         22    1    3    3    0    0 -0.34316681002E+02  0.29683142020E+02  0.15119431258E+03  0.15785576857E+03  0.00000000000E+00 0. -1.
         22    1    4    4    0    0  0.28967804475E+01 -0.73796602530E+00  0.21073150863E+02  0.21284116569E+02  0.00000000000E+00 0. -1.
         22    1    4    4    0    0  0.31419900555E+02 -0.28945175995E+02  0.16264630516E+03  0.16816317655E+03  0.00000000000E+00 0. -1.
<mgrwt>
<rscale>  0 0.91935762E+02</rscale>
<asrwt>0</asrwt>
<pdfrwt beam="1">  1        2 0.52478217E-01 0.91935762E+02</pdfrwt>
<pdfrwt beam="2">  1       -2 0.95302256E-03 0.91935762E+02</pdfrwt>
<totfact> 0.18429462E+05</totfact>
</mgrwt>
</event>
<event>
 7    1  0.3056193E-009  0.9215431E+02  0.7818608E-02  0.1297717E+00
          2   -1    0    0  501    0  0.00000000000E+00  0.00000000000E+00  0.10091606361E+03  0.10091606364E+03  0.25500000000E-02 0. -1.
         -2   -1    0    0    0  501 -0.00000000000E+00 -0.00000000000E+00 -0.21038317727E+02  0.21038317882E+02  0.25500000000E-02 0.  1.
         23    2    1    2    0    0  0.00000000000E+00 -0.35527136788E-14  0.79877745883E+02  0.12195438152E+03  0.92154310185E+02 0.  0.
    9000005    2    3    3    0    0 -0.18177588814E+02  0.17145154933E+02 -0.88185991076E+01  0.29805465701E+02  0.13646135814E+02 0.  0.
         22    1    3    3    0    0  0.18177588814E+02 -0.17145154933E+02  0.88696344990E+02  0.92148915823E+02  0.00000000000E+00 0. -1.
         22    1    4    4    0    0 -0.12325226259E+02  0.18689141595E+02 -0.75058282381E+01  0.23612129795E+02  0.00000000000E+00 0. -1.
         22    1    4    4    0    0 -0.58523625547E+01 -0.15439866627E+01 -0.13127708695E+01  0.61933359058E+01  0.00000000000E+00 0. -1.
<mgrwt>
<rscale>  0 0.92154310E+02</rscale>
<asrwt>0</asrwt>
<pdfrwt beam="1">  1        2 0.15525549E-01 0.92154310E+02</pdfrwt>
<pdfrwt beam="2">  1       -2 0.32366642E-02 0.92154310E+02</pdfrwt>
<totfact> 0.11945415E+05</totfact>
</mgrwt>
</event>
<event>
 7    1  0.3056193E-009  0.9550981E+02  0.7818608E-02  0.1290032E+00
          2   -1    0    0  501    0  0.00000000000E+00  0.00000000000E+00  0.10055699935E+03  0.10055699939E+03  0.25500000000E-02 0. -1.
         -2   -1    0    0    0  501 -0.00000000000E+00 -0.00000000000E+00 -0.22678989370E+02  0.22678989513E+02  0.25500000000E-02 0.  1.
         23    2    1    2    0    0  0.00000000000E+00  0.17763568394E-14  0.77878009985E+02  0.12323598890E+03  0.95509813742E+02 0.  0.
    9000005    2    3    3    0    0 -0.20756371685E+02  0.13730649173E+02  0.90848442522E+02  0.95171958319E+02  0.13597957545E+02 0.  0.
         22    1    3    3    0    0  0.20756371685E+02 -0.13730649173E+02 -0.12970432537E+02  0.28064030581E+02  0.00000000000E+00 0.  1.
         22    1    4    4    0    0 -0.18764640466E+02  0.16114729964E+02  0.73574572729E+02  0.77620963701E+02  0.00000000000E+00 0.  1.
         22    1    4    4    0    0 -0.19917312198E+01 -0.23840807907E+01  0.17273869792E+02  0.17550994618E+02  0.00000000000E+00 0.  1.
<mgrwt>
<rscale>  0 0.95509814E+02</rscale>
<asrwt>0</asrwt>
<pdfrwt beam="1">  1        2 0.15470308E-01 0.95509814E+02</pdfrwt>
<pdfrwt beam="2">  1       -2 0.34890753E-02 0.95509814E+02</pdfrwt>
<totfact> 0.10808415E+05</totfact>
</mgrwt>
</event>
<event>
 7    1  0.3056193E-009  0.9142985E+02  0.7818608E-02  0.1299426E+00
          2   -1    0    0  501    0  0.00000000000E+00  0.00000000000E+00  0.26013921866E+02  0.26013921991E+02  0.25500000000E-02 0. -1.
         -2   -1    0    0    0  501 -0.00000000000E+00 -0.00000000000E+00 -0.80336005814E+02  0.80336005854E+02  0.25500000000E-02 0.  1.
         23    2    1    2    0    0  0.00000000000E+00  0.00000000000E+00 -0.54322083947E+02  0.10634992785E+03  0.91429854798E+02 0.  0.
    9000005    2    3    3    0    0  0.44624500895E+02 -0.64197758087E+01 -0.24070283934E+02  0.52056917194E+02  0.98987098887E+01 0.  0.
         22    1    3    3    0    0 -0.44624500895E+02  0.64197758087E+01 -0.30251800013E+02  0.54293010651E+02  0.00000000000E+00 0. -1.
         22    1    4    4    0    0  0.43576534437E+02 -0.78166427809E+01 -0.23875978656E+02  0.50299866945E+02  0.00000000000E+00 0.  1.
         22    1    4    4    0    0  0.10479664584E+01  0.13968669721E+01 -0.19430527801E+00  0.17570502488E+01  0.00000000000E+00 0.  1.
<mgrwt>
<rscale>  0 0.91429855E+02</rscale>
<asrwt>0</asrwt>
<pdfrwt beam="1">  1        2 0.40021419E-02 0.91429855E+02</pdfrwt>
<pdfrwt beam="2">  1       -2 0.12359385E-01 0.91429855E+02</pdfrwt>
<totfact> 0.84402851E+04</totfact>
</mgrwt>
</event>
<event>
 7    1  0.3056193E-009  0.9299089E+02  0.7818608E-02  0.1295766E+00
         -2   -1    0    0    0  501 -0.00000000000E+00  0.00000000000E+00  0.69892569646E+01  0.69892574298E+01  0.25500000000E-02 0.  1.
          2   -1    0    0  501    0  0.00000000000E+00 -0.00000000000E+00 -0.30930700401E+03  0.30930700403E+03  0.25500000000E-02 0. -1.
         23    2    1    2    0    0 -0.35527136788E-14  0.71054273576E-14 -0.30231774705E+03  0.31629626146E+03  0.92990885731E+02 0.  0.
    9000005    2    3    3    0    0 -0.27315971858E+02  0.36042951904E+02 -0.12560968097E+03  0.13389286972E+03  0.10210382293E+02 0.  0.
         22    1    3    3    0    0  0.27315971858E+02 -0.36042951904E+02 -0.17670806608E+03  0.18240339174E+03  0.00000000000E+00 0.  1.
         22    1    4    4    0    0 -0.24409134226E+02  0.26242007530E+02 -0.90936134594E+02  0.97743692214E+02  0.00000000000E+00 0. -1.
         22    1    4    4    0    0 -0.29068376320E+01  0.98009443746E+01 -0.34673546377E+02  0.36149177501E+02  0.00000000000E+00 0. -1.
<mgrwt>
<rscale>  0 0.92990886E+02</rscale>
<asrwt>0</asrwt>
<pdfrwt beam="2">  1        2 0.47585682E-01 0.92990886E+02</pdfrwt>
<pdfrwt beam="1">  1       -2 0.10752706E-02 0.92990886E+02</pdfrwt>
<totfact> 0.17239856E+05</totfact>
</mgrwt>
</event>
<event>
 7    1  0.3056193E-009  0.7276395E+02  0.7818608E-02  0.1350939E+00
          2   -1    0    0  501    0  0.00000000000E+00  0.00000000000E+00  0.54410194204E+01  0.54410200179E+01  0.25500000000E-02 0. -1.
         -2   -1    0    0    0  501 -0.00000000000E+00 -0.00000000000E+00 -0.24327205647E+03  0.24327205648E+03  0.25500000000E-02 0.  1.
         23    2    1    2    0    0  0.00000000000E+00  0.00000000000E+00 -0.23783103705E+03  0.24871307650E+03  0.72763948756E+02 0.  0.
    9000005    2    3    3    0    0  0.34637974676E+02 -0.93318514970E+01 -0.10290652427E+03  0.10910112540E+03  0.51410197164E+01 0.  0.
         22    1    3    3    0    0 -0.34637974676E+02  0.93318514970E+01 -0.13492451278E+03  0.13961195110E+03  0.00000000000E+00 0. -1.
         22    1    4    4    0    0  0.20175327951E+02 -0.77375342277E+01 -0.57874443365E+02  0.61776730964E+02  0.00000000000E+00 0. -1.
         22    1    4    4    0    0  0.14462646726E+02 -0.15943172693E+01 -0.45032080903E+02  0.47324394432E+02  0.00000000000E+00 0. -1.
<mgrwt>
<rscale>  0 0.72763949E+02</rscale>
<asrwt>0</asrwt>
<pdfrwt beam="1">  1        2 0.83708015E-03 0.72763949E+02</pdfrwt>
<pdfrwt beam="2">  1       -2 0.37426462E-01 0.72763949E+02</pdfrwt>
<totfact> 0.10123185E+05</totfact>
</mgrwt>
</event>
<event>
 7    1  0.3056193E-009  0.8695839E+02  0.7818608E-02  0.1310389E+00
         -2   -1    0    0    0  501 -0.00000000000E+00  0.00000000000E+00  0.19601783943E+03  0.19601783944E+03  0.25500000000E-02 0.  1.
          2   -1    0    0  501    0  0.00000000000E+00 -0.00000000000E+00 -0.96442254595E+01  0.96442257966E+01  0.25500000000E-02 0. -1.
         23    2    1    2    0    0  0.00000000000E+00 -0.35527136788E-14  0.18637361397E+03  0.20566206524E+03  0.86958387149E+02 0.  0.
    9000005    2    3    3    0    0 -0.25231129371E+02 -0.20785867570E+02  0.32791741957E+02  0.48639603184E+02  0.14894645928E+02 0.  0.
         22    1    3    3    0    0  0.25231129371E+02  0.20785867570E+02  0.15358187201E+03  0.15702246206E+03  0.00000000000E+00 0.  1.
         22    1    4    4    0    0 -0.15957596768E+02 -0.40095899864E+01  0.18301300881E+02  0.24610146697E+02  0.00000000000E+00 0. -1.
         22    1    4    4    0    0 -0.92735326031E+01 -0.16776277584E+02  0.14490441075E+02  0.24029456487E+02  0.00000000000E+00 0. -1.
<mgrwt>
<rscale>  0 0.86958387E+02</rscale>
<asrwt>0</asrwt>
<pdfrwt beam="2">  1        2 0.14837271E-02 0.86958387E+02</pdfrwt>
<pdfrwt beam="1">  1       -2 0.30156589E-01 0.86958387E+02</pdfrwt>
<totfact> 0.70927407E+04</totfact>
</mgrwt>
</event>
<event>
 7    1  0.3056193E-009  0.8730743E+02  0.7818608E-02  0.1309506E+00
          2   -1    0    0  501    0  0.00000000000E+00  0.00000000000E+00  0.10324729752E+03  0.10324729755E+03  0.25500000000E-02 0. -1.
         -2   -1    0    0    0  501 -0.00000000000E+00 -0.00000000000E+00 -0.18457109130E+02  0.18457109306E+02  0.25500000000E-02 0.  1.
         23    2    1    2    0    0  0.00000000000E+00  0.00000000000E+00  0.84790188387E+02  0.12170440685E+03  0.87307425807E+02 0.  0.
    9000005    2    3    3    0    0  0.16475680210E+01 -0.36973497969E+02  0.14067690333E+02  0.41883195616E+02  0.13658262381E+02 0.  0.
         22    1    3    3    0    0 -0.16475680210E+01  0.36973497969E+02  0.70722498054E+02  0.79821211238E+02  0.00000000000E+00 0. -1.
         22    1    4    4    0    0  0.18528696246E+01 -0.22193868595E+02  0.15347069088E+02  0.27046875210E+02  0.00000000000E+00 0.  1.
         22    1    4    4    0    0 -0.20530160360E+00 -0.14779629374E+02 -0.12793787550E+01  0.14836320406E+02  0.00000000000E+00 0.  1.
<mgrwt>
<rscale>  0 0.87307426E+02</rscale>
<asrwt>0</asrwt>
<pdfrwt beam="1">  1        2 0.15884199E-01 0.87307426E+02</pdfrwt>
<pdfrwt beam="2">  1       -2 0.28395553E-02 0.87307426E+02</pdfrwt>
<totfact> 0.13950313E+05</totfact>
</mgrwt>
</event>
<event>
 7    1  0.3056193E-009  0.9311044E+02  0.7818608E-02  0.1295489E+00
         -2   -1    0    0    0  501 -0.00000000000E+00  0.00000000000E+00  0.36239681814E+02  0.36239681904E+02  0.25500000000E-02 0.  1.
          2   -1    0    0  501    0  0.00000000000E+00 -0.00000000000E+00 -0.59807050240E+02  0.59807050294E+02  0.25500000000E-02 0. -1.
         23    2    1    2    0    0  0.00000000000E+00  0.00000000000E+00 -0.23567368425E+02  0.96046732198E+02  0.93110439326E+02 0.  0.
    9000005    2    3    3    0    0 -0.28461953789E+02  0.27979042358E+02  0.11505780338E+02  0.42914487855E+02  0.10787059929E+02 0.  0.
         22    1    3    3    0    0  0.28461953789E+02 -0.27979042358E+02 -0.35073148763E+02  0.53132244343E+02  0.00000000000E+00 0.  1.
         22    1    4    4    0    0 -0.24570434821E+02  0.19478039108E+02  0.55848188020E+01  0.31847927339E+02  0.00000000000E+00 0.  1.
         22    1    4    4    0    0 -0.38915189689E+01  0.85010032501E+01  0.59209615359E+01  0.11066560516E+02  0.00000000000E+00 0.  1.
<mgrwt>
<rscale>  0 0.93110439E+02</rscale>
<asrwt>0</asrwt>
<pdfrwt beam="2">  1        2 0.92010847E-02 0.93110439E+02</pdfrwt>
<pdfrwt beam="1">  1       -2 0.55753357E-02 0.93110439E+02</pdfrwt>
<totfact> 0.99868885E+04</totfact>
</mgrwt>
</event>
<event>
 7    1  0.3056193E-009  0.9162097E+02  0.7818608E-02  0.1298973E+00
          2   -1    0    0  501    0  0.00000000000E+00  0.00000000000E+00  0.77029495879E+03  0.77029495879E+03  0.25500000000E-02 0. -1.
         -2   -1    0    0    0  501 -0.00000000000E+00 -0.00000000000E+00 -0.27244112179E+01  0.27244124113E+01  0.25500000000E-02 0.  1.
         23    2    1    2    0    0  0.00000000000E+00  0.71054273576E-14  0.76757054757E+03  0.77301937120E+03  0.91620973357E+02 0.  0.
    9000005    2    3    3    0    0  0.20250662173E+01  0.38649076373E+02  0.58194080681E+03  0.58339803102E+03  0.14153019881E+02 0.  0.
         22    1    3    3    0    0 -0.20250662173E+01 -0.38649076373E+02  0.18562974076E+03  0.18962134018E+03  0.00000000000E+00 0.  1.
         22    1    4    4    0    0  0.17949861323E+01  0.28541218905E+02  0.50301697317E+03  0.50382923541E+03  0.00000000000E+00 0.  1.
         22    1    4    4    0    0  0.23008008498E+00  0.10107857468E+02  0.78923833631E+02  0.79568795607E+02  0.00000000000E+00 0.  1.
<mgrwt>
<rscale>  0 0.91620973E+02</rscale>
<asrwt>0</asrwt>
<pdfrwt beam="1">  1        2 0.11850712E+00 0.91620973E+02</pdfrwt>
<pdfrwt beam="2">  1       -2 0.41913957E-03 0.91620973E+02</pdfrwt>
<totfact> 0.23896165E+05</totfact>
</mgrwt>
</event>
<event>
 7    1  0.3056193E-009  0.8912457E+02  0.7818608E-02  0.1304986E+00
          2   -1    0    0  501    0  0.00000000000E+00  0.00000000000E+00  0.56152873410E+02  0.56152873467E+02  0.25500000000E-02 0. -1.
         -2   -1    0    0    0  501 -0.00000000000E+00 -0.00000000000E+00 -0.35364125841E+02  0.35364125933E+02  0.25500000000E-02 0.  1.
         23    2    1    2    0    0  0.00000000000E+00  0.00000000000E+00  0.20788747568E+02  0.91516999401E+02  0.89124570988E+02 0.  0.
    9000005    2    3    3    0    0  0.28244442164E+02 -0.32973916153E+02  0.11865100601E+02  0.47192523828E+02  0.14188940529E+02 0.  0.
         22    1    3    3    0    0 -0.28244442164E+02  0.32973916153E+02  0.89236469670E+01  0.44324475573E+02  0.00000000000E+00 0.  1.
         22    1    4    4    0    0  0.10922048680E+01  0.78558068166E+00 -0.13421488881E+01  0.19003715739E+01  0.00000000000E+00 0. -1.
         22    1    4    4    0    0  0.27152237296E+02 -0.33759496835E+02  0.13207249489E+02  0.45292152254E+02  0.00000000000E+00 0. -1.
<mgrwt>
<rscale>  0 0.89124571E+02</rscale>
<asrwt>0</asrwt>
<pdfrwt beam="1">  1        2 0.86389036E-02 0.89124571E+02</pdfrwt>
<pdfrwt beam="2">  1       -2 0.54406348E-02 0.89124571E+02</pdfrwt>
<totfact> 0.11112899E+05</totfact>
</mgrwt>
</event>
<event>
 7    1  0.3056193E-009  0.9163419E+02  0.7818608E-02  0.1298942E+00
         -2   -1    0    0    0  501 -0.00000000000E+00  0.00000000000E+00  0.11181238908E+02  0.11181239198E+02  0.25500000000E-02 0.  1.
          2   -1    0    0  501    0  0.00000000000E+00 -0.00000000000E+00 -0.18774361945E+03  0.18774361947E+03  0.25500000000E-02 0. -1.
         23    2    1    2    0    0  0.35527136788E-14  0.00000000000E+00 -0.17656238055E+03  0.19892485867E+03  0.91634192159E+02 0.  0.
    9000005    2    3    3    0    0  0.30762671487E+02 -0.54895326755E+01 -0.16014243248E+03  0.16362483572E+03  0.12288663743E+02 0.  0.
         22    1    3    3    0    0 -0.30762671487E+02  0.54895326755E+01 -0.16419948067E+02  0.35300022954E+02  0.00000000000E+00 0.  1.
         22    1    4    4    0    0  0.18282701534E+02 -0.15560505878E+01 -0.63410845648E+02  0.66012224736E+02  0.00000000000E+00 0.  1.
         22    1    4    4    0    0  0.12479969953E+02 -0.39334820877E+01 -0.96731586832E+02  0.97612610981E+02  0.00000000000E+00 0.  1.
<mgrwt>
<rscale>  0 0.91634192E+02</rscale>
<asrwt>0</asrwt>
<pdfrwt beam="2">  1        2 0.28883632E-01 0.91634192E+02</pdfrwt>
<pdfrwt beam="1">  1       -2 0.17201908E-02 0.91634192E+02</pdfrwt>
<totfact> 0.14917124E+05</totfact>
</mgrwt>
</event>
<event>
 7    1  0.3056193E-009  0.1048798E+03  0.7818608E-02  0.1270357E+00
         -2   -1    0    0    0  501 -0.00000000000E+00  0.00000000000E+00  0.47160327677E+02  0.47160327746E+02  0.25500000000E-02 0.  1.
          2   -1    0    0  501    0  0.00000000000E+00 -0.00000000000E+00 -0.58310519081E+02  0.58310519136E+02  0.25500000000E-02 0. -1.
         23    2    1    2    0    0  0.71054273576E-14  0.00000000000E+00 -0.11150191404E+02  0.10547084688E+03  0.10487980155E+03 0.  0.
    9000005    2    3    3    0    0  0.33907595955E+02 -0.49126238035E+01 -0.45430347466E+02  0.57004487046E+02  0.34258045006E+01 0.  0.
         22    1    3    3    0    0 -0.33907595955E+02  0.49126238035E+01  0.34280156062E+02  0.48466359835E+02  0.00000000000E+00 0.  1.
         22    1    4    4    0    0  0.30871096935E+02 -0.34684811109E+01 -0.41268484865E+02  0.51654068864E+02  0.00000000000E+00 0.  1.
         22    1    4    4    0    0  0.30364990201E+01 -0.14441426926E+01 -0.41618626008E+01  0.53504181822E+01  0.00000000000E+00 0.  1.
<mgrwt>
<rscale>  0 0.10487980E+03</rscale>
<asrwt>0</asrwt>
<pdfrwt beam="2">  1        2 0.89708491E-02 0.10487980E+03</pdfrwt>
<pdfrwt beam="1">  1       -2 0.72554351E-02 0.10487980E+03</pdfrwt>
<totfact> 0.70480186E+04</totfact>
</mgrwt>
</event>
<event>
 7    1  0.3056193E-009  0.9156246E+02  0.7818608E-02  0.1299111E+00
          2   -1    0    0  501    0  0.00000000000E+00  0.00000000000E+00  0.15583604201E+03  0.15583604203E+03  0.25500000000E-02 0. -1.
         -2   -1    0    0    0  501 -0.00000000000E+00 -0.00000000000E+00 -0.13449525725E+02  0.13449525966E+02  0.25500000000E-02 0.  1.
         23    2    1    2    0    0  0.00000000000E+00  0.00000000000E+00  0.14238651629E+03  0.16928556800E+03  0.91562456894E+02 0.  0.
    9000005    2    3    3    0    0 -0.41461599185E+02 -0.15663058743E+02  0.78719215764E+02  0.91710309237E+02  0.15800957999E+02 0.  0.
         22    1    3    3    0    0  0.41461599185E+02  0.15663058743E+02  0.63667300525E+02  0.77575258764E+02  0.00000000000E+00 0. -1.
         22    1    4    4    0    0 -0.30138032998E+02 -0.73916489337E+01  0.40650213863E+02  0.51140760593E+02  0.00000000000E+00 0. -1.
         22    1    4    4    0    0 -0.11323566187E+02 -0.82714098093E+01  0.38069001901E+02  0.40569548644E+02  0.00000000000E+00 0. -1.
<mgrwt>
<rscale>  0 0.91562457E+02</rscale>
<asrwt>0</asrwt>
<pdfrwt beam="1">  1        2 0.23974776E-01 0.91562457E+02</pdfrwt>
<pdfrwt beam="2">  1       -2 0.20691578E-02 0.91562457E+02</pdfrwt>
<totfact> 0.14003170E+05</totfact>
</mgrwt>
</event>
<event>
 7    1  0.3056193E-009  0.9327349E+02  0.7818608E-02  0.1295113E+00
          2   -1    0    0  501    0  0.00000000000E+00  0.00000000000E+00  0.52442660175E+02  0.52442660237E+02  0.25500000000E-02 0. -1.
         -2   -1    0    0    0  501 -0.00000000000E+00 -0.00000000000E+00 -0.41473600639E+02  0.41473600718E+02  0.25500000000E-02 0.  1.
         23    2    1    2    0    0  0.00000000000E+00  0.00000000000E+00  0.10969059535E+02  0.93916260954E+02  0.93273489291E+02 0.  0.
    9000005    2    3    3    0    0 -0.32363163777E+02 -0.14802189700E+02 -0.23758932984E+02  0.44191894150E+02  0.11043433455E+02 0.  0.
         22    1    3    3    0    0  0.32363163777E+02  0.14802189700E+02  0.34727992519E+02  0.49724366804E+02  0.00000000000E+00 0. -1.
         22    1    4    4    0    0 -0.25373816520E+02 -0.75270865237E+01 -0.20848512397E+02  0.33691958470E+02  0.00000000000E+00 0. -1.
         22    1    4    4    0    0 -0.69893472571E+01 -0.72751031766E+01 -0.29104205867E+01  0.10499935681E+02  0.00000000000E+00 0. -1.
<mgrwt>
<rscale>  0 0.93273489E+02</rscale>
<asrwt>0</asrwt>
<pdfrwt beam="1">  1        2 0.80681016E-02 0.93273489E+02</pdfrwt>
<pdfrwt beam="2">  1       -2 0.63805540E-02 0.93273489E+02</pdfrwt>
<totfact> 0.95922001E+04</totfact>
</mgrwt>
</event>
<event>
 7    1  0.3056193E-009  0.9163739E+02  0.7818608E-02  0.1298934E+00
         -2   -1    0    0    0  501 -0.00000000000E+00  0.00000000000E+00  0.19912247379E+02  0.19912247543E+02  0.25500000000E-02 0. -1.
          2   -1    0    0  501    0  0.00000000000E+00 -0.00000000000E+00 -0.10543022121E+03  0.10543022124E+03  0.25500000000E-02 0.  1.
         23    2    1    2    0    0  0.00000000000E+00  0.00000000000E+00 -0.85517973833E+02  0.12534246879E+03  0.91637386654E+02 0.  0.
    9000005    2    3    3    0    0  0.28337593369E+02 -0.13105124090E+02  0.25540931059E+01  0.31900227533E+02  0.60280718102E+01 0.  0.
         22    1    3    3    0    0 -0.28337593369E+02  0.13105124090E+02 -0.88072066939E+02  0.93442241252E+02  0.00000000000E+00 0.  1.
         22    1    4    4    0    0  0.12103192415E+02 -0.30770891977E+01  0.28782479285E+01  0.12815617648E+02  0.00000000000E+00 0. -1.
         22    1    4    4    0    0  0.16234400954E+02 -0.10028034892E+02 -0.32415482261E+00  0.19084609885E+02  0.00000000000E+00 0. -1.
<mgrwt>
<rscale>  0 0.91637387E+02</rscale>
<asrwt>0</asrwt>
<pdfrwt beam="2">  1        2 0.16220034E-01 0.91637387E+02</pdfrwt>
<pdfrwt beam="1">  1       -2 0.30634228E-02 0.91637387E+02</pdfrwt>
<totfact> 0.12296626E+05</totfact>
</mgrwt>
</event>
<event>
 7    1  0.3056193E-009  0.9075394E+02  0.7818608E-02  0.1301036E+00
          2   -1    0    0  501    0  0.00000000000E+00  0.00000000000E+00  0.67205817125E+03  0.67205817125E+03  0.25500000000E-02 0.  1.
         -2   -1    0    0    0  501 -0.00000000000E+00 -0.00000000000E+00 -0.30638256784E+01  0.30638267396E+01  0.25500000000E-02 0. -1.
         23    2    1    2    0    0  0.00000000000E+00  0.00000000000E+00  0.66899434557E+03  0.67512199799E+03  0.90753940792E+02 0.  0.
    9000005    2    3    3    0    0 -0.19260566648E+02  0.14520031125E+02  0.61842664543E+03  0.61909617333E+03  0.15708447593E+02 0.  0.
         22    1    3    3    0    0  0.19260566648E+02 -0.14520031125E+02  0.50567700144E+02  0.56025824664E+02  0.00000000000E+00 0. -1.
         22    1    4    4    0    0 -0.12015769136E+02  0.15062291457E+02  0.31897705853E+03  0.31955846914E+03  0.00000000000E+00 0. -1.
         22    1    4    4    0    0 -0.72447975123E+01 -0.54226033203E+00  0.29944958689E+03  0.29953770418E+03  0.00000000000E+00 0. -1.
<mgrwt>
<rscale>  0 0.90753941E+02</rscale>
<asrwt>0</asrwt>
<pdfrwt beam="1">  1        2 0.10339352E+00 0.90753941E+02</pdfrwt>
<pdfrwt beam="2">  1       -2 0.47135810E-03 0.90753941E+02</pdfrwt>
<totfact> 0.23772976E+05</totfact>
</mgrwt>
</event>
<event>
 7    1  0.3056193E-009  0.9120716E+02  0.7818608E-02  0.1299954E+00
          2   -1    0    0  501    0  0.00000000000E+00  0.00000000000E+00  0.31571239886E+03  0.31571239887E+03  0.25500000000E-02 0.  1.
         -2   -1    0    0    0  501 -0.00000000000E+00 -0.00000000000E+00 -0.65872813952E+01  0.65872818888E+01  0.25500000000E-02 0. -1.
         23    2    1    2    0    0  0.00000000000E+00  0.00000000000E+00  0.30912511747E+03  0.32229968076E+03  0.91207159642E+02 0.  0.
    9000005    2    3    3    0    0  0.41737287119E+02  0.21406942700E+01  0.10569449261E+03  0.11462059458E+03  0.14831426952E+02 0.  0.
         22    1    3    3    0    0 -0.41737287119E+02 -0.21406942700E+01  0.20343062486E+03  0.20767908618E+03  0.00000000000E+00 0.  1.
         22    1    4    4    0    0  0.22512573158E+02  0.73171303416E+01  0.46695553911E+02  0.52352947402E+02  0.00000000000E+00 0. -1.
         22    1    4    4    0    0  0.19224713961E+02 -0.51764360716E+01  0.58998938699E+02  0.62267647177E+02  0.00000000000E+00 0. -1.
<mgrwt>
<rscale>  0 0.91207160E+02</rscale>
<asrwt>0</asrwt>
<pdfrwt beam="1">  1        2 0.48571133E-01 0.91207160E+02</pdfrwt>
<pdfrwt beam="2">  1       -2 0.10134281E-02 0.91207160E+02</pdfrwt>
<totfact> 0.18293973E+05</totfact>
</mgrwt>
</event>
<event>
 7    1  0.3056193E-009  0.9020359E+02  0.7818608E-02  0.1302359E+00
          2   -1    0    0  501    0  0.00000000000E+00  0.00000000000E+00  0.11090873106E+04  0.11090873106E+04  0.25500000000E-02 0. -1.
         -2   -1    0    0    0  501 -0.00000000000E+00 -0.00000000000E+00 -0.18340944870E+01  0.18340962596E+01  0.25500000000E-02 0.  1.
         23    2    1    2    0    0  0.00000000000E+00  0.00000000000E+00  0.11072532161E+04  0.11109214069E+04  0.90203589912E+02 0.  0.
    9000005    2    3    3    0    0  0.19144788358E+02 -0.16442084598E+01  0.10551908374E+04  0.10554262033E+04  0.11293401288E+02 0.  0.
         22    1    3    3    0    0 -0.19144788358E+02  0.16442084598E+01  0.52062378754E+02  0.55495203615E+02  0.00000000000E+00 0.  1.
         22    1    4    4    0    0  0.20399081151E+02 -0.27455543827E+01  0.99046347974E+03  0.99067732652E+03  0.00000000000E+00 0. -1.
         22    1    4    4    0    0 -0.12542927929E+01  0.11013459229E+01  0.64727357638E+02  0.64748876747E+02  0.00000000000E+00 0. -1.
<mgrwt>
<rscale>  0 0.90203590E+02</rscale>
<asrwt>0</asrwt>
<pdfrwt beam="1">  1        2 0.17062890E+00 0.90203590E+02</pdfrwt>
<pdfrwt beam="2">  1       -2 0.28216838E-03 0.90203590E+02</pdfrwt>
<totfact> 0.25728309E+05</totfact>
</mgrwt>
</event>
<event>
 7    1  0.3056193E-009  0.9135457E+02  0.7818608E-02  0.1299604E+00
         -2   -1    0    0    0  501 -0.00000000000E+00  0.00000000000E+00  0.67127262644E+02  0.67127262692E+02  0.25500000000E-02 0.  1.
          2   -1    0    0  501    0  0.00000000000E+00 -0.00000000000E+00 -0.31081474694E+02  0.31081474799E+02  0.25500000000E-02 0. -1.
         23    2    1    2    0    0  0.00000000000E+00  0.35527136788E-14  0.36045787950E+02  0.98208737491E+02  0.91354569074E+02 0.  0.
    9000005    2    3    3    0    0 -0.15293133371E+02  0.31133040099E+02 -0.13549319075E+02  0.37687495313E+02  0.57980291041E+01 0.  0.
         22    1    3    3    0    0  0.15293133371E+02 -0.31133040099E+02  0.49595107024E+02  0.60521242178E+02  0.00000000000E+00 0.  1.
         22    1    4    4    0    0 -0.14951794097E+02  0.25835458197E+02 -0.11806457172E+02  0.32100147631E+02  0.00000000000E+00 0.  1.
         22    1    4    4    0    0 -0.34133927314E+00  0.52975819023E+01 -0.17428619025E+01  0.55873476822E+01  0.00000000000E+00 0.  1.
<mgrwt>
<rscale>  0 0.91354569E+02</rscale>
<asrwt>0</asrwt>
<pdfrwt beam="2">  1        2 0.47817654E-02 0.91354569E+02</pdfrwt>
<pdfrwt beam="1">  1       -2 0.10327271E-01 0.91354569E+02</pdfrwt>
<totfact> 0.88790250E+04</totfact>
</mgrwt>
</event>
<event>
 7    1  0.3056193E-009  0.9044252E+02  0.7818608E-02  0.1301784E+00
          2   -1    0    0  501    0  0.00000000000E+00  0.00000000000E+00  0.28616852458E+02  0.28616852571E+02  0.25500000000E-02 0. -1.
         -2   -1    0    0    0  501 -0.00000000000E+00 -0.00000000000E+00 -0.71460072312E+02  0.71460072358E+02  0.25500000000E-02 0.  1.
         23    2    1    2    0    0 -0.88817841970E-15 -0.17763568394E-14 -0.42843219855E+02  0.10007692493E+03  0.90442519955E+02 0.  0.
    9000005    2    3    3    0    0  0.69106105924E+01  0.15943329584E+02  0.24406646631E+02  0.30618370097E+02  0.63129937926E+01 0.  0.
         22    1    3    3    0    0 -0.69106105924E+01 -0.15943329584E+02 -0.67249866486E+02  0.69458554832E+02  0.00000000000E+00 0.  1.
         22    1    4    4    0    0  0.20137874447E+01  0.12617945289E+01  0.10467649706E+01  0.25967637954E+01  0.00000000000E+00 0. -1.
         22    1    4    4    0    0  0.48968231477E+01  0.14681535055E+02  0.23359881661E+02  0.28021606302E+02  0.00000000000E+00 0. -1.
<mgrwt>
<rscale>  0 0.90442520E+02</rscale>
<asrwt>0</asrwt>
<pdfrwt beam="1">  1        2 0.44025927E-02 0.90442520E+02</pdfrwt>
<pdfrwt beam="2">  1       -2 0.10993857E-01 0.90442520E+02</pdfrwt>
<totfact> 0.89480587E+04</totfact>
</mgrwt>
</event>
<event>
 7    1  0.3056193E-009  0.9031854E+02  0.7818608E-02  0.1302082E+00
         -2   -1    0    0    0  501 -0.00000000000E+00  0.00000000000E+00  0.12038515233E+03  0.12038515236E+03  0.25500000000E-02 0.  1.
          2   -1    0    0  501    0  0.00000000000E+00 -0.00000000000E+00 -0.16940293377E+02  0.16940293568E+02  0.25500000000E-02 0. -1.
         23    2    1    2    0    0  0.00000000000E+00  0.17763568394E-14  0.10344485895E+03  0.13732544592E+03  0.90318543249E+02 0.  0.
    9000005    2    3    3    0    0  0.41387948090E+02  0.10442470762E+02  0.68485031097E+02  0.82151203687E+02  0.15382241063E+02 0.  0.
         22    1    3    3    0    0 -0.41387948090E+02 -0.10442470762E+02  0.34959827855E+02  0.55174242237E+02  0.00000000000E+00 0.  1.
         22    1    4    4    0    0 -0.14734824504E+00  0.21202668286E+01  0.82023880139E+01  0.84732763474E+01  0.00000000000E+00 0. -1.
         22    1    4    4    0    0  0.41535296335E+02  0.83222039336E+01  0.60282643083E+02  0.73677927340E+02  0.00000000000E+00 0. -1.
<mgrwt>
<rscale>  0 0.90318543E+02</rscale>
<asrwt>0</asrwt>
<pdfrwt beam="2">  1        2 0.26061991E-02 0.90318543E+02</pdfrwt>
<pdfrwt beam="1">  1       -2 0.18520792E-01 0.90318543E+02</pdfrwt>
<totfact> 0.77147179E+04</totfact>
</mgrwt>
</event>
<event>
 7    1  0.3056193E-009  0.9041259E+02  0.7818608E-02  0.1301856E+00
          2   -1    0    0  501    0  0.00000000000E+00  0.00000000000E+00  0.13706007372E+02  0.13706007609E+02  0.25500000000E-02 0. -1.
         -2   -1    0    0    0  501 -0.00000000000E+00 -0.00000000000E+00 -0.14910315094E+03  0.14910315096E+03  0.25500000000E-02 0.  1.
         23    2    1    2    0    0  0.00000000000E+00 -0.88817841970E-15 -0.13539714356E+03  0.16280915857E+03  0.90412585562E+02 0.  0.
    9000005    2    3    3    0    0 -0.35091798859E+02 -0.47424545700E+01 -0.11663618217E+03  0.12273549022E+03  0.14355359467E+02 0.  0.
         22    1    3    3    0    0  0.35091798859E+02  0.47424545700E+01 -0.18760961394E+02  0.40073668349E+02  0.00000000000E+00 0. -1.
         22    1    4    4    0    0 -0.24960915956E+02 -0.97106189442E+01 -0.86737601198E+02  0.90778603796E+02  0.00000000000E+00 0.  1.
         22    1    4    4    0    0 -0.10130882903E+02  0.49681643742E+01 -0.29898580971E+02  0.31956886421E+02  0.00000000000E+00 0.  1.
<mgrwt>
<rscale>  0 0.90412586E+02</rscale>
<asrwt>0</asrwt>
<pdfrwt beam="1">  1        2 0.21086166E-02 0.90412586E+02</pdfrwt>
<pdfrwt beam="2">  1       -2 0.22938945E-01 0.90412586E+02</pdfrwt>
<totfact> 0.71515560E+04</totfact>
</mgrwt>
</event>
<event>
 7    1  0.3056193E-009  0.7926395E+02  0.7818608E-02  0.1331153E+00
          2   -1    0    0  501    0  0.00000000000E+00  0.00000000000E+00  0.41082320913E+03  0.41082320914E+03  0.25500000000E-02 0. -1.
         -2   -1    0    0    0  501 -0.00000000000E+00 -0.00000000000E+00 -0.38232825351E+01  0.38232833855E+01  0.25500000000E-02 0.  1.
         23    2    1    2    0    0  0.17763568394E-14  0.00000000000E+00  0.40699992659E+03  0.41464649252E+03  0.79263948386E+02 0.  0.
    9000005    2    3    3    0    0 -0.14515203263E+02  0.98164519515E+01  0.38919916755E+03  0.38966808430E+03  0.76269290539E+01 0.  0.
         22    1    3    3    0    0  0.14515203263E+02 -0.98164519515E+01  0.17800759042E+02  0.24978408219E+02  0.00000000000E+00 0.  1.
         22    1    4    4    0    0 -0.12434636746E+01  0.42433230165E+01  0.12369062215E+03  0.12376963278E+03  0.00000000000E+00 0.  1.
         22    1    4    4    0    0 -0.13271739589E+02  0.55731289350E+01  0.26550854541E+03  0.26589845152E+03  0.00000000000E+00 0.  1.
<mgrwt>
<rscale>  0 0.79263948E+02</rscale>
<asrwt>0</asrwt>
<pdfrwt beam="1">  1        2 0.63203583E-01 0.79263948E+02</pdfrwt>
<pdfrwt beam="2">  1       -2 0.58819727E-03 0.79263948E+02</pdfrwt>
<totfact> 0.29139686E+05</totfact>
</mgrwt>
</event>
<event>
 7    1  0.3056193E-009  0.9063667E+02  0.7818608E-02  0.1301317E+00
         -2   -1    0    0    0  501 -0.00000000000E+00  0.00000000000E+00  0.26919155567E+01  0.26919167644E+01  0.25500000000E-02 0.  1.
          2   -1    0    0  501    0  0.00000000000E+00 -0.00000000000E+00 -0.76293301220E+03  0.76293301220E+03  0.25500000000E-02 0. -1.
         23    2    1    2    0    0  0.00000000000E+00 -0.44408920985E-15 -0.76024109664E+03  0.76562492897E+03  0.90636674878E+02 0.  0.
    9000005    2    3    3    0    0  0.38062985760E+02  0.35366755426E+01 -0.58392220892E+03  0.58520971584E+03  0.66307231291E+01 0.  0.
         22    1    3    3    0    0 -0.38062985760E+02 -0.35366755426E+01 -0.17631888772E+03  0.18041521312E+03  0.00000000000E+00 0.  1.
         22    1    4    4    0    0  0.10149130973E+02 -0.10684911116E+01 -0.18911944021E+03  0.18939458598E+03  0.00000000000E+00 0. -1.
         22    1    4    4    0    0  0.27913854787E+02  0.46051666542E+01 -0.39480276871E+03  0.39581512986E+03  0.00000000000E+00 0. -1.
<mgrwt>
<rscale>  0 0.90636675E+02</rscale>
<asrwt>0</asrwt>
<pdfrwt beam="2">  1        2 0.11737414E+00 0.90636675E+02</pdfrwt>
<pdfrwt beam="1">  1       -2 0.41414156E-03 0.90636675E+02</pdfrwt>
<totfact> 0.24540156E+05</totfact>
</mgrwt>
</event>
<event>
 7    1  0.3056193E-009  0.9024301E+02  0.7818608E-02  0.1302264E+00
         -2   -1    0    0    0  501 -0.00000000000E+00  0.00000000000E+00  0.10403826061E+03  0.10403826064E+03  0.25500000000E-02 0.  1.
          2   -1    0    0  501    0  0.00000000000E+00 -0.00000000000E+00 -0.19569243729E+02  0.19569243896E+02  0.25500000000E-02 0. -1.
         23    2    1    2    0    0  0.00000000000E+00  0.35527136788E-14  0.84469016879E+02  0.12360750454E+03  0.90243007291E+02 0.  0.
    9000005    2    3    3    0    0  0.21525477200E+02 -0.31672770221E+02  0.74071341424E+02  0.83925995025E+02  0.95130688169E+01 0.  0.
         22    1    3    3    0    0 -0.21525477200E+02  0.31672770221E+02  0.10397675455E+02  0.39681509511E+02  0.00000000000E+00 0. -1.
         22    1    4    4    0    0  0.20294828444E+02 -0.23710920122E+02  0.55312399422E+02  0.63510230077E+02  0.00000000000E+00 0. -1.
         22    1    4    4    0    0  0.12306487566E+01 -0.79618500996E+01  0.18758942002E+02  0.20415764948E+02  0.00000000000E+00 0. -1.
<mgrwt>
<rscale>  0 0.90243007E+02</rscale>
<asrwt>0</asrwt>
<pdfrwt beam="2">  1        2 0.30106529E-02 0.90243007E+02</pdfrwt>
<pdfrwt beam="1">  1       -2 0.16005886E-01 0.90243007E+02</pdfrwt>
<totfact> 0.80910737E+04</totfact>
</mgrwt>
</event>
<event>
 7    1  0.3056193E-009  0.8121333E+02  0.7818608E-02  0.1325643E+00
         -2   -1    0    0    0  501 -0.00000000000E+00  0.00000000000E+00  0.67694308826E+02  0.67694308874E+02  0.25500000000E-02 0.  1.
          2   -1    0    0  501    0  0.00000000000E+00 -0.00000000000E+00 -0.24358048004E+02  0.24358048137E+02  0.25500000000E-02 0. -1.
         23    2    1    2    0    0  0.00000000000E+00  0.00000000000E+00  0.43336260822E+02  0.92052357011E+02  0.81213329751E+02 0.  0.
    9000005    2    3    3    0    0  0.11394719246E+02 -0.16822783406E+02 -0.16919179059E+02  0.28463335133E+02  0.10538366032E+02 0.  0.
         22    1    3    3    0    0 -0.11394719246E+02  0.16822783406E+02  0.60255439881E+02  0.63589021878E+02  0.00000000000E+00 0.  1.
         22    1    4    4    0    0  0.11494392863E+02 -0.84555209526E+01 -0.85834893974E+01  0.16652122751E+02  0.00000000000E+00 0.  1.
         22    1    4    4    0    0 -0.99673617220E-01 -0.83672624539E+01 -0.83356896612E+01  0.11811212382E+02  0.00000000000E+00 0.  1.
<mgrwt>
<rscale>  0 0.81213330E+02</rscale>
<asrwt>0</asrwt>
<pdfrwt beam="2">  1        2 0.37473920E-02 0.81213330E+02</pdfrwt>
<pdfrwt beam="1">  1       -2 0.10414509E-01 0.81213330E+02</pdfrwt>
<totfact> 0.11798825E+05</totfact>
</mgrwt>
</event>
<event>
 7    1  0.3056193E-009  0.8872102E+02  0.7818608E-02  0.1305979E+00
         -2   -1    0    0    0  501 -0.00000000000E+00  0.00000000000E+00  0.88611556845E+01  0.88611560515E+01  0.25500000000E-02 0.  1.
          2   -1    0    0  501    0  0.00000000000E+00 -0.00000000000E+00 -0.22207654608E+03  0.22207654609E+03  0.25500000000E-02 0. -1.
         23    2    1    2    0    0  0.00000000000E+00  0.00000000000E+00 -0.21321539039E+03  0.23093770214E+03  0.88721021020E+02 0.  0.
    9000005    2    3    3    0    0 -0.20847656393E+02 -0.25491974790E+02 -0.18371170537E+03  0.18672307803E+03  0.55723982712E+01 0.  0.
         22    1    3    3    0    0  0.20847656393E+02  0.25491974790E+02 -0.29503685023E+02  0.44214624115E+02  0.00000000000E+00 0.  1.
         22    1    4    4    0    0 -0.15305521638E+01 -0.47119097518E+01 -0.23186874693E+02  0.23710247605E+02  0.00000000000E+00 0. -1.
         22    1    4    4    0    0 -0.19317104229E+02 -0.20780065038E+02 -0.16052483068E+03  0.16301283042E+03  0.00000000000E+00 0. -1.
<mgrwt>
<rscale>  0 0.88721021E+02</rscale>
<asrwt>0</asrwt>
<pdfrwt beam="2">  1        2 0.34165618E-01 0.88721021E+02</pdfrwt>
<pdfrwt beam="1">  1       -2 0.13632549E-02 0.88721021E+02</pdfrwt>
<totfact> 0.17288929E+05</totfact>
</mgrwt>
</event>
<event>
 7    1  0.3056193E-009  0.9299200E+02  0.7818608E-02  0.1295764E+00
          2   -1    0    0  501    0  0.00000000000E+00  0.00000000000E+00  0.49087771703E+03  0.49087771704E+03  0.25500000000E-02 0.  1.
         -2   -1    0    0    0  501 -0.00000000000E+00 -0.00000000000E+00 -0.44041070883E+01  0.44041078265E+01  0.25500000000E-02 0. -1.
         23    2    1    2    0    0  0.00000000000E+00  0.00000000000E+00  0.48647360994E+03  0.49528182487E+03  0.92992004334E+02 0.  0.
    9000005    2    3    3    0    0 -0.29962071180E+02  0.34986749093E+02  0.25785728283E+03  0.26207114041E+03  0.83130021861E+01 0.  0.
         22    1    3    3    0    0  0.29962071180E+02 -0.34986749093E+02  0.22861632711E+03  0.23321068445E+03  0.00000000000E+00 0. -1.
         22    1    4    4    0    0 -0.29751368704E+02  0.33326291047E+02  0.25344215808E+03  0.25734939888E+03  0.00000000000E+00 0. -1.
         22    1    4    4    0    0 -0.21070247582E+00  0.16604580461E+01  0.44151247568E+01  0.47217415298E+01  0.00000000000E+00 0. -1.
<mgrwt>
<rscale>  0 0.92992004E+02</rscale>
<asrwt>0</asrwt>
<pdfrwt beam="1">  1        2 0.75519627E-01 0.92992004E+02</pdfrwt>
<pdfrwt beam="2">  1       -2 0.67755519E-03 0.92992004E+02</pdfrwt>
<totfact> 0.20329749E+05</totfact>
</mgrwt>
</event>
<event>
 7    1  0.3056193E-009  0.8989153E+02  0.7818608E-02  0.1303115E+00
          2   -1    0    0  501    0  0.00000000000E+00  0.00000000000E+00  0.11256852406E+03  0.11256852409E+03  0.25500000000E-02 0.  1.
         -2   -1    0    0    0  501 -0.00000000000E+00 -0.00000000000E+00 -0.17945707065E+02  0.17945707246E+02  0.25500000000E-02 0. -1.
         23    2    1    2    0    0  0.00000000000E+00  0.00000000000E+00  0.94622816993E+02  0.13051423133E+03  0.89891529549E+02 0.  0.
    9000005    2    3    3    0    0 -0.31984005065E+02  0.19552150086E+02  0.13660734222E+02  0.41294715533E+02  0.10647756500E+02 0.  0.
         22    1    3    3    0    0  0.31984005065E+02 -0.19552150086E+02  0.80962082771E+02  0.89219515800E+02  0.00000000000E+00 0.  1.
         22    1    4    4    0    0 -0.26586681092E+02  0.15249372635E+02  0.64657647892E+01  0.31324129542E+02  0.00000000000E+00 0.  1.
         22    1    4    4    0    0 -0.53973239733E+01  0.43027774510E+01  0.71949694333E+01  0.99705859914E+01  0.00000000000E+00 0.  1.
<mgrwt>
<rscale>  0 0.89891530E+02</rscale>
<asrwt>0</asrwt>
<pdfrwt beam="1">  1        2 0.17318235E-01 0.89891530E+02</pdfrwt>
<pdfrwt beam="2">  1       -2 0.27608780E-02 0.89891530E+02</pdfrwt>
<totfact> 0.13229510E+05</totfact>
</mgrwt>
</event>
<event>
 7    1  0.3056193E-009  0.9269345E+02  0.7818608E-02  0.1296457E+00
          2   -1    0    0  501    0  0.00000000000E+00  0.00000000000E+00  0.22202781901E+02  0.22202782048E+02  0.25500000000E-02 0. -1.
         -2   -1    0    0    0  501 -0.00000000000E+00 -0.00000000000E+00 -0.96745479753E+02  0.96745479787E+02  0.25500000000E-02 0.  1.
         23    2    1    2    0    0 -0.17763568394E-14  0.00000000000E+00 -0.74542697852E+02  0.11894826183E+03  0.92693447397E+02 0.  0.
    9000005    2    3    3    0    0 -0.14322193990E+02 -0.34696387501E+02 -0.42221730096E+01  0.39236651887E+02  0.10617135211E+02 0.  0.
         22    1    3    3    0    0  0.14322193990E+02  0.34696387501E+02 -0.70320524843E+02  0.79711609948E+02  0.00000000000E+00 0.  1.
         22    1    4    4    0    0 -0.18875184561E+01 -0.13778850704E+02  0.21721277310E+01  0.14076135532E+02  0.00000000000E+00 0.  1.
         22    1    4    4    0    0 -0.12434675534E+02 -0.20917536797E+02 -0.63943007406E+01  0.25160516355E+02  0.00000000000E+00 0.  1.
<mgrwt>
<rscale>  0 0.92693447E+02</rscale>
<asrwt>0</asrwt>
<pdfrwt beam="1">  1        2 0.34158127E-02 0.92693447E+02</pdfrwt>
<pdfrwt beam="2">  1       -2 0.14883920E-01 0.92693447E+02</pdfrwt>
<totfact> 0.77354531E+04</totfact>
</mgrwt>
</event>
<event>
 7    1  0.3056193E-009  0.9022654E+02  0.7818608E-02  0.1302304E+00
         -2   -1    0    0    0  501 -0.00000000000E+00  0.00000000000E+00  0.13770065350E+03  0.13770065353E+03  0.25500000000E-02 0.  1.
          2   -1    0    0  501    0  0.00000000000E+00 -0.00000000000E+00 -0.14779939428E+02  0.14779939647E+02  0.25500000000E-02 0. -1.
         23    2    1    2    0    0 -0.71054273576E-14  0.00000000000E+00  0.12292071408E+03  0.15248059317E+03  0.90226544575E+02 0.  0.
    9000005    2    3    3    0    0 -0.42283295520E+02 -0.12970014309E+02  0.70248944622E+02  0.83702590524E+02  0.10728983579E+02 0.  0.
         22    1    3    3    0    0  0.42283295520E+02  0.12970014309E+02  0.52671769453E+02  0.68778002650E+02  0.00000000000E+00 0. -1.
         22    1    4    4    0    0 -0.14239944231E+01 -0.30371187151E+01  0.68390349751E+01  0.76173650035E+01  0.00000000000E+00 0.  1.
         22    1    4    4    0    0 -0.40859301097E+02 -0.99328955942E+01  0.63409909647E+02  0.76085225520E+02  0.00000000000E+00 0.  1.
<mgrwt>
<rscale>  0 0.90226545E+02</rscale>
<asrwt>0</asrwt>
<pdfrwt beam="2">  1        2 0.22738367E-02 0.90226545E+02</pdfrwt>
<pdfrwt beam="1">  1       -2 0.21184717E-01 0.90226545E+02</pdfrwt>
<totfact> 0.73943043E+04</totfact>
</mgrwt>
</event>
<event>
 7    1  0.3056193E-009  0.9126921E+02  0.7818608E-02  0.1299807E+00
         -2   -1    0    0    0  501 -0.00000000000E+00  0.00000000000E+00  0.18665303602E+02  0.18665303776E+02  0.25500000000E-02 0.  1.
          2   -1    0    0  501    0  0.00000000000E+00 -0.00000000000E+00 -0.11157156702E+03  0.11157156705E+03  0.25500000000E-02 0. -1.
         23    2    1    2    0    0  0.00000000000E+00  0.71054273576E-14 -0.92906263418E+02  0.13023687083E+03  0.91269210253E+02 0.  0.
    9000005    2    3    3    0    0  0.13317279233E+01  0.43221638910E+02 -0.67191306190E+02  0.79926408748E+02  0.19171902633E+01 0.  0.
         22    1    3    3    0    0 -0.13317279233E+01 -0.43221638910E+02 -0.25714957229E+02  0.50310462079E+02  0.00000000000E+00 0. -1.
         22    1    4    4    0    0 -0.46664627692E+00  0.55063724580E+01 -0.84639078346E+01  0.10108196289E+02  0.00000000000E+00 0. -1.
         22    1    4    4    0    0  0.17983742002E+01  0.37715266452E+02 -0.58727398355E+02  0.69818212458E+02  0.00000000000E+00 0. -1.
<mgrwt>
<rscale>  0 0.91269210E+02</rscale>
<asrwt>0</asrwt>
<pdfrwt beam="2">  1        2 0.17164856E-01 0.91269210E+02</pdfrwt>
<pdfrwt beam="1">  1       -2 0.28715852E-02 0.91269210E+02</pdfrwt>
<totfact> 0.12654843E+05</totfact>
</mgrwt>
</event>
<event>
 7    1  0.3056193E-009  0.9047636E+02  0.7818608E-02  0.1301702E+00
          2   -1    0    0  501    0  0.00000000000E+00  0.00000000000E+00  0.25040684986E+02  0.25040685116E+02  0.25500000000E-02 0.  1.
         -2   -1    0    0    0  501 -0.00000000000E+00 -0.00000000000E+00 -0.81726720935E+02  0.81726720975E+02  0.25500000000E-02 0. -1.
         23    2    1    2    0    0  0.00000000000E+00  0.00000000000E+00 -0.56686035949E+02  0.10676740609E+03  0.90476363388E+02 0.  0.
    9000005    2    3    3    0    0  0.34605046451E+02 -0.26640225025E+01 -0.61144848539E+02  0.71774731636E+02  0.14433064222E+02 0.  0.
         22    1    3    3    0    0 -0.34605046451E+02  0.26640225025E+01  0.44588125904E+01  0.34992674455E+02  0.00000000000E+00 0.  1.
         22    1    4    4    0    0 -0.10779947513E+01 -0.13265698800E+01 -0.45059216147E+01  0.48192520092E+01  0.00000000000E+00 0.  1.
         22    1    4    4    0    0  0.35683041202E+02 -0.13374526225E+01 -0.56638926924E+02  0.66955479627E+02  0.00000000000E+00 0.  1.
<mgrwt>
<rscale>  0 0.90476363E+02</rscale>
<asrwt>0</asrwt>
<pdfrwt beam="1">  1        2 0.38524131E-02 0.90476363E+02</pdfrwt>
<pdfrwt beam="2">  1       -2 0.12573342E-01 0.90476363E+02</pdfrwt>
<totfact> 0.86196064E+04</totfact>
</mgrwt>
</event>
<event>
 7    1  0.3056193E-009  0.8994483E+02  0.7818608E-02  0.1302985E+00
          2   -1    0    0  501    0  0.00000000000E+00  0.00000000000E+00  0.11448321308E+04  0.11448321308E+04  0.25500000000E-02 0. -1.
         -2   -1    0    0    0  501 -0.00000000000E+00 -0.00000000000E+00 -0.17666494897E+01  0.17666513300E+01  0.25500000000E-02 0.  1.
         23    2    1    2    0    0  0.17763568394E-14 -0.71054273576E-14  0.11430654813E+04  0.11465987821E+04  0.89944831008E+02 0.  0.
    9000005    2    3    3    0    0  0.80708125181E+01 -0.32694208253E+02  0.95041815612E+03  0.95103027452E+03  0.54646405974E+01 0.  0.
         22    1    3    3    0    0 -0.80708125181E+01  0.32694208253E+02  0.19264732515E+03  0.19556850758E+03  0.00000000000E+00 0.  1.
         22    1    4    4    0    0  0.59876892239E+01 -0.30446201463E+02  0.87425290435E+03  0.87480338612E+03  0.00000000000E+00 0. -1.
         22    1    4    4    0    0  0.20831232942E+01 -0.22480067900E+01  0.76165251774E+02  0.76226888399E+02  0.00000000000E+00 0. -1.
<mgrwt>
<rscale>  0 0.89944831E+02</rscale>
<asrwt>0</asrwt>
<pdfrwt beam="1">  1        2 0.17612768E+00 0.89944831E+02</pdfrwt>
<pdfrwt beam="2">  1       -2 0.27179290E-03 0.89944831E+02</pdfrwt>
<totfact> 0.25881075E+05</totfact>
</mgrwt>
</event>
<event>
 7    1  0.3056193E-009  0.9000566E+02  0.7818608E-02  0.1302838E+00
         -2   -1    0    0    0  501 -0.00000000000E+00  0.00000000000E+00  0.29848553823E+02  0.29848553932E+02  0.25500000000E-02 0.  1.
          2   -1    0    0  501    0  0.00000000000E+00 -0.00000000000E+00 -0.67851018122E+02  0.67851018170E+02  0.25500000000E-02 0. -1.
         23    2    1    2    0    0  0.00000000000E+00  0.00000000000E+00 -0.38002464299E+02  0.97699572102E+02  0.90005661467E+02 0.  0.
    9000005    2    3    3    0    0 -0.37870615446E+02 -0.19739726045E+02 -0.30031301494E+02  0.54255588225E+02  0.14763112328E+02 0.  0.
         22    1    3    3    0    0  0.37870615446E+02  0.19739726045E+02 -0.79711628056E+01  0.43443983877E+02  0.00000000000E+00 0.  1.
         22    1    4    4    0    0 -0.25174088945E+02 -0.92198216538E+01 -0.25857250021E+02  0.37246976309E+02  0.00000000000E+00 0.  1.
         22    1    4    4    0    0 -0.12696526501E+02 -0.10519904391E+02 -0.41740514729E+01  0.17008611916E+02  0.00000000000E+00 0.  1.
<mgrwt>
<rscale>  0 0.90005661E+02</rscale>
<asrwt>0</asrwt>
<pdfrwt beam="2">  1        2 0.10438618E-01 0.90005661E+02</pdfrwt>
<pdfrwt beam="1">  1       -2 0.45920853E-02 0.90005661E+02</pdfrwt>
<totfact> 0.11370971E+05</totfact>
</mgrwt>
</event>
<event>
 7    1  0.3056193E-009  0.9355113E+02  0.7818608E-02  0.1294473E+00
          2   -1    0    0  501    0  0.00000000000E+00  0.00000000000E+00  0.87023554204E+03  0.87023554204E+03  0.25500000000E-02 0. -1.
         -2   -1    0    0    0  501 -0.00000000000E+00 -0.00000000000E+00 -0.25142075223E+01  0.25142088154E+01  0.25500000000E-02 0.  1.
         23    2    1    2    0    0 -0.71054273576E-14  0.35527136788E-14  0.86772133452E+03  0.87274975086E+03  0.93551126383E+02 0.  0.
    9000005    2    3    3    0    0  0.32100624868E+02 -0.17437670226E+02  0.70385485977E+03  0.70486066841E+03  0.90761108226E+01 0.  0.
         22    1    3    3    0    0 -0.32100624868E+02  0.17437670226E+02  0.16386647475E+03  0.16788908245E+03  0.00000000000E+00 0.  1.
         22    1    4    4    0    0  0.27715953444E+02 -0.17756071028E+02  0.58585885046E+03  0.58678279184E+03  0.00000000000E+00 0.  1.
         22    1    4    4    0    0  0.43846714240E+01  0.31840080212E+00  0.11799600931E+03  0.11807787657E+03  0.00000000000E+00 0.  1.
<mgrwt>
<rscale>  0 0.93551126E+02</rscale>
<asrwt>0</asrwt>
<pdfrwt beam="1">  1        2 0.13388231E+00 0.93551126E+02</pdfrwt>
<pdfrwt beam="2">  1       -2 0.38680149E-03 0.93551126E+02</pdfrwt>
<totfact> 0.23073527E+05</totfact>
</mgrwt>
</event>
<event>
 7    1  0.3056193E-009  0.9529000E+02  0.7818608E-02  0.1290524E+00
         -2   -1    0    0    0  501 -0.00000000000E+00  0.00000000000E+00  0.36067681871E+01  0.36067690886E+01  0.25500000000E-02 0.  1.
          2   -1    0    0  501    0  0.00000000000E+00 -0.00000000000E+00 -0.62938502280E+03  0.62938502280E+03  0.25500000000E-02 0. -1.
         23    2    1    2    0    0  0.00000000000E+00  0.00000000000E+00 -0.62577825461E+03  0.63299179189E+03  0.95290002930E+02 0.  0.
    9000005    2    3    3    0    0  0.35533902112E+02  0.12988365895E+02 -0.50011616623E+03  0.50175796888E+03  0.14612452047E+02 0.  0.
         22    1    3    3    0    0 -0.35533902112E+02 -0.12988365895E+02 -0.12566208838E+03  0.13123382302E+03  0.00000000000E+00 0.  1.
         22    1    4    4    0    0  0.20577373081E+02  0.14980637291E+02 -0.32066723330E+03  0.32167580308E+03  0.00000000000E+00 0.  1.
         22    1    4    4    0    0  0.14956529031E+02 -0.19922713963E+01 -0.17944893294E+03  0.18008216580E+03  0.00000000000E+00 0.  1.
<mgrwt>
<rscale>  0 0.95290003E+02</rscale>
<asrwt>0</asrwt>
<pdfrwt beam="2">  1        2 0.96828378E-01 0.95290003E+02</pdfrwt>
<pdfrwt beam="1">  1       -2 0.55488798E-03 0.95290003E+02</pdfrwt>
<totfact> 0.20543258E+05</totfact>
</mgrwt>
</event>
<event>
 7    1  0.3056193E-009  0.1051244E+03  0.7818608E-02  0.1269875E+00
         -2   -1    0    0    0  501 -0.00000000000E+00  0.00000000000E+00  0.69232245257E+02  0.69232245304E+02  0.25500000000E-02 0. -1.
          2   -1    0    0  501    0  0.00000000000E+00 -0.00000000000E+00 -0.39906062405E+02  0.39906062486E+02  0.25500000000E-02 0.  1.
         23    2    1    2    0    0  0.35527136788E-14  0.00000000000E+00  0.29326182853E+02  0.10913830779E+03  0.10512442735E+03 0.  0.
    9000005    2    3    3    0    0  0.30584804695E+02 -0.33806444017E+02  0.41048132682E+02  0.62066978479E+02  0.94368790158E+01 0.  0.
         22    1    3    3    0    0 -0.30584804695E+02  0.33806444017E+02 -0.11721949829E+02  0.47071329311E+02  0.00000000000E+00 0.  1.
         22    1    4    4    0    0  0.88807094861E+01 -0.87975392898E+01  0.17185805586E+02  0.21251249662E+02  0.00000000000E+00 0.  1.
         22    1    4    4    0    0  0.21704095208E+02 -0.25008904728E+02  0.23862327096E+02  0.40815728818E+02  0.00000000000E+00 0.  1.
<mgrwt>
<rscale>  0 0.10512443E+03</rscale>
<asrwt>0</asrwt>
<pdfrwt beam="2">  1        2 0.61393942E-02 0.10512443E+03</pdfrwt>
<pdfrwt beam="1">  1       -2 0.10651115E-01 0.10512443E+03</pdfrwt>
<totfact> 0.62673338E+04</totfact>
</mgrwt>
</event>
<event>
 7    1  0.3056193E-009  0.8188771E+02  0.7818608E-02  0.1323778E+00
          2   -1    0    0  501    0  0.00000000000E+00  0.00000000000E+00  0.49897533284E+02  0.49897533349E+02  0.25500000000E-02 0. -1.
         -2   -1    0    0    0  501 -0.00000000000E+00 -0.00000000000E+00 -0.33596837501E+02  0.33596837598E+02  0.25500000000E-02 0.  1.
         23    2    1    2    0    0 -0.35527136788E-14  0.00000000000E+00  0.16300695783E+02  0.83494370947E+02  0.81887711513E+02 0.  0.
    9000005    2    3    3    0    0  0.20538064994E+02  0.17511665761E+02 -0.22261521126E+02  0.36425112142E+02  0.10136218244E+02 0.  0.
         22    1    3    3    0    0 -0.20538064994E+02 -0.17511665761E+02  0.38562216909E+02  0.47069258805E+02  0.00000000000E+00 0. -1.
         22    1    4    4    0    0  0.53967706295E+01  0.94081548783E+00 -0.11234444121E+01  0.55921725972E+01  0.00000000000E+00 0.  1.
         22    1    4    4    0    0  0.15141294365E+02  0.16570850273E+02 -0.21138076714E+02  0.30832939545E+02  0.00000000000E+00 0.  1.
<mgrwt>
<rscale>  0 0.81887712E+02</rscale>
<asrwt>0</asrwt>
<pdfrwt beam="1">  1        2 0.76765436E-02 0.81887712E+02</pdfrwt>
<pdfrwt beam="2">  1       -2 0.51687442E-02 0.81887712E+02</pdfrwt>
<totfact> 0.13679637E+05</totfact>
</mgrwt>
</event>
<event>
 7    1  0.3056193E-009  0.9062816E+02  0.7818608E-02  0.1301338E+00
          2   -1    0    0  501    0  0.00000000000E+00  0.00000000000E+00  0.83379664947E+02  0.83379664986E+02  0.25500000000E-02 0. -1.
         -2   -1    0    0    0  501 -0.00000000000E+00 -0.00000000000E+00 -0.24626700005E+02  0.24626700137E+02  0.25500000000E-02 0.  1.
         23    2    1    2    0    0 -0.71054273576E-14  0.00000000000E+00  0.58752964941E+02  0.10800636512E+03  0.90628163491E+02 0.  0.
    9000005    2    3    3    0    0 -0.38417360586E+02 -0.20433329030E+02  0.41129735497E+02  0.61059664007E+02  0.11967159101E+02 0.  0.
         22    1    3    3    0    0  0.38417360586E+02  0.20433329030E+02  0.17623229444E+02  0.46946701116E+02  0.00000000000E+00 0.  1.
         22    1    4    4    0    0 -0.11298798217E+02 -0.12273518357E+02  0.17488524645E+02  0.24169207440E+02  0.00000000000E+00 0.  1.
         22    1    4    4    0    0 -0.27118562369E+02 -0.81598106729E+01  0.23641210852E+02  0.36890456567E+02  0.00000000000E+00 0.  1.
<mgrwt>
<rscale>  0 0.90628163E+02</rscale>
<asrwt>0</asrwt>
<pdfrwt beam="1">  1        2 0.12827641E-01 0.90628163E+02</pdfrwt>
<pdfrwt beam="2">  1       -2 0.37887231E-02 0.90628163E+02</pdfrwt>
<totfact> 0.11819139E+05</totfact>
</mgrwt>
</event>
<event>
 7    1  0.3056193E-009  0.9112705E+02  0.7818608E-02  0.1300145E+00
          2   -1    0    0  501    0  0.00000000000E+00  0.00000000000E+00  0.92874582975E+03  0.92874582975E+03  0.25500000000E-02 0.  1.
         -2   -1    0    0    0  501 -0.00000000000E+00 -0.00000000000E+00 -0.22353090330E+01  0.22353104875E+01  0.25500000000E-02 0. -1.
         23    2    1    2    0    0 -0.71054273576E-14  0.00000000000E+00  0.92651052072E+03  0.93098114024E+03  0.91127045849E+02 0.  0.
    9000005    2    3    3    0    0 -0.37042241917E+02  0.71483513212E+01  0.71567789168E+03  0.71679985236E+03  0.13563078085E+02 0.  0.
         22    1    3    3    0    0  0.37042241917E+02 -0.71483513212E+01  0.21083262903E+03  0.21418128788E+03  0.00000000000E+00 0.  1.
         22    1    4    4    0    0 -0.33921977663E+02  0.23522645271E+01  0.64216071608E+03  0.64306035408E+03  0.00000000000E+00 0.  1.
         22    1    4    4    0    0 -0.31202642541E+01  0.47960867941E+01  0.73517175602E+02  0.73739498276E+02  0.00000000000E+00 0.  1.
<mgrwt>
<rscale>  0 0.91127046E+02</rscale>
<asrwt>0</asrwt>
<pdfrwt beam="1">  1        2 0.14288375E+00 0.91127046E+02</pdfrwt>
<pdfrwt beam="2">  1       -2 0.34389434E-03 0.91127046E+02</pdfrwt>
<totfact> 0.24910285E+05</totfact>
</mgrwt>
</event>
<event>
 7    1  0.3056193E-009  0.8782156E+02  0.7818608E-02  0.1308215E+00
          2   -1    0    0  501    0  0.00000000000E+00  0.00000000000E+00  0.16719185842E+03  0.16719185844E+03  0.25500000000E-02 0. -1.
         -2   -1    0    0    0  501 -0.00000000000E+00 -0.00000000000E+00 -0.11532598956E+02  0.11532599238E+02  0.25500000000E-02 0.  1.
         23    2    1    2    0    0  0.00000000000E+00  0.00000000000E+00  0.15565925946E+03  0.17872445768E+03  0.87821561790E+02 0.  0.
    9000005    2    3    3    0    0  0.56569719742E+01  0.21399240354E+02  0.15433525965E+03  0.15655055872E+03  0.14098802878E+02 0.  0.
         22    1    3    3    0    0 -0.56569719742E+01 -0.21399240354E+02  0.13239998110E+01  0.22173898961E+02  0.00000000000E+00 0.  1.
         22    1    4    4    0    0 -0.42922425811E+01  0.11024568312E+02  0.73902437279E+02  0.74843401103E+02  0.00000000000E+00 0.  1.
         22    1    4    4    0    0  0.99492145554E+01  0.10374672042E+02  0.80432822373E+02  0.81707157613E+02  0.00000000000E+00 0.  1.
<mgrwt>
<rscale>  0 0.87821562E+02</rscale>
<asrwt>0</asrwt>
<pdfrwt beam="1">  1        2 0.25721822E-01 0.87821562E+02</pdfrwt>
<pdfrwt beam="2">  1       -2 0.17742462E-02 0.87821562E+02</pdfrwt>
<totfact> 0.16057587E+05</totfact>
</mgrwt>
</event>
<event>
 7    1  0.3056193E-009  0.9162606E+02  0.7818608E-02  0.1298961E+00
          2   -1    0    0  501    0  0.00000000000E+00  0.00000000000E+00  0.40875912768E+01  0.40875920722E+01  0.25500000000E-02 0.  1.
         -2   -1    0    0    0  501 -0.00000000000E+00 -0.00000000000E+00 -0.51346458272E+03  0.51346458273E+03  0.25500000000E-02 0. -1.
         23    2    1    2    0    0  0.00000000000E+00  0.00000000000E+00 -0.50937699145E+03  0.51755217480E+03  0.91626056485E+02 0.  0.
    9000005    2    3    3    0    0  0.91702332012E+01 -0.44500235773E+02 -0.24490866614E+03  0.24920937306E+03  0.77905523174E+01 0.  0.
         22    1    3    3    0    0 -0.91702332012E+01  0.44500235773E+02 -0.26446832530E+03  0.26834280175E+03  0.00000000000E+00 0. -1.
         22    1    4    4    0    0  0.45976415031E+01 -0.16785198116E+02 -0.74864891223E+02  0.76861128804E+02  0.00000000000E+00 0. -1.
         22    1    4    4    0    0  0.45725916982E+01 -0.27715037657E+02 -0.17004377492E+03  0.17234824425E+03  0.00000000000E+00 0. -1.
<mgrwt>
<rscale>  0 0.91626056E+02</rscale>
<asrwt>0</asrwt>
<pdfrwt beam="1">  1        2 0.62886066E-03 0.91626056E+02</pdfrwt>
<pdfrwt beam="2">  1       -2 0.78994500E-01 0.91626056E+02</pdfrwt>
<totfact> 0.35105890E+04</totfact>
</mgrwt>
</event>
<event>
 7    1  0.3056193E-009  0.8737686E+02  0.7818608E-02  0.1309331E+00
         -2   -1    0    0    0  501 -0.00000000000E+00  0.00000000000E+00  0.10976594268E+02  0.10976594564E+02  0.25500000000E-02 0.  1.
          2   -1    0    0  501    0  0.00000000000E+00 -0.00000000000E+00 -0.17388626404E+03  0.17388626406E+03  0.25500000000E-02 0. -1.
         23    2    1    2    0    0  0.35527136788E-14  0.00000000000E+00 -0.16290966978E+03  0.18486285863E+03  0.87376861885E+02 0.  0.
    9000005    2    3    3    0    0 -0.29091538507E+02 -0.22231085786E+02 -0.31471191538E+02  0.48420151421E+02  0.36791818234E+01 0.  0.
         22    1    3    3    0    0  0.29091538507E+02  0.22231085786E+02 -0.13143847824E+03  0.13644270721E+03  0.00000000000E+00 0. -1.
         22    1    4    4    0    0 -0.25520592363E+02 -0.20194303857E+02 -0.26494401804E+02  0.41965031512E+02  0.00000000000E+00 0. -1.
         22    1    4    4    0    0 -0.35709461438E+01 -0.20367819299E+01 -0.49767897340E+01  0.64551199097E+01  0.00000000000E+00 0. -1.
<mgrwt>
<rscale>  0 0.87376862E+02</rscale>
<asrwt>0</asrwt>
<pdfrwt beam="2">  1        2 0.26751731E-01 0.87376862E+02</pdfrwt>
<pdfrwt beam="1">  1       -2 0.16887070E-02 0.87376862E+02</pdfrwt>
<totfact> 0.16501502E+05</totfact>
</mgrwt>
</event>
<event>
 7    1  0.3171924E-009  0.9161081E+02  0.7818608E-02  0.1298997E+00
          2   -1    0    0  501    0  0.00000000000E+00  0.00000000000E+00  0.38464809830E+02  0.38464809915E+02  0.25500000000E-02 0. -1.
         -2   -1    0    0    0  501 -0.00000000000E+00 -0.00000000000E+00 -0.54546867889E+02  0.54546867948E+02  0.25500000000E-02 0.  1.
         23    2    1    2    0    0  0.00000000000E+00  0.00000000000E+00 -0.16082058059E+02  0.93011677863E+02  0.91610805190E+02 0.  0.
    9000005    2    3    3    0    0  0.36131595823E+02 -0.15681463198E+02 -0.29903689982E+02  0.51269157410E+02  0.13523879703E+02 0.  0.
         22    1    3    3    0    0 -0.36131595823E+02  0.15681463198E+02  0.13821631923E+02  0.41742520453E+02  0.00000000000E+00 0. -1.
         22    1    4    4    0    0  0.11399684175E+02 -0.11865959967E+02 -0.14123364558E+02  0.21684631232E+02  0.00000000000E+00 0.  1.
         22    1    4    4    0    0  0.24731911648E+02 -0.38155032313E+01 -0.15780325424E+02  0.29584526178E+02  0.00000000000E+00 0.  1.
<mgrwt>
<rscale>  0 0.91610805E+02</rscale>
<asrwt>0</asrwt>
<pdfrwt beam="1">  1        2 0.59176631E-02 0.91610805E+02</pdfrwt>
<pdfrwt beam="2">  1       -2 0.83918259E-02 0.91610805E+02</pdfrwt>
<totfact> 0.93130961E+04</totfact>
</mgrwt>
</event>
<event>
 7    1  0.3056193E-009  0.8939947E+02  0.7818608E-02  0.1304313E+00
          2   -1    0    0  501    0  0.00000000000E+00  0.00000000000E+00  0.96328579884E+03  0.96328579884E+03  0.25500000000E-02 0. -1.
         -2   -1    0    0    0  501 -0.00000000000E+00 -0.00000000000E+00 -0.20742189161E+01  0.20742204835E+01  0.25500000000E-02 0.  1.
         23    2    1    2    0    0  0.00000000000E+00  0.00000000000E+00  0.96121157992E+03  0.96536001932E+03  0.89399471671E+02 0.  0.
    9000005    2    3    3    0    0 -0.27936448322E+02  0.24355375480E+02  0.74579884951E+03  0.74678217534E+03  0.96986601293E+01 0.  0.
         22    1    3    3    0    0  0.27936448322E+02 -0.24355375480E+02  0.21541273041E+03  0.21857784399E+03  0.00000000000E+00 0.  1.
         22    1    4    4    0    0 -0.17859396079E+02  0.16976160962E+02  0.40030807831E+03  0.40106571236E+03  0.00000000000E+00 0.  1.
         22    1    4    4    0    0 -0.10077052243E+02  0.73792145183E+01  0.34549077120E+03  0.34571646297E+03  0.00000000000E+00 0.  1.
<mgrwt>
<rscale>  0 0.89399472E+02</rscale>
<asrwt>0</asrwt>
<pdfrwt beam="1">  1        2 0.14819738E+00 0.89399472E+02</pdfrwt>
<pdfrwt beam="2">  1       -2 0.31911167E-03 0.89399472E+02</pdfrwt>
<totfact> 0.26274561E+05</totfact>
</mgrwt>
</event>
<event>
 7    1  0.3056193E-009  0.8191882E+02  0.7818608E-02  0.1323693E+00
         -2   -1    0    0    0  501 -0.00000000000E+00  0.00000000000E+00  0.32865594270E+01  0.32865604163E+01  0.25500000000E-02 0.  1.
          2   -1    0    0  501    0  0.00000000000E+00 -0.00000000000E+00 -0.51046488637E+03  0.51046488638E+03  0.25500000000E-02 0. -1.
         23    2    1    2    0    0  0.35527136788E-14  0.00000000000E+00 -0.50717832695E+03  0.51375144680E+03  0.81918824216E+02 0.  0.
    9000005    2    3    3    0    0  0.29167025292E+02 -0.99192664848E+01 -0.42271443792E+03  0.42384451847E+03  0.27518352182E+01 0.  0.
         22    1    3    3    0    0 -0.29167025292E+02  0.99192664848E+01 -0.84463889029E+02  0.89906928331E+02  0.00000000000E+00 0.  1.
         22    1    4    4    0    0  0.32918839902E+01 -0.14202675193E+01 -0.38822068164E+02  0.38987262491E+02  0.00000000000E+00 0.  1.
         22    1    4    4    0    0  0.25875141302E+02 -0.84989989655E+01 -0.38389236975E+03  0.38485725597E+03  0.00000000000E+00 0.  1.
<mgrwt>
<rscale>  0 0.81918824E+02</rscale>
<asrwt>0</asrwt>
<pdfrwt beam="2">  1        2 0.78532997E-01 0.81918824E+02</pdfrwt>
<pdfrwt beam="1">  1       -2 0.50562501E-03 0.81918824E+02</pdfrwt>
<totfact> 0.28752379E+05</totfact>
</mgrwt>
</event>
<event>
 7    1  0.3056193E-009  0.9505628E+02  0.7818608E-02  0.1291049E+00
          2   -1    0    0  501    0  0.00000000000E+00  0.00000000000E+00  0.48989353578E+03  0.48989353579E+03  0.25500000000E-02 0. -1.
         -2   -1    0    0    0  501 -0.00000000000E+00 -0.00000000000E+00 -0.46110507683E+01  0.46110514734E+01  0.25500000000E-02 0.  1.
         23    2    1    2    0    0  0.00000000000E+00  0.00000000000E+00  0.48528248501E+03  0.49450458726E+03  0.95056281024E+02 0.  0.
    9000005    2    3    3    0    0  0.25108627201E+02  0.11665919891E+02  0.44223227633E+03  0.44332004551E+03  0.14026392100E+02 0.  0.
         22    1    3    3    0    0 -0.25108627201E+02 -0.11665919891E+02  0.43050208687E+02  0.51184541756E+02  0.00000000000E+00 0.  1.
         22    1    4    4    0    0  0.55672522985E+01  0.75112250903E+01  0.21771771570E+03  0.21791837126E+03  0.00000000000E+00 0. -1.
         22    1    4    4    0    0  0.19541374902E+02  0.41546948011E+01  0.22451456062E+03  0.22540167425E+03  0.00000000000E+00 0. -1.
<mgrwt>
<rscale>  0 0.95056281E+02</rscale>
<asrwt>0</asrwt>
<pdfrwt beam="1">  1        2 0.75368213E-01 0.95056281E+02</pdfrwt>
<pdfrwt beam="2">  1       -2 0.70939270E-03 0.95056281E+02</pdfrwt>
<totfact> 0.19165133E+05</totfact>
</mgrwt>
</event>
<event>
 7    1  0.3056193E-009  0.9374206E+02  0.7818608E-02  0.1294035E+00
         -2   -1    0    0    0  501 -0.00000000000E+00  0.00000000000E+00  0.18504238538E+03  0.18504238540E+03  0.25500000000E-02 0.  1.
          2   -1    0    0  501    0  0.00000000000E+00 -0.00000000000E+00 -0.11872380536E+02  0.11872380810E+02  0.25500000000E-02 0. -1.
         23    2    1    2    0    0  0.00000000000E+00  0.00000000000E+00  0.17317000485E+03  0.19691476621E+03  0.93742064052E+02 0.  0.
    9000005    2    3    3    0    0  0.32055967345E+02  0.71163320352E+01  0.20932985037E+02  0.41176725177E+02  0.13383034398E+02 0.  0.
         22    1    3    3    0    0 -0.32055967345E+02 -0.71163320352E+01  0.15223701981E+03  0.15573804103E+03  0.00000000000E+00 0.  1.
         22    1    4    4    0    0  0.30568962169E+02  0.27412931508E+01  0.16863225932E+02  0.35019202233E+02  0.00000000000E+00 0.  1.
         22    1    4    4    0    0  0.14870051761E+01  0.43750388844E+01  0.40697591046E+01  0.61575229438E+01  0.00000000000E+00 0.  1.
<mgrwt>
<rscale>  0 0.93742064E+02</rscale>
<asrwt>0</asrwt>
<pdfrwt beam="2">  1        2 0.18265203E-02 0.93742064E+02</pdfrwt>
<pdfrwt beam="1">  1       -2 0.28468057E-01 0.93742064E+02</pdfrwt>
<totfact> 0.60000242E+04</totfact>
</mgrwt>
</event>
<event>
 7    1  0.3056193E-009  0.9604780E+02  0.7818608E-02  0.1288833E+00
         -2   -1    0    0    0  501 -0.00000000000E+00  0.00000000000E+00  0.47956892139E+02  0.47956892207E+02  0.25500000000E-02 0.  1.
          2   -1    0    0  501    0  0.00000000000E+00 -0.00000000000E+00 -0.48091001247E+02  0.48091001315E+02  0.25500000000E-02 0. -1.
         23    2    1    2    0    0  0.00000000000E+00  0.00000000000E+00 -0.13410910787E+00  0.96047893522E+02  0.96047799895E+02 0.  0.
    9000005    2    3    3    0    0  0.13437053923E+02 -0.28141147507E+02 -0.35699589033E+02  0.48746921402E+02  0.11372030950E+02 0.  0.
         22    1    3    3    0    0 -0.13437053923E+02  0.28141147507E+02  0.35565479925E+02  0.47300972119E+02  0.00000000000E+00 0.  1.
         22    1    4    4    0    0  0.99384674761E+01 -0.15255520293E+02 -0.27803932233E+02  0.33234961754E+02  0.00000000000E+00 0. -1.
         22    1    4    4    0    0  0.34985864464E+01 -0.12885627214E+02 -0.78956568008E+01  0.15511959649E+02  0.00000000000E+00 0. -1.
<mgrwt>
<rscale>  0 0.96047800E+02</rscale>
<asrwt>0</asrwt>
<pdfrwt beam="2">  1        2 0.73986156E-02 0.96047800E+02</pdfrwt>
<pdfrwt beam="1">  1       -2 0.73779834E-02 0.96047800E+02</pdfrwt>
<totfact> 0.86141759E+04</totfact>
</mgrwt>
</event>
<event>
 7    1  0.3242358E-009  0.9128748E+02  0.7818608E-02  0.1299763E+00
          2   -1    0    0  501    0  0.00000000000E+00  0.00000000000E+00  0.94880851372E+02  0.94880851406E+02  0.25500000000E-02 0. -1.
         -2   -1    0    0    0  501 -0.00000000000E+00 -0.00000000000E+00 -0.21957549499E+02  0.21957549647E+02  0.25500000000E-02 0.  1.
         23    2    1    2    0    0  0.88817841970E-15 -0.35527136788E-14  0.72923301873E+02  0.11683840105E+03  0.91287479999E+02 0.  0.
    9000005    2    3    3    0    0 -0.77386662835E+01  0.29977129675E+02 -0.31201732761E+01  0.34734044456E+02  0.15433829843E+02 0.  0.
         22    1    3    3    0    0  0.77386662835E+01 -0.29977129675E+02  0.76043475149E+02  0.82104356597E+02  0.00000000000E+00 0. -1.
         22    1    4    4    0    0 -0.12809180912E+01  0.27548940888E+02 -0.13516542996E+01  0.27611806615E+02  0.00000000000E+00 0.  1.
         22    1    4    4    0    0 -0.64577481923E+01  0.24281887871E+01 -0.17685189765E+01  0.71222378415E+01  0.00000000000E+00 0.  1.
<mgrwt>
<rscale>  0 0.91287480E+02</rscale>
<asrwt>0</asrwt>
<pdfrwt beam="1">  1        2 0.14597054E-01 0.91287480E+02</pdfrwt>
<pdfrwt beam="2">  1       -2 0.33780846E-02 0.91287480E+02</pdfrwt>
<totfact> 0.12033924E+05</totfact>
</mgrwt>
</event>
<event>
 7    1  0.3056193E-009  0.9658288E+02  0.7818608E-02  0.1287650E+00
          2   -1    0    0  501    0  0.00000000000E+00  0.00000000000E+00  0.18147462126E+02  0.18147462305E+02  0.25500000000E-02 0. -1.
         -2   -1    0    0    0  501 -0.00000000000E+00 -0.00000000000E+00 -0.12850629036E+03  0.12850629039E+03  0.25500000000E-02 0.  1.
         23    2    1    2    0    0  0.88817841970E-15  0.71054273576E-14 -0.11035882824E+03  0.14665375269E+03  0.96582877413E+02 0.  0.
    9000005    2    3    3    0    0  0.79210137773E+01  0.40815781729E+02 -0.92455445261E+02  0.10138564450E+03  0.15391734644E+01 0.  0.
         22    1    3    3    0    0 -0.79210137773E+01 -0.40815781729E+02 -0.17903382976E+02  0.45268108193E+02  0.00000000000E+00 0. -1.
         22    1    4    4    0    0  0.46650497543E+01  0.20891980195E+02 -0.48755983740E+02  0.53248318999E+02  0.00000000000E+00 0.  1.
         22    1    4    4    0    0  0.32559640231E+01  0.19923801534E+02 -0.43699461521E+02  0.48137325502E+02  0.00000000000E+00 0.  1.
<mgrwt>
<rscale>  0 0.96582877E+02</rscale>
<asrwt>0</asrwt>
<pdfrwt beam="1">  1        2 0.27919173E-02 0.96582877E+02</pdfrwt>
<pdfrwt beam="2">  1       -2 0.19770198E-01 0.96582877E+02</pdfrwt>
<totfact> 0.63777076E+04</totfact>
</mgrwt>
</event>
<event>
 7    1  0.3056193E-009  0.9172818E+02  0.7818608E-02  0.1298720E+00
         -2   -1    0    0    0  501 -0.00000000000E+00  0.00000000000E+00  0.27137702013E+03  0.27137702014E+03  0.25500000000E-02 0. -1.
          2   -1    0    0  501    0  0.00000000000E+00 -0.00000000000E+00 -0.77512630573E+01  0.77512634767E+01  0.25500000000E-02 0.  1.
         23    2    1    2    0    0 -0.17763568394E-14  0.00000000000E+00  0.26362575707E+03  0.27912828362E+03  0.91728179551E+02 0.  0.
    9000005    2    3    3    0    0 -0.93516636746E+01  0.22982810968E+02  0.24894368965E+03  0.25029728785E+03  0.77529653691E+01 0.  0.
         22    1    3    3    0    0  0.93516636746E+01 -0.22982810968E+02  0.14682067420E+02  0.28830995772E+02  0.00000000000E+00 0.  1.
         22    1    4    4    0    0 -0.10769195663E+01 -0.14227891057E+00  0.48048935019E+01  0.49261547485E+01  0.00000000000E+00 0.  1.
         22    1    4    4    0    0 -0.82747441083E+01  0.23125089879E+02  0.24413879615E+03  0.24537113310E+03  0.00000000000E+00 0.  1.
<mgrwt>
<rscale>  0 0.91728180E+02</rscale>
<asrwt>0</asrwt>
<pdfrwt beam="2">  1        2 0.11925020E-02 0.91728180E+02</pdfrwt>
<pdfrwt beam="1">  1       -2 0.41750311E-01 0.91728180E+02</pdfrwt>
<totfact> 0.53033304E+04</totfact>
</mgrwt>
</event>
<event>
 7    1  0.3056193E-009  0.9019043E+02  0.7818608E-02  0.1302391E+00
         -2   -1    0    0    0  501 -0.00000000000E+00  0.00000000000E+00  0.88632605595E+01  0.88632609263E+01  0.25500000000E-02 0.  1.
          2   -1    0    0  501    0  0.00000000000E+00 -0.00000000000E+00 -0.22943907447E+03  0.22943907448E+03  0.25500000000E-02 0. -1.
         23    2    1    2    0    0 -0.22204460493E-15  0.00000000000E+00 -0.22057581391E+03  0.23830233541E+03  0.90190428427E+02 0.  0.
    9000005    2    3    3    0    0  0.12586513796E+01 -0.40474016132E+02 -0.16177419912E+03  0.16690653661E+03  0.68680619581E+01 0.  0.
         22    1    3    3    0    0 -0.12586513796E+01  0.40474016132E+02 -0.58801614784E+02  0.71395798801E+02  0.00000000000E+00 0.  1.
         22    1    4    4    0    0  0.11215961056E+01 -0.38050040846E+02 -0.15701882552E+03  0.16156724654E+03  0.00000000000E+00 0. -1.
         22    1    4    4    0    0  0.13705527395E+00 -0.24239752860E+01 -0.47553736036E+01  0.53392900694E+01  0.00000000000E+00 0. -1.
<mgrwt>
<rscale>  0 0.90190428E+02</rscale>
<asrwt>0</asrwt>
<pdfrwt beam="2">  1        2 0.35298315E-01 0.90190428E+02</pdfrwt>
<pdfrwt beam="1">  1       -2 0.13635788E-02 0.90190428E+02</pdfrwt>
<totfact> 0.16743936E+05</totfact>
</mgrwt>
</event>
<event>
 7    1  0.3056193E-009  0.9777943E+02  0.7818608E-02  0.1285036E+00
         -2   -1    0    0    0  501 -0.00000000000E+00  0.00000000000E+00  0.30058624051E+02  0.30058624159E+02  0.25500000000E-02 0.  1.
          2   -1    0    0  501    0  0.00000000000E+00 -0.00000000000E+00 -0.79518079763E+02  0.79518079804E+02  0.25500000000E-02 0. -1.
         23    2    1    2    0    0 -0.35527136788E-14  0.00000000000E+00 -0.49459455712E+02  0.10957670396E+03  0.97779426733E+02 0.  0.
    9000005    2    3    3    0    0  0.27410247651E+02 -0.28719952983E+02  0.51939425745E+01  0.42025602419E+02  0.12767804962E+02 0.  0.
         22    1    3    3    0    0 -0.27410247651E+02  0.28719952983E+02 -0.54653398287E+02  0.67551101545E+02  0.00000000000E+00 0. -1.
         22    1    4    4    0    0  0.15117163749E+01  0.76582248949E+00  0.20433963511E+01  0.26546636569E+01  0.00000000000E+00 0.  1.
         22    1    4    4    0    0  0.25898531277E+02 -0.29485775472E+02  0.31505462234E+01  0.39370938762E+02  0.00000000000E+00 0.  1.
<mgrwt>
<rscale>  0 0.97779427E+02</rscale>
<asrwt>0</asrwt>
<pdfrwt beam="2">  1        2 0.12233551E-01 0.97779427E+02</pdfrwt>
<pdfrwt beam="1">  1       -2 0.46244037E-02 0.97779427E+02</pdfrwt>
<totfact> 0.94284036E+04</totfact>
</mgrwt>
</event>
<event>
 7    1  0.3056193E-009  0.9271525E+02  0.7818608E-02  0.1296406E+00
         -2   -1    0    0    0  501 -0.00000000000E+00  0.00000000000E+00  0.83973635431E+01  0.83973639302E+01  0.25500000000E-02 0.  1.
          2   -1    0    0  501    0  0.00000000000E+00 -0.00000000000E+00 -0.25591713547E+03  0.25591713548E+03  0.25500000000E-02 0. -1.
         23    2    1    2    0    0  0.00000000000E+00  0.88817841970E-15 -0.24751977193E+03  0.26431449941E+03  0.92715247425E+02 0.  0.
    9000005    2    3    3    0    0  0.27165142997E+02  0.77757236793E+01 -0.22822542900E+03  0.23009931942E+03  0.77745407697E+01 0.  0.
         22    1    3    3    0    0 -0.27165142997E+02 -0.77757236793E+01 -0.19294342929E+02  0.34215179991E+02  0.00000000000E+00 0.  1.
         22    1    4    4    0    0  0.25463547727E+02  0.48521739905E+01 -0.20106986618E+03  0.20273388207E+03  0.00000000000E+00 0. -1.
         22    1    4    4    0    0  0.17015952699E+01  0.29235496888E+01 -0.27155562818E+02  0.27365437347E+02  0.00000000000E+00 0. -1.
<mgrwt>
<rscale>  0 0.92715247E+02</rscale>
<asrwt>0</asrwt>
<pdfrwt beam="2">  1        2 0.39371861E-01 0.92715247E+02</pdfrwt>
<pdfrwt beam="1">  1       -2 0.12919023E-02 0.92715247E+02</pdfrwt>
<totfact> 0.16189296E+05</totfact>
</mgrwt>
</event>
<event>
 7    1  0.3056193E-009  0.9036962E+02  0.7818608E-02  0.1301959E+00
          2   -1    0    0  501    0  0.00000000000E+00  0.00000000000E+00  0.38645506620E+02  0.38645506704E+02  0.25500000000E-02 0. -1.
         -2   -1    0    0    0  501 -0.00000000000E+00 -0.00000000000E+00 -0.52830645036E+02  0.52830645098E+02  0.25500000000E-02 0.  1.
         23    2    1    2    0    0  0.00000000000E+00 -0.88817841970E-15 -0.14185138416E+02  0.91476151802E+02  0.90369619876E+02 0.  0.
    9000005    2    3    3    0    0 -0.41580059638E+02  0.49514088451E+01 -0.23554434790E+02  0.48566927577E+02  0.71075485869E+01 0.  0.
         22    1    3    3    0    0  0.41580059638E+02 -0.49514088451E+01  0.93692963732E+01  0.42909224225E+02  0.00000000000E+00 0. -1.
         22    1    4    4    0    0 -0.16788602366E+02  0.67654767686E+00 -0.57983995546E+01  0.17774597705E+02  0.00000000000E+00 0. -1.
         22    1    4    4    0    0 -0.24791457272E+02  0.42748611682E+01 -0.17756035235E+02  0.30792329872E+02  0.00000000000E+00 0. -1.
<mgrwt>
<rscale>  0 0.90369620E+02</rscale>
<asrwt>0</asrwt>
<pdfrwt beam="1">  1        2 0.59454625E-02 0.90369620E+02</pdfrwt>
<pdfrwt beam="2">  1       -2 0.81277916E-02 0.90369620E+02</pdfrwt>
<totfact> 0.97010764E+04</totfact>
</mgrwt>
</event>
<event>
 7    1  0.3056193E-009  0.8809923E+02  0.7818608E-02  0.1307521E+00
          2   -1    0    0  501    0  0.00000000000E+00  0.00000000000E+00  0.23262571534E+03  0.23262571535E+03  0.25500000000E-02 0. -1.
         -2   -1    0    0    0  501 -0.00000000000E+00 -0.00000000000E+00 -0.83411600927E+01  0.83411604825E+01  0.25500000000E-02 0.  1.
         23    2    1    2    0    0  0.00000000000E+00  0.00000000000E+00  0.22428455524E+03  0.24096687583E+03  0.88099225466E+02 0.  0.
    9000005    2    3    3    0    0 -0.62900528897E+01 -0.42379312111E+02  0.95222877971E+02  0.10497979041E+03  0.10853066195E+02 0.  0.
         22    1    3    3    0    0  0.62900528897E+01  0.42379312111E+02  0.12906167727E+03  0.13598708542E+03  0.00000000000E+00 0.  1.
         22    1    4    4    0    0  0.47058088496E+00 -0.21413460773E+02  0.37341742755E+02  0.43048385575E+02  0.00000000000E+00 0. -1.
         22    1    4    4    0    0 -0.67606337746E+01 -0.20965851338E+02  0.57881135216E+02  0.61931404839E+02  0.00000000000E+00 0. -1.
<mgrwt>
<rscale>  0 0.88099225E+02</rscale>
<asrwt>0</asrwt>
<pdfrwt beam="1">  1        2 0.35788570E-01 0.88099225E+02</pdfrwt>
<pdfrwt beam="2">  1       -2 0.12832555E-02 0.88099225E+02</pdfrwt>
<totfact> 0.17918281E+05</totfact>
</mgrwt>
</event>
<event>
 7    1  0.3056193E-009  0.8842521E+02  0.7818608E-02  0.1306711E+00
         -2   -1    0    0    0  501 -0.00000000000E+00  0.00000000000E+00  0.99174370555E+01  0.99174373833E+01  0.25500000000E-02 0.  1.
          2   -1    0    0  501    0  0.00000000000E+00 -0.00000000000E+00 -0.19710276961E+03  0.19710276962E+03  0.25500000000E-02 0. -1.
         23    2    1    2    0    0  0.00000000000E+00  0.00000000000E+00 -0.18718533255E+03  0.20702020701E+03  0.88425207869E+02 0.  0.
    9000005    2    3    3    0    0 -0.30916504557E+02 -0.84840072604E+01 -0.16321588774E+03  0.16699093125E+03  0.14789742227E+02 0.  0.
         22    1    3    3    0    0  0.30916504557E+02  0.84840072604E+01 -0.23969444814E+02  0.40029275761E+02  0.00000000000E+00 0.  1.
         22    1    4    4    0    0 -0.17975196443E+02 -0.12139739557E+02 -0.10848359127E+03  0.11063078476E+03  0.00000000000E+00 0.  1.
         22    1    4    4    0    0 -0.12941308115E+02  0.36557322961E+01 -0.54732296473E+02  0.56360146483E+02  0.00000000000E+00 0.  1.
<mgrwt>
<rscale>  0 0.88425208E+02</rscale>
<asrwt>0</asrwt>
<pdfrwt beam="2">  1        2 0.30323500E-01 0.88425208E+02</pdfrwt>
<pdfrwt beam="1">  1       -2 0.15257597E-02 0.88425208E+02</pdfrwt>
<totfact> 0.16707009E+05</totfact>
</mgrwt>
</event>
<event>
 7    1  0.3056193E-009  0.8699037E+02  0.7818608E-02  0.1310308E+00
         -2   -1    0    0    0  501 -0.00000000000E+00  0.00000000000E+00  0.53870652252E+02  0.53870652313E+02  0.25500000000E-02 0.  1.
          2   -1    0    0  501    0  0.00000000000E+00 -0.00000000000E+00 -0.35118031085E+02  0.35118031177E+02  0.25500000000E-02 0. -1.
         23    2    1    2    0    0  0.00000000000E+00  0.00000000000E+00  0.18752621167E+02  0.88988683490E+02  0.86990372965E+02 0.  0.
    9000005    2    3    3    0    0 -0.18571336020E+02  0.18960169633E+02 -0.25565936069E+02  0.37330992198E+02  0.59668532200E+01 0.  0.
         22    1    3    3    0    0  0.18571336020E+02 -0.18960169633E+02  0.44318557236E+02  0.51657691292E+02  0.00000000000E+00 0.  1.
         22    1    4    4    0    0 -0.80379527933E+01  0.50147956468E+01 -0.11481150824E+02  0.14885351347E+02  0.00000000000E+00 0. -1.
         22    1    4    4    0    0 -0.10533383227E+02  0.13945373987E+02 -0.14084785244E+02  0.22445640851E+02  0.00000000000E+00 0. -1.
<mgrwt>
<rscale>  0 0.86990373E+02</rscale>
<asrwt>0</asrwt>
<pdfrwt beam="2">  1        2 0.54027740E-02 0.86990373E+02</pdfrwt>
<pdfrwt beam="1">  1       -2 0.82877927E-02 0.86990373E+02</pdfrwt>
<totfact> 0.10572897E+05</totfact>
</mgrwt>
</event>
<event>
 7    1  0.3056193E-009  0.8656951E+02  0.7818608E-02  0.1311378E+00
          2   -1    0    0  501    0  0.00000000000E+00  0.00000000000E+00  0.53532212315E+03  0.53532212315E+03  0.25500000000E-02 0. -1.
         -2   -1    0    0    0  501 -0.00000000000E+00 -0.00000000000E+00 -0.34998920354E+01  0.34998929644E+01  0.25500000000E-02 0.  1.
         23    2    1    2    0    0 -0.44408920985E-15 -0.35527136788E-14  0.53182223111E+03  0.53882201612E+03  0.86569507036E+02 0.  0.
    9000005    2    3    3    0    0 -0.18817490802E+01 -0.21460860559E+02  0.49827179514E+03  0.49895045646E+03  0.14583094830E+02 0.  0.
         22    1    3    3    0    0  0.18817490802E+01  0.21460860559E+02  0.33550435969E+02  0.39871559654E+02  0.00000000000E+00 0.  1.
         22    1    4    4    0    0 -0.24214132196E+01 -0.97090242765E+01  0.37130636069E+03  0.37144116881E+03  0.00000000000E+00 0.  1.
         22    1    4    4    0    0  0.53966413939E+00 -0.11751836283E+02  0.12696543445E+03  0.12750928766E+03  0.00000000000E+00 0.  1.
<mgrwt>
<rscale>  0 0.86569507E+02</rscale>
<asrwt>0</asrwt>
<pdfrwt beam="1">  1        2 0.82357252E-01 0.86569507E+02</pdfrwt>
<pdfrwt beam="2">  1       -2 0.53844498E-03 0.86569507E+02</pdfrwt>
<totfact> 0.25249198E+05</totfact>
</mgrwt>
</event>
<event>
 7    1  0.3056193E-009  0.9227672E+02  0.7818608E-02  0.1297430E+00
         -2   -1    0    0    0  501 -0.00000000000E+00  0.00000000000E+00  0.31630209938E+02  0.31630210041E+02  0.25500000000E-02 0.  1.
          2   -1    0    0  501    0  0.00000000000E+00 -0.00000000000E+00 -0.67301107125E+02  0.67301107173E+02  0.25500000000E-02 0. -1.
         23    2    1    2    0    0  0.00000000000E+00  0.00000000000E+00 -0.35670897187E+02  0.98931317214E+02  0.92276717646E+02 0.  0.
    9000005    2    3    3    0    0  0.20562594805E+02 -0.29493968604E+02 -0.47649482804E+02  0.61034074537E+02  0.12726765257E+02 0.  0.
         22    1    3    3    0    0 -0.20562594805E+02  0.29493968604E+02  0.11978585618E+02  0.37897242677E+02  0.00000000000E+00 0.  1.
         22    1    4    4    0    0  0.15610765657E+02 -0.16367744514E+02 -0.20743734606E+02  0.30690415283E+02  0.00000000000E+00 0.  1.
         22    1    4    4    0    0  0.49518291488E+01 -0.13126224090E+02 -0.26905748198E+02  0.30343659253E+02  0.00000000000E+00 0.  1.
<mgrwt>
<rscale>  0 0.92276718E+02</rscale>
<asrwt>0</asrwt>
<pdfrwt beam="2">  1        2 0.10354016E-01 0.92276718E+02</pdfrwt>
<pdfrwt beam="1">  1       -2 0.48661862E-02 0.92276718E+02</pdfrwt>
<totfact> 0.10580221E+05</totfact>
</mgrwt>
</event>
<event>
 7    1  0.3056193E-009  0.9043347E+02  0.7818608E-02  0.1301805E+00
         -2   -1    0    0    0  501 -0.00000000000E+00  0.00000000000E+00  0.42167821222E+03  0.42167821223E+03  0.25500000000E-02 0.  1.
          2   -1    0    0  501    0  0.00000000000E+00 -0.00000000000E+00 -0.48486091488E+01  0.48486098193E+01  0.25500000000E-02 0. -1.
         23    2    1    2    0    0  0.00000000000E+00  0.35527136788E-14  0.41682960307E+03  0.42652682205E+03  0.90433466864E+02 0.  0.
    9000005    2    3    3    0    0 -0.37831353560E+02  0.24269599974E+02  0.19358036746E+03  0.19879793500E+03  0.51995671817E+01 0.  0.
         22    1    3    3    0    0  0.37831353560E+02 -0.24269599974E+02  0.22324923561E+03  0.22772888705E+03  0.00000000000E+00 0.  1.
         22    1    4    4    0    0 -0.31434234784E+02  0.22341856773E+02  0.16475633062E+03  0.16920968696E+03  0.00000000000E+00 0.  1.
         22    1    4    4    0    0 -0.63971187754E+01  0.19277432012E+01  0.28824036842E+02  0.29588248045E+02  0.00000000000E+00 0.  1.
<mgrwt>
<rscale>  0 0.90433467E+02</rscale>
<asrwt>0</asrwt>
<pdfrwt beam="2">  1        2 0.74593945E-03 0.90433467E+02</pdfrwt>
<pdfrwt beam="1">  1       -2 0.64873612E-01 0.90433467E+02</pdfrwt>
<totfact> 0.42050612E+04</totfact>
</mgrwt>
</event>
<event>
 7    1  0.3056193E-009  0.8649569E+02  0.7818608E-02  0.1311567E+00
         -2   -1    0    0    0  501 -0.00000000000E+00  0.00000000000E+00  0.19166933398E+03  0.19166933400E+03  0.25500000000E-02 0.  1.
          2   -1    0    0  501    0  0.00000000000E+00 -0.00000000000E+00 -0.97583486576E+01  0.97583489908E+01  0.25500000000E-02 0. -1.
         23    2    1    2    0    0  0.44408920985E-15  0.71054273576E-14  0.18191098533E+03  0.20142768299E+03  0.86495692916E+02 0.  0.
    9000005    2    3    3    0    0 -0.38646986214E+01 -0.40993932806E+02  0.68532341979E+02  0.80803658893E+02  0.11709439401E+02 0.  0.
         22    1    3    3    0    0  0.38646986214E+01  0.40993932806E+02  0.11337864335E+03  0.12062402410E+03  0.00000000000E+00 0.  1.
         22    1    4    4    0    0 -0.98183263963E-01 -0.25668868540E+02  0.32107034330E+02  0.41106716063E+02  0.00000000000E+00 0.  1.
         22    1    4    4    0    0 -0.37665153574E+01 -0.15325064267E+02  0.36425307649E+02  0.39696942830E+02  0.00000000000E+00 0.  1.
<mgrwt>
<rscale>  0 0.86495693E+02</rscale>
<asrwt>0</asrwt>
<pdfrwt beam="2">  1        2 0.15012845E-02 0.86495693E+02</pdfrwt>
<pdfrwt beam="1">  1       -2 0.29487588E-01 0.86495693E+02</pdfrwt>
<totfact> 0.72580332E+04</totfact>
</mgrwt>
</event>
<event>
 7    1  0.3056193E-009  0.9037373E+02  0.7818608E-02  0.1301949E+00
          2   -1    0    0  501    0  0.00000000000E+00  0.00000000000E+00  0.54317385544E+01  0.54317391530E+01  0.25500000000E-02 0.  1.
         -2   -1    0    0    0  501 -0.00000000000E+00 -0.00000000000E+00 -0.37591147686E+03  0.37591147687E+03  0.25500000000E-02 0. -1.
         23    2    1    2    0    0 -0.71054273576E-14 -0.35527136788E-14 -0.37047973830E+03  0.38134321602E+03  0.90373734629E+02 0.  0.
    9000005    2    3    3    0    0 -0.38467126606E+02 -0.20204485934E+02 -0.14543360877E+03  0.15214090037E+03  0.10391242676E+02 0.  0.
         22    1    3    3    0    0  0.38467126606E+02  0.20204485934E+02 -0.22504612953E+03  0.22920231565E+03  0.00000000000E+00 0. -1.
         22    1    4    4    0    0 -0.33871928148E+02 -0.13482113844E+02 -0.12216210358E+03  0.12748589907E+03  0.00000000000E+00 0. -1.
         22    1    4    4    0    0 -0.45951984579E+01 -0.67223720895E+01 -0.23271505193E+02  0.24655001304E+02  0.00000000000E+00 0. -1.
<mgrwt>
<rscale>  0 0.90373735E+02</rscale>
<asrwt>0</asrwt>
<pdfrwt beam="1">  1        2 0.83565243E-03 0.90373735E+02</pdfrwt>
<pdfrwt beam="2">  1       -2 0.57832514E-01 0.90373735E+02</pdfrwt>
<totfact> 0.45515408E+04</totfact>
</mgrwt>
</event>
<event>
 7    1  0.3056193E-009  0.9142131E+02  0.7818608E-02  0.1299446E+00
          2   -1    0    0  501    0  0.00000000000E+00  0.00000000000E+00  0.14731371280E+02  0.14731371501E+02  0.25500000000E-02 0. -1.
         -2   -1    0    0    0  501 -0.00000000000E+00 -0.00000000000E+00 -0.14183771975E+03  0.14183771978E+03  0.25500000000E-02 0.  1.
         23    2    1    2    0    0  0.00000000000E+00  0.00000000000E+00 -0.12710634847E+03  0.15656909128E+03  0.91421313277E+02 0.  0.
    9000005    2    3    3    0    0 -0.22166140987E+02 -0.21731997674E+02 -0.12073251378E+03  0.12487929327E+03  0.74081357587E+01 0.  0.
         22    1    3    3    0    0  0.22166140987E+02  0.21731997674E+02 -0.63738346980E+01  0.31689798010E+02  0.00000000000E+00 0. -1.
         22    1    4    4    0    0 -0.97166754355E+01 -0.66097411159E+01 -0.57246216835E+02  0.58439984609E+02  0.00000000000E+00 0.  1.
         22    1    4    4    0    0 -0.12449465552E+02 -0.15122256558E+02 -0.63486296941E+02  0.66439308660E+02  0.00000000000E+00 0.  1.
<mgrwt>
<rscale>  0 0.91421313E+02</rscale>
<asrwt>0</asrwt>
<pdfrwt beam="1">  1        2 0.22663649E-02 0.91421313E+02</pdfrwt>
<pdfrwt beam="2">  1       -2 0.21821187E-01 0.91421313E+02</pdfrwt>
<totfact> 0.70790958E+04</totfact>
</mgrwt>
</event>
<event>
 7    1  0.3056193E-009  0.6084069E+02  0.7818608E-02  0.1394337E+00
         -2   -1    0    0    0  501 -0.00000000000E+00  0.00000000000E+00  0.17450392575E+03  0.17450392577E+03  0.25500000000E-02 0.  1.
          2   -1    0    0  501    0  0.00000000000E+00 -0.00000000000E+00 -0.53030177078E+01  0.53030183209E+01  0.25500000000E-02 0. -1.
         23    2    1    2    0    0  0.00000000000E+00  0.00000000000E+00  0.16920090805E+03  0.17980694409E+03  0.60840692473E+02 0.  0.
    9000005    2    3    3    0    0 -0.18367968770E+02 -0.22886421894E+02  0.10809766749E+03  0.11202216269E+03  0.16397050071E+01 0.  0.
         22    1    3    3    0    0  0.18367968770E+02  0.22886421894E+02  0.61103240554E+02  0.67784781404E+02  0.00000000000E+00 0. -1.
         22    1    4    4    0    0 -0.40195295641E+01 -0.46934607827E+01  0.25284696145E+02  0.26028850363E+02  0.00000000000E+00 0.  1.
         22    1    4    4    0    0 -0.14348439206E+02 -0.18192961111E+02  0.82812971346E+02  0.85993312326E+02  0.00000000000E+00 0.  1.
<mgrwt>
<rscale>  0 0.60840692E+02</rscale>
<asrwt>0</asrwt>
<pdfrwt beam="2">  1        2 0.81584879E-03 0.60840692E+02</pdfrwt>
<pdfrwt beam="1">  1       -2 0.26846762E-01 0.60840692E+02</pdfrwt>
<totfact> 0.18299616E+05</totfact>
</mgrwt>
</event>
<event>
 7    1  0.3056193E-009  0.9974443E+02  0.7818608E-02  0.1280834E+00
         -2   -1    0    0    0  501 -0.00000000000E+00  0.00000000000E+00  0.63295844875E+01  0.63295850012E+01  0.25500000000E-02 0.  1.
          2   -1    0    0  501    0  0.00000000000E+00 -0.00000000000E+00 -0.39295431153E+03  0.39295431153E+03  0.25500000000E-02 0. -1.
         23    2    1    2    0    0  0.00000000000E+00  0.00000000000E+00 -0.38662472704E+03  0.39928389654E+03  0.99744425784E+02 0.  0.
    9000005    2    3    3    0    0  0.57650212172E+01 -0.31052276922E+02 -0.34746755443E+03  0.34897720177E+03  0.73421114685E+01 0.  0.
         22    1    3    3    0    0 -0.57650212172E+01  0.31052276922E+02 -0.39157172606E+02  0.50306694765E+02  0.00000000000E+00 0.  1.
         22    1    4    4    0    0  0.42736906961E+01 -0.67889881456E+01 -0.98192755835E+02  0.98519907078E+02  0.00000000000E+00 0.  1.
         22    1    4    4    0    0  0.14913305210E+01 -0.24263288776E+02 -0.24927479860E+03  0.25045729469E+03  0.00000000000E+00 0.  1.
<mgrwt>
<rscale>  0 0.99744426E+02</rscale>
<asrwt>0</asrwt>
<pdfrwt beam="2">  1        2 0.60454490E-01 0.99744426E+02</pdfrwt>
<pdfrwt beam="1">  1       -2 0.97378258E-03 0.99744426E+02</pdfrwt>
<totfact> 0.15607558E+05</totfact>
</mgrwt>
</event>
<event>
 7    1  0.3056193E-009  0.9083576E+02  0.7818608E-02  0.1300840E+00
         -2   -1    0    0    0  501 -0.00000000000E+00  0.00000000000E+00  0.10743942301E+02  0.10743942604E+02  0.25500000000E-02 0.  1.
          2   -1    0    0  501    0  0.00000000000E+00 -0.00000000000E+00 -0.19199505780E+03  0.19199505782E+03  0.25500000000E-02 0. -1.
         23    2    1    2    0    0  0.00000000000E+00  0.00000000000E+00 -0.18125111550E+03  0.20273900042E+03  0.90835760699E+02 0.  0.
    9000005    2    3    3    0    0  0.42719864366E+02 -0.77888095547E+01 -0.68464880956E+02  0.81882113698E+02  0.11471192339E+02 0.  0.
         22    1    3    3    0    0 -0.42719864366E+02  0.77888095547E+01 -0.11278623454E+03  0.12085688672E+03  0.00000000000E+00 0. -1.
         22    1    4    4    0    0  0.12459576912E+02 -0.40587834706E+01 -0.30457208765E+02  0.33156543033E+02  0.00000000000E+00 0. -1.
         22    1    4    4    0    0  0.30260287453E+02 -0.37300260841E+01 -0.38007672190E+02  0.48725570666E+02  0.00000000000E+00 0. -1.
<mgrwt>
<rscale>  0 0.90835761E+02</rscale>
<asrwt>0</asrwt>
<pdfrwt beam="2">  1        2 0.29537699E-01 0.90835761E+02</pdfrwt>
<pdfrwt beam="1">  1       -2 0.16529144E-02 0.90835761E+02</pdfrwt>
<totfact> 0.15396570E+05</totfact>
</mgrwt>
</event>
<event>
 7    1  0.3056193E-009  0.9484237E+02  0.7818608E-02  0.1291532E+00
         -2   -1    0    0    0  501 -0.00000000000E+00  0.00000000000E+00  0.36163701701E+01  0.36163710691E+01  0.25500000000E-02 0.  1.
          2   -1    0    0  501    0  0.00000000000E+00 -0.00000000000E+00 -0.62183029640E+03  0.62183029640E+03  0.25500000000E-02 0. -1.
         23    2    1    2    0    0  0.00000000000E+00  0.00000000000E+00 -0.61821392623E+03  0.62544666747E+03  0.94842370648E+02 0.  0.
    9000005    2    3    3    0    0 -0.33654607674E+02  0.19788380084E+02 -0.48414121704E+03  0.48580532706E+03  0.94807782235E+01 0.  0.
         22    1    3    3    0    0  0.33654607674E+02 -0.19788380084E+02 -0.13407270918E+03  0.13964134041E+03  0.00000000000E+00 0.  1.
         22    1    4    4    0    0 -0.25217728259E+02  0.99851423633E+01 -0.30980362400E+03  0.31098862090E+03  0.00000000000E+00 0. -1.
         22    1    4    4    0    0 -0.84368794153E+01  0.98032377203E+01 -0.17433759304E+03  0.17481670616E+03  0.00000000000E+00 0. -1.
<mgrwt>
<rscale>  0 0.94842371E+02</rscale>
<asrwt>0</asrwt>
<pdfrwt beam="2">  1        2 0.95666115E-01 0.94842371E+02</pdfrwt>
<pdfrwt beam="1">  1       -2 0.55636520E-03 0.94842371E+02</pdfrwt>
<totfact> 0.20733147E+05</totfact>
</mgrwt>
</event>
<event>
 7    1  0.3056193E-009  0.9138549E+02  0.7818608E-02  0.1299531E+00
         -2   -1    0    0    0  501 -0.00000000000E+00  0.00000000000E+00  0.62763665260E+01  0.62763670440E+01  0.25500000000E-02 0. -1.
          2   -1    0    0  501    0  0.00000000000E+00 -0.00000000000E+00 -0.33264898016E+03  0.33264898017E+03  0.25500000000E-02 0.  1.
         23    2    1    2    0    0  0.00000000000E+00  0.00000000000E+00 -0.32637261363E+03  0.33892534721E+03  0.91385491483E+02 0.  0.
    9000005    2    3    3    0    0  0.14132104464E+02 -0.42145121362E+02 -0.15793133208E+03  0.16471744567E+03  0.14615184636E+02 0.  0.
         22    1    3    3    0    0 -0.14132104464E+02  0.42145121362E+02 -0.16844128155E+03  0.17420790155E+03  0.00000000000E+00 0. -1.
         22    1    4    4    0    0  0.17394798419E+01 -0.75541155674E+01 -0.52445110385E+02  0.53014904087E+02  0.00000000000E+00 0. -1.
         22    1    4    4    0    0  0.12392624622E+02 -0.34591005794E+02 -0.10548622170E+03  0.11170254158E+03  0.00000000000E+00 0. -1.
<mgrwt>
<rscale>  0 0.91385491E+02</rscale>
<asrwt>0</asrwt>
<pdfrwt beam="2">  1        2 0.51176752E-01 0.91385491E+02</pdfrwt>
<pdfrwt beam="1">  1       -2 0.96559515E-03 0.91385491E+02</pdfrwt>
<totfact> 0.18554271E+05</totfact>
</mgrwt>
</event>
<event>
 7    1  0.3056193E-009  0.9331500E+02  0.7818608E-02  0.1295017E+00
          2   -1    0    0  501    0  0.00000000000E+00  0.00000000000E+00  0.50693611771E+02  0.50693611835E+02  0.25500000000E-02 0. -1.
         -2   -1    0    0    0  501 -0.00000000000E+00 -0.00000000000E+00 -0.42942735430E+02  0.42942735506E+02  0.25500000000E-02 0.  1.
         23    2    1    2    0    0  0.00000000000E+00  0.00000000000E+00  0.77508763408E+01  0.93636347340E+02  0.93315001255E+02 0.  0.
    9000005    2    3    3    0    0 -0.31858015972E+02 -0.33283459538E+02  0.14175587406E+01  0.47130081393E+02  0.98241151664E+01 0.  0.
         22    1    3    3    0    0  0.31858015972E+02  0.33283459538E+02  0.63333176002E+01  0.46506265947E+02  0.00000000000E+00 0. -1.
         22    1    4    4    0    0 -0.15299998131E+02 -0.12903932764E+02  0.49960779096E+01  0.20629159412E+02  0.00000000000E+00 0.  1.
         22    1    4    4    0    0 -0.16558017841E+02 -0.20379526774E+02 -0.35785191689E+01  0.26500921981E+02  0.00000000000E+00 0.  1.
<mgrwt>
<rscale>  0 0.93315001E+02</rscale>
<asrwt>0</asrwt>
<pdfrwt beam="1">  1        2 0.77990172E-02 0.93315001E+02</pdfrwt>
<pdfrwt beam="2">  1       -2 0.66065747E-02 0.93315001E+02</pdfrwt>
<totfact> 0.94937650E+04</totfact>
</mgrwt>
</event>
<event>
 7    1  0.3957701E-009  0.9166943E+02  0.7818608E-02  0.1298859E+00
         -2   -1    0    0    0  501 -0.00000000000E+00  0.00000000000E+00  0.71916793490E+01  0.71916798011E+01  0.25500000000E-02 0. -1.
          2   -1    0    0  501    0  0.00000000000E+00 -0.00000000000E+00 -0.29211826542E+03  0.29211826543E+03  0.25500000000E-02 0.  1.
         23    2    1    2    0    0  0.00000000000E+00  0.00000000000E+00 -0.28492658607E+03  0.29930994523E+03  0.91669427099E+02 0.  0.
    9000005    2    3    3    0    0  0.11858264362E+02 -0.67676193253E+01 -0.28495293346E+03  0.28565638162E+03  0.14662024652E+02 0.  0.
         22    1    3    3    0    0 -0.11858264362E+02  0.67676193253E+01  0.26347394403E-01  0.13653563608E+02  0.00000000000E+00 0. -1.
         22    1    4    4    0    0  0.21640136165E+01 -0.24965046085E+01 -0.10689241639E+02  0.11188180236E+02  0.00000000000E+00 0.  1.
         22    1    4    4    0    0  0.96942507459E+01 -0.42711147168E+01 -0.27426369182E+03  0.27446820138E+03  0.00000000000E+00 0.  1.
<mgrwt>
<rscale>  0 0.91669427E+02</rscale>
<asrwt>0</asrwt>
<pdfrwt beam="2">  1        2 0.44941263E-01 0.91669427E+02</pdfrwt>
<pdfrwt beam="1">  1       -2 0.11064125E-02 0.91669427E+02</pdfrwt>
<totfact> 0.17534388E+05</totfact>
</mgrwt>
</event>
<event>
 7    1  0.3056193E-009  0.9167848E+02  0.7818608E-02  0.1298837E+00
          2   -1    0    0  501    0  0.00000000000E+00  0.00000000000E+00  0.39906654049E+03  0.39906654050E+03  0.25500000000E-02 0. -1.
         -2   -1    0    0    0  501 -0.00000000000E+00 -0.00000000000E+00 -0.52653772483E+01  0.52653778657E+01  0.25500000000E-02 0.  1.
         23    2    1    2    0    0  0.00000000000E+00 -0.88817841970E-15  0.39380116324E+03  0.40433191836E+03  0.91678481866E+02 0.  0.
    9000005    2    3    3    0    0  0.44408342918E+02  0.44535726612E+01  0.23589069981E+03  0.24023545378E+03  0.87587534661E+01 0.  0.
         22    1    3    3    0    0 -0.44408342918E+02 -0.44535726612E+01  0.15791046343E+03  0.16409646459E+03  0.00000000000E+00 0.  1.
         22    1    4    4    0    0  0.39879072183E+01  0.30392482873E+01  0.28518776700E+02  0.28956192060E+02  0.00000000000E+00 0. -1.
         22    1    4    4    0    0  0.40420435699E+02  0.14143243739E+01  0.20737192311E+03  0.21127926172E+03  0.00000000000E+00 0. -1.
<mgrwt>
<rscale>  0 0.91678482E+02</rscale>
<asrwt>0</asrwt>
<pdfrwt beam="1">  1        2 0.61394866E-01 0.91678482E+02</pdfrwt>
<pdfrwt beam="2">  1       -2 0.81005790E-03 0.91678482E+02</pdfrwt>
<totfact> 0.19657136E+05</totfact>
</mgrwt>
</event>
<event>
 7    1  0.3056193E-009  0.9138334E+02  0.7818608E-02  0.1299536E+00
          2   -1    0    0  501    0  0.00000000000E+00  0.00000000000E+00  0.29335932187E+03  0.29335932188E+03  0.25500000000E-02 0. -1.
         -2   -1    0    0    0  501 -0.00000000000E+00 -0.00000000000E+00 -0.71166263642E+01  0.71166268211E+01  0.25500000000E-02 0.  1.
         23    2    1    2    0    0  0.00000000000E+00  0.00000000000E+00  0.28624269551E+03  0.30047594870E+03  0.91383341031E+02 0.  0.
    9000005    2    3    3    0    0  0.30389923688E+02  0.25544425245E+02  0.74237385894E+02  0.84785623406E+02  0.10067142051E+02 0.  0.
         22    1    3    3    0    0 -0.30389923688E+02 -0.25544425245E+02  0.21200530961E+03  0.21569032530E+03  0.00000000000E+00 0. -1.
         22    1    4    4    0    0  0.29685456310E+02  0.26173993590E+02  0.69712822311E+02  0.80163469557E+02  0.00000000000E+00 0.  1.
         22    1    4    4    0    0  0.70446737825E+00 -0.62956834536E+00  0.45245635834E+01  0.46221538495E+01  0.00000000000E+00 0.  1.
<mgrwt>
<rscale>  0 0.91383341E+02</rscale>
<asrwt>0</asrwt>
<pdfrwt beam="1">  1        2 0.45132209E-01 0.91383341E+02</pdfrwt>
<pdfrwt beam="2">  1       -2 0.10948655E-02 0.91383341E+02</pdfrwt>
<totfact> 0.17709451E+05</totfact>
</mgrwt>
</event>
<event>
 7    1  0.3056193E-009  0.8955847E+02  0.7818608E-02  0.1303924E+00
         -2   -1    0    0    0  501 -0.00000000000E+00  0.00000000000E+00  0.88445650448E+02  0.88445650485E+02  0.25500000000E-02 0.  1.
          2   -1    0    0  501    0  0.00000000000E+00 -0.00000000000E+00 -0.22671323507E+02  0.22671323650E+02  0.25500000000E-02 0. -1.
         23    2    1    2    0    0  0.00000000000E+00  0.00000000000E+00  0.65774326941E+02  0.11111697414E+03  0.89558471718E+02 0.  0.
    9000005    2    3    3    0    0  0.56822489834E+01  0.32312894370E+02 -0.24684129199E+01  0.35397210270E+02  0.13055969380E+02 0.  0.
         22    1    3    3    0    0 -0.56822489834E+01 -0.32312894370E+02  0.68242739861E+02  0.75719763865E+02  0.00000000000E+00 0.  1.
         22    1    4    4    0    0  0.57190076894E+01  0.32237397863E+02  0.18618779547E+00  0.32741281829E+02  0.00000000000E+00 0. -1.
         22    1    4    4    0    0 -0.36758706015E-01  0.75496507588E-01 -0.26546007154E+01  0.26559284409E+01  0.00000000000E+00 0. -1.
<mgrwt>
<rscale>  0 0.89558472E+02</rscale>
<asrwt>0</asrwt>
<pdfrwt beam="2">  1        2 0.34878959E-02 0.89558472E+02</pdfrwt>
<pdfrwt beam="1">  1       -2 0.13607023E-01 0.89558472E+02</pdfrwt>
<totfact> 0.86457320E+04</totfact>
</mgrwt>
</event>
<event>
 7    1  0.3056193E-009  0.8803430E+02  0.7818608E-02  0.1307683E+00
         -2   -1    0    0    0  501 -0.00000000000E+00  0.00000000000E+00  0.30086776605E+01  0.30086787411E+01  0.25500000000E-02 0.  1.
          2   -1    0    0  501    0  0.00000000000E+00 -0.00000000000E+00 -0.64397370414E+03  0.64397370415E+03  0.25500000000E-02 0. -1.
         23    2    1    2    0    0  0.00000000000E+00  0.00000000000E+00 -0.64096502648E+03  0.64698238289E+03  0.88034303514E+02 0.  0.
    9000005    2    3    3    0    0  0.12446936635E+02  0.31002848086E+02 -0.52960076364E+03  0.53071501060E+03  0.80839844708E+01 0.  0.
         22    1    3    3    0    0 -0.12446936635E+02 -0.31002848086E+02 -0.11136426284E+03  0.11626737229E+03  0.00000000000E+00 0.  1.
         22    1    4    4    0    0  0.52728511855E+01  0.89807815094E+01 -0.22163208955E+03  0.22187663354E+03  0.00000000000E+00 0. -1.
         22    1    4    4    0    0  0.71740854495E+01  0.22022066576E+02 -0.30796867410E+03  0.30883837706E+03  0.00000000000E+00 0. -1.
<mgrwt>
<rscale>  0 0.88034304E+02</rscale>
<asrwt>0</asrwt>
<pdfrwt beam="2">  1        2 0.99072768E-01 0.88034304E+02</pdfrwt>
<pdfrwt beam="1">  1       -2 0.46287408E-03 0.88034304E+02</pdfrwt>
<totfact> 0.25477544E+05</totfact>
</mgrwt>
</event>
<event>
 7    1  0.3056193E-009  0.9149400E+02  0.7818608E-02  0.1299274E+00
          2   -1    0    0  501    0  0.00000000000E+00  0.00000000000E+00  0.28422734481E+02  0.28422734595E+02  0.25500000000E-02 0. -1.
         -2   -1    0    0    0  501 -0.00000000000E+00 -0.00000000000E+00 -0.73630777486E+02  0.73630777530E+02  0.25500000000E-02 0.  1.
         23    2    1    2    0    0  0.35527136788E-14  0.00000000000E+00 -0.45208043005E+02  0.10205351213E+03  0.91494000813E+02 0.  0.
    9000005    2    3    3    0    0 -0.31108844053E+02 -0.10430065383E+02  0.12415342556E+02  0.35743625941E+02  0.68497899546E+01 0.  0.
         22    1    3    3    0    0  0.31108844053E+02  0.10430065383E+02 -0.57623385560E+02  0.66309886184E+02  0.00000000000E+00 0.  1.
         22    1    4    4    0    0 -0.11267047705E+02 -0.70505972477E+00  0.27130707617E+01  0.11610522217E+02  0.00000000000E+00 0.  1.
         22    1    4    4    0    0 -0.19841796349E+02 -0.97250056585E+01  0.97022717938E+01  0.24133103724E+02  0.00000000000E+00 0.  1.
<mgrwt>
<rscale>  0 0.91494001E+02</rscale>
<asrwt>0</asrwt>
<pdfrwt beam="1">  1        2 0.43727284E-02 0.91494001E+02</pdfrwt>
<pdfrwt beam="2">  1       -2 0.11327812E-01 0.91494001E+02</pdfrwt>
<totfact> 0.86292977E+04</totfact>
</mgrwt>
</event>
<event>
 7    1  0.3056193E-009  0.9128377E+02  0.7818608E-02  0.1299772E+00
         -2   -1    0    0    0  501 -0.00000000000E+00  0.00000000000E+00  0.23740536720E+02  0.23740536857E+02  0.25500000000E-02 0. -1.
          2   -1    0    0  501    0  0.00000000000E+00 -0.00000000000E+00 -0.87747882899E+02  0.87747882936E+02  0.25500000000E-02 0.  1.
         23    2    1    2    0    0  0.00000000000E+00  0.00000000000E+00 -0.64007346179E+02  0.11148841979E+03  0.91283773931E+02 0.  0.
    9000005    2    3    3    0    0 -0.58777712952E+01 -0.42253724975E+02 -0.47328561268E+02  0.65683318158E+02  0.15949297880E+02 0.  0.
         22    1    3    3    0    0  0.58777712952E+01  0.42253724975E+02 -0.16678784911E+02  0.45805101635E+02  0.00000000000E+00 0.  1.
         22    1    4    4    0    0 -0.11085610388E+01 -0.16395057240E+02 -0.29958528390E+02  0.34169287858E+02  0.00000000000E+00 0.  1.
         22    1    4    4    0    0 -0.47692102563E+01 -0.25858667736E+02 -0.17370032878E+02  0.31514030300E+02  0.00000000000E+00 0.  1.
<mgrwt>
<rscale>  0 0.91283774E+02</rscale>
<asrwt>0</asrwt>
<pdfrwt beam="2">  1        2 0.13499674E-01 0.91283774E+02</pdfrwt>
<pdfrwt beam="1">  1       -2 0.36523903E-02 0.91283774E+02</pdfrwt>
<totfact> 0.11759156E+05</totfact>
</mgrwt>
</event>
<event>
 7    1  0.3056193E-009  0.8864441E+02  0.7818608E-02  0.1306168E+00
         -2   -1    0    0    0  501 -0.00000000000E+00  0.00000000000E+00  0.20508574546E+02  0.20508574704E+02  0.25500000000E-02 0.  1.
          2   -1    0    0  501    0  0.00000000000E+00 -0.00000000000E+00 -0.95787144174E+02  0.95787144208E+02  0.25500000000E-02 0. -1.
         23    2    1    2    0    0  0.00000000000E+00  0.00000000000E+00 -0.75278569629E+02  0.11629571891E+03  0.88644408690E+02 0.  0.
    9000005    2    3    3    0    0 -0.12131288633E+02 -0.28781792312E+02  0.18850177087E+01  0.33050425091E+02  0.10640374727E+02 0.  0.
         22    1    3    3    0    0  0.12131288633E+02  0.28781792312E+02 -0.77163587337E+02  0.83245293821E+02  0.00000000000E+00 0. -1.
         22    1    4    4    0    0 -0.13458858662E+02 -0.20803274581E+02  0.14799173738E+00  0.24777792705E+02  0.00000000000E+00 0.  1.
         22    1    4    4    0    0  0.13275700291E+01 -0.79785177309E+01  0.17370259714E+01  0.82726323858E+01  0.00000000000E+00 0.  1.
<mgrwt>
<rscale>  0 0.88644409E+02</rscale>
<asrwt>0</asrwt>
<pdfrwt beam="2">  1        2 0.14736484E-01 0.88644409E+02</pdfrwt>
<pdfrwt beam="1">  1       -2 0.31551654E-02 0.88644409E+02</pdfrwt>
<totfact> 0.13084011E+05</totfact>
</mgrwt>
</event>
<event>
 7    1  0.3056193E-009  0.9023051E+02  0.7818608E-02  0.1302294E+00
          2   -1    0    0  501    0  0.00000000000E+00  0.00000000000E+00  0.11037463591E+03  0.11037463594E+03  0.25500000000E-02 0.  1.
         -2   -1    0    0    0  501 -0.00000000000E+00 -0.00000000000E+00 -0.18440705589E+02  0.18440705765E+02  0.25500000000E-02 0. -1.
         23    2    1    2    0    0  0.00000000000E+00  0.00000000000E+00  0.91933930322E+02  0.12881534171E+03  0.90230508778E+02 0.  0.
    9000005    2    3    3    0    0 -0.10115865790E+02 -0.26792658326E+02 -0.16075330659E+01  0.30988031339E+02  0.11725896250E+02 0.  0.
         22    1    3    3    0    0  0.10115865790E+02  0.26792658326E+02  0.93541463387E+02  0.97827310366E+02  0.00000000000E+00 0.  1.
         22    1    4    4    0    0 -0.75985097488E+01 -0.13444366988E+02  0.45133211258E+01  0.16089077714E+02  0.00000000000E+00 0. -1.
         22    1    4    4    0    0 -0.25173560416E+01 -0.13348291338E+02 -0.61208541917E+01  0.14898953625E+02  0.00000000000E+00 0. -1.
<mgrwt>
<rscale>  0 0.90230509E+02</rscale>
<asrwt>0</asrwt>
<pdfrwt beam="1">  1        2 0.16980713E-01 0.90230509E+02</pdfrwt>
<pdfrwt beam="2">  1       -2 0.28370317E-02 0.90230509E+02</pdfrwt>
<totfact> 0.13013789E+05</totfact>
</mgrwt>
</event>
<event>
 7    1  0.3056193E-009  0.9241674E+02  0.7818608E-02  0.1297103E+00
         -2   -1    0    0    0  501 -0.00000000000E+00  0.00000000000E+00  0.11425229147E+02  0.11425229431E+02  0.25500000000E-02 0.  1.
          2   -1    0    0  501    0  0.00000000000E+00 -0.00000000000E+00 -0.18688582429E+03  0.18688582431E+03  0.25500000000E-02 0. -1.
         23    2    1    2    0    0  0.00000000000E+00  0.00000000000E+00 -0.17546059514E+03  0.19831105374E+03  0.92416738672E+02 0.  0.
    9000005    2    3    3    0    0 -0.21352128490E+02 -0.34904629311E+02 -0.13148935749E+03  0.13824678583E+03  0.12185077813E+02 0.  0.
         22    1    3    3    0    0  0.21352128490E+02  0.34904629311E+02 -0.43971237650E+02  0.60064267904E+02  0.00000000000E+00 0.  1.
         22    1    4    4    0    0 -0.26480115789E+01 -0.81245886896E+00 -0.19557069454E+02  0.19752240895E+02  0.00000000000E+00 0. -1.
         22    1    4    4    0    0 -0.18704116911E+02 -0.34092170442E+02 -0.11193228804E+03  0.11849454494E+03  0.00000000000E+00 0. -1.
<mgrwt>
<rscale>  0 0.92416739E+02</rscale>
<asrwt>0</asrwt>
<pdfrwt beam="2">  1        2 0.28751663E-01 0.92416739E+02</pdfrwt>
<pdfrwt beam="1">  1       -2 0.17577277E-02 0.92416739E+02</pdfrwt>
<totfact> 0.14554377E+05</totfact>
</mgrwt>
</event>
<event>
 7    1  0.3056193E-009  0.9598713E+02  0.7818608E-02  0.1288968E+00
          2   -1    0    0  501    0  0.00000000000E+00  0.00000000000E+00  0.38673987083E+03  0.38673987083E+03  0.25500000000E-02 0. -1.
         -2   -1    0    0    0  501 -0.00000000000E+00 -0.00000000000E+00 -0.59558953183E+01  0.59558958642E+01  0.25500000000E-02 0.  1.
         23    2    1    2    0    0  0.00000000000E+00  0.00000000000E+00  0.38078397551E+03  0.39269576670E+03  0.95987130281E+02 0.  0.
    9000005    2    3    3    0    0  0.44623760922E+02  0.17270459514E+02  0.19886737842E+03  0.20459154796E+03  0.44630132331E+01 0.  0.
         22    1    3    3    0    0 -0.44623760922E+02 -0.17270459514E+02  0.18191659709E+03  0.18810421874E+03  0.00000000000E+00 0.  1.
         22    1    4    4    0    0  0.21809711479E+02  0.63008242012E+01  0.98250400582E+02  0.10083900592E+03  0.00000000000E+00 0.  1.
         22    1    4    4    0    0  0.22814049442E+02  0.10969635313E+02  0.10061697784E+03  0.10375254204E+03  0.00000000000E+00 0.  1.
<mgrwt>
<rscale>  0 0.95987130E+02</rscale>
<asrwt>0</asrwt>
<pdfrwt beam="1">  1        2 0.59498446E-01 0.95987130E+02</pdfrwt>
<pdfrwt beam="2">  1       -2 0.91629157E-03 0.95987130E+02</pdfrwt>
<totfact> 0.17197163E+05</totfact>
</mgrwt>
</event>
<event>
 7    1  0.3056193E-009  0.9059171E+02  0.7818608E-02  0.1301425E+00
         -2   -1    0    0    0  501 -0.00000000000E+00  0.00000000000E+00  0.18864186502E+01  0.18864203737E+01  0.25500000000E-02 0.  1.
          2   -1    0    0  501    0  0.00000000000E+00 -0.00000000000E+00 -0.10876236605E+04  0.10876236605E+04  0.25500000000E-02 0. -1.
         23    2    1    2    0    0  0.00000000000E+00  0.35527136788E-14 -0.10857372418E+04  0.10895100809E+04  0.90591710394E+02 0.  0.
    9000005    2    3    3    0    0 -0.21256453416E+02 -0.25510317709E+02 -0.91213464750E+03  0.91276033155E+03  0.62605560806E+01 0.  0.
         22    1    3    3    0    0  0.21256453416E+02  0.25510317709E+02 -0.17360259433E+03  0.17674974930E+03  0.00000000000E+00 0.  1.
         22    1    4    4    0    0 -0.21326090083E+02 -0.24737069965E+02 -0.86010141985E+03  0.86072131214E+03  0.00000000000E+00 0.  1.
         22    1    4    4    0    0  0.69636667592E-01 -0.77324774339E+00 -0.52033227655E+02  0.52039019414E+02  0.00000000000E+00 0.  1.
<mgrwt>
<rscale>  0 0.90591710E+02</rscale>
<asrwt>0</asrwt>
<pdfrwt beam="2">  1        2 0.16732622E+00 0.90591710E+02</pdfrwt>
<pdfrwt beam="1">  1       -2 0.29021926E-03 0.90591710E+02</pdfrwt>
<totfact> 0.25454026E+05</totfact>
</mgrwt>
</event>
<event>
 7    1  0.6269372E-009  0.1134226E+03  0.7818608E-02  0.1254360E+00
         -2   -1    0    0    0  501 -0.00000000000E+00  0.00000000000E+00  0.15244322864E+01  0.15244344191E+01  0.25500000000E-02 0. -1.
          2   -1    0    0  501    0  0.00000000000E+00 -0.00000000000E+00 -0.21097472093E+04  0.21097472093E+04  0.25500000000E-02 0.  1.
         23    2    1    2    0    0 -0.88817841970E-15  0.00000000000E+00 -0.21082227770E+04  0.21112716437E+04  0.11342255534E+03 0.  0.
    9000005    2    3    3    0    0  0.74938432640E+01  0.26869003360E+02 -0.19706571208E+04  0.19709063674E+04  0.14294063470E+02 0.  0.
         22    1    3    3    0    0 -0.74938432640E+01 -0.26869003360E+02 -0.13756565620E+03  0.14036527631E+03  0.00000000000E+00 0. -1.
         22    1    4    4    0    0 -0.27122882450E+01  0.14769670717E+02 -0.11350869705E+04  0.11351862976E+04  0.00000000000E+00 0. -1.
         22    1    4    4    0    0  0.10206131509E+02  0.12099332643E+02 -0.83557015032E+03  0.83572006980E+03  0.00000000000E+00 0. -1.
<mgrwt>
<rscale>  0 0.11342256E+03</rscale>
<asrwt>0</asrwt>
<pdfrwt beam="2">  1        2 0.32457416E+00 0.11342256E+03</pdfrwt>
<pdfrwt beam="1">  1       -2 0.23452990E-03 0.11342256E+03</pdfrwt>
<totfact> 0.10408872E+05</totfact>
</mgrwt>
</event>
<event>
 7    1  0.3056193E-009  0.9164008E+02  0.7818608E-02  0.1298928E+00
         -2   -1    0    0    0  501 -0.00000000000E+00  0.00000000000E+00  0.85709474914E+03  0.85709474914E+03  0.25500000000E-02 0.  1.
          2   -1    0    0  501    0  0.00000000000E+00 -0.00000000000E+00 -0.24495252924E+01  0.24495266197E+01  0.25500000000E-02 0. -1.
         23    2    1    2    0    0  0.00000000000E+00 -0.17763568394E-14  0.85464522384E+03  0.85954427576E+03  0.91640075034E+02 0.  0.
    9000005    2    3    3    0    0  0.35242913682E+02  0.15896712087E+02  0.65342547245E+03  0.65464391761E+03  0.99520045227E+01 0.  0.
         22    1    3    3    0    0 -0.35242913682E+02 -0.15896712087E+02  0.20121975140E+03  0.20490035815E+03  0.00000000000E+00 0. -1.
         22    1    4    4    0    0  0.74840414112E+01  0.50189100611E+01  0.96097179890E+02  0.96518745935E+02  0.00000000000E+00 0. -1.
         22    1    4    4    0    0  0.27758872271E+02  0.10877802025E+02  0.55732829256E+03  0.55812517167E+03  0.00000000000E+00 0. -1.
<mgrwt>
<rscale>  0 0.91640075E+02</rscale>
<asrwt>0</asrwt>
<pdfrwt beam="2">  1        2 0.37685043E-03 0.91640075E+02</pdfrwt>
<pdfrwt beam="1">  1       -2 0.13186063E+00 0.91640075E+02</pdfrwt>
<totfact> 0.21901244E+04</totfact>
</mgrwt>
</event>
<event>
 7    1  0.3056193E-009  0.1003059E+03  0.7818608E-02  0.1279654E+00
         -2   -1    0    0    0  501 -0.00000000000E+00  0.00000000000E+00  0.16710421930E+02  0.16710422124E+02  0.25500000000E-02 0.  1.
          2   -1    0    0  501    0  0.00000000000E+00 -0.00000000000E+00 -0.15052393589E+03  0.15052393592E+03  0.25500000000E-02 0. -1.
         23    2    1    2    0    0  0.00000000000E+00  0.71054273576E-14 -0.13381351396E+03  0.16723435804E+03  0.10030590207E+03 0.  0.
    9000005    2    3    3    0    0  0.20300893797E+01  0.44173062101E+02 -0.30611256918E+02  0.54957528117E+02  0.11309295661E+02 0.  0.
         22    1    3    3    0    0 -0.20300893797E+01 -0.44173062101E+02 -0.10320225705E+03  0.11227682992E+03  0.00000000000E+00 0. -1.
         22    1    4    4    0    0 -0.28190908986E+01  0.18717002824E+02 -0.18069368804E+02  0.26168216546E+02  0.00000000000E+00 0. -1.
         22    1    4    4    0    0  0.48491802783E+01  0.25456059276E+02 -0.12541888114E+02  0.28789311571E+02  0.00000000000E+00 0. -1.
<mgrwt>
<rscale>  0 0.10030590E+03</rscale>
<asrwt>0</asrwt>
<pdfrwt beam="2">  1        2 0.23157528E-01 0.10030590E+03</pdfrwt>
<pdfrwt beam="1">  1       -2 0.25708343E-02 0.10030590E+03</pdfrwt>
<totfact> 0.10784795E+05</totfact>
</mgrwt>
</event>
<event>
 7    1  0.3056193E-009  0.8773834E+02  0.7818608E-02  0.1308423E+00
          2   -1    0    0  501    0  0.00000000000E+00  0.00000000000E+00  0.55928708294E+03  0.55928708294E+03  0.25500000000E-02 0. -1.
         -2   -1    0    0    0  501 -0.00000000000E+00 -0.00000000000E+00 -0.34409945955E+01  0.34409955403E+01  0.25500000000E-02 0.  1.
         23    2    1    2    0    0  0.00000000000E+00  0.00000000000E+00  0.55584608834E+03  0.56272807848E+03  0.87738340472E+02 0.  0.
    9000005    2    3    3    0    0 -0.11924261429E+02 -0.34975333878E+02  0.42384379992E+03  0.42565121633E+03  0.13035690933E+02 0.  0.
         22    1    3    3    0    0  0.11924261429E+02  0.34975333878E+02  0.13200228842E+03  0.13707686216E+03  0.00000000000E+00 0.  1.
         22    1    4    4    0    0 -0.40507026392E+01 -0.12190938048E+02  0.22229788029E+03  0.22266875565E+03  0.00000000000E+00 0. -1.
         22    1    4    4    0    0 -0.78735587893E+01 -0.22784395830E+02  0.20154591963E+03  0.20298246068E+03  0.00000000000E+00 0. -1.
<mgrwt>
<rscale>  0 0.87738340E+02</rscale>
<asrwt>0</asrwt>
<pdfrwt beam="1">  1        2 0.86044136E-01 0.87738340E+02</pdfrwt>
<pdfrwt beam="2">  1       -2 0.52938405E-03 0.87738340E+02</pdfrwt>
<totfact> 0.24702351E+05</totfact>
</mgrwt>
</event>
<event>
 7    1  0.3056193E-009  0.9126315E+02  0.7818608E-02  0.1299821E+00
         -2   -1    0    0    0  501 -0.00000000000E+00  0.00000000000E+00  0.27378117640E+01  0.27378129515E+01  0.25500000000E-02 0.  1.
          2   -1    0    0  501    0  0.00000000000E+00 -0.00000000000E+00 -0.76054908404E+03  0.76054908404E+03  0.25500000000E-02 0. -1.
         23    2    1    2    0    0  0.00000000000E+00  0.17763568394E-14 -0.75781127227E+03  0.76328689699E+03  0.91263151035E+02 0.  0.
    9000005    2    3    3    0    0 -0.23636100933E+02  0.15484757228E+02 -0.67653221539E+03  0.67723616742E+03  0.12431613540E+02 0.  0.
         22    1    3    3    0    0  0.23636100933E+02 -0.15484757228E+02 -0.81279056876E+02  0.86050729575E+02  0.00000000000E+00 0.  1.
         22    1    4    4    0    0 -0.10020181351E+01  0.63437963355E+01 -0.15502638293E+03  0.15515936065E+03  0.00000000000E+00 0. -1.
         22    1    4    4    0    0 -0.22634082798E+02  0.91409608925E+01 -0.52150583246E+03  0.52207680676E+03  0.00000000000E+00 0. -1.
<mgrwt>
<rscale>  0 0.91263151E+02</rscale>
<asrwt>0</asrwt>
<pdfrwt beam="2">  1        2 0.11700738E+00 0.91263151E+02</pdfrwt>
<pdfrwt beam="1">  1       -2 0.42120251E-03 0.91263151E+02</pdfrwt>
<totfact> 0.24083765E+05</totfact>
</mgrwt>
</event>
<event>
 7    1  0.3056193E-009  0.9164964E+02  0.7818608E-02  0.1298905E+00
          2   -1    0    0  501    0  0.00000000000E+00  0.00000000000E+00  0.66222712294E+02  0.66222712343E+02  0.25500000000E-02 0. -1.
         -2   -1    0    0    0  501 -0.00000000000E+00 -0.00000000000E+00 -0.31709874660E+02  0.31709874763E+02  0.25500000000E-02 0.  1.
         23    2    1    2    0    0  0.00000000000E+00  0.35527136788E-14  0.34512837634E+02  0.97932587106E+02  0.91649635328E+02 0.  0.
    9000005    2    3    3    0    0  0.35327187453E+02  0.28736979247E+02  0.12372041335E+02  0.47296246298E+02  0.31691256664E+01 0.  0.
         22    1    3    3    0    0 -0.35327187453E+02 -0.28736979247E+02  0.22140796299E+02  0.50636340808E+02  0.00000000000E+00 0. -1.
         22    1    4    4    0    0  0.10137887205E+02  0.80344754155E+01  0.20552705568E+01  0.13097850558E+02  0.00000000000E+00 0.  1.
         22    1    4    4    0    0  0.25189300249E+02  0.20702503832E+02  0.10316770778E+02  0.34198395740E+02  0.00000000000E+00 0.  1.
<mgrwt>
<rscale>  0 0.91649635E+02</rscale>
<asrwt>0</asrwt>
<pdfrwt beam="1">  1        2 0.10188110E-01 0.91649635E+02</pdfrwt>
<pdfrwt beam="2">  1       -2 0.48784423E-02 0.91649635E+02</pdfrwt>
<totfact> 0.10737127E+05</totfact>
</mgrwt>
</event>
<event>
 7    1  0.3056193E-009  0.9120820E+02  0.7818608E-02  0.1299952E+00
          2   -1    0    0  501    0  0.00000000000E+00  0.00000000000E+00  0.20701000712E+02  0.20701000869E+02  0.25500000000E-02 0.  1.
         -2   -1    0    0    0  501 -0.00000000000E+00 -0.00000000000E+00 -0.10046538202E+03  0.10046538205E+03  0.25500000000E-02 0. -1.
         23    2    1    2    0    0 -0.35527136788E-14 -0.35527136788E-14 -0.79764381309E+02  0.12116638292E+03  0.91208200425E+02 0.  0.
    9000005    2    3    3    0    0 -0.31490728077E+02 -0.31661484379E+02 -0.37955012186E+02  0.59993358685E+02  0.12825934211E+02 0.  0.
         22    1    3    3    0    0  0.31490728077E+02  0.31661484379E+02 -0.41809369123E+02  0.61173024238E+02  0.00000000000E+00 0.  1.
         22    1    4    4    0    0 -0.17536942875E+02 -0.10614425132E+02 -0.22260233044E+02  0.30261003973E+02  0.00000000000E+00 0. -1.
         22    1    4    4    0    0 -0.13953785202E+02 -0.21047059247E+02 -0.15694779142E+02  0.29732354712E+02  0.00000000000E+00 0. -1.
<mgrwt>
<rscale>  0 0.91208200E+02</rscale>
<asrwt>0</asrwt>
<pdfrwt beam="1">  1        2 0.31847694E-02 0.91208200E+02</pdfrwt>
<pdfrwt beam="2">  1       -2 0.15456212E-01 0.91208200E+02</pdfrwt>
<totfact> 0.79627414E+04</totfact>
</mgrwt>
</event>
<event>
 7    1  0.3056193E-009  0.8880332E+02  0.7818608E-02  0.1305776E+00
          2   -1    0    0  501    0  0.00000000000E+00  0.00000000000E+00  0.23108410799E+03  0.23108410800E+03  0.25500000000E-02 0. -1.
         -2   -1    0    0    0  501 -0.00000000000E+00 -0.00000000000E+00 -0.85315575217E+01  0.85315579028E+01  0.25500000000E-02 0.  1.
         23    2    1    2    0    0  0.00000000000E+00  0.00000000000E+00  0.22255255047E+03  0.23961566591E+03  0.88803319916E+02 0.  0.
    9000005    2    3    3    0    0  0.35987456612E+02 -0.22596362455E+02  0.92306440001E+02  0.10261295819E+03  0.14256496537E+02 0.  0.
         22    1    3    3    0    0 -0.35987456612E+02  0.22596362455E+02  0.13024611047E+03  0.13700270772E+03  0.00000000000E+00 0.  1.
         22    1    4    4    0    0  0.22857737128E+02 -0.87807818127E+01  0.39518872135E+02  0.46489993877E+02  0.00000000000E+00 0. -1.
         22    1    4    4    0    0  0.13129719483E+02 -0.13815580642E+02  0.52787567866E+02  0.56122964314E+02  0.00000000000E+00 0. -1.
<mgrwt>
<rscale>  0 0.88803320E+02</rscale>
<asrwt>0</asrwt>
<pdfrwt beam="1">  1        2 0.35551406E-01 0.88803320E+02</pdfrwt>
<pdfrwt beam="2">  1       -2 0.13125472E-02 0.88803320E+02</pdfrwt>
<totfact> 0.17498604E+05</totfact>
</mgrwt>
</event>
<event>
 7    1  0.3056193E-009  0.9398688E+02  0.7818608E-02  0.1293474E+00
         -2   -1    0    0    0  501 -0.00000000000E+00  0.00000000000E+00  0.25266286062E+01  0.25266298930E+01  0.25500000000E-02 0.  1.
          2   -1    0    0  501    0  0.00000000000E+00 -0.00000000000E+00 -0.87404332406E+03  0.87404332406E+03  0.25500000000E-02 0. -1.
         23    2    1    2    0    0  0.88817841970E-15  0.00000000000E+00 -0.87151669545E+03  0.87656995396E+03  0.93986880600E+02 0.  0.
    9000005    2    3    3    0    0 -0.69703876666E+01  0.30675072570E+02 -0.75689920930E+03  0.75771409793E+03  0.15642722590E+02 0.  0.
         22    1    3    3    0    0  0.69703876666E+01 -0.30675072570E+02 -0.11461748615E+03  0.11885585603E+03  0.00000000000E+00 0.  1.
         22    1    4    4    0    0  0.10995379868E+01 -0.12513851262E+01 -0.16737207807E+02  0.16819901120E+02  0.00000000000E+00 0. -1.
         22    1    4    4    0    0 -0.80699256534E+01  0.31926457696E+02 -0.74016200150E+03  0.74089419681E+03  0.00000000000E+00 0. -1.
<mgrwt>
<rscale>  0 0.93986881E+02</rscale>
<asrwt>0</asrwt>
<pdfrwt beam="2">  1        2 0.13446796E+00 0.93986881E+02</pdfrwt>
<pdfrwt beam="1">  1       -2 0.38871289E-03 0.93986881E+02</pdfrwt>
<totfact> 0.22805024E+05</totfact>
</mgrwt>
</event>
<event>
 7    1  0.3056193E-009  0.9188571E+02  0.7818608E-02  0.1298348E+00
         -2   -1    0    0    0  501 -0.00000000000E+00  0.00000000000E+00  0.73100417207E+01  0.73100421655E+01  0.25500000000E-02 0. -1.
          2   -1    0    0  501    0  0.00000000000E+00 -0.00000000000E+00 -0.28874610462E+03  0.28874610463E+03  0.25500000000E-02 0.  1.
         23    2    1    2    0    0  0.00000000000E+00 -0.88817841970E-15 -0.28143606289E+03  0.29605614679E+03  0.91885714645E+02 0.  0.
    9000005    2    3    3    0    0  0.29701887961E+02 -0.43271377393E+01 -0.25191297426E+03  0.25395461438E+03  0.11483609673E+02 0.  0.
         22    1    3    3    0    0 -0.29701887961E+02  0.43271377393E+01 -0.29523088630E+02  0.42101532415E+02  0.00000000000E+00 0. -1.
         22    1    4    4    0    0  0.16631158257E+02 -0.66465040830E+01 -0.11322567415E+03  0.11463343634E+03  0.00000000000E+00 0. -1.
         22    1    4    4    0    0  0.13070729704E+02  0.23193663437E+01 -0.13868730011E+03  0.13932117803E+03  0.00000000000E+00 0. -1.
<mgrwt>
<rscale>  0 0.91885715E+02</rscale>
<asrwt>0</asrwt>
<pdfrwt beam="2">  1        2 0.44422469E-01 0.91885715E+02</pdfrwt>
<pdfrwt beam="1">  1       -2 0.11246221E-02 0.91885715E+02</pdfrwt>
<totfact> 0.17348906E+05</totfact>
</mgrwt>
</event>
<event>
 7    1  0.3056193E-009  0.1188585E+03  0.7818608E-02  0.1244992E+00
         -2   -1    0    0    0  501 -0.00000000000E+00  0.00000000000E+00  0.11975629613E+02  0.11975629885E+02  0.25500000000E-02 0.  1.
          2   -1    0    0  501    0  0.00000000000E+00 -0.00000000000E+00 -0.29491871404E+03  0.29491871405E+03  0.25500000000E-02 0. -1.
         23    2    1    2    0    0  0.00000000000E+00  0.00000000000E+00 -0.28294308443E+03  0.30689434393E+03  0.11885852647E+03 0.  0.
    9000005    2    3    3    0    0 -0.46749158836E+02  0.19951536747E+02 -0.67785172104E+02  0.85814098538E+02  0.13626528543E+02 0.  0.
         22    1    3    3    0    0  0.46749158836E+02 -0.19951536747E+02 -0.21515791232E+03  0.22108024540E+03  0.00000000000E+00 0. -1.
         22    1    4    4    0    0 -0.43674857061E+01  0.52366079983E+01 -0.42466198929E+01  0.80331049561E+01  0.00000000000E+00 0. -1.
         22    1    4    4    0    0 -0.42381673130E+02  0.14714928749E+02 -0.63538552211E+02  0.77780993582E+02  0.00000000000E+00 0. -1.
<mgrwt>
<rscale>  0 0.11885853E+03</rscale>
<asrwt>0</asrwt>
<pdfrwt beam="2">  1        2 0.45372105E-01 0.11885853E+03</pdfrwt>
<pdfrwt beam="1">  1       -2 0.18424048E-02 0.11885853E+03</pdfrwt>
<totfact> 0.87011809E+04</totfact>
</mgrwt>
</event>
<event>
 7    1  0.3056193E-009  0.8781817E+02  0.7818608E-02  0.1308223E+00
          2   -1    0    0  501    0  0.00000000000E+00  0.00000000000E+00  0.58695674008E+03  0.58695674008E+03  0.25500000000E-02 0. -1.
         -2   -1    0    0    0  501 -0.00000000000E+00 -0.00000000000E+00 -0.32847520790E+01  0.32847530688E+01  0.25500000000E-02 0.  1.
         23    2    1    2    0    0  0.00000000000E+00  0.35527136788E-14  0.58367198800E+03  0.59024149315E+03  0.87818168189E+02 0.  0.
    9000005    2    3    3    0    0 -0.17857353362E+02 -0.22974746877E+02  0.50935531792E+03  0.51043114598E+03  0.15823742793E+02 0.  0.
         22    1    3    3    0    0  0.17857353362E+02  0.22974746877E+02  0.74316670078E+02  0.79810347165E+02  0.00000000000E+00 0.  1.
         22    1    4    4    0    0 -0.66537671123E+01  0.76161326732E+00  0.12648998526E+03  0.12666715850E+03  0.00000000000E+00 0. -1.
         22    1    4    4    0    0 -0.11203586250E+02 -0.23736360145E+02  0.38286533266E+03  0.38376398749E+03  0.00000000000E+00 0. -1.
<mgrwt>
<rscale>  0 0.87818168E+02</rscale>
<asrwt>0</asrwt>
<pdfrwt beam="1">  1        2 0.90301004E-01 0.87818168E+02</pdfrwt>
<pdfrwt beam="2">  1       -2 0.50534673E-03 0.87818168E+02</pdfrwt>
<totfact> 0.24996662E+05</totfact>
</mgrwt>
</event>
<event>
 7    1  0.3056193E-009  0.9190381E+02  0.7818608E-02  0.1298306E+00
          2   -1    0    0  501    0  0.00000000000E+00  0.00000000000E+00  0.40129381543E+03  0.40129381543E+03  0.25500000000E-02 0.  1.
         -2   -1    0    0    0  501 -0.00000000000E+00 -0.00000000000E+00 -0.52619232462E+01  0.52619238640E+01  0.25500000000E-02 0. -1.
         23    2    1    2    0    0  0.00000000000E+00  0.00000000000E+00  0.39603189218E+03  0.40655573930E+03  0.91903805866E+02 0.  0.
    9000005    2    3    3    0    0  0.23803077276E+01  0.17335187013E+02  0.38566297081E+03  0.38621639063E+03  0.10999944017E+02 0.  0.
         22    1    3    3    0    0 -0.23803077276E+01 -0.17335187013E+02  0.10368921372E+02  0.20339348664E+02  0.00000000000E+00 0. -1.
         22    1    4    4    0    0 -0.25925274771E+01  0.37285655147E+01  0.41318457630E+02  0.41567274874E+02  0.00000000000E+00 0. -1.
         22    1    4    4    0    0  0.49728352047E+01  0.13606621498E+02  0.34434451318E+03  0.34464911576E+03  0.00000000000E+00 0. -1.
<mgrwt>
<rscale>  0 0.91903806E+02</rscale>
<asrwt>0</asrwt>
<pdfrwt beam="1">  1        2 0.61737511E-01 0.91903806E+02</pdfrwt>
<pdfrwt beam="2">  1       -2 0.80952669E-03 0.91903806E+02</pdfrwt>
<totfact> 0.19568210E+05</totfact>
</mgrwt>
</event>
<event>
 7    1  0.3056193E-009  0.9079668E+02  0.7818608E-02  0.1300934E+00
          2   -1    0    0  501    0  0.00000000000E+00  0.00000000000E+00  0.28331133995E+02  0.28331134110E+02  0.25500000000E-02 0. -1.
         -2   -1    0    0    0  501 -0.00000000000E+00 -0.00000000000E+00 -0.72747157560E+02  0.72747157604E+02  0.25500000000E-02 0.  1.
         23    2    1    2    0    0  0.17763568394E-14  0.00000000000E+00 -0.44416023565E+02  0.10107829171E+03  0.90796684447E+02 0.  0.
    9000005    2    3    3    0    0  0.13732264178E+02  0.36860154162E+02  0.28416309986E+01  0.39592261113E+02  0.34966025002E+01 0.  0.
         22    1    3    3    0    0 -0.13732264178E+02 -0.36860154162E+02 -0.47257654563E+02  0.61486030601E+02  0.00000000000E+00 0.  1.
         22    1    4    4    0    0  0.11372105159E+02  0.26139745811E+02  0.23777622044E+01  0.28605328873E+02  0.00000000000E+00 0.  1.
         22    1    4    4    0    0  0.23601590189E+01  0.10720408350E+02  0.46386879419E+00  0.10986932240E+02  0.00000000000E+00 0.  1.
<mgrwt>
<rscale>  0 0.90796684E+02</rscale>
<asrwt>0</asrwt>
<pdfrwt beam="1">  1        2 0.43586360E-02 0.90796684E+02</pdfrwt>
<pdfrwt beam="2">  1       -2 0.11191870E-01 0.90796684E+02</pdfrwt>
<totfact> 0.88208650E+04</totfact>
</mgrwt>
</event>
<event>
 7    1  0.3056193E-009  0.9094912E+02  0.7818608E-02  0.1300569E+00
         -2   -1    0    0    0  501 -0.00000000000E+00  0.00000000000E+00  0.32417401048E+02  0.32417401149E+02  0.25500000000E-02 0.  1.
          2   -1    0    0  501    0  0.00000000000E+00 -0.00000000000E+00 -0.63790905849E+02  0.63790905900E+02  0.25500000000E-02 0. -1.
         23    2    1    2    0    0  0.35527136788E-14  0.88817841970E-15 -0.31373504801E+02  0.96208307048E+02  0.90949115123E+02 0.  0.
    9000005    2    3    3    0    0  0.26375557430E+02  0.67737884605E+01 -0.53807769534E+02  0.60925868442E+02  0.86678222965E+01 0.  0.
         22    1    3    3    0    0 -0.26375557430E+02 -0.67737884605E+01  0.22434264733E+02  0.35282438606E+02  0.00000000000E+00 0.  1.
         22    1    4    4    0    0  0.20893004727E+02  0.33591460307E+01 -0.46986354378E+02  0.51531728152E+02  0.00000000000E+00 0. -1.
         22    1    4    4    0    0  0.54825527029E+01  0.34146424298E+01 -0.68214151557E+01  0.93941402900E+01  0.00000000000E+00 0. -1.
<mgrwt>
<rscale>  0 0.90949115E+02</rscale>
<asrwt>0</asrwt>
<pdfrwt beam="2">  1        2 0.98139855E-02 0.90949115E+02</pdfrwt>
<pdfrwt beam="1">  1       -2 0.49872925E-02 0.90949115E+02</pdfrwt>
<totfact> 0.10859849E+05</totfact>
</mgrwt>
</event>
<event>
 7    1  0.3056193E-009  0.9241137E+02  0.7818608E-02  0.1297115E+00
          2   -1    0    0  501    0  0.00000000000E+00  0.00000000000E+00  0.28614909210E+03  0.28614909211E+03  0.25500000000E-02 0. -1.
         -2   -1    0    0    0  501 -0.00000000000E+00 -0.00000000000E+00 -0.74610245062E+01  0.74610249420E+01  0.25500000000E-02 0.  1.
         23    2    1    2    0    0  0.00000000000E+00  0.00000000000E+00  0.27868806759E+03  0.29361011705E+03  0.92411372768E+02 0.  0.
    9000005    2    3    3    0    0 -0.36471096559E+02 -0.27271713186E+02  0.13390385014E+03  0.14183279053E+03  0.10602460163E+02 0.  0.
         22    1    3    3    0    0  0.36471096559E+02  0.27271713186E+02  0.14478421745E+03  0.15177732653E+03  0.00000000000E+00 0.  1.
         22    1    4    4    0    0 -0.10345801961E+01 -0.42115557261E+01  0.16016250859E+02  0.16593006038E+02  0.00000000000E+00 0.  1.
         22    1    4    4    0    0 -0.35436516363E+02 -0.23060157460E+02  0.11788759928E+03  0.12523978449E+03  0.00000000000E+00 0.  1.
<mgrwt>
<rscale>  0 0.92411373E+02</rscale>
<asrwt>0</asrwt>
<pdfrwt beam="1">  1        2 0.44022938E-01 0.92411373E+02</pdfrwt>
<pdfrwt beam="2">  1       -2 0.11478499E-02 0.92411373E+02</pdfrwt>
<totfact> 0.17028584E+05</totfact>
</mgrwt>
</event>
<event>
 7    1  0.3056193E-009  0.8797097E+02  0.7818608E-02  0.1307841E+00
          2   -1    0    0  501    0  0.00000000000E+00  0.00000000000E+00  0.54934147189E+02  0.54934147248E+02  0.25500000000E-02 0. -1.
         -2   -1    0    0    0  501 -0.00000000000E+00 -0.00000000000E+00 -0.35218949309E+02  0.35218949401E+02  0.25500000000E-02 0.  1.
         23    2    1    2    0    0 -0.35527136788E-14  0.35527136788E-14  0.19715197880E+02  0.90153096650E+02  0.87970971394E+02 0.  0.
    9000005    2    3    3    0    0 -0.28959507011E+02 -0.31537845909E+02  0.10767345378E+02  0.46411207855E+02  0.14309986625E+02 0.  0.
         22    1    3    3    0    0  0.28959507011E+02  0.31537845909E+02  0.89478525021E+01  0.43741888794E+02  0.00000000000E+00 0. -1.
         22    1    4    4    0    0 -0.24508222234E+02 -0.18927161890E+02  0.34245663279E+01  0.31154743922E+02  0.00000000000E+00 0.  1.
         22    1    4    4    0    0 -0.44512847770E+01 -0.12610684018E+02  0.73427790500E+01  0.15256463934E+02  0.00000000000E+00 0.  1.
<mgrwt>
<rscale>  0 0.87970971E+02</rscale>
<asrwt>0</asrwt>
<pdfrwt beam="1">  1        2 0.84514073E-02 0.87970971E+02</pdfrwt>
<pdfrwt beam="2">  1       -2 0.54182999E-02 0.87970971E+02</pdfrwt>
<totfact> 0.11462554E+05</totfact>
</mgrwt>
</event>
<event>
 7    1  0.3056193E-009  0.9064395E+02  0.7818608E-02  0.1301300E+00
         -2   -1    0    0    0  501 -0.00000000000E+00  0.00000000000E+00  0.29205967670E+01  0.29205978802E+01  0.25500000000E-02 0.  1.
          2   -1    0    0  501    0  0.00000000000E+00 -0.00000000000E+00 -0.70330864793E+03  0.70330864793E+03  0.25500000000E-02 0. -1.
         23    2    1    2    0    0  0.00000000000E+00 -0.71054273576E-14 -0.70038805116E+03  0.70622924581E+03  0.90643948680E+02 0.  0.
    9000005    2    3    3    0    0  0.13899825906E+02 -0.35827585355E+02 -0.53128013298E+03  0.53280978605E+03  0.12282808316E+02 0.  0.
         22    1    3    3    0    0 -0.13899825906E+02  0.35827585355E+02 -0.16910791819E+03  0.17341945977E+03  0.00000000000E+00 0.  1.
         22    1    4    4    0    0  0.99875355217E+01 -0.16440330297E+02 -0.19435098298E+03  0.19530063981E+03  0.00000000000E+00 0.  1.
         22    1    4    4    0    0  0.39122903845E+01 -0.19387255057E+02 -0.33692915000E+03  0.33750914623E+03  0.00000000000E+00 0.  1.
<mgrwt>
<rscale>  0 0.90643949E+02</rscale>
<asrwt>0</asrwt>
<pdfrwt beam="2">  1        2 0.10820120E+00 0.90643949E+02</pdfrwt>
<pdfrwt beam="1">  1       -2 0.44932322E-03 0.90643949E+02</pdfrwt>
<totfact> 0.24110017E+05</totfact>
</mgrwt>
</event>
<event>
 7    1  0.3056193E-009  0.9125883E+02  0.7818608E-02  0.1299832E+00
         -2   -1    0    0    0  501 -0.00000000000E+00  0.00000000000E+00  0.23123466577E+01  0.23123480637E+01  0.25500000000E-02 0.  1.
          2   -1    0    0  501    0  0.00000000000E+00 -0.00000000000E+00 -0.90040254108E+03  0.90040254109E+03  0.25500000000E-02 0. -1.
         23    2    1    2    0    0  0.00000000000E+00  0.00000000000E+00 -0.89809019442E+03  0.90271488915E+03  0.91258828453E+02 0.  0.
    9000005    2    3    3    0    0  0.18792585123E+02  0.13866475182E+02 -0.83558984144E+03  0.83599356937E+03  0.11376490005E+02 0.  0.
         22    1    3    3    0    0 -0.18792585123E+02 -0.13866475182E+02 -0.62500352986E+02  0.66721319779E+02  0.00000000000E+00 0.  1.
         22    1    4    4    0    0  0.78648157495E+01  0.11246451946E+02 -0.34092979017E+03  0.34120589068E+03  0.00000000000E+00 0.  1.
         22    1    4    4    0    0  0.10927769374E+02  0.26200232366E+01 -0.49466005127E+03  0.49478767869E+03  0.00000000000E+00 0.  1.
<mgrwt>
<rscale>  0 0.91258828E+02</rscale>
<asrwt>0</asrwt>
<pdfrwt beam="2">  1        2 0.13852319E+00 0.91258828E+02</pdfrwt>
<pdfrwt beam="1">  1       -2 0.35574646E-03 0.91258828E+02</pdfrwt>
<totfact> 0.24736762E+05</totfact>
</mgrwt>
</event>
<event>
 7    1  0.3056193E-009  0.9156971E+02  0.7818608E-02  0.1299094E+00
          2   -1    0    0  501    0  0.00000000000E+00  0.00000000000E+00  0.35542503611E+02  0.35542503703E+02  0.25500000000E-02 0. -1.
         -2   -1    0    0    0  501 -0.00000000000E+00 -0.00000000000E+00 -0.58978762288E+02  0.58978762343E+02  0.25500000000E-02 0.  1.
         23    2    1    2    0    0  0.00000000000E+00  0.00000000000E+00 -0.23436258677E+02  0.94521266046E+02  0.91569708497E+02 0.  0.
    9000005    2    3    3    0    0 -0.36100738827E+02  0.25090078845E+02 -0.23570685566E+02  0.50557718977E+02  0.82298438476E+01 0.  0.
         22    1    3    3    0    0  0.36100738827E+02 -0.25090078845E+02  0.13442688944E+00  0.43963547069E+02  0.00000000000E+00 0.  1.
         22    1    4    4    0    0 -0.15949340532E+02  0.15911357549E+02 -0.10636635566E+02  0.24913666503E+02  0.00000000000E+00 0.  1.
         22    1    4    4    0    0 -0.20151398294E+02  0.91787212967E+01 -0.12934050000E+02  0.25644052474E+02  0.00000000000E+00 0.  1.
<mgrwt>
<rscale>  0 0.91569708E+02</rscale>
<asrwt>0</asrwt>
<pdfrwt beam="1">  1        2 0.54680775E-02 0.91569708E+02</pdfrwt>
<pdfrwt beam="2">  1       -2 0.90736558E-02 0.91569708E+02</pdfrwt>
<totfact> 0.91350777E+04</totfact>
</mgrwt>
</event>
<event>
 7    1  0.3056193E-009  0.9198734E+02  0.7818608E-02  0.1298109E+00
          2   -1    0    0  501    0  0.00000000000E+00  0.00000000000E+00  0.34831132085E+03  0.34831132086E+03  0.25500000000E-02 0.  1.
         -2   -1    0    0    0  501 -0.00000000000E+00 -0.00000000000E+00 -0.60733523158E+01  0.60733528512E+01  0.25500000000E-02 0. -1.
         23    2    1    2    0    0  0.00000000000E+00  0.00000000000E+00  0.34223796853E+03  0.35438467371E+03  0.91987335294E+02 0.  0.
    9000005    2    3    3    0    0  0.46119688997E+01  0.32723565846E+02  0.29281444559E+03  0.29493060203E+03  0.12314968563E+02 0.  0.
         22    1    3    3    0    0 -0.46119688997E+01 -0.32723565846E+02  0.49423522944E+02  0.59454071677E+02  0.00000000000E+00 0. -1.
         22    1    4    4    0    0 -0.52392204207E+00  0.28604942382E+02  0.23020407349E+03  0.23197506908E+03  0.00000000000E+00 0. -1.
         22    1    4    4    0    0  0.51358909417E+01  0.41186234637E+01  0.62610372102E+02  0.62955532955E+02  0.00000000000E+00 0. -1.
<mgrwt>
<rscale>  0 0.91987335E+02</rscale>
<asrwt>0</asrwt>
<pdfrwt beam="1">  1        2 0.53586376E-01 0.91987335E+02</pdfrwt>
<pdfrwt beam="2">  1       -2 0.93436161E-03 0.91987335E+02</pdfrwt>
<totfact> 0.18543715E+05</totfact>
</mgrwt>
</event>
<event>
 7    1  0.3056193E-009  0.8967327E+02  0.7818608E-02  0.1303645E+00
         -2   -1    0    0    0  501 -0.00000000000E+00  0.00000000000E+00  0.80859144108E+01  0.80859148129E+01  0.25500000000E-02 0.  1.
          2   -1    0    0  501    0  0.00000000000E+00 -0.00000000000E+00 -0.24862044488E+03  0.24862044489E+03  0.25500000000E-02 0. -1.
         23    2    1    2    0    0  0.00000000000E+00  0.22204460493E-15 -0.24053453046E+03  0.25670635970E+03  0.89673266726E+02 0.  0.
    9000005    2    3    3    0    0 -0.42059360531E+02  0.17312845723E+01 -0.16101028020E+03  0.16672806490E+03  0.10097036291E+02 0.  0.
         22    1    3    3    0    0  0.42059360531E+02 -0.17312845723E+01 -0.79524250264E+02  0.89978294798E+02  0.00000000000E+00 0.  1.
         22    1    4    4    0    0 -0.22317283584E+02  0.17989870725E+01 -0.66187092415E+02  0.69871515680E+02  0.00000000000E+00 0. -1.
         22    1    4    4    0    0 -0.19742076948E+02 -0.67702500189E-01 -0.94823187786E+02  0.96856549224E+02  0.00000000000E+00 0. -1.
<mgrwt>
<rscale>  0 0.89673267E+02</rscale>
<asrwt>0</asrwt>
<pdfrwt beam="2">  1        2 0.38249293E-01 0.89673267E+02</pdfrwt>
<pdfrwt beam="1">  1       -2 0.12439871E-02 0.89673267E+02</pdfrwt>
<totfact> 0.17513441E+05</totfact>
</mgrwt>
</event>
<event>
 7    1  0.3056193E-009  0.9133200E+02  0.7818608E-02  0.1299658E+00
         -2   -1    0    0    0  501 -0.00000000000E+00  0.00000000000E+00  0.12217613137E+03  0.12217613140E+03  0.25500000000E-02 0.  1.
          2   -1    0    0  501    0  0.00000000000E+00 -0.00000000000E+00 -0.17068664198E+02  0.17068664388E+02  0.25500000000E-02 0. -1.
         23    2    1    2    0    0 -0.35527136788E-14 -0.35527136788E-14  0.10510746717E+03  0.13924479578E+03  0.91331996024E+02 0.  0.
    9000005    2    3    3    0    0 -0.23686118803E+02 -0.16730758857E+02  0.20675288330E+01  0.32201909945E+02  0.13846942362E+02 0.  0.
         22    1    3    3    0    0  0.23686118803E+02  0.16730758857E+02  0.10303993834E+03  0.10704288584E+03  0.00000000000E+00 0.  1.
         22    1    4    4    0    0 -0.65856174749E+01  0.88278970341E+00 -0.27384017534E+01  0.71866904309E+01  0.00000000000E+00 0. -1.
         22    1    4    4    0    0 -0.17100501328E+02 -0.17613548560E+02  0.48059305864E+01  0.25015219514E+02  0.00000000000E+00 0. -1.
<mgrwt>
<rscale>  0 0.91331996E+02</rscale>
<asrwt>0</asrwt>
<pdfrwt beam="2">  1        2 0.26259483E-02 0.91331996E+02</pdfrwt>
<pdfrwt beam="1">  1       -2 0.18796328E-01 0.91331996E+02</pdfrwt>
<totfact> 0.74657845E+04</totfact>
</mgrwt>
</event>
<event>
 7    1  0.3056193E-009  0.9011845E+02  0.7818608E-02  0.1302565E+00
          2   -1    0    0  501    0  0.00000000000E+00  0.00000000000E+00  0.71616867933E+01  0.71616872473E+01  0.25500000000E-02 0.  1.
         -2   -1    0    0    0  501 -0.00000000000E+00 -0.00000000000E+00 -0.28349939749E+03  0.28349939751E+03  0.25500000000E-02 0. -1.
         23    2    1    2    0    0 -0.22204460493E-15  0.00000000000E+00 -0.27633771070E+03  0.29066108475E+03  0.90118454461E+02 0.  0.
    9000005    2    3    3    0    0 -0.12267487629E+01  0.41519186800E+02 -0.18580913182E+03  0.19105801562E+03  0.15899184972E+02 0.  0.
         22    1    3    3    0    0  0.12267487629E+01 -0.41519186800E+02 -0.90528578885E+02  0.99603069130E+02  0.00000000000E+00 0.  1.
         22    1    4    4    0    0 -0.24276646813E+01  0.30238246170E+02 -0.16022463250E+03  0.16307108250E+03  0.00000000000E+00 0.  1.
         22    1    4    4    0    0  0.12009159184E+01  0.11280940630E+02 -0.25584499317E+02  0.27986933126E+02  0.00000000000E+00 0.  1.
<mgrwt>
<rscale>  0 0.90118454E+02</rscale>
<asrwt>0</asrwt>
<pdfrwt beam="1">  1        2 0.11017982E-02 0.90118454E+02</pdfrwt>
<pdfrwt beam="2">  1       -2 0.43615283E-01 0.90118454E+02</pdfrwt>
<totfact> 0.54222520E+04</totfact>
</mgrwt>
</event>
<event>
 7    1  0.3056193E-009  0.8665246E+02  0.7818608E-02  0.1311167E+00
         -2   -1    0    0    0  501 -0.00000000000E+00  0.00000000000E+00  0.14350815966E+02  0.14350816193E+02  0.25500000000E-02 0.  1.
          2   -1    0    0  501    0  0.00000000000E+00 -0.00000000000E+00 -0.13080526031E+03  0.13080526033E+03  0.25500000000E-02 0. -1.
         23    2    1    2    0    0 -0.71054273576E-14  0.35527136788E-14 -0.11645444434E+03  0.14515607653E+03  0.86652460700E+02 0.  0.
    9000005    2    3    3    0    0  0.32600315196E+02 -0.25375351773E+02 -0.47977327574E+02  0.65182302391E+02  0.15499017885E+02 0.  0.
         22    1    3    3    0    0 -0.32600315196E+02  0.25375351773E+02 -0.68477116767E+02  0.79973774134E+02  0.00000000000E+00 0. -1.
         22    1    4    4    0    0  0.19366721997E+02 -0.16989568252E+02 -0.40058976553E+02  0.47628110952E+02  0.00000000000E+00 0.  1.
         22    1    4    4    0    0  0.13233593199E+02 -0.83857835207E+01 -0.79183510203E+01  0.17554191440E+02  0.00000000000E+00 0.  1.
<mgrwt>
<rscale>  0 0.86652461E+02</rscale>
<asrwt>0</asrwt>
<pdfrwt beam="2">  1        2 0.20123885E-01 0.86652461E+02</pdfrwt>
<pdfrwt beam="1">  1       -2 0.22078179E-02 0.86652461E+02</pdfrwt>
<totfact> 0.15333921E+05</totfact>
</mgrwt>
</event>
<event>
 7    1  0.3056193E-009  0.9055706E+02  0.7818608E-02  0.1301508E+00
          2   -1    0    0  501    0  0.00000000000E+00  0.00000000000E+00  0.37986796471E+03  0.37986796471E+03  0.25500000000E-02 0. -1.
         -2   -1    0    0    0  501 -0.00000000000E+00 -0.00000000000E+00 -0.53969945723E+01  0.53969951748E+01  0.25500000000E-02 0.  1.
         23    2    1    2    0    0  0.00000000000E+00 -0.88817841970E-15  0.37447097013E+03  0.38526495989E+03  0.90557064030E+02 0.  0.
    9000005    2    3    3    0    0  0.25503861899E+02  0.44518421950E+01  0.34499909898E+03  0.34603669126E+03  0.68372163294E+01 0.  0.
         22    1    3    3    0    0 -0.25503861899E+02 -0.44518421950E+01  0.29471871152E+02  0.39228268632E+02  0.00000000000E+00 0.  1.
         22    1    4    4    0    0  0.36306085688E+01 -0.93039298030E+00  0.77612750221E+02  0.77703191354E+02  0.00000000000E+00 0. -1.
         22    1    4    4    0    0  0.21873253330E+02  0.53822351753E+01  0.26738634876E+03  0.26833349990E+03  0.00000000000E+00 0. -1.
<mgrwt>
<rscale>  0 0.90557064E+02</rscale>
<asrwt>0</asrwt>
<pdfrwt beam="1">  1        2 0.58441236E-01 0.90557064E+02</pdfrwt>
<pdfrwt beam="2">  1       -2 0.83030675E-03 0.90557064E+02</pdfrwt>
<totfact> 0.19952911E+05</totfact>
</mgrwt>
</event>
<event>
 7    1  0.3056193E-009  0.8799201E+02  0.7818608E-02  0.1307788E+00
          2   -1    0    0  501    0  0.00000000000E+00  0.00000000000E+00  0.97761046585E+01  0.97761049911E+01  0.25500000000E-02 0. -1.
         -2   -1    0    0    0  501 -0.00000000000E+00 -0.00000000000E+00 -0.19799790401E+03  0.19799790402E+03  0.25500000000E-02 0.  1.
         23    2    1    2    0    0  0.00000000000E+00 -0.35527136788E-14 -0.18822179935E+03  0.20777400901E+03  0.87992005728E+02 0.  0.
    9000005    2    3    3    0    0 -0.11956455453E+02 -0.31644762965E+02 -0.30562794123E+02  0.46526653133E+02  0.92896295441E+01 0.  0.
         22    1    3    3    0    0  0.11956455453E+02  0.31644762965E+02 -0.15765900522E+03  0.16124735588E+03  0.00000000000E+00 0.  1.
         22    1    4    4    0    0 -0.99501401546E+01 -0.14441758109E+02 -0.17996262114E+02  0.25128372738E+02  0.00000000000E+00 0. -1.
         22    1    4    4    0    0 -0.20063152980E+01 -0.17203004855E+02 -0.12566532010E+02  0.21398280395E+02  0.00000000000E+00 0. -1.
<mgrwt>
<rscale>  0 0.87992006E+02</rscale>
<asrwt>0</asrwt>
<pdfrwt beam="1">  1        2 0.15040163E-02 0.87992006E+02</pdfrwt>
<pdfrwt beam="2">  1       -2 0.30461213E-01 0.87992006E+02</pdfrwt>
<totfact> 0.68529736E+04</totfact>
</mgrwt>
</event>
<event>
 7    1  0.3056193E-009  0.9268588E+02  0.7818608E-02  0.1296475E+00
         -2   -1    0    0    0  501 -0.00000000000E+00  0.00000000000E+00  0.93057908265E+01  0.93057911758E+01  0.25500000000E-02 0. -1.
          2   -1    0    0  501    0  0.00000000000E+00 -0.00000000000E+00 -0.23078835722E+03  0.23078835724E+03  0.25500000000E-02 0.  1.
         23    2    1    2    0    0  0.00000000000E+00  0.00000000000E+00 -0.22148256640E+03  0.24009414841E+03  0.92685882876E+02 0.  0.
    9000005    2    3    3    0    0  0.24294274589E+02  0.37813417227E+02 -0.10448661518E+03  0.11476211380E+03  0.15258561888E+02 0.  0.
         22    1    3    3    0    0 -0.24294274589E+02 -0.37813417227E+02 -0.11699595121E+03  0.12533203462E+03  0.00000000000E+00 0. -1.
         22    1    4    4    0    0  0.24807304486E+02  0.34946029462E+02 -0.10284865366E+03  0.11142025351E+03  0.00000000000E+00 0. -1.
         22    1    4    4    0    0 -0.51302989678E+00  0.28673877652E+01 -0.16379615187E+01  0.33418602915E+01  0.00000000000E+00 0. -1.
<mgrwt>
<rscale>  0 0.92685883E+02</rscale>
<asrwt>0</asrwt>
<pdfrwt beam="2">  1        2 0.35505897E-01 0.92685883E+02</pdfrwt>
<pdfrwt beam="1">  1       -2 0.14316603E-02 0.92685883E+02</pdfrwt>
<totfact> 0.15594557E+05</totfact>
</mgrwt>
</event>
<event>
 7    1  0.3056193E-009  0.9252413E+02  0.7818608E-02  0.1296852E+00
         -2   -1    0    0    0  501 -0.00000000000E+00  0.00000000000E+00  0.79938459700E+01  0.79938463767E+01  0.25500000000E-02 0.  1.
          2   -1    0    0  501    0  0.00000000000E+00 -0.00000000000E+00 -0.26772829280E+03  0.26772829282E+03  0.25500000000E-02 0. -1.
         23    2    1    2    0    0  0.00000000000E+00  0.00000000000E+00 -0.25973444683E+03  0.27572213919E+03  0.92524132900E+02 0.  0.
    9000005    2    3    3    0    0  0.96420818449E+01  0.43763612561E+02 -0.15585432620E+03  0.16258813462E+03  0.11666490426E+02 0.  0.
         22    1    3    3    0    0 -0.96420818449E+01 -0.43763612561E+02 -0.10388012064E+03  0.11313400457E+03  0.00000000000E+00 0.  1.
         22    1    4    4    0    0 -0.23106571788E+00  0.25624890600E+02 -0.89167192093E+02  0.92776487082E+02  0.00000000000E+00 0. -1.
         22    1    4    4    0    0  0.98731475628E+01  0.18138721961E+02 -0.66687134106E+02  0.69811647541E+02  0.00000000000E+00 0. -1.
<mgrwt>
<rscale>  0 0.92524133E+02</rscale>
<asrwt>0</asrwt>
<pdfrwt beam="2">  1        2 0.41188961E-01 0.92524133E+02</pdfrwt>
<pdfrwt beam="1">  1       -2 0.12298227E-02 0.92524133E+02</pdfrwt>
<totfact> 0.16555925E+05</totfact>
</mgrwt>
</event>
<event>
 7    1  0.3056193E-009  0.9573909E+02  0.7818608E-02  0.1289520E+00
          2   -1    0    0  501    0  0.00000000000E+00  0.00000000000E+00  0.30102112595E+03  0.30102112596E+03  0.25500000000E-02 0. -1.
         -2   -1    0    0    0  501 -0.00000000000E+00 -0.00000000000E+00 -0.76124008198E+01  0.76124012469E+01  0.25500000000E-02 0.  1.
         23    2    1    2    0    0  0.00000000000E+00  0.00000000000E+00  0.29340872513E+03  0.30863352721E+03  0.95739094074E+02 0.  0.
    9000005    2    3    3    0    0 -0.61003022484E+01 -0.46928239990E+02  0.12526709124E+03  0.13395930918E+03  0.37120038259E+01 0.  0.
         22    1    3    3    0    0  0.61003022484E+01  0.46928239990E+02  0.16814163389E+03  0.17467421803E+03  0.00000000000E+00 0. -1.
         22    1    4    4    0    0 -0.23204805010E+01 -0.27788744506E+02  0.69993457451E+02  0.75343765747E+02  0.00000000000E+00 0. -1.
         22    1    4    4    0    0 -0.37798217474E+01 -0.19139495483E+02  0.55273633784E+02  0.58615543429E+02  0.00000000000E+00 0. -1.
<mgrwt>
<rscale>  0 0.95739094E+02</rscale>
<asrwt>0</asrwt>
<pdfrwt beam="1">  1        2 0.46310934E-01 0.95739094E+02</pdfrwt>
<pdfrwt beam="2">  1       -2 0.11711388E-02 0.95739094E+02</pdfrwt>
<totfact> 0.15784915E+05</totfact>
</mgrwt>
</event>
<event>
 7    1  0.3845272E-009  0.9002113E+02  0.7818608E-02  0.1302801E+00
         -2   -1    0    0    0  501 -0.00000000000E+00  0.00000000000E+00  0.12023012815E+01  0.12023039857E+01  0.25500000000E-02 0.  1.
          2   -1    0    0  501    0  0.00000000000E+00 -0.00000000000E+00 -0.16850591297E+04  0.16850591297E+04  0.25500000000E-02 0. -1.
         23    2    1    2    0    0  0.00000000000E+00  0.00000000000E+00 -0.16838568285E+04  0.16862614337E+04  0.90021131581E+02 0.  0.
    9000005    2    3    3    0    0  0.14242480873E+02 -0.86951795594E+00 -0.16400824564E+04  0.16402201482E+04  0.15750126454E+02 0.  0.
         22    1    3    3    0    0 -0.14242480873E+02  0.86951795594E+00 -0.43774372051E+02  0.46041285509E+02  0.00000000000E+00 0.  1.
         22    1    4    4    0    0  0.79765848749E+01 -0.68571564779E+00 -0.14706178594E+04  0.14706396514E+04  0.00000000000E+00 0. -1.
         22    1    4    4    0    0  0.62658959977E+01 -0.18380230814E+00 -0.16946459704E+03  0.16958049677E+03  0.00000000000E+00 0. -1.
<mgrwt>
<rscale>  0 0.90021132E+02</rscale>
<asrwt>0</asrwt>
<pdfrwt beam="2">  1        2 0.25923798E+00 0.90021132E+02</pdfrwt>
<pdfrwt beam="1">  1       -2 0.18497098E-03 0.90021132E+02</pdfrwt>
<totfact> 0.23106503E+05</totfact>
</mgrwt>
</event>
<event>
 7    1  0.3056193E-009  0.9139722E+02  0.7818608E-02  0.1299503E+00
         -2   -1    0    0    0  501 -0.00000000000E+00  0.00000000000E+00  0.43923580584E+01  0.43923587986E+01  0.25500000000E-02 0.  1.
          2   -1    0    0  501    0  0.00000000000E+00 -0.00000000000E+00 -0.47545364948E+03  0.47545364949E+03  0.25500000000E-02 0. -1.
         23    2    1    2    0    0  0.00000000000E+00 -0.71054273576E-14 -0.47106129142E+03  0.47984600828E+03  0.91397217637E+02 0.  0.
    9000005    2    3    3    0    0  0.51866581820E+01  0.33170510154E+02 -0.39701231242E+03  0.39854142380E+03  0.94501907659E+01 0.  0.
         22    1    3    3    0    0 -0.51866581820E+01 -0.33170510154E+02 -0.74048979005E+02  0.81304584487E+02  0.00000000000E+00 0.  1.
         22    1    4    4    0    0  0.33741929026E+01  0.15418886653E+02 -0.13441239037E+03  0.13533594470E+03  0.00000000000E+00 0.  1.
         22    1    4    4    0    0  0.18124652794E+01  0.17751623502E+02 -0.26259992205E+03  0.26320547910E+03  0.00000000000E+00 0.  1.
<mgrwt>
<rscale>  0 0.91397218E+02</rscale>
<asrwt>0</asrwt>
<pdfrwt beam="2">  1        2 0.73146675E-01 0.91397218E+02</pdfrwt>
<pdfrwt beam="1">  1       -2 0.67574783E-03 0.91397218E+02</pdfrwt>
<totfact> 0.21059951E+05</totfact>
</mgrwt>
</event>
<event>
 7    1  0.3056193E-009  0.9092315E+02  0.7818608E-02  0.1300631E+00
          2   -1    0    0  501    0  0.00000000000E+00  0.00000000000E+00  0.42641999603E+02  0.42641999680E+02  0.25500000000E-02 0. -1.
         -2   -1    0    0    0  501 -0.00000000000E+00 -0.00000000000E+00 -0.48467581202E+02  0.48467581269E+02  0.25500000000E-02 0.  1.
         23    2    1    2    0    0  0.00000000000E+00  0.00000000000E+00 -0.58255815985E+01  0.91109580948E+02  0.90923145236E+02 0.  0.
    9000005    2    3    3    0    0 -0.49539944332E+01 -0.12619223415E+02  0.39383151048E+02  0.43911949991E+02  0.13908267509E+02 0.  0.
         22    1    3    3    0    0  0.49539944332E+01  0.12619223415E+02 -0.45208732647E+02  0.47197630957E+02  0.00000000000E+00 0.  1.
         22    1    4    4    0    0 -0.64229649060E+01 -0.14394269404E+02  0.26572475484E+02  0.30895726617E+02  0.00000000000E+00 0.  1.
         22    1    4    4    0    0  0.14689704729E+01  0.17750459886E+01  0.12810675564E+02  0.13016223374E+02  0.00000000000E+00 0.  1.
<mgrwt>
<rscale>  0 0.90923145E+02</rscale>
<asrwt>0</asrwt>
<pdfrwt beam="1">  1        2 0.65603076E-02 0.90923145E+02</pdfrwt>
<pdfrwt beam="2">  1       -2 0.74565510E-02 0.90923145E+02</pdfrwt>
<totfact> 0.97762717E+04</totfact>
</mgrwt>
</event>
<event>
 7    1  0.3056193E-009  0.9101953E+02  0.7818608E-02  0.1300401E+00
         -2   -1    0    0    0  501 -0.00000000000E+00  0.00000000000E+00  0.10757262809E+03  0.10757262812E+03  0.25500000000E-02 0.  1.
          2   -1    0    0  501    0  0.00000000000E+00 -0.00000000000E+00 -0.19253397381E+02  0.19253397549E+02  0.25500000000E-02 0. -1.
         23    2    1    2    0    0 -0.71054273576E-14  0.00000000000E+00  0.88319230708E+02  0.12682602567E+03  0.91019526882E+02 0.  0.
    9000005    2    3    3    0    0  0.36502753304E+02 -0.14839657851E+02  0.13679737337E+02  0.42423890537E+02  0.77449874605E+01 0.  0.
         22    1    3    3    0    0 -0.36502753304E+02  0.14839657851E+02  0.74639493371E+02  0.84402135131E+02  0.00000000000E+00 0.  1.
         22    1    4    4    0    0  0.12893876202E+01  0.28675637140E+00 -0.69425414017E+00  0.14922260093E+01  0.00000000000E+00 0.  1.
         22    1    4    4    0    0  0.35213365684E+02 -0.15126414223E+02  0.14373991477E+02  0.40931664528E+02  0.00000000000E+00 0.  1.
<mgrwt>
<rscale>  0 0.91019527E+02</rscale>
<asrwt>0</asrwt>
<pdfrwt beam="2">  1        2 0.29620612E-02 0.91019527E+02</pdfrwt>
<pdfrwt beam="1">  1       -2 0.16549635E-01 0.91019527E+02</pdfrwt>
<totfact> 0.78399098E+04</totfact>
</mgrwt>
</event>
<event>
 7    1  0.3056193E-009  0.9079268E+02  0.7818608E-02  0.1300943E+00
         -2   -1    0    0    0  501 -0.00000000000E+00  0.00000000000E+00  0.70143247026E+02  0.70143247072E+02  0.25500000000E-02 0.  1.
          2   -1    0    0  501    0  0.00000000000E+00 -0.00000000000E+00 -0.29380273512E+02  0.29380273623E+02  0.25500000000E-02 0. -1.
         23    2    1    2    0    0  0.00000000000E+00  0.00000000000E+00  0.40762973514E+02  0.99523520695E+02  0.90792682314E+02 0.  0.
    9000005    2    3    3    0    0 -0.31591954711E+01 -0.40535747963E+02  0.42110091348E+02  0.58842541043E+02  0.60047867646E+01 0.  0.
         22    1    3    3    0    0  0.31591954711E+01  0.40535747963E+02 -0.13471178344E+01  0.40680979652E+02  0.00000000000E+00 0. -1.
         22    1    4    4    0    0  0.51653186733E+00 -0.23726295495E+02  0.21815120712E+02  0.32235126722E+02  0.00000000000E+00 0.  1.
         22    1    4    4    0    0 -0.36757273384E+01 -0.16809452469E+02  0.20294970636E+02  0.26607414321E+02  0.00000000000E+00 0.  1.
<mgrwt>
<rscale>  0 0.90792682E+02</rscale>
<asrwt>0</asrwt>
<pdfrwt beam="2">  1        2 0.45200421E-02 0.90792682E+02</pdfrwt>
<pdfrwt beam="1">  1       -2 0.10791269E-01 0.90792682E+02</pdfrwt>
<totfact> 0.89083920E+04</totfact>
</mgrwt>
</event>
<event>
 7    1  0.3056193E-009  0.9312279E+02  0.7818608E-02  0.1295461E+00
          2   -1    0    0  501    0  0.00000000000E+00  0.00000000000E+00  0.20286680831E+03  0.20286680833E+03  0.25500000000E-02 0. -1.
         -2   -1    0    0    0  501 -0.00000000000E+00 -0.00000000000E+00 -0.10686635405E+02  0.10686635709E+02  0.25500000000E-02 0.  1.
         23    2    1    2    0    0  0.00000000000E+00  0.00000000000E+00  0.19218017291E+03  0.21355344404E+03  0.93122793138E+02 0.  0.
    9000005    2    3    3    0    0  0.29602095147E+02 -0.16498069338E+02  0.30187285726E+02  0.48053698339E+02  0.15792890033E+02 0.  0.
         22    1    3    3    0    0 -0.29602095147E+02  0.16498069338E+02  0.16199288718E+03  0.16549974570E+03  0.00000000000E+00 0. -1.
         22    1    4    4    0    0  0.15304568821E+02 -0.46829958206E+00  0.84255540790E+01  0.17476815866E+02  0.00000000000E+00 0. -1.
         22    1    4    4    0    0  0.14297526326E+02 -0.16029769756E+02  0.21761731647E+02  0.30576882473E+02  0.00000000000E+00 0. -1.
<mgrwt>
<rscale>  0 0.93122793E+02</rscale>
<asrwt>0</asrwt>
<pdfrwt beam="1">  1        2 0.31210278E-01 0.93122793E+02</pdfrwt>
<pdfrwt beam="2">  1       -2 0.16440978E-02 0.93122793E+02</pdfrwt>
<totfact> 0.14687132E+05</totfact>
</mgrwt>
</event>
<event>
 7    1  0.3056193E-009  0.9969944E+02  0.7818608E-02  0.1280929E+00
         -2   -1    0    0    0  501 -0.00000000000E+00  0.00000000000E+00  0.82201030683E+01  0.82201034638E+01  0.25500000000E-02 0.  1.
          2   -1    0    0  501    0  0.00000000000E+00 -0.00000000000E+00 -0.30230700345E+03  0.30230700346E+03  0.25500000000E-02 0. -1.
         23    2    1    2    0    0  0.00000000000E+00  0.00000000000E+00 -0.29408690038E+03  0.31052710692E+03  0.99699444124E+02 0.  0.
    9000005    2    3    3    0    0  0.85183502935E+01 -0.46961523231E+02 -0.10345525835E+03  0.11401153528E+03  0.42062739178E+01 0.  0.
         22    1    3    3    0    0 -0.85183502935E+01  0.46961523231E+02 -0.19063164203E+03  0.19651557165E+03  0.00000000000E+00 0. -1.
         22    1    4    4    0    0  0.32337934546E+01 -0.27559847943E+02 -0.57260910701E+02  0.63630295717E+02  0.00000000000E+00 0. -1.
         22    1    4    4    0    0  0.52845568389E+01 -0.19401675288E+02 -0.46194347647E+02  0.50381239559E+02  0.00000000000E+00 0. -1.
<mgrwt>
<rscale>  0 0.99699444E+02</rscale>
<asrwt>0</asrwt>
<pdfrwt beam="2">  1        2 0.46508761E-01 0.99699444E+02</pdfrwt>
<pdfrwt beam="1">  1       -2 0.12646315E-02 0.99699444E+02</pdfrwt>
<totfact> 0.14177423E+05</totfact>
</mgrwt>
</event>
<event>
 7    1  0.3056193E-009  0.9216313E+02  0.7818608E-02  0.1297696E+00
         -2   -1    0    0    0  501 -0.00000000000E+00  0.00000000000E+00  0.57214967880E+01  0.57214973562E+01  0.25500000000E-02 0.  1.
          2   -1    0    0  501    0  0.00000000000E+00 -0.00000000000E+00 -0.37114597095E+03  0.37114597095E+03  0.25500000000E-02 0. -1.
         23    2    1    2    0    0  0.00000000000E+00  0.00000000000E+00 -0.36542447416E+03  0.37686746831E+03  0.92163129056E+02 0.  0.
    9000005    2    3    3    0    0  0.15303650114E+02  0.14068387265E+01 -0.36002900807E+03  0.36057968281E+03  0.12674387856E+02 0.  0.
         22    1    3    3    0    0 -0.15303650114E+02 -0.14068387265E+01 -0.53954660917E+01  0.16287785496E+02  0.00000000000E+00 0.  1.
         22    1    4    4    0    0 -0.18775079656E+01  0.13999356834E+01 -0.24690799291E+02  0.24801621433E+02  0.00000000000E+00 0. -1.
         22    1    4    4    0    0  0.17181158080E+02  0.69030431255E-02 -0.33533820877E+03  0.33577806138E+03  0.00000000000E+00 0. -1.
<mgrwt>
<rscale>  0 0.92163129E+02</rscale>
<asrwt>0</asrwt>
<pdfrwt beam="2">  1        2 0.57099361E-01 0.92163129E+02</pdfrwt>
<pdfrwt beam="1">  1       -2 0.88023061E-03 0.92163129E+02</pdfrwt>
<totfact> 0.18881850E+05</totfact>
</mgrwt>
</event>
<event>
 7    1  0.3056193E-009  0.1117971E+03  0.7818608E-02  0.1257278E+00
          2   -1    0    0  501    0  0.00000000000E+00  0.00000000000E+00  0.69114804599E+02  0.69114804646E+02  0.25500000000E-02 0. -1.
         -2   -1    0    0    0  501 -0.00000000000E+00 -0.00000000000E+00 -0.45209531013E+02  0.45209531085E+02  0.25500000000E-02 0.  1.
         23    2    1    2    0    0  0.00000000000E+00 -0.35527136788E-14  0.23905273586E+02  0.11432433573E+03  0.11179710030E+03 0.  0.
    9000005    2    3    3    0    0  0.22398184732E+02  0.30672188604E+02  0.52660368736E+02  0.66686983473E+02  0.15217670527E+02 0.  0.
         22    1    3    3    0    0 -0.22398184732E+02 -0.30672188604E+02 -0.28755095150E+02  0.47637352258E+02  0.00000000000E+00 0.  1.
         22    1    4    4    0    0 -0.11352515556E+01  0.15933662084E+01 -0.15834095784E+00  0.19628254704E+01  0.00000000000E+00 0.  1.
         22    1    4    4    0    0  0.23533436287E+02  0.29078822396E+02  0.52818709694E+02  0.64724158003E+02  0.00000000000E+00 0.  1.
<mgrwt>
<rscale>  0 0.11179710E+03</rscale>
<asrwt>0</asrwt>
<pdfrwt beam="1">  1        2 0.10633047E-01 0.11179710E+03</pdfrwt>
<pdfrwt beam="2">  1       -2 0.69553125E-02 0.11179710E+03</pdfrwt>
<totfact> 0.61621081E+04</totfact>
</mgrwt>
</event>
<event>
 7    1  0.3056193E-009  0.8998406E+02  0.7818608E-02  0.1302890E+00
          2   -1    0    0  501    0  0.00000000000E+00  0.00000000000E+00  0.40919733179E+03  0.40919733180E+03  0.25500000000E-02 0.  1.
         -2   -1    0    0    0  501 -0.00000000000E+00 -0.00000000000E+00 -0.49469598520E+01  0.49469605092E+01  0.25500000000E-02 0. -1.
         23    2    1    2    0    0 -0.88817841970E-15  0.00000000000E+00  0.40425037194E+03  0.41414429231E+03  0.89984063248E+02 0.  0.
    9000005    2    3    3    0    0 -0.76424770802E+01 -0.44168504819E+02  0.21162432071E+03  0.21637154422E+03  0.47463416170E+01 0.  0.
         22    1    3    3    0    0  0.76424770802E+01  0.44168504819E+02  0.19262605123E+03  0.19777274808E+03  0.00000000000E+00 0. -1.
         22    1    4    4    0    0 -0.12963350654E+01 -0.14038494926E+02  0.75910612945E+02  0.77208684629E+02  0.00000000000E+00 0.  1.
         22    1    4    4    0    0 -0.63461420148E+01 -0.30130009893E+02  0.13571370777E+03  0.13916285960E+03  0.00000000000E+00 0.  1.
<mgrwt>
<rscale>  0 0.89984063E+02</rscale>
<asrwt>0</asrwt>
<pdfrwt beam="1">  1        2 0.62953441E-01 0.89984063E+02</pdfrwt>
<pdfrwt beam="2">  1       -2 0.76107074E-03 0.89984063E+02</pdfrwt>
<totfact> 0.20839794E+05</totfact>
</mgrwt>
</event>
<event>
 7    1  0.3056193E-009  0.9068858E+02  0.7818608E-02  0.1301193E+00
         -2   -1    0    0    0  501 -0.00000000000E+00  0.00000000000E+00  0.24584794725E+02  0.24584794857E+02  0.25500000000E-02 0. -1.
          2   -1    0    0  501    0  0.00000000000E+00 -0.00000000000E+00 -0.83633176315E+02  0.83633176354E+02  0.25500000000E-02 0.  1.
         23    2    1    2    0    0 -0.71054273576E-14 -0.17763568394E-14 -0.59048381590E+02  0.10821797121E+03  0.90688576594E+02 0.  0.
    9000005    2    3    3    0    0 -0.43952886716E+02 -0.99861231061E+01 -0.34597349759E+02  0.56939985067E+02  0.36886832009E+01 0.  0.
         22    1    3    3    0    0  0.43952886716E+02  0.99861231061E+01 -0.24451031831E+02  0.51277986144E+02  0.00000000000E+00 0. -1.
         22    1    4    4    0    0 -0.70141904181E+01 -0.12717568366E+01 -0.71975036486E+01  0.10130167395E+02  0.00000000000E+00 0. -1.
         22    1    4    4    0    0 -0.36938696298E+02 -0.87143662695E+01 -0.27399846110E+02  0.46809817672E+02  0.00000000000E+00 0. -1.
<mgrwt>
<rscale>  0 0.90688577E+02</rscale>
<asrwt>0</asrwt>
<pdfrwt beam="2">  1        2 0.12866642E-01 0.90688577E+02</pdfrwt>
<pdfrwt beam="1">  1       -2 0.37822762E-02 0.90688577E+02</pdfrwt>
<totfact> 0.11807693E+05</totfact>
</mgrwt>
</event>
<event>
 7    1  0.3056193E-009  0.9142445E+02  0.7818608E-02  0.1299438E+00
         -2   -1    0    0    0  501 -0.00000000000E+00  0.00000000000E+00  0.35150205251E+01  0.35150214500E+01  0.25500000000E-02 0.  1.
          2   -1    0    0  501    0  0.00000000000E+00 -0.00000000000E+00 -0.59447943350E+03  0.59447943351E+03  0.25500000000E-02 0. -1.
         23    2    1    2    0    0 -0.71054273576E-14  0.44408920985E-15 -0.59096441298E+03  0.59799445496E+03  0.91424453812E+02 0.  0.
    9000005    2    3    3    0    0  0.43893859848E+02 -0.31485408767E+01 -0.37117929803E+03  0.37384700127E+03  0.71361636152E+01 0.  0.
         22    1    3    3    0    0 -0.43893859848E+02  0.31485408767E+01 -0.21978511495E+03  0.22414745369E+03  0.00000000000E+00 0.  1.
         22    1    4    4    0    0  0.71773309806E+00 -0.19482331833E+00 -0.18984596880E+01  0.20389325914E+01  0.00000000000E+00 0. -1.
         22    1    4    4    0    0  0.43176126750E+02 -0.29537175584E+01 -0.36928083834E+03  0.37180806868E+03  0.00000000000E+00 0. -1.
<mgrwt>
<rscale>  0 0.91424454E+02</rscale>
<asrwt>0</asrwt>
<pdfrwt beam="2">  1        2 0.91458295E-01 0.91424454E+02</pdfrwt>
<pdfrwt beam="1">  1       -2 0.54077293E-03 0.91424454E+02</pdfrwt>
<totfact> 0.22562790E+05</totfact>
</mgrwt>
</event>
<event>
 7    1  0.3056193E-009  0.9033814E+02  0.7818608E-02  0.1302035E+00
          2   -1    0    0  501    0  0.00000000000E+00  0.00000000000E+00  0.14495987481E+02  0.14495987705E+02  0.25500000000E-02 0. -1.
         -2   -1    0    0    0  501 -0.00000000000E+00 -0.00000000000E+00 -0.14074548337E+03  0.14074548340E+03  0.25500000000E-02 0.  1.
         23    2    1    2    0    0  0.71054273576E-14 -0.44408920985E-15 -0.12624949589E+03  0.15524147110E+03  0.90338137775E+02 0.  0.
    9000005    2    3    3    0    0  0.39424522556E+02 -0.35205878990E+01 -0.32041072655E+02  0.53055784595E+02  0.14886182323E+02 0.  0.
         22    1    3    3    0    0 -0.39424522556E+02  0.35205878990E+01 -0.94208423237E+02  0.10218568651E+03  0.00000000000E+00 0.  1.
         22    1    4    4    0    0  0.20922103305E+02  0.56011231393E+01 -0.16280927207E+02  0.27095674523E+02  0.00000000000E+00 0. -1.
         22    1    4    4    0    0  0.18502419252E+02 -0.91217110383E+01 -0.15760145448E+02  0.25960110072E+02  0.00000000000E+00 0. -1.
<mgrwt>
<rscale>  0 0.90338138E+02</rscale>
<asrwt>0</asrwt>
<pdfrwt beam="1">  1        2 0.22301520E-02 0.90338138E+02</pdfrwt>
<pdfrwt beam="2">  1       -2 0.21653150E-01 0.90338138E+02</pdfrwt>
<totfact> 0.73152957E+04</totfact>
</mgrwt>
</event>
<event>
 7    1  0.3056193E-009  0.9558581E+02  0.7818608E-02  0.1289862E+00
         -2   -1    0    0    0  501 -0.00000000000E+00  0.00000000000E+00  0.56345880591E+01  0.56345886361E+01  0.25500000000E-02 0.  1.
          2   -1    0    0  501    0  0.00000000000E+00 -0.00000000000E+00 -0.40538221891E+03  0.40538221892E+03  0.25500000000E-02 0. -1.
         23    2    1    2    0    0  0.35527136788E-14  0.00000000000E+00 -0.39974763085E+03  0.41101680755E+03  0.95585813388E+02 0.  0.
    9000005    2    3    3    0    0  0.26338704858E+02 -0.26258250034E+02 -0.32624037875E+03  0.32863635369E+03  0.13632504055E+02 0.  0.
         22    1    3    3    0    0 -0.26338704858E+02  0.26258250034E+02 -0.73507252095E+02  0.82380453865E+02  0.00000000000E+00 0.  1.
         22    1    4    4    0    0  0.27126300952E+02 -0.26543042406E+02 -0.30115364431E+03  0.30353564335E+03  0.00000000000E+00 0.  1.
         22    1    4    4    0    0 -0.78759609393E+00  0.28479237156E+00 -0.25086734447E+02  0.25100710339E+02  0.00000000000E+00 0.  1.
<mgrwt>
<rscale>  0 0.95585813E+02</rscale>
<asrwt>0</asrwt>
<pdfrwt beam="2">  1        2 0.62366472E-01 0.95585813E+02</pdfrwt>
<pdfrwt beam="1">  1       -2 0.86686006E-03 0.95585813E+02</pdfrwt>
<totfact> 0.17688364E+05</totfact>
</mgrwt>
</event>
<event>
 7    1  0.3056193E-009  0.9347527E+02  0.7818608E-02  0.1294648E+00
          2   -1    0    0  501    0  0.00000000000E+00  0.00000000000E+00  0.10826979726E+02  0.10826980027E+02  0.25500000000E-02 0. -1.
         -2   -1    0    0    0  501 -0.00000000000E+00 -0.00000000000E+00 -0.20175584986E+03  0.20175584987E+03  0.25500000000E-02 0.  1.
         23    2    1    2    0    0  0.00000000000E+00  0.00000000000E+00 -0.19092887013E+03  0.21258282990E+03  0.93475270092E+02 0.  0.
    9000005    2    3    3    0    0 -0.29263727965E+02 -0.16393150037E+02 -0.26260174409E+02  0.44532597847E+02  0.12978997205E+02 0.  0.
         22    1    3    3    0    0  0.29263727965E+02  0.16393150037E+02 -0.16466869572E+03  0.16805023205E+03  0.00000000000E+00 0.  1.
         22    1    4    4    0    0 -0.10368319425E+02 -0.96575918158E+01 -0.17826553003E+02  0.22771849274E+02  0.00000000000E+00 0.  1.
         22    1    4    4    0    0 -0.18895408540E+02 -0.67355582208E+01 -0.84336214064E+01  0.21760748573E+02  0.00000000000E+00 0.  1.
<mgrwt>
<rscale>  0 0.93475270E+02</rscale>
<asrwt>0</asrwt>
<pdfrwt beam="1">  1        2 0.16656894E-02 0.93475270E+02</pdfrwt>
<pdfrwt beam="2">  1       -2 0.31039359E-01 0.93475270E+02</pdfrwt>
<totfact> 0.58253934E+04</totfact>
</mgrwt>
</event>
<event>
 7    1  0.3056193E-009  0.9413245E+02  0.7818608E-02  0.1293142E+00
         -2   -1    0    0    0  501 -0.00000000000E+00  0.00000000000E+00  0.79521471442E+01  0.79521475530E+01  0.25500000000E-02 0.  1.
          2   -1    0    0  501    0  0.00000000000E+00 -0.00000000000E+00 -0.27856997761E+03  0.27856997762E+03  0.25500000000E-02 0. -1.
         23    2    1    2    0    0  0.88817841970E-15  0.35527136788E-14 -0.27061783047E+03  0.28652212517E+03  0.94132449498E+02 0.  0.
    9000005    2    3    3    0    0 -0.73401722051E+01 -0.20104999211E+02 -0.26287989485E+03  0.26376328582E+03  0.26725843843E+01 0.  0.
         22    1    3    3    0    0  0.73401722051E+01  0.20104999211E+02 -0.77379356141E+01  0.22758839356E+02  0.00000000000E+00 0.  1.
         22    1    4    4    0    0 -0.21627118710E+01 -0.70566706781E+01 -0.10595230935E+03  0.10620906637E+03  0.00000000000E+00 0. -1.
         22    1    4    4    0    0 -0.51774603341E+01 -0.13048328533E+02 -0.15692758551E+03  0.15755421945E+03  0.00000000000E+00 0. -1.
<mgrwt>
<rscale>  0 0.94132449E+02</rscale>
<asrwt>0</asrwt>
<pdfrwt beam="2">  1        2 0.42856912E-01 0.94132449E+02</pdfrwt>
<pdfrwt beam="1">  1       -2 0.12234075E-02 0.94132449E+02</pdfrwt>
<totfact> 0.16044976E+05</totfact>
</mgrwt>
</event>
<event>
 7    1  0.3056193E-009  0.8949880E+02  0.7818608E-02  0.1304070E+00
          2   -1    0    0  501    0  0.00000000000E+00  0.00000000000E+00  0.10656163655E+04  0.10656163655E+04  0.25500000000E-02 0.  1.
         -2   -1    0    0    0  501 -0.00000000000E+00 -0.00000000000E+00 -0.18792013482E+01  0.18792030783E+01  0.25500000000E-02 0. -1.
         23    2    1    2    0    0  0.88817841970E-15  0.00000000000E+00  0.10637371642E+04  0.10674955686E+04  0.89498796323E+02 0.  0.
    9000005    2    3    3    0    0  0.23728336764E+01  0.28522992040E+02  0.93817984979E+03  0.93871734602E+03  0.13770757645E+02 0.  0.
         22    1    3    3    0    0 -0.23728336764E+01 -0.28522992040E+02  0.12555731439E+03  0.12877822258E+03  0.00000000000E+00 0. -1.
         22    1    4    4    0    0 -0.56981051851E+01  0.13728977846E+02  0.46473451470E+03  0.46497217378E+03  0.00000000000E+00 0. -1.
         22    1    4    4    0    0  0.80709388615E+01  0.14794014194E+02  0.47344533509E+03  0.47374517224E+03  0.00000000000E+00 0. -1.
<mgrwt>
<rscale>  0 0.89498796E+02</rscale>
<asrwt>0</asrwt>
<pdfrwt beam="1">  1        2 0.16394095E+00 0.89498796E+02</pdfrwt>
<pdfrwt beam="2">  1       -2 0.28910808E-03 0.89498796E+02</pdfrwt>
<totfact> 0.26286473E+05</totfact>
</mgrwt>
</event>
<event>
 7    1  0.3056193E-009  0.9013367E+02  0.7818608E-02  0.1302528E+00
         -2   -1    0    0    0  501 -0.00000000000E+00  0.00000000000E+00  0.85074079345E+01  0.85074083167E+01  0.25500000000E-02 0.  1.
          2   -1    0    0  501    0  0.00000000000E+00 -0.00000000000E+00 -0.23873540049E+03  0.23873540051E+03  0.25500000000E-02 0. -1.
         23    2    1    2    0    0 -0.17763568394E-14 -0.22204460493E-15 -0.23022799256E+03  0.24724280882E+03  0.90133667169E+02 0.  0.
    9000005    2    3    3    0    0 -0.12542509002E+02 -0.18160809194E+01 -0.23335240021E+03  0.23419004647E+03  0.15199424177E+02 0.  0.
         22    1    3    3    0    0  0.12542509002E+02  0.18160809194E+01  0.31244076565E+01  0.13052762358E+02  0.00000000000E+00 0.  1.
         22    1    4    4    0    0 -0.81924438422E+01  0.39835726661E+01 -0.19133904098E+03  0.19155577149E+03  0.00000000000E+00 0. -1.
         22    1    4    4    0    0 -0.43500651598E+01 -0.57996535855E+01 -0.42013359232E+02  0.42634274974E+02  0.00000000000E+00 0. -1.
<mgrwt>
<rscale>  0 0.90133667E+02</rscale>
<asrwt>0</asrwt>
<pdfrwt beam="2">  1        2 0.36728518E-01 0.90133667E+02</pdfrwt>
<pdfrwt beam="1">  1       -2 0.13088322E-02 0.90133667E+02</pdfrwt>
<totfact> 0.17018862E+05</totfact>
</mgrwt>
</event>
<event>
 7    1  0.3056193E-009  0.8686620E+02  0.7818608E-02  0.1310623E+00
         -2   -1    0    0    0  501 -0.00000000000E+00  0.00000000000E+00  0.28719784252E+01  0.28719795572E+01  0.25500000000E-02 0.  1.
          2   -1    0    0  501    0  0.00000000000E+00 -0.00000000000E+00 -0.65684126149E+03  0.65684126149E+03  0.25500000000E-02 0. -1.
         23    2    1    2    0    0  0.71054273576E-14 -0.88817841970E-15 -0.65396928306E+03  0.65971324105E+03  0.86866203021E+02 0.  0.
    9000005    2    3    3    0    0  0.38339570272E+02 -0.61575532346E+01 -0.46628202410E+03  0.46805118094E+03  0.12047566794E+02 0.  0.
         22    1    3    3    0    0 -0.38339570272E+02  0.61575532346E+01 -0.18768725896E+03  0.19166206011E+03  0.00000000000E+00 0.  1.
         22    1    4    4    0    0  0.95730205462E+01 -0.46686817714E+01 -0.81592438857E+02  0.82284660725E+02  0.00000000000E+00 0.  1.
         22    1    4    4    0    0  0.28766549726E+02 -0.14888714631E+01 -0.38468958524E+03  0.38576652021E+03  0.00000000000E+00 0.  1.
<mgrwt>
<rscale>  0 0.86866203E+02</rscale>
<asrwt>0</asrwt>
<pdfrwt beam="2">  1        2 0.10105238E+00 0.86866203E+02</pdfrwt>
<pdfrwt beam="1">  1       -2 0.44184344E-03 0.86866203E+02</pdfrwt>
<totfact> 0.26522574E+05</totfact>
</mgrwt>
</event>
<event>
 7    1  0.3056193E-009  0.9167104E+02  0.7818608E-02  0.1298855E+00
          2   -1    0    0  501    0  0.00000000000E+00  0.00000000000E+00  0.89594839826E+02  0.89594839863E+02  0.25500000000E-02 0. -1.
         -2   -1    0    0    0  501 -0.00000000000E+00 -0.00000000000E+00 -0.23448836916E+02  0.23448837055E+02  0.25500000000E-02 0.  1.
         23    2    1    2    0    0  0.00000000000E+00  0.00000000000E+00  0.66146002910E+02  0.11304367692E+03  0.91671037902E+02 0.  0.
    9000005    2    3    3    0    0 -0.25318142039E+02  0.24923779713E+02 -0.21877380260E+00  0.37767607017E+02  0.12811758909E+02 0.  0.
         22    1    3    3    0    0  0.25318142039E+02 -0.24923779713E+02  0.66364776713E+02  0.75276069900E+02  0.00000000000E+00 0. -1.
         22    1    4    4    0    0 -0.38948253268E+01  0.46238913254E+01 -0.50300367158E+01  0.78645600435E+01  0.00000000000E+00 0. -1.
         22    1    4    4    0    0 -0.21423316712E+02  0.20299888388E+02  0.48112629132E+01  0.29903046974E+02  0.00000000000E+00 0. -1.
<mgrwt>
<rscale>  0 0.91671038E+02</rscale>
<asrwt>0</asrwt>
<pdfrwt beam="1">  1        2 0.13783821E-01 0.91671038E+02</pdfrwt>
<pdfrwt beam="2">  1       -2 0.36075134E-02 0.91671038E+02</pdfrwt>
<totfact> 0.11693641E+05</totfact>
</mgrwt>
</event>
<event>
 7    1  0.3056193E-009  0.9251375E+02  0.7818608E-02  0.1296876E+00
          2   -1    0    0  501    0  0.00000000000E+00  0.00000000000E+00  0.29026090696E+02  0.29026090808E+02  0.25500000000E-02 0.  1.
         -2   -1    0    0    0  501 -0.00000000000E+00 -0.00000000000E+00 -0.73716392652E+02  0.73716392697E+02  0.25500000000E-02 0. -1.
         23    2    1    2    0    0  0.00000000000E+00  0.00000000000E+00 -0.44690301957E+02  0.10274248350E+03  0.92513754802E+02 0.  0.
    9000005    2    3    3    0    0  0.25183723404E+02  0.20687712861E+01  0.20562325102E+02  0.32768166236E+02  0.35275722195E+01 0.  0.
         22    1    3    3    0    0 -0.25183723404E+02 -0.20687712861E+01 -0.65252627059E+02  0.69974317268E+02  0.00000000000E+00 0. -1.
         22    1    4    4    0    0  0.22544538875E+02  0.85818635231E+00  0.18835104267E+02  0.29389689853E+02  0.00000000000E+00 0. -1.
         22    1    4    4    0    0  0.26391845288E+01  0.12105849338E+01  0.17272208351E+01  0.33784763833E+01  0.00000000000E+00 0. -1.
<mgrwt>
<rscale>  0 0.92513755E+02</rscale>
<asrwt>0</asrwt>
<pdfrwt beam="1">  1        2 0.44655525E-02 0.92513755E+02</pdfrwt>
<pdfrwt beam="2">  1       -2 0.11340983E-01 0.92513755E+02</pdfrwt>
<totfact> 0.83958821E+04</totfact>
</mgrwt>
</event>
<event>
 7    1  0.3056193E-009  0.8879141E+02  0.7818608E-02  0.1305805E+00
         -2   -1    0    0    0  501 -0.00000000000E+00  0.00000000000E+00  0.14370852678E+02  0.14370852904E+02  0.25500000000E-02 0.  1.
          2   -1    0    0  501    0  0.00000000000E+00 -0.00000000000E+00 -0.13715112492E+03  0.13715112494E+03  0.25500000000E-02 0. -1.
         23    2    1    2    0    0  0.00000000000E+00  0.00000000000E+00 -0.12278027224E+03  0.15152197785E+03  0.88791410164E+02 0.  0.
    9000005    2    3    3    0    0 -0.14787266387E+02 -0.26856326778E+02 -0.96178355358E+01  0.34280079976E+02  0.11945525837E+02 0.  0.
         22    1    3    3    0    0  0.14787266387E+02  0.26856326778E+02 -0.11316243671E+03  0.11724189787E+03  0.00000000000E+00 0. -1.
         22    1    4    4    0    0 -0.42083624562E+01 -0.19456978928E+02 -0.46153121235E+01  0.20434907623E+02  0.00000000000E+00 0. -1.
         22    1    4    4    0    0 -0.10578903931E+02 -0.73993478505E+01 -0.50025234123E+01  0.13845172353E+02  0.00000000000E+00 0. -1.
<mgrwt>
<rscale>  0 0.88791410E+02</rscale>
<asrwt>0</asrwt>
<pdfrwt beam="2">  1        2 0.21100172E-01 0.88791410E+02</pdfrwt>
<pdfrwt beam="1">  1       -2 0.22109005E-02 0.88791410E+02</pdfrwt>
<totfact> 0.14578424E+05</totfact>
</mgrwt>
</event>
<event>
 7    1  0.3056193E-009  0.8887819E+02  0.7818608E-02  0.1305591E+00
         -2   -1    0    0    0  501 -0.00000000000E+00  0.00000000000E+00  0.98385671938E+02  0.98385671971E+02  0.25500000000E-02 0.  1.
          2   -1    0    0  501    0  0.00000000000E+00 -0.00000000000E+00 -0.20072365097E+02  0.20072365259E+02  0.25500000000E-02 0. -1.
         23    2    1    2    0    0  0.00000000000E+00  0.00000000000E+00  0.78313306841E+02  0.11845803723E+03  0.88878189429E+02 0.  0.
    9000005    2    3    3    0    0 -0.28021589881E+02  0.23844994025E+02  0.86400845706E+01  0.39666215694E+02  0.12040114889E+02 0.  0.
         22    1    3    3    0    0  0.28021589881E+02 -0.23844994025E+02  0.69673222270E+02  0.78791821536E+02  0.00000000000E+00 0.  1.
         22    1    4    4    0    0 -0.20828583959E+02  0.11815060928E+02  0.91643991874E+01  0.25640042647E+02  0.00000000000E+00 0. -1.
         22    1    4    4    0    0 -0.71930059225E+01  0.12029933097E+02 -0.52431461687E+00  0.14026173047E+02  0.00000000000E+00 0. -1.
<mgrwt>
<rscale>  0 0.88878189E+02</rscale>
<asrwt>0</asrwt>
<pdfrwt beam="2">  1        2 0.30880562E-02 0.88878189E+02</pdfrwt>
<pdfrwt beam="1">  1       -2 0.15136257E-01 0.88878189E+02</pdfrwt>
<totfact> 0.85446114E+04</totfact>
</mgrwt>
</event>
<event>
 7    1  0.3056193E-009  0.9126162E+02  0.7818608E-02  0.1299825E+00
         -2   -1    0    0    0  501 -0.00000000000E+00  0.00000000000E+00  0.11889612831E+02  0.11889613105E+02  0.25500000000E-02 0.  1.
          2   -1    0    0  501    0  0.00000000000E+00 -0.00000000000E+00 -0.17512518338E+03  0.17512518340E+03  0.25500000000E-02 0. -1.
         23    2    1    2    0    0  0.00000000000E+00 -0.88817841970E-15 -0.16323557055E+03  0.18701479650E+03  0.91261616350E+02 0.  0.
    9000005    2    3    3    0    0  0.16969223088E+02  0.75913082096E+01 -0.16642282687E+03  0.16815369644E+03  0.15281551957E+02 0.  0.
         22    1    3    3    0    0 -0.16969223088E+02 -0.75913082096E+01  0.31872563267E+01  0.18861100059E+02  0.00000000000E+00 0.  1.
         22    1    4    4    0    0  0.14897491464E+02 -0.12800673956E+01 -0.10230485092E+03  0.10339176150E+03  0.00000000000E+00 0.  1.
         22    1    4    4    0    0  0.20717316239E+01  0.88713756052E+01 -0.64117975952E+02  0.64761934941E+02  0.00000000000E+00 0.  1.
<mgrwt>
<rscale>  0 0.91261616E+02</rscale>
<asrwt>0</asrwt>
<pdfrwt beam="2">  1        2 0.26942334E-01 0.91261616E+02</pdfrwt>
<pdfrwt beam="1">  1       -2 0.18291714E-02 0.91261616E+02</pdfrwt>
<totfact> 0.14713692E+05</totfact>
</mgrwt>
</event>
<event>
 7    1  0.3056193E-009  0.8992086E+02  0.7818608E-02  0.1303043E+00
          2   -1    0    0  501    0  0.00000000000E+00  0.00000000000E+00  0.16018921941E+02  0.16018922144E+02  0.25500000000E-02 0. -1.
         -2   -1    0    0    0  501 -0.00000000000E+00 -0.00000000000E+00 -0.12619077557E+03  0.12619077560E+03  0.25500000000E-02 0.  1.
         23    2    1    2    0    0  0.71054273576E-14 -0.17763568394E-14 -0.11017185363E+03  0.14220969774E+03  0.89920858533E+02 0.  0.
    9000005    2    3    3    0    0 -0.33830758113E+02  0.11425859012E+02 -0.15491876628E+02  0.41019932973E+02  0.12944736806E+02 0.  0.
         22    1    3    3    0    0  0.33830758113E+02 -0.11425859012E+02 -0.94679977004E+02  0.10118976477E+03  0.00000000000E+00 0.  1.
         22    1    4    4    0    0 -0.72777119204E+01  0.46558970002E+00  0.17726298043E+01  0.75049371076E+01  0.00000000000E+00 0.  1.
         22    1    4    4    0    0 -0.26553046193E+02  0.10960269312E+02 -0.17264506432E+02  0.33514995865E+02  0.00000000000E+00 0.  1.
<mgrwt>
<rscale>  0 0.89920859E+02</rscale>
<asrwt>0</asrwt>
<pdfrwt beam="1">  1        2 0.24644496E-02 0.89920859E+02</pdfrwt>
<pdfrwt beam="2">  1       -2 0.19413965E-01 0.89920859E+02</pdfrwt>
<totfact> 0.76814228E+04</totfact>
</mgrwt>
</event>
<event>
 7    1  0.3056193E-009  0.9290916E+02  0.7818608E-02  0.1295956E+00
          2   -1    0    0  501    0  0.00000000000E+00  0.00000000000E+00  0.59793461375E+02  0.59793461430E+02  0.25500000000E-02 0. -1.
         -2   -1    0    0    0  501 -0.00000000000E+00 -0.00000000000E+00 -0.36091372133E+02  0.36091372224E+02  0.25500000000E-02 0.  1.
         23    2    1    2    0    0  0.00000000000E+00  0.00000000000E+00  0.23702089242E+02  0.95884833653E+02  0.92909161498E+02 0.  0.
    9000005    2    3    3    0    0 -0.28083529934E+02 -0.25957167486E+02 -0.13790048400E+02  0.42330005837E+02  0.11798506761E+02 0.  0.
         22    1    3    3    0    0  0.28083529934E+02  0.25957167486E+02  0.37492137642E+02  0.53554827816E+02  0.00000000000E+00 0. -1.
         22    1    4    4    0    0 -0.14578790374E+02 -0.98340850807E+01 -0.78666429647E+00  0.17603101967E+02  0.00000000000E+00 0.  1.
         22    1    4    4    0    0 -0.13504739560E+02 -0.16123082406E+02 -0.13003384104E+02  0.24726903870E+02  0.00000000000E+00 0.  1.
<mgrwt>
<rscale>  0 0.92909161E+02</rscale>
<asrwt>0</asrwt>
<pdfrwt beam="1">  1        2 0.91989940E-02 0.92909161E+02</pdfrwt>
<pdfrwt beam="2">  1       -2 0.55525188E-02 0.92909161E+02</pdfrwt>
<totfact> 0.10047702E+05</totfact>
</mgrwt>
</event>
<event>
 7    1  0.3056193E-009  0.9377221E+02  0.7818608E-02  0.1293966E+00
         -2   -1    0    0    0  501 -0.00000000000E+00  0.00000000000E+00  0.32169578065E+02  0.32169578166E+02  0.25500000000E-02 0.  1.
          2   -1    0    0  501    0  0.00000000000E+00 -0.00000000000E+00 -0.68334956198E+02  0.68334956245E+02  0.25500000000E-02 0. -1.
         23    2    1    2    0    0  0.17763568394E-14  0.00000000000E+00 -0.36165378132E+02  0.10050453441E+03  0.93772207299E+02 0.  0.
    9000005    2    3    3    0    0 -0.13687133624E+02 -0.20392903365E+02 -0.60463233506E+02  0.65956105933E+02  0.95497209044E+01 0.  0.
         22    1    3    3    0    0  0.13687133624E+02  0.20392903365E+02  0.24297855374E+02  0.34548428478E+02  0.00000000000E+00 0.  1.
         22    1    4    4    0    0 -0.40183368256E+01 -0.29924693808E+00 -0.82933031977E+01  0.92203827200E+01  0.00000000000E+00 0. -1.
         22    1    4    4    0    0 -0.96687967982E+01 -0.20093656427E+02 -0.52169930309E+02  0.56735723213E+02  0.00000000000E+00 0. -1.
<mgrwt>
<rscale>  0 0.93772207E+02</rscale>
<asrwt>0</asrwt>
<pdfrwt beam="2">  1        2 0.10513070E-01 0.93772207E+02</pdfrwt>
<pdfrwt beam="1">  1       -2 0.49491659E-02 0.93772207E+02</pdfrwt>
<totfact> 0.10155145E+05</totfact>
</mgrwt>
</event>
<event>
 7    1  0.3056193E-009  0.8495044E+02  0.7818608E-02  0.1315562E+00
          2   -1    0    0  501    0  0.00000000000E+00  0.00000000000E+00  0.28157223946E+02  0.28157224062E+02  0.25500000000E-02 0. -1.
         -2   -1    0    0    0  501 -0.00000000000E+00 -0.00000000000E+00 -0.64073942316E+02  0.64073942367E+02  0.25500000000E-02 0.  1.
         23    2    1    2    0    0  0.88817841970E-15  0.00000000000E+00 -0.35916718369E+02  0.92231166428E+02  0.84950440860E+02 0.  0.
    9000005    2    3    3    0    0  0.54072478219E+01 -0.93011044655E+01 -0.61589479935E+02  0.64395226356E+02  0.15418568853E+02 0.  0.
         22    1    3    3    0    0 -0.54072478219E+01  0.93011044655E+01  0.25672761566E+02  0.27835940072E+02  0.00000000000E+00 0. -1.
         22    1    4    4    0    0  0.10542684904E+02 -0.67669043016E+01 -0.34422832137E+02  0.36631551580E+02  0.00000000000E+00 0.  1.
         22    1    4    4    0    0 -0.51354370819E+01 -0.25342001639E+01 -0.27166647798E+02  0.27763674776E+02  0.00000000000E+00 0.  1.
<mgrwt>
<rscale>  0 0.84950441E+02</rscale>
<asrwt>0</asrwt>
<pdfrwt beam="1">  1        2 0.43318806E-02 0.84950441E+02</pdfrwt>
<pdfrwt beam="2">  1       -2 0.98575296E-02 0.84950441E+02</pdfrwt>
<totfact> 0.10720255E+05</totfact>
</mgrwt>
</event>
<event>
 7    1  0.3056193E-009  0.9249785E+02  0.7818608E-02  0.1296913E+00
          2   -1    0    0  501    0  0.00000000000E+00  0.00000000000E+00  0.44446021278E+02  0.44446021351E+02  0.25500000000E-02 0. -1.
         -2   -1    0    0    0  501 -0.00000000000E+00 -0.00000000000E+00 -0.48124964263E+02  0.48124964331E+02  0.25500000000E-02 0.  1.
         23    2    1    2    0    0 -0.17763568394E-14  0.71054273576E-14 -0.36789429852E+01  0.92570985682E+02  0.92497852779E+02 0.  0.
    9000005    2    3    3    0    0  0.11985763449E+02 -0.43421471434E+02 -0.12166290993E+02  0.46733034341E+02  0.26220517265E+01 0.  0.
         22    1    3    3    0    0 -0.11985763449E+02  0.43421471434E+02  0.84873480073E+01  0.45837951341E+02  0.00000000000E+00 0. -1.
         22    1    4    4    0    0  0.82155376404E+01 -0.32781490522E+02 -0.99468944981E+01  0.35228708317E+02  0.00000000000E+00 0.  1.
         22    1    4    4    0    0  0.37702258088E+01 -0.10639980912E+02 -0.22193964945E+01  0.11504326024E+02  0.00000000000E+00 0.  1.
<mgrwt>
<rscale>  0 0.92497853E+02</rscale>
<asrwt>0</asrwt>
<pdfrwt beam="1">  1        2 0.68378495E-02 0.92497853E+02</pdfrwt>
<pdfrwt beam="2">  1       -2 0.74038407E-02 0.92497853E+02</pdfrwt>
<totfact> 0.94046738E+04</totfact>
</mgrwt>
</event>
<event>
 7    1  0.3056193E-009  0.9196590E+02  0.7818608E-02  0.1298160E+00
          2   -1    0    0  501    0  0.00000000000E+00  0.00000000000E+00  0.72923615639E+03  0.72923615640E+03  0.25500000000E-02 0. -1.
         -2   -1    0    0    0  501 -0.00000000000E+00 -0.00000000000E+00 -0.28995148496E+01  0.28995159709E+01  0.25500000000E-02 0.  1.
         23    2    1    2    0    0  0.00000000000E+00  0.88817841970E-15  0.72633664154E+03  0.73213567237E+03  0.91965895341E+02 0.  0.
    9000005    2    3    3    0    0 -0.11146172999E+02  0.77085663963E+01  0.71278188860E+03  0.71296823916E+03  0.90570507811E+01 0.  0.
         22    1    3    3    0    0  0.11146172999E+02 -0.77085663963E+01  0.13554752945E+02  0.19167433209E+02  0.00000000000E+00 0.  1.
         22    1    4    4    0    0 -0.22689324729E+01  0.26295362341E+00  0.33707694552E+03  0.33708468432E+03  0.00000000000E+00 0.  1.
         22    1    4    4    0    0 -0.88772405256E+01  0.74456127729E+01  0.37570494308E+03  0.37588355484E+03  0.00000000000E+00 0.  1.
<mgrwt>
<rscale>  0 0.91965895E+02</rscale>
<asrwt>0</asrwt>
<pdfrwt beam="1">  1        2 0.11219026E+00 0.91965895E+02</pdfrwt>
<pdfrwt beam="2">  1       -2 0.44607897E-03 0.91965895E+02</pdfrwt>
<totfact> 0.23395604E+05</totfact>
</mgrwt>
</event>
<event>
 7    1  0.3056193E-009  0.9001025E+02  0.7818608E-02  0.1302827E+00
          2   -1    0    0  501    0  0.00000000000E+00  0.00000000000E+00  0.60859246574E+03  0.60859246575E+03  0.25500000000E-02 0. -1.
         -2   -1    0    0    0  501 -0.00000000000E+00 -0.00000000000E+00 -0.33281074097E+01  0.33281083866E+01  0.25500000000E-02 0.  1.
         23    2    1    2    0    0  0.00000000000E+00  0.00000000000E+00  0.60526435833E+03  0.61192057414E+03  0.90010252644E+02 0.  0.
    9000005    2    3    3    0    0  0.41751969960E+02 -0.83143695527E+01  0.38093140104E+03  0.38358391159E+03  0.14680912496E+02 0.  0.
         22    1    3    3    0    0 -0.41751969960E+02  0.83143695527E+01  0.22433295729E+03  0.22833666255E+03  0.00000000000E+00 0.  1.
         22    1    4    4    0    0  0.33898252624E+02 -0.42719495419E+00  0.28593175810E+03  0.28793444447E+03  0.00000000000E+00 0. -1.
         22    1    4    4    0    0  0.78537173365E+01 -0.78871745985E+01  0.94999642947E+02  0.95649467114E+02  0.00000000000E+00 0. -1.
<mgrwt>
<rscale>  0 0.90010253E+02</rscale>
<asrwt>0</asrwt>
<pdfrwt beam="1">  1        2 0.93629471E-01 0.90010253E+02</pdfrwt>
<pdfrwt beam="2">  1       -2 0.51201736E-03 0.90010253E+02</pdfrwt>
<totfact> 0.23666935E+05</totfact>
</mgrwt>
</event>
<event>
 7    1  0.3056193E-009  0.9022120E+02  0.7818608E-02  0.1302317E+00
         -2   -1    0    0    0  501 -0.00000000000E+00  0.00000000000E+00  0.16757473022E+02  0.16757473216E+02  0.25500000000E-02 0.  1.
          2   -1    0    0  501    0  0.00000000000E+00 -0.00000000000E+00 -0.12143633791E+03  0.12143633794E+03  0.25500000000E-02 0. -1.
         23    2    1    2    0    0  0.00000000000E+00  0.00000000000E+00 -0.10467886489E+03  0.13819381116E+03  0.90221198656E+02 0.  0.
    9000005    2    3    3    0    0  0.16732527033E+02  0.12776302761E+02 -0.11267196130E+03  0.11567490880E+03  0.15572485064E+02 0.  0.
         22    1    3    3    0    0 -0.16732527033E+02 -0.12776302761E+02  0.79930964030E+01  0.22518902355E+02  0.00000000000E+00 0.  1.
         22    1    4    4    0    0  0.17004665772E+02  0.15050010352E+02 -0.87486512931E+02  0.90385570831E+02  0.00000000000E+00 0.  1.
         22    1    4    4    0    0 -0.27213873918E+00 -0.22737075907E+01 -0.25185448365E+02  0.25289337971E+02  0.00000000000E+00 0.  1.
<mgrwt>
<rscale>  0 0.90221199E+02</rscale>
<asrwt>0</asrwt>
<pdfrwt beam="2">  1        2 0.18682513E-01 0.90221199E+02</pdfrwt>
<pdfrwt beam="1">  1       -2 0.25780729E-02 0.90221199E+02</pdfrwt>
<totfact> 0.13416365E+05</totfact>
</mgrwt>
</event>
<event>
 7    1  0.3056193E-009  0.9692419E+02  0.7818608E-02  0.1286900E+00
         -2   -1    0    0    0  501 -0.00000000000E+00  0.00000000000E+00  0.19903167799E+02  0.19903167963E+02  0.25500000000E-02 0.  1.
          2   -1    0    0  501    0  0.00000000000E+00 -0.00000000000E+00 -0.11800003680E+03  0.11800003682E+03  0.25500000000E-02 0. -1.
         23    2    1    2    0    0  0.00000000000E+00  0.00000000000E+00 -0.98096868996E+02  0.13790320479E+03  0.96924187814E+02 0.  0.
    9000005    2    3    3    0    0  0.29878735449E+01  0.25892228043E+02  0.83053170203E+01  0.28355224200E+02  0.74636175722E+01 0.  0.
         22    1    3    3    0    0 -0.29878735449E+01 -0.25892228043E+02 -0.10640218602E+03  0.10954798059E+03  0.00000000000E+00 0. -1.
         22    1    4    4    0    0 -0.20484780237E+01  0.13807121759E+02  0.52337010315E+01  0.14907196248E+02  0.00000000000E+00 0. -1.
         22    1    4    4    0    0  0.50363515685E+01  0.12085106284E+02  0.30716159887E+01  0.13448027952E+02  0.00000000000E+00 0. -1.
<mgrwt>
<rscale>  0 0.96924188E+02</rscale>
<asrwt>0</asrwt>
<pdfrwt beam="2">  1        2 0.18153851E-01 0.96924188E+02</pdfrwt>
<pdfrwt beam="1">  1       -2 0.30620259E-02 0.96924188E+02</pdfrwt>
<totfact> 0.10918523E+05</totfact>
</mgrwt>
</event>
<event>
 7    1  0.3056193E-009  0.8995447E+02  0.7818608E-02  0.1302962E+00
          2   -1    0    0  501    0  0.00000000000E+00  0.00000000000E+00  0.43878685144E+02  0.43878685219E+02  0.25500000000E-02 0. -1.
         -2   -1    0    0    0  501 -0.00000000000E+00 -0.00000000000E+00 -0.46103284154E+02  0.46103284224E+02  0.25500000000E-02 0.  1.
         23    2    1    2    0    0 -0.17763568394E-14  0.00000000000E+00 -0.22245990093E+01  0.89981969443E+02  0.89954466171E+02 0.  0.
    9000005    2    3    3    0    0 -0.12825696981E+02 -0.59928618571E+01  0.41294913933E+02  0.44217781445E+02  0.70377114814E+01 0.  0.
         22    1    3    3    0    0  0.12825696981E+02  0.59928618571E+01 -0.43519512943E+02  0.45764187997E+02  0.00000000000E+00 0.  1.
         22    1    4    4    0    0 -0.13549798350E+02 -0.59674076020E+01  0.40593875338E+02  0.43209601986E+02  0.00000000000E+00 0. -1.
         22    1    4    4    0    0  0.72410136831E+00 -0.25454255126E-01  0.70103859510E+00  0.10081794595E+01  0.00000000000E+00 0. -1.
<mgrwt>
<rscale>  0 0.89954466E+02</rscale>
<asrwt>0</asrwt>
<pdfrwt beam="1">  1        2 0.67505669E-02 0.89954466E+02</pdfrwt>
<pdfrwt beam="2">  1       -2 0.70928130E-02 0.89954466E+02</pdfrwt>
<totfact> 0.10156189E+05</totfact>
</mgrwt>
</event>
<event>
 7    1  0.3056193E-009  0.8945090E+02  0.7818608E-02  0.1304187E+00
         -2   -1    0    0    0  501 -0.00000000000E+00  0.00000000000E+00  0.15915845953E+02  0.15915846158E+02  0.25500000000E-02 0.  1.
          2   -1    0    0  501    0  0.00000000000E+00 -0.00000000000E+00 -0.12568391849E+03  0.12568391851E+03  0.25500000000E-02 0. -1.
         23    2    1    2    0    0 -0.35527136788E-14 -0.71054273576E-14 -0.10976807254E+03  0.14159976467E+03  0.89450900538E+02 0.  0.
    9000005    2    3    3    0    0  0.17432901199E+02  0.38884281063E+02 -0.39798702120E+02  0.59675371759E+02  0.12701178923E+02 0.  0.
         22    1    3    3    0    0 -0.17432901199E+02 -0.38884281063E+02 -0.69969370415E+02  0.81924392914E+02  0.00000000000E+00 0. -1.
         22    1    4    4    0    0  0.69372545697E+01  0.17369764553E+02 -0.92538030766E+01  0.20867848307E+02  0.00000000000E+00 0.  1.
         22    1    4    4    0    0  0.10495646630E+02  0.21514516510E+02 -0.30544899044E+02  0.38807523451E+02  0.00000000000E+00 0.  1.
<mgrwt>
<rscale>  0 0.89450901E+02</rscale>
<asrwt>0</asrwt>
<pdfrwt beam="2">  1        2 0.19335987E-01 0.89450901E+02</pdfrwt>
<pdfrwt beam="1">  1       -2 0.24485918E-02 0.89450901E+02</pdfrwt>
<totfact> 0.13886306E+05</totfact>
</mgrwt>
</event>
<event>
 7    1  0.3056193E-009  0.9020672E+02  0.7818608E-02  0.1302352E+00
          2   -1    0    0  501    0  0.00000000000E+00  0.00000000000E+00  0.13215762989E+03  0.13215762992E+03  0.25500000000E-02 0. -1.
         -2   -1    0    0    0  501 -0.00000000000E+00 -0.00000000000E+00 -0.15393079349E+02  0.15393079561E+02  0.25500000000E-02 0.  1.
         23    2    1    2    0    0  0.00000000000E+00 -0.44408920985E-15  0.11676455054E+03  0.14755070948E+03  0.90206715957E+02 0.  0.
    9000005    2    3    3    0    0  0.29101470577E+02  0.36174411898E+01  0.11429227446E+03  0.11812124092E+03  0.54701083431E+01 0.  0.
         22    1    3    3    0    0 -0.29101470577E+02 -0.36174411898E+01  0.24722760843E+01  0.29429468557E+02  0.00000000000E+00 0.  1.
         22    1    4    4    0    0  0.26673774570E+02  0.31650304466E+01  0.10929161686E+03  0.11254405886E+03  0.00000000000E+00 0.  1.
         22    1    4    4    0    0  0.24276960063E+01  0.45241074312E+00  0.50006575932E+01  0.55771820613E+01  0.00000000000E+00 0.  1.
<mgrwt>
<rscale>  0 0.90206716E+02</rscale>
<asrwt>0</asrwt>
<pdfrwt beam="1">  1        2 0.20331943E-01 0.90206716E+02</pdfrwt>
<pdfrwt beam="2">  1       -2 0.23681660E-02 0.90206716E+02</pdfrwt>
<totfact> 0.13796226E+05</totfact>
</mgrwt>
</event>
<event>
 7    1  0.4222883E-009  0.9180401E+02  0.7818608E-02  0.1298541E+00
          2   -1    0    0  501    0  0.00000000000E+00  0.00000000000E+00  0.13095537667E+04  0.13095537667E+04  0.25500000000E-02 0. -1.
         -2   -1    0    0    0  501 -0.00000000000E+00 -0.00000000000E+00 -0.16089394740E+01  0.16089414947E+01  0.25500000000E-02 0.  1.
         23    2    1    2    0    0  0.17763568394E-14 -0.35527136788E-14  0.13079448272E+04  0.13111627082E+04  0.91804010258E+02 0.  0.
    9000005    2    3    3    0    0 -0.11644790553E+02  0.23223983438E+02  0.11917373275E+04  0.11920865244E+04  0.12548679416E+02 0.  0.
         22    1    3    3    0    0  0.11644790553E+02 -0.23223983438E+02  0.11620749965E+03  0.11907618372E+03  0.00000000000E+00 0.  1.
         22    1    4    4    0    0 -0.11239027014E+02  0.20062097957E+02  0.78510172273E+03  0.78543842441E+03  0.00000000000E+00 0. -1.
         22    1    4    4    0    0 -0.40576353870E+00  0.31618854811E+01  0.40663560480E+03  0.40664810002E+03  0.00000000000E+00 0. -1.
<mgrwt>
<rscale>  0 0.91804010E+02</rscale>
<asrwt>0</asrwt>
<pdfrwt beam="1">  1        2 0.20146946E+00 0.91804010E+02</pdfrwt>
<pdfrwt beam="2">  1       -2 0.24752974E-03 0.91804010E+02</pdfrwt>
<totfact> 0.24094792E+05</totfact>
</mgrwt>
</event>
<event>
 7    1  0.3056193E-009  0.9796399E+02  0.7818608E-02  0.1284637E+00
          2   -1    0    0  501    0  0.00000000000E+00  0.00000000000E+00  0.12635287043E+04  0.12635287043E+04  0.25500000000E-02 0. -1.
         -2   -1    0    0    0  501 -0.00000000000E+00 -0.00000000000E+00 -0.18988367990E+01  0.18988385112E+01  0.25500000000E-02 0.  1.
         23    2    1    2    0    0  0.00000000000E+00  0.88817841970E-15  0.12616298675E+04  0.12654275428E+04  0.97963991042E+02 0.  0.
    9000005    2    3    3    0    0 -0.21134099952E+02  0.42108576781E+01  0.11972599996E+04  0.11975463127E+04  0.14875584105E+02 0.  0.
         22    1    3    3    0    0  0.21134099952E+02 -0.42108576781E+01  0.64369867887E+02  0.67881230064E+02  0.00000000000E+00 0.  1.
         22    1    4    4    0    0 -0.94427637382E+01  0.94277730375E+01  0.57822460452E+03  0.57837854556E+03  0.00000000000E+00 0.  1.
         22    1    4    4    0    0 -0.11691336214E+02 -0.52169153594E+01  0.61903539506E+03  0.61916776715E+03  0.00000000000E+00 0.  1.
<mgrwt>
<rscale>  0 0.97963991E+02</rscale>
<asrwt>0</asrwt>
<pdfrwt beam="1">  1        2 0.19438960E+00 0.97963991E+02</pdfrwt>
<pdfrwt beam="2">  1       -2 0.29212801E-03 0.97963991E+02</pdfrwt>
<totfact> 0.20427526E+05</totfact>
</mgrwt>
</event>
<event>
 7    1  0.4102269E-009  0.9557409E+02  0.7818608E-02  0.1289888E+00
          2   -1    0    0  501    0  0.00000000000E+00  0.00000000000E+00  0.15468424679E+03  0.15468424681E+03  0.25500000000E-02 0. -1.
         -2   -1    0    0    0  501 -0.00000000000E+00 -0.00000000000E+00 -0.14762986576E+02  0.14762986796E+02  0.25500000000E-02 0.  1.
         23    2    1    2    0    0  0.35527136788E-14 -0.71054273576E-14  0.13992126022E+03  0.16944723361E+03  0.95574086012E+02 0.  0.
    9000005    2    3    3    0    0 -0.23034531770E+02  0.35892242381E+02  0.39034383134E+02  0.59916394643E+02  0.15730497876E+02 0.  0.
         22    1    3    3    0    0  0.23034531770E+02 -0.35892242381E+02  0.10088687708E+03  0.10953083897E+03  0.00000000000E+00 0. -1.
         22    1    4    4    0    0 -0.22159990519E+01  0.10866250852E+02  0.32847704373E+01  0.11566147855E+02  0.00000000000E+00 0.  1.
         22    1    4    4    0    0 -0.20818532718E+02  0.25025991529E+02  0.35749612696E+02  0.48350246788E+02  0.00000000000E+00 0.  1.
<mgrwt>
<rscale>  0 0.95574086E+02</rscale>
<asrwt>0</asrwt>
<pdfrwt beam="1">  1        2 0.23797577E-01 0.95574086E+02</pdfrwt>
<pdfrwt beam="2">  1       -2 0.22712287E-02 0.95574086E+02</pdfrwt>
<totfact> 0.12428474E+05</totfact>
</mgrwt>
</event>
<event>
 7    1  0.3056193E-009  0.8655504E+02  0.7818608E-02  0.1311415E+00
          2   -1    0    0  501    0  0.00000000000E+00  0.00000000000E+00  0.16984980381E+02  0.16984980572E+02  0.25500000000E-02 0. -1.
         -2   -1    0    0    0  501 -0.00000000000E+00 -0.00000000000E+00 -0.11027059296E+03  0.11027059299E+03  0.25500000000E-02 0.  1.
         23    2    1    2    0    0 -0.71054273576E-14  0.00000000000E+00 -0.93285612581E+02  0.12725557356E+03  0.86555043113E+02 0.  0.
    9000005    2    3    3    0    0 -0.37625742353E+02 -0.18870148908E+02 -0.46121404648E+02  0.64039740757E+02  0.14217082056E+02 0.  0.
         22    1    3    3    0    0  0.37625742353E+02  0.18870148908E+02 -0.47164207934E+02  0.63215832807E+02  0.00000000000E+00 0.  1.
         22    1    4    4    0    0 -0.36511115920E+02 -0.13480880884E+02 -0.40089219922E+02  0.55874334798E+02  0.00000000000E+00 0. -1.
         22    1    4    4    0    0 -0.11146264327E+01 -0.53892680240E+01 -0.60321847252E+01  0.81654059592E+01  0.00000000000E+00 0. -1.
<mgrwt>
<rscale>  0 0.86555043E+02</rscale>
<asrwt>0</asrwt>
<pdfrwt beam="1">  1        2 0.26130740E-02 0.86555043E+02</pdfrwt>
<pdfrwt beam="2">  1       -2 0.16964706E-01 0.86555043E+02</pdfrwt>
<totfact> 0.88217637E+04</totfact>
</mgrwt>
</event>
<event>
 7    1  0.3056193E-009  0.9228694E+02  0.7818608E-02  0.1297406E+00
          2   -1    0    0  501    0  0.00000000000E+00  0.00000000000E+00  0.27094978394E+02  0.27094978514E+02  0.25500000000E-02 0.  1.
         -2   -1    0    0    0  501 -0.00000000000E+00 -0.00000000000E+00 -0.78583552297E+02  0.78583552338E+02  0.25500000000E-02 0. -1.
         23    2    1    2    0    0 -0.17763568394E-14  0.00000000000E+00 -0.51488573903E+02  0.10567853085E+03  0.92286936457E+02 0.  0.
    9000005    2    3    3    0    0  0.14547386131E+02  0.32305996159E+02 -0.59103883544E+02  0.69439094158E+02  0.85565715331E+01 0.  0.
         22    1    3    3    0    0 -0.14547386131E+02 -0.32305996159E+02  0.76153096412E+01  0.36239436695E+02  0.00000000000E+00 0.  1.
         22    1    4    4    0    0  0.28176741608E+01  0.16121272498E+02 -0.24130891000E+02  0.29157068012E+02  0.00000000000E+00 0. -1.
         22    1    4    4    0    0  0.11729711970E+02  0.16184723661E+02 -0.34972992544E+02  0.40282026145E+02  0.00000000000E+00 0. -1.
<mgrwt>
<rscale>  0 0.92286936E+02</rscale>
<asrwt>0</asrwt>
<pdfrwt beam="1">  1        2 0.41684583E-02 0.92286936E+02</pdfrwt>
<pdfrwt beam="2">  1       -2 0.12089777E-01 0.92286936E+02</pdfrwt>
<totfact> 0.82994669E+04</totfact>
</mgrwt>
</event>
<event>
 6    1  0.7573347E-009  0.7858128E+03  0.7818608E-02  0.9580783E-01
         -2   -1    0    0    0  501 -0.00000000000E+00  0.00000000000E+00  0.17946011846E+03  0.17946011848E+03  0.25500000000E-02 0.  1.
          2   -1    0    0  501    0  0.00000000000E+00 -0.00000000000E+00 -0.86022138051E+03  0.86022138052E+03  0.25500000000E-02 0. -1.
    9000005    2    1    2    0    0  0.37366454344E+03  0.25033218096E+02 -0.49704846297E+03  0.62254573504E+03  0.15942541911E+02 0.  0.
         22    1    1    2    0    0 -0.37366454344E+03 -0.25033218096E+02 -0.18371279908E+03  0.41713576396E+03  0.00000000000E+00 0. -1.
         22    1    3    3    0    0  0.13185033218E+03  0.65459349433E+01 -0.16324776507E+03  0.20994568860E+03  0.00000000000E+00 0. -1.
         22    1    3    3    0    0  0.24181421126E+03  0.18487283153E+02 -0.33380069790E+03  0.41260004644E+03  0.00000000000E+00 0. -1.
<mgrwt>
<rscale>  0 0.78581278E+03</rscale>
<asrwt>0</asrwt>
<pdfrwt beam="2">  1        2 0.13234175E+00 0.78581278E+03</pdfrwt>
<pdfrwt beam="1">  1       -2 0.27609249E-01 0.78581278E+03</pdfrwt>
<totfact> 0.37512902E+02</totfact>
</mgrwt>
</event>
<event>
 7    1  0.3056193E-009  0.9118305E+02  0.7818608E-02  0.1300012E+00
          2   -1    0    0  501    0  0.00000000000E+00  0.00000000000E+00  0.63611852343E+02  0.63611852394E+02  0.25500000000E-02 0. -1.
         -2   -1    0    0    0  501 -0.00000000000E+00 -0.00000000000E+00 -0.32676100329E+02  0.32676100429E+02  0.25500000000E-02 0.  1.
         23    2    1    2    0    0  0.83266726847E-16  0.35527136788E-14  0.30935752014E+02  0.96287952823E+02  0.91183052735E+02 0.  0.
    9000005    2    3    3    0    0 -0.13852053106E+00  0.30473968351E+02 -0.19314538887E+02  0.37519137362E+02  0.10293314380E+02 0.  0.
         22    1    3    3    0    0  0.13852053106E+00 -0.30473968351E+02  0.50250290901E+02  0.58768815461E+02  0.00000000000E+00 0. -1.
         22    1    4    4    0    0 -0.41949032260E+01  0.10658179266E+02 -0.10185568775E+02  0.15327746397E+02  0.00000000000E+00 0.  1.
         22    1    4    4    0    0  0.40563826949E+01  0.19815789085E+02 -0.91289701127E+01  0.22191390965E+02  0.00000000000E+00 0.  1.
<mgrwt>
<rscale>  0 0.91183053E+02</rscale>
<asrwt>0</asrwt>
<pdfrwt beam="1">  1        2 0.97864388E-02 0.91183053E+02</pdfrwt>
<pdfrwt beam="2">  1       -2 0.50270924E-02 0.91183053E+02</pdfrwt>
<totfact> 0.10773476E+05</totfact>
</mgrwt>
</event>
<event>
 7    1  0.3056193E-009  0.9169204E+02  0.7818608E-02  0.1298805E+00
          2   -1    0    0  501    0  0.00000000000E+00  0.00000000000E+00  0.40399458767E+02  0.40399458848E+02  0.25500000000E-02 0. -1.
         -2   -1    0    0    0  501 -0.00000000000E+00 -0.00000000000E+00 -0.52026875265E+02  0.52026875328E+02  0.25500000000E-02 0.  1.
         23    2    1    2    0    0  0.00000000000E+00  0.00000000000E+00 -0.11627416498E+02  0.92426334175E+02  0.91692041283E+02 0.  0.
    9000005    2    3    3    0    0 -0.11188998844E+02 -0.23344162855E+02 -0.43773111909E+02  0.51152984808E+02  0.55135192107E+01 0.  0.
         22    1    3    3    0    0  0.11188998844E+02  0.23344162855E+02  0.32145695411E+02  0.41273349367E+02  0.00000000000E+00 0. -1.
         22    1    4    4    0    0 -0.38101699141E+01 -0.88786459728E+01 -0.21666258297E+02  0.23722868664E+02  0.00000000000E+00 0. -1.
         22    1    4    4    0    0 -0.73788289297E+01 -0.14465516882E+02 -0.22106853612E+02  0.27430116144E+02  0.00000000000E+00 0. -1.
<mgrwt>
<rscale>  0 0.91692041E+02</rscale>
<asrwt>0</asrwt>
<pdfrwt beam="1">  1        2 0.62153014E-02 0.91692041E+02</pdfrwt>
<pdfrwt beam="2">  1       -2 0.80041347E-02 0.91692041E+02</pdfrwt>
<totfact> 0.94084541E+04</totfact>
</mgrwt>
</event>
<event>
 7    1  0.3056193E-009  0.9103401E+02  0.7818608E-02  0.1300367E+00
         -2   -1    0    0    0  501 -0.00000000000E+00  0.00000000000E+00  0.57482504797E+01  0.57482510453E+01  0.25500000000E-02 0. -1.
          2   -1    0    0  501    0  0.00000000000E+00 -0.00000000000E+00 -0.36042227122E+03  0.36042227123E+03  0.25500000000E-02 0.  1.
         23    2    1    2    0    0  0.00000000000E+00  0.00000000000E+00 -0.35467402074E+03  0.36617052227E+03  0.91034006802E+02 0.  0.
    9000005    2    3    3    0    0 -0.11431745473E+02 -0.43171023228E+02 -0.21200499131E+03  0.21667512432E+03  0.27515645296E+01 0.  0.
         22    1    3    3    0    0  0.11431745473E+02  0.43171023228E+02 -0.14266902943E+03  0.14949539795E+03  0.00000000000E+00 0. -1.
         22    1    4    4    0    0 -0.88452775423E+01 -0.34679485593E+02 -0.17473376363E+03  0.17836141345E+03  0.00000000000E+00 0. -1.
         22    1    4    4    0    0 -0.25864679306E+01 -0.84915376344E+01 -0.37271227679E+02  0.38313710868E+02  0.00000000000E+00 0. -1.
<mgrwt>
<rscale>  0 0.91034007E+02</rscale>
<asrwt>0</asrwt>
<pdfrwt beam="2">  1        2 0.55449563E-01 0.91034007E+02</pdfrwt>
<pdfrwt beam="1">  1       -2 0.88434655E-03 0.91034007E+02</pdfrwt>
<totfact> 0.19304879E+05</totfact>
</mgrwt>
</event>
<event>
 7    1  0.3056193E-009  0.9112827E+02  0.7818608E-02  0.1300142E+00
          2   -1    0    0  501    0  0.00000000000E+00  0.00000000000E+00  0.38334287096E+02  0.38334287180E+02  0.25500000000E-02 0. -1.
         -2   -1    0    0    0  501 -0.00000000000E+00 -0.00000000000E+00 -0.54157536844E+02  0.54157536904E+02  0.25500000000E-02 0.  1.
         23    2    1    2    0    0  0.00000000000E+00 -0.35527136788E-14 -0.15823249748E+02  0.92491824084E+02  0.91128273822E+02 0.  0.
    9000005    2    3    3    0    0 -0.40794803540E+02 -0.17335246786E+02  0.13694443771E+01  0.44949048520E+02  0.73358576809E+01 0.  0.
         22    1    3    3    0    0  0.40794803540E+02  0.17335246786E+02 -0.17192694125E+02  0.47542775564E+02  0.00000000000E+00 0. -1.
         22    1    4    4    0    0 -0.11796331075E+02 -0.73307789209E+01 -0.22166972362E+01  0.14064405179E+02  0.00000000000E+00 0. -1.
         22    1    4    4    0    0 -0.28998472466E+02 -0.10004467866E+02  0.35861416133E+01  0.30884643341E+02  0.00000000000E+00 0. -1.
<mgrwt>
<rscale>  0 0.91128274E+02</rscale>
<asrwt>0</asrwt>
<pdfrwt beam="1">  1        2 0.58975826E-02 0.91128274E+02</pdfrwt>
<pdfrwt beam="2">  1       -2 0.83319287E-02 0.91128274E+02</pdfrwt>
<totfact> 0.94489755E+04</totfact>
</mgrwt>
</event>
<event>
 7    1  0.3056193E-009  0.9027049E+02  0.7818608E-02  0.1302198E+00
         -2   -1    0    0    0  501 -0.00000000000E+00  0.00000000000E+00  0.26006694582E+01  0.26006707084E+01  0.25500000000E-02 0.  1.
          2   -1    0    0  501    0  0.00000000000E+00 -0.00000000000E+00 -0.78333293186E+03  0.78333293187E+03  0.25500000000E-02 0. -1.
         23    2    1    2    0    0  0.00000000000E+00  0.00000000000E+00 -0.78073226240E+03  0.78593360257E+03  0.90270494059E+02 0.  0.
    9000005    2    3    3    0    0 -0.15678336747E+02  0.33551769452E+02 -0.60940159512E+03  0.61064604161E+03  0.12114145629E+02 0.  0.
         22    1    3    3    0    0  0.15678336747E+02 -0.33551769452E+02 -0.17133066729E+03  0.17528756096E+03  0.00000000000E+00 0.  1.
         22    1    4    4    0    0 -0.80889234999E+00  0.13279392055E+02 -0.16600073444E+03  0.16653300092E+03  0.00000000000E+00 0.  1.
         22    1    4    4    0    0 -0.14869444397E+02  0.20272377397E+02 -0.44340086068E+03  0.44411304069E+03  0.00000000000E+00 0.  1.
<mgrwt>
<rscale>  0 0.90270494E+02</rscale>
<asrwt>0</asrwt>
<pdfrwt beam="2">  1        2 0.12051257E+00 0.90270494E+02</pdfrwt>
<pdfrwt beam="1">  1       -2 0.40010371E-03 0.90270494E+02</pdfrwt>
<totfact> 0.24928840E+05</totfact>
</mgrwt>
</event>
<event>
 7    1  0.3056193E-009  0.9068708E+02  0.7818608E-02  0.1301196E+00
          2   -1    0    0  501    0  0.00000000000E+00  0.00000000000E+00  0.14348759091E+03  0.14348759094E+03  0.25500000000E-02 0. -1.
         -2   -1    0    0    0  501 -0.00000000000E+00 -0.00000000000E+00 -0.14329019809E+02  0.14329020036E+02  0.25500000000E-02 0.  1.
         23    2    1    2    0    0  0.00000000000E+00  0.00000000000E+00  0.12915857110E+03  0.15781661097E+03  0.90687078511E+02 0.  0.
    9000005    2    3    3    0    0 -0.49855709921E+01  0.42123593583E+02  0.91735169691E+02  0.10125015423E+03  0.60827066126E+01 0.  0.
         22    1    3    3    0    0  0.49855709921E+01 -0.42123593583E+02  0.37423401414E+02  0.56566456738E+02  0.00000000000E+00 0.  1.
         22    1    4    4    0    0  0.11459292447E+01  0.38226669975E+01  0.69692475435E+01  0.80309618434E+01  0.00000000000E+00 0.  1.
         22    1    4    4    0    0 -0.61315002368E+01  0.38300926586E+02  0.84765922147E+02  0.93219192391E+02  0.00000000000E+00 0.  1.
<mgrwt>
<rscale>  0 0.90687079E+02</rscale>
<asrwt>0</asrwt>
<pdfrwt beam="1">  1        2 0.22075013E-01 0.90687079E+02</pdfrwt>
<pdfrwt beam="2">  1       -2 0.22044647E-02 0.90687079E+02</pdfrwt>
<totfact> 0.13975516E+05</totfact>
</mgrwt>
</event>
<event>
 7    1  0.3056193E-009  0.8754301E+02  0.7818608E-02  0.1308913E+00
         -2   -1    0    0    0  501 -0.00000000000E+00  0.00000000000E+00  0.38538353112E+02  0.38538353196E+02  0.25500000000E-02 0.  1.
          2   -1    0    0  501    0  0.00000000000E+00 -0.00000000000E+00 -0.49715271822E+02  0.49715271887E+02  0.25500000000E-02 0. -1.
         23    2    1    2    0    0 -0.71054273576E-14 -0.44408920985E-15 -0.11176918710E+02  0.88253625083E+02  0.87543011306E+02 0.  0.
    9000005    2    3    3    0    0 -0.38419231739E+02 -0.35244733943E+01 -0.25255401061E+02  0.47184622838E+02  0.10004702370E+02 0.  0.
         22    1    3    3    0    0  0.38419231739E+02  0.35244733943E+01  0.14078482351E+02  0.41069002245E+02  0.00000000000E+00 0.  1.
         22    1    4    4    0    0 -0.37771990246E+02 -0.46157069333E+01 -0.25608750147E+02  0.45867592936E+02  0.00000000000E+00 0. -1.
         22    1    4    4    0    0 -0.64724149253E+00  0.10912335390E+01  0.35334908610E+00  0.13170299020E+01  0.00000000000E+00 0. -1.
<mgrwt>
<rscale>  0 0.87543011E+02</rscale>
<asrwt>0</asrwt>
<pdfrwt beam="2">  1        2 0.76485033E-02 0.87543011E+02</pdfrwt>
<pdfrwt beam="1">  1       -2 0.59289774E-02 0.87543011E+02</pdfrwt>
<totfact> 0.11328123E+05</totfact>
</mgrwt>
</event>
<event>
 7    1  0.3056193E-009  0.9141883E+02  0.7818608E-02  0.1299452E+00
          2   -1    0    0  501    0  0.00000000000E+00  0.00000000000E+00  0.27418753037E+03  0.27418753038E+03  0.25500000000E-02 0. -1.
         -2   -1    0    0    0  501 -0.00000000000E+00 -0.00000000000E+00 -0.76201514285E+01  0.76201518551E+01  0.25500000000E-02 0.  1.
         23    2    1    2    0    0  0.00000000000E+00  0.00000000000E+00  0.26656737894E+03  0.28180768224E+03  0.91418828761E+02 0.  0.
    9000005    2    3    3    0    0  0.16419480313E+02 -0.41194106245E+02  0.16730358733E+03  0.17308853006E+03  0.16109577356E+01 0.  0.
         22    1    3    3    0    0 -0.16419480313E+02  0.41194106245E+02  0.99263791615E+02  0.10871915217E+03  0.00000000000E+00 0. -1.
         22    1    4    4    0    0  0.14604476158E+02 -0.35650706751E+02  0.14368924615E+03  0.14876445501E+03  0.00000000000E+00 0. -1.
         22    1    4    4    0    0  0.18150041551E+01 -0.55433994944E+01  0.23614341177E+02  0.24324075054E+02  0.00000000000E+00 0. -1.
<mgrwt>
<rscale>  0 0.91418829E+02</rscale>
<asrwt>0</asrwt>
<pdfrwt beam="1">  1        2 0.42182690E-01 0.91418829E+02</pdfrwt>
<pdfrwt beam="2">  1       -2 0.11723312E-02 0.91418829E+02</pdfrwt>
<totfact> 0.17250401E+05</totfact>
</mgrwt>
</event>
<event>
 7    1  0.3056193E-009  0.9156634E+02  0.7818608E-02  0.1299102E+00
          2   -1    0    0  501    0  0.00000000000E+00  0.00000000000E+00  0.10588164770E+03  0.10588164773E+03  0.25500000000E-02 0. -1.
         -2   -1    0    0    0  501 -0.00000000000E+00 -0.00000000000E+00 -0.19796620601E+02  0.19796620765E+02  0.25500000000E-02 0.  1.
         23    2    1    2    0    0  0.35527136788E-14 -0.35527136788E-14  0.86085027097E+02  0.12567826849E+03  0.91566343604E+02 0.  0.
    9000005    2    3    3    0    0  0.31111305453E+02 -0.30543449241E+02  0.29966395806E+02  0.54614097516E+02  0.13560942129E+02 0.  0.
         22    1    3    3    0    0 -0.31111305453E+02  0.30543449241E+02  0.56118631291E+02  0.71064170976E+02  0.00000000000E+00 0.  1.
         22    1    4    4    0    0  0.11762881800E+02 -0.20764940666E+02  0.13768938770E+02  0.27552346977E+02  0.00000000000E+00 0. -1.
         22    1    4    4    0    0  0.19348423654E+02 -0.97785085748E+01  0.16197457035E+02  0.27061750539E+02  0.00000000000E+00 0. -1.
<mgrwt>
<rscale>  0 0.91566344E+02</rscale>
<asrwt>0</asrwt>
<pdfrwt beam="1">  1        2 0.16289484E-01 0.91566344E+02</pdfrwt>
<pdfrwt beam="2">  1       -2 0.30456340E-02 0.91566344E+02</pdfrwt>
<totfact> 0.12339212E+05</totfact>
</mgrwt>
</event>
<event>
 7    1  0.3056193E-009  0.9074756E+02  0.7818608E-02  0.1301051E+00
         -2   -1    0    0    0  501 -0.00000000000E+00  0.00000000000E+00  0.42861485075E+01  0.42861492661E+01  0.25500000000E-02 0.  1.
          2   -1    0    0  501    0  0.00000000000E+00 -0.00000000000E+00 -0.48033331743E+03  0.48033331744E+03  0.25500000000E-02 0. -1.
         23    2    1    2    0    0  0.00000000000E+00  0.00000000000E+00 -0.47604716893E+03  0.48461946671E+03  0.90747564531E+02 0.  0.
    9000005    2    3    3    0    0 -0.68634093134E+01  0.27760198445E+02 -0.42580894514E+03  0.42681277043E+03  0.61764258676E+01 0.  0.
         22    1    3    3    0    0  0.68634093134E+01 -0.27760198445E+02 -0.50238223786E+02  0.57806696276E+02  0.00000000000E+00 0.  1.
         22    1    4    4    0    0 -0.69916253012E+01  0.23970933703E+02 -0.33747427292E+03  0.33839676915E+03  0.00000000000E+00 0.  1.
         22    1    4    4    0    0  0.12821598789E+00  0.37892647420E+01 -0.88334672222E+02  0.88416001285E+02  0.00000000000E+00 0.  1.
<mgrwt>
<rscale>  0 0.90747565E+02</rscale>
<asrwt>0</asrwt>
<pdfrwt beam="2">  1        2 0.73897391E-01 0.90747565E+02</pdfrwt>
<pdfrwt beam="1">  1       -2 0.65940790E-03 0.90747565E+02</pdfrwt>
<totfact> 0.21534679E+05</totfact>
</mgrwt>
</event>
<event>
 7    1  0.3056193E-009  0.9141583E+02  0.7818608E-02  0.1299459E+00
          2   -1    0    0  501    0  0.00000000000E+00  0.00000000000E+00  0.48194358989E+03  0.48194358990E+03  0.25500000000E-02 0. -1.
         -2   -1    0    0    0  501 -0.00000000000E+00 -0.00000000000E+00 -0.43349749608E+01  0.43349757109E+01  0.25500000000E-02 0.  1.
         23    2    1    2    0    0  0.00000000000E+00  0.35527136788E-14  0.47760861493E+03  0.48627856561E+03  0.91415831861E+02 0.  0.
    9000005    2    3    3    0    0 -0.17181161316E+02  0.23884834265E+02  0.42281142977E+03  0.42408202943E+03  0.14504651757E+02 0.  0.
         22    1    3    3    0    0  0.17181161316E+02 -0.23884834265E+02  0.54797185153E+02  0.62196536180E+02  0.00000000000E+00 0.  1.
         22    1    4    4    0    0 -0.11352121559E+02  0.24214101158E+02  0.36419460304E+03  0.36517516652E+03  0.00000000000E+00 0. -1.
         22    1    4    4    0    0 -0.58290397578E+01 -0.32926689309E+00  0.58616826737E+02  0.58906862910E+02  0.00000000000E+00 0. -1.
<mgrwt>
<rscale>  0 0.91415832E+02</rscale>
<asrwt>0</asrwt>
<pdfrwt beam="1">  1        2 0.74145134E-01 0.91415832E+02</pdfrwt>
<pdfrwt beam="2">  1       -2 0.66691959E-03 0.91415832E+02</pdfrwt>
<totfact> 0.21143827E+05</totfact>
</mgrwt>
</event>
<event>
 7    1  0.3056193E-009  0.9594436E+02  0.7818608E-02  0.1289063E+00
         -2   -1    0    0    0  501 -0.00000000000E+00  0.00000000000E+00  0.24058152772E+02  0.24058152907E+02  0.25500000000E-02 0.  1.
          2   -1    0    0  501    0  0.00000000000E+00 -0.00000000000E+00 -0.95656967318E+02  0.95656967352E+02  0.25500000000E-02 0. -1.
         23    2    1    2    0    0  0.00000000000E+00  0.00000000000E+00 -0.71598814546E+02  0.11971512026E+03  0.95944357698E+02 0.  0.
    9000005    2    3    3    0    0 -0.11284171819E+02 -0.12036746067E+02 -0.91261043836E+02  0.94047649597E+02  0.15625827439E+02 0.  0.
         22    1    3    3    0    0  0.11284171819E+02  0.12036746067E+02  0.19662229290E+02  0.25667470662E+02  0.00000000000E+00 0.  1.
         22    1    4    4    0    0 -0.12624301889E+02 -0.14550874076E+02 -0.70215631659E+02  0.72810273065E+02  0.00000000000E+00 0.  1.
         22    1    4    4    0    0  0.13401300697E+01  0.25141280092E+01 -0.21045412177E+02  0.21237376531E+02  0.00000000000E+00 0.  1.
<mgrwt>
<rscale>  0 0.95944358E+02</rscale>
<asrwt>0</asrwt>
<pdfrwt beam="2">  1        2 0.14716456E-01 0.95944358E+02</pdfrwt>
<pdfrwt beam="1">  1       -2 0.37012543E-02 0.95944358E+02</pdfrwt>
<totfact> 0.10509823E+05</totfact>
</mgrwt>
</event>
<event>
 7    1  0.3056193E-009  0.8653412E+02  0.7818608E-02  0.1311469E+00
          2   -1    0    0  501    0  0.00000000000E+00  0.00000000000E+00  0.11365800606E+04  0.11365800606E+04  0.25500000000E-02 0. -1.
         -2   -1    0    0    0  501 -0.00000000000E+00 -0.00000000000E+00 -0.16470791466E+01  0.16470811206E+01  0.25500000000E-02 0.  1.
         23    2    1    2    0    0  0.00000000000E+00 -0.35527136788E-14  0.11349329814E+04  0.11382271417E+04  0.86534119081E+02 0.  0.
    9000005    2    3    3    0    0 -0.74248068660E+01 -0.28714055241E+02  0.97611392128E+03  0.97666254598E+03  0.13846178740E+02 0.  0.
         22    1    3    3    0    0  0.74248068660E+01  0.28714055241E+02  0.15881906016E+03  0.16156459573E+03  0.00000000000E+00 0.  1.
         22    1    4    4    0    0 -0.11099567932E+02 -0.24970491501E+02  0.85121779115E+03  0.85165630029E+03  0.00000000000E+00 0.  1.
         22    1    4    4    0    0  0.36747610655E+01 -0.37435637400E+01  0.12489613013E+03  0.12500624569E+03  0.00000000000E+00 0.  1.
<mgrwt>
<rscale>  0 0.86534119E+02</rscale>
<asrwt>0</asrwt>
<pdfrwt beam="1">  1        2 0.17485881E+00 0.86534119E+02</pdfrwt>
<pdfrwt beam="2">  1       -2 0.25339646E-03 0.86534119E+02</pdfrwt>
<totfact> 0.28657409E+05</totfact>
</mgrwt>
</event>
<event>
 7    1  0.3056193E-009  0.9268677E+02  0.7818608E-02  0.1296473E+00
          2   -1    0    0  501    0  0.00000000000E+00  0.00000000000E+00  0.31890716545E+01  0.31890726740E+01  0.25500000000E-02 0. -1.
         -2   -1    0    0    0  501 -0.00000000000E+00 -0.00000000000E+00 -0.67345901309E+03  0.67345901310E+03  0.25500000000E-02 0.  1.
         23    2    1    2    0    0  0.22204460493E-15  0.00000000000E+00 -0.67026994144E+03  0.67664808577E+03  0.92686771347E+02 0.  0.
    9000005    2    3    3    0    0 -0.11134585228E+01  0.35441830800E+02 -0.54768855200E+03  0.54904103191E+03  0.15031352604E+02 0.  0.
         22    1    3    3    0    0  0.11134585228E+01 -0.35441830800E+02 -0.12258138944E+03  0.12760705387E+03  0.00000000000E+00 0. -1.
         22    1    4    4    0    0  0.32493460396E+01  0.32396380191E+02 -0.49940275441E+03  0.50046298046E+03  0.00000000000E+00 0. -1.
         22    1    4    4    0    0 -0.43628045625E+01  0.30454506094E+01 -0.48285797594E+02  0.48578051447E+02  0.00000000000E+00 0. -1.
<mgrwt>
<rscale>  0 0.92686771E+02</rscale>
<asrwt>0</asrwt>
<pdfrwt beam="1">  1        2 0.49062702E-03 0.92686771E+02</pdfrwt>
<pdfrwt beam="2">  1       -2 0.10360897E+00 0.92686771E+02</pdfrwt>
<totfact> 0.27010584E+04</totfact>
</mgrwt>
</event>
<event>
 7    1  0.3056193E-009  0.9293131E+02  0.7818608E-02  0.1295904E+00
         -2   -1    0    0    0  501 -0.00000000000E+00  0.00000000000E+00  0.53419111928E+01  0.53419118014E+01  0.25500000000E-02 0. -1.
          2   -1    0    0  501    0  0.00000000000E+00 -0.00000000000E+00 -0.40417313019E+03  0.40417313020E+03  0.25500000000E-02 0.  1.
         23    2    1    2    0    0  0.00000000000E+00  0.00000000000E+00 -0.39883121900E+03  0.40951504200E+03  0.92931309993E+02 0.  0.
    9000005    2    3    3    0    0 -0.29484902207E+02 -0.34246017084E+02 -0.19993032179E+03  0.20554515193E+03  0.15314266795E+02 0.  0.
         22    1    3    3    0    0  0.29484902207E+02  0.34246017084E+02 -0.19890089721E+03  0.20396989007E+03  0.00000000000E+00 0.  1.
         22    1    4    4    0    0 -0.21288467927E+02 -0.16694071504E+02 -0.13904739998E+03  0.14165475754E+03  0.00000000000E+00 0.  1.
         22    1    4    4    0    0 -0.81964342803E+01 -0.17551945580E+02 -0.60882921805E+02  0.63890394396E+02  0.00000000000E+00 0.  1.
<mgrwt>
<rscale>  0 0.92931310E+02</rscale>
<asrwt>0</asrwt>
<pdfrwt beam="2">  1        2 0.62180458E-01 0.92931310E+02</pdfrwt>
<pdfrwt beam="1">  1       -2 0.82183286E-03 0.92931310E+02</pdfrwt>
<totfact> 0.19046624E+05</totfact>
</mgrwt>
</event>
<event>
 7    1  0.3056193E-009  0.8028907E+02  0.7818608E-02  0.1328233E+00
          2   -1    0    0  501    0  0.00000000000E+00  0.00000000000E+00  0.87879645910E+03  0.87879645910E+03  0.25500000000E-02 0.  1.
         -2   -1    0    0    0  501 -0.00000000000E+00 -0.00000000000E+00 -0.18338522746E+01  0.18338540475E+01  0.25500000000E-02 0. -1.
         23    2    1    2    0    0  0.00000000000E+00  0.00000000000E+00  0.87696260683E+03  0.88063031315E+03  0.80289069436E+02 0.  0.
    9000005    2    3    3    0    0 -0.22630413194E+02 -0.87313955152E+01  0.78760504232E+03  0.78803902197E+03  0.97685507851E+01 0.  0.
         22    1    3    3    0    0  0.22630413194E+02  0.87313955152E+01  0.89357564503E+02  0.92591291183E+02  0.00000000000E+00 0. -1.
         22    1    4    4    0    0 -0.13627382863E+02 -0.26113826883E+01  0.56226269700E+03  0.56243387640E+03  0.00000000000E+00 0.  1.
         22    1    4    4    0    0 -0.90030303310E+01 -0.61200128269E+01  0.22534234532E+03  0.22560514557E+03  0.00000000000E+00 0.  1.
<mgrwt>
<rscale>  0 0.80289069E+02</rscale>
<asrwt>0</asrwt>
<pdfrwt beam="1">  1        2 0.13519938E+00 0.80289069E+02</pdfrwt>
<pdfrwt beam="2">  1       -2 0.28213141E-03 0.80289069E+02</pdfrwt>
<totfact> 0.34486663E+05</totfact>
</mgrwt>
</event>
<event>
 7    1  0.3056193E-009  0.8067739E+02  0.7818608E-02  0.1327140E+00
         -2   -1    0    0    0  501 -0.00000000000E+00  0.00000000000E+00  0.15298859959E+02  0.15298860172E+02  0.25500000000E-02 0.  1.
          2   -1    0    0  501    0  0.00000000000E+00 -0.00000000000E+00 -0.10636153295E+03  0.10636153298E+03  0.25500000000E-02 0. -1.
         23    2    1    2    0    0  0.00000000000E+00  0.00000000000E+00 -0.91062672992E+02  0.12166039315E+03  0.80677387475E+02 0.  0.
    9000005    2    3    3    0    0  0.16708242295E+02 -0.35127845030E+02 -0.49420267290E+02  0.64676002223E+02  0.15082824255E+02 0.  0.
         22    1    3    3    0    0 -0.16708242295E+02  0.35127845030E+02 -0.41642405702E+02  0.56984390930E+02  0.00000000000E+00 0. -1.
         22    1    4    4    0    0  0.14501981029E+02 -0.29247144524E+02 -0.48297679667E+02  0.58295529656E+02  0.00000000000E+00 0. -1.
         22    1    4    4    0    0  0.22062612660E+01 -0.58807005058E+01 -0.11225876227E+01  0.63804725674E+01  0.00000000000E+00 0. -1.
<mgrwt>
<rscale>  0 0.80677387E+02</rscale>
<asrwt>0</asrwt>
<pdfrwt beam="2">  1        2 0.16363312E-01 0.80677387E+02</pdfrwt>
<pdfrwt beam="1">  1       -2 0.23536708E-02 0.80677387E+02</pdfrwt>
<totfact> 0.17440341E+05</totfact>
</mgrwt>
</event>
<event>
 7    1  0.3056193E-009  0.9176707E+02  0.7818608E-02  0.1298628E+00
          2   -1    0    0  501    0  0.00000000000E+00  0.00000000000E+00  0.13928291971E+04  0.13928291971E+04  0.25500000000E-02 0. -1.
         -2   -1    0    0    0  501 -0.00000000000E+00 -0.00000000000E+00 -0.15115258156E+01  0.15115279666E+01  0.25500000000E-02 0.  1.
         23    2    1    2    0    0  0.35527136788E-14  0.00000000000E+00  0.13913176713E+04  0.13943407251E+04  0.91767070116E+02 0.  0.
    9000005    2    3    3    0    0  0.28431594993E+02 -0.80653701886E+01  0.12267596514E+04  0.12271499727E+04  0.91873419621E+01 0.  0.
         22    1    3    3    0    0 -0.28431594993E+02  0.80653701886E+01  0.16455801988E+03  0.16719075243E+03  0.00000000000E+00 0.  1.
         22    1    4    4    0    0  0.88411159923E+00  0.15322359020E+01  0.63929519775E+02  0.63953990484E+02  0.00000000000E+00 0.  1.
         22    1    4    4    0    0  0.27547483394E+02 -0.95976060905E+01  0.11628301317E+04  0.11631959822E+04  0.00000000000E+00 0.  1.
<mgrwt>
<rscale>  0 0.91767070E+02</rscale>
<asrwt>0</asrwt>
<pdfrwt beam="1">  1        2 0.21428231E+00 0.91767070E+02</pdfrwt>
<pdfrwt beam="2">  1       -2 0.23254162E-03 0.91767070E+02</pdfrwt>
<totfact> 0.23767215E+05</totfact>
</mgrwt>
</event>
<event>
 7    1  0.3056193E-009  0.8430580E+02  0.7818608E-02  0.1317258E+00
          2   -1    0    0  501    0  0.00000000000E+00  0.00000000000E+00  0.11317687348E+03  0.11317687351E+03  0.25500000000E-02 0. -1.
         -2   -1    0    0    0  501 -0.00000000000E+00 -0.00000000000E+00 -0.15699912606E+02  0.15699912813E+02  0.25500000000E-02 0.  1.
         23    2    1    2    0    0  0.00000000000E+00  0.00000000000E+00  0.97476960878E+02  0.12887678633E+03  0.84305801413E+02 0.  0.
    9000005    2    3    3    0    0  0.23865140181E+02  0.30668416500E+02  0.70040491286E+02  0.81307294526E+02  0.13968143653E+02 0.  0.
         22    1    3    3    0    0 -0.23865140181E+02 -0.30668416500E+02  0.27436469593E+02  0.47569491801E+02  0.00000000000E+00 0.  1.
         22    1    4    4    0    0  0.61247015706E+01  0.19194128337E+02  0.35414111561E+02  0.40744150864E+02  0.00000000000E+00 0.  1.
         22    1    4    4    0    0  0.17740438610E+02  0.11474288163E+02  0.34626379724E+02  0.40563143662E+02  0.00000000000E+00 0.  1.
<mgrwt>
<rscale>  0 0.84305801E+02</rscale>
<asrwt>0</asrwt>
<pdfrwt beam="1">  1        2 0.17411828E-01 0.84305801E+02</pdfrwt>
<pdfrwt beam="2">  1       -2 0.24153711E-02 0.84305801E+02</pdfrwt>
<totfact> 0.15778515E+05</totfact>
</mgrwt>
</event>
<event>
 7    1  0.3056193E-009  0.9092910E+02  0.7818608E-02  0.1300617E+00
         -2   -1    0    0    0  501 -0.00000000000E+00  0.00000000000E+00  0.83845126722E+01  0.83845130599E+01  0.25500000000E-02 0. -1.
          2   -1    0    0  501    0  0.00000000000E+00 -0.00000000000E+00 -0.24652898088E+03  0.24652898090E+03  0.25500000000E-02 0.  1.
         23    2    1    2    0    0  0.71054273576E-14  0.00000000000E+00 -0.23814446821E+03  0.25491349396E+03  0.90929102390E+02 0.  0.
    9000005    2    3    3    0    0  0.33470842323E+02  0.14034951939E+02 -0.19446233222E+03  0.19812083452E+03  0.10908219570E+02 0.  0.
         22    1    3    3    0    0 -0.33470842323E+02 -0.14034951939E+02 -0.43682135989E+02  0.56792659440E+02  0.00000000000E+00 0.  1.
         22    1    4    4    0    0  0.22542297851E+02  0.45051298009E+01 -0.10460953549E+03  0.10710558483E+03  0.00000000000E+00 0.  1.
         22    1    4    4    0    0  0.10928544472E+02  0.95298221382E+01 -0.89852796734E+02  0.91015249684E+02  0.00000000000E+00 0.  1.
<mgrwt>
<rscale>  0 0.90929102E+02</rscale>
<asrwt>0</asrwt>
<pdfrwt beam="2">  1        2 0.37927530E-01 0.90929102E+02</pdfrwt>
<pdfrwt beam="1">  1       -2 0.12899252E-02 0.90929102E+02</pdfrwt>
<totfact> 0.16821608E+05</totfact>
</mgrwt>
</event>
<event>
 7    1  0.3056193E-009  0.9227891E+02  0.7818608E-02  0.1297425E+00
         -2   -1    0    0    0  501 -0.00000000000E+00  0.00000000000E+00  0.47274116589E+01  0.47274123467E+01  0.25500000000E-02 0. -1.
          2   -1    0    0  501    0  0.00000000000E+00 -0.00000000000E+00 -0.45032021994E+03  0.45032021995E+03  0.25500000000E-02 0.  1.
         23    2    1    2    0    0  0.71054273576E-14  0.17763568394E-14 -0.44559280828E+03  0.45504763229E+03  0.92278908015E+02 0.  0.
    9000005    2    3    3    0    0 -0.43711201315E+02 -0.10198555927E+02 -0.21078127346E+03  0.21598459344E+03  0.14349902314E+02 0.  0.
         22    1    3    3    0    0  0.43711201315E+02  0.10198555927E+02 -0.23481153481E+03  0.23906303885E+03  0.00000000000E+00 0. -1.
         22    1    4    4    0    0 -0.15148774049E+02 -0.94097146080E+01 -0.63468470853E+02  0.65926283655E+02  0.00000000000E+00 0. -1.
         22    1    4    4    0    0 -0.28562427266E+02 -0.78884131931E+00 -0.14731280261E+03  0.15005830978E+03  0.00000000000E+00 0. -1.
<mgrwt>
<rscale>  0 0.92278908E+02</rscale>
<asrwt>0</asrwt>
<pdfrwt beam="2">  1        2 0.69280000E-01 0.92278908E+02</pdfrwt>
<pdfrwt beam="1">  1       -2 0.72729451E-03 0.92278908E+02</pdfrwt>
<totfact> 0.20156181E+05</totfact>
</mgrwt>
</event>
<event>
 7    1  0.3056193E-009  0.9057748E+02  0.7818608E-02  0.1301459E+00
         -2   -1    0    0    0  501 -0.00000000000E+00  0.00000000000E+00  0.12028483580E+02  0.12028483851E+02  0.25500000000E-02 0.  1.
          2   -1    0    0  501    0  0.00000000000E+00 -0.00000000000E+00 -0.17051775428E+03  0.17051775430E+03  0.25500000000E-02 0. -1.
         23    2    1    2    0    0  0.00000000000E+00  0.00000000000E+00 -0.15848927070E+03  0.18254623815E+03  0.90577481395E+02 0.  0.
    9000005    2    3    3    0    0 -0.18393629398E+02 -0.37929305183E+02 -0.47380236099E+02  0.63709478837E+02  0.60871279604E+01 0.  0.
         22    1    3    3    0    0  0.18393629398E+02  0.37929305183E+02 -0.11110903460E+03  0.11883675932E+03  0.00000000000E+00 0. -1.
         22    1    4    4    0    0 -0.63589473603E+01 -0.19989715088E+02 -0.22584184100E+02  0.30823210285E+02  0.00000000000E+00 0.  1.
         22    1    4    4    0    0 -0.12034682038E+02 -0.17939590095E+02 -0.24796051999E+02  0.32886268552E+02  0.00000000000E+00 0.  1.
<mgrwt>
<rscale>  0 0.90577481E+02</rscale>
<asrwt>0</asrwt>
<pdfrwt beam="2">  1        2 0.26233499E-01 0.90577481E+02</pdfrwt>
<pdfrwt beam="1">  1       -2 0.18505361E-02 0.90577481E+02</pdfrwt>
<totfact> 0.14876077E+05</totfact>
</mgrwt>
</event>
<event>
 7    1  0.3056193E-009  0.9372046E+02  0.7818608E-02  0.1294084E+00
          2   -1    0    0  501    0  0.00000000000E+00  0.00000000000E+00  0.91708984820E+03  0.91708984821E+03  0.25500000000E-02 0. -1.
         -2   -1    0    0    0  501 -0.00000000000E+00 -0.00000000000E+00 -0.23944006345E+01  0.23944019924E+01  0.25500000000E-02 0.  1.
         23    2    1    2    0    0  0.00000000000E+00  0.00000000000E+00  0.91469544757E+03  0.91948425020E+03  0.93720459674E+02 0.  0.
    9000005    2    3    3    0    0 -0.30144866149E+02  0.12746783544E+02  0.78185289262E+03  0.78266927349E+03  0.14354529805E+02 0.  0.
         22    1    3    3    0    0  0.30144866149E+02 -0.12746783544E+02  0.13284255495E+03  0.13681497671E+03  0.00000000000E+00 0.  1.
         22    1    4    4    0    0 -0.17425828579E+02 -0.40522131832E+00  0.37137142813E+03  0.37178025947E+03  0.00000000000E+00 0. -1.
         22    1    4    4    0    0 -0.12719037570E+02  0.13152004862E+02  0.41048146449E+03  0.41088901402E+03  0.00000000000E+00 0. -1.
<mgrwt>
<rscale>  0 0.93720460E+02</rscale>
<asrwt>0</asrwt>
<pdfrwt beam="1">  1        2 0.14109096E+00 0.93720460E+02</pdfrwt>
<pdfrwt beam="2">  1       -2 0.36836887E-03 0.93720460E+02</pdfrwt>
<totfact> 0.23104893E+05</totfact>
</mgrwt>
</event>
<event>
 7    1  0.3056193E-009  0.8960392E+02  0.7818608E-02  0.1303814E+00
          2   -1    0    0  501    0  0.00000000000E+00  0.00000000000E+00  0.13958028560E+03  0.13958028562E+03  0.25500000000E-02 0.  1.
         -2   -1    0    0    0  501 -0.00000000000E+00 -0.00000000000E+00 -0.14380366111E+02  0.14380366337E+02  0.25500000000E-02 0. -1.
         23    2    1    2    0    0  0.00000000000E+00  0.00000000000E+00  0.12519991948E+03  0.15396065196E+03  0.89603920182E+02 0.  0.
    9000005    2    3    3    0    0 -0.29542075672E+02 -0.19881744259E+02  0.17438615082E+02  0.40468287825E+02  0.80968533180E+01 0.  0.
         22    1    3    3    0    0  0.29542075672E+02  0.19881744259E+02  0.10776130440E+03  0.11349236413E+03  0.00000000000E+00 0.  1.
         22    1    4    4    0    0 -0.25108532633E+02 -0.15083817009E+02  0.17121342960E+02  0.33927869537E+02  0.00000000000E+00 0.  1.
         22    1    4    4    0    0 -0.44335430393E+01 -0.47979272503E+01  0.31727212195E+00  0.65404182879E+01  0.00000000000E+00 0.  1.
<mgrwt>
<rscale>  0 0.89603920E+02</rscale>
<asrwt>0</asrwt>
<pdfrwt beam="1">  1        2 0.21473889E-01 0.89603920E+02</pdfrwt>
<pdfrwt beam="2">  1       -2 0.22123641E-02 0.89603920E+02</pdfrwt>
<totfact> 0.14305865E+05</totfact>
</mgrwt>
</event>
<event>
 7    1  0.3056193E-009  0.9240836E+02  0.7818608E-02  0.1297122E+00
         -2   -1    0    0    0  501 -0.00000000000E+00  0.00000000000E+00  0.97337581763E+02  0.97337581797E+02  0.25500000000E-02 0.  1.
          2   -1    0    0  501    0  0.00000000000E+00 -0.00000000000E+00 -0.21932191305E+02  0.21932191453E+02  0.25500000000E-02 0. -1.
         23    2    1    2    0    0 -0.17763568394E-14  0.00000000000E+00  0.75405390458E+02  0.11926977325E+03  0.92408364887E+02 0.  0.
    9000005    2    3    3    0    0  0.14782540543E+02  0.31951468394E+02  0.19752139531E+01  0.37836299426E+02  0.13720941902E+02 0.  0.
         22    1    3    3    0    0 -0.14782540543E+02 -0.31951468394E+02  0.73430176505E+02  0.81433473824E+02  0.00000000000E+00 0.  1.
         22    1    4    4    0    0  0.12587621802E+02  0.28893745180E+02  0.62608286990E+01  0.32132455698E+02  0.00000000000E+00 0.  1.
         22    1    4    4    0    0  0.21949187411E+01  0.30577232140E+01 -0.42856147459E+01  0.57038437289E+01  0.00000000000E+00 0.  1.
<mgrwt>
<rscale>  0 0.92408365E+02</rscale>
<asrwt>0</asrwt>
<pdfrwt beam="2">  1        2 0.33741832E-02 0.92408365E+02</pdfrwt>
<pdfrwt beam="1">  1       -2 0.14975013E-01 0.92408365E+02</pdfrwt>
<totfact> 0.77808025E+04</totfact>
</mgrwt>
</event>
<event>
 7    1  0.3056193E-009  0.7058759E+02  0.7818608E-02  0.1358106E+00
         -2   -1    0    0    0  501 -0.00000000000E+00  0.00000000000E+00  0.17985240239E+03  0.17985240241E+03  0.25500000000E-02 0. -1.
          2   -1    0    0  501    0  0.00000000000E+00 -0.00000000000E+00 -0.69259668621E+01  0.69259673315E+01  0.25500000000E-02 0.  1.
         23    2    1    2    0    0  0.00000000000E+00  0.00000000000E+00  0.17292643553E+03  0.18677836974E+03  0.70587586007E+02 0.  0.
    9000005    2    3    3    0    0  0.20688839119E+02  0.28492172839E+01  0.16126298946E+03  0.16285804204E+03  0.89913282166E+01 0.  0.
         22    1    3    3    0    0 -0.20688839119E+02 -0.28492172839E+01  0.11663446067E+02  0.23920327702E+02  0.00000000000E+00 0.  1.
         22    1    4    4    0    0  0.13573693607E+02  0.29294071430E+01  0.73020864555E+02  0.74329491083E+02  0.00000000000E+00 0. -1.
         22    1    4    4    0    0  0.71151455117E+01 -0.80189859148E-01  0.88242124910E+02  0.88528550958E+02  0.00000000000E+00 0. -1.
<mgrwt>
<rscale>  0 0.70587586E+02</rscale>
<asrwt>0</asrwt>
<pdfrwt beam="2">  1        2 0.10655336E-02 0.70587586E+02</pdfrwt>
<pdfrwt beam="1">  1       -2 0.27669594E-01 0.70587586E+02</pdfrwt>
<totfact> 0.12462520E+05</totfact>
</mgrwt>
</event>
<event>
 7    1  0.3056193E-009  0.9314863E+02  0.7818608E-02  0.1295401E+00
         -2   -1    0    0    0  501 -0.00000000000E+00  0.00000000000E+00  0.11058135279E+02  0.11058135573E+02  0.25500000000E-02 0.  1.
          2   -1    0    0  501    0  0.00000000000E+00 -0.00000000000E+00 -0.19616026353E+03  0.19616026355E+03  0.25500000000E-02 0. -1.
         23    2    1    2    0    0  0.00000000000E+00  0.00000000000E+00 -0.18510212825E+03  0.20721839912E+03  0.93148628819E+02 0.  0.
    9000005    2    3    3    0    0 -0.32974030234E+02 -0.25355895296E+02 -0.13751457758E+03  0.14401410279E+03  0.99797123368E+01 0.  0.
         22    1    3    3    0    0  0.32974030234E+02  0.25355895296E+02 -0.47587550670E+02  0.63204296333E+02  0.00000000000E+00 0.  1.
         22    1    4    4    0    0 -0.26375078457E+02 -0.16174051579E+02 -0.10995899807E+03  0.11422883158E+03  0.00000000000E+00 0. -1.
         22    1    4    4    0    0 -0.65989517767E+01 -0.91818437174E+01 -0.27555579515E+02  0.29785271209E+02  0.00000000000E+00 0. -1.
<mgrwt>
<rscale>  0 0.93148629E+02</rscale>
<asrwt>0</asrwt>
<pdfrwt beam="2">  1        2 0.30178499E-01 0.93148629E+02</pdfrwt>
<pdfrwt beam="1">  1       -2 0.17012518E-02 0.93148629E+02</pdfrwt>
<totfact> 0.14498153E+05</totfact>
</mgrwt>
</event>
<event>
 7    1  0.3056193E-009  0.8802150E+02  0.7818608E-02  0.1307715E+00
          2   -1    0    0  501    0  0.00000000000E+00  0.00000000000E+00  0.10768077565E+03  0.10768077568E+03  0.25500000000E-02 0. -1.
         -2   -1    0    0    0  501 -0.00000000000E+00 -0.00000000000E+00 -0.17987855679E+02  0.17987855860E+02  0.25500000000E-02 0.  1.
         23    2    1    2    0    0 -0.71054273576E-14  0.17763568394E-14  0.89692919970E+02  0.12566863154E+03  0.88021503396E+02 0.  0.
    9000005    2    3    3    0    0 -0.34216323720E+02  0.10301410034E+02  0.12356571356E+02  0.40475987052E+02  0.14448003825E+02 0.  0.
         22    1    3    3    0    0  0.34216323720E+02 -0.10301410034E+02  0.77336348614E+02  0.85192644487E+02  0.00000000000E+00 0. -1.
         22    1    4    4    0    0 -0.30054061321E+02  0.12653953162E+02  0.71057035475E+01  0.33374543523E+02  0.00000000000E+00 0. -1.
         22    1    4    4    0    0 -0.41622623997E+01 -0.23525431279E+01  0.52508678081E+01  0.71014435286E+01  0.00000000000E+00 0. -1.
<mgrwt>
<rscale>  0 0.88021503E+02</rscale>
<asrwt>0</asrwt>
<pdfrwt beam="1">  1        2 0.16566273E-01 0.88021503E+02</pdfrwt>
<pdfrwt beam="2">  1       -2 0.27673625E-02 0.88021503E+02</pdfrwt>
<totfact> 0.13819579E+05</totfact>
</mgrwt>
</event>
<event>
 7    1  0.3056193E-009  0.8928695E+02  0.7818608E-02  0.1304588E+00
         -2   -1    0    0    0  501 -0.00000000000E+00  0.00000000000E+00  0.19595177871E+02  0.19595178036E+02  0.25500000000E-02 0.  1.
          2   -1    0    0  501    0  0.00000000000E+00 -0.00000000000E+00 -0.10171073388E+03  0.10171073391E+03  0.25500000000E-02 0. -1.
         23    2    1    2    0    0 -0.35527136788E-14  0.00000000000E+00 -0.82115556005E+02  0.12130591194E+03  0.89286951648E+02 0.  0.
    9000005    2    3    3    0    0  0.26671451101E+02  0.21135493648E+02 -0.59543038336E+01  0.37887618220E+02  0.15554500462E+02 0.  0.
         22    1    3    3    0    0 -0.26671451101E+02 -0.21135493648E+02 -0.76161252171E+02  0.83418293724E+02  0.00000000000E+00 0. -1.
         22    1    4    4    0    0  0.39381072476E+01  0.12300565764E+02 -0.67626196024E+00  0.12933287945E+02  0.00000000000E+00 0. -1.
         22    1    4    4    0    0  0.22733343853E+02  0.88349278838E+01 -0.52780418733E+01  0.24954330275E+02  0.00000000000E+00 0. -1.
<mgrwt>
<rscale>  0 0.89286952E+02</rscale>
<asrwt>0</asrwt>
<pdfrwt beam="2">  1        2 0.15647805E-01 0.89286952E+02</pdfrwt>
<pdfrwt beam="1">  1       -2 0.30146428E-02 0.89286952E+02</pdfrwt>
<totfact> 0.13061026E+05</totfact>
</mgrwt>
</event>
<event>
 7    1  0.3056193E-009  0.9159851E+02  0.7818608E-02  0.1299026E+00
         -2   -1    0    0    0  501 -0.00000000000E+00  0.00000000000E+00  0.67087544360E+02  0.67087544409E+02  0.25500000000E-02 0. -1.
          2   -1    0    0  501    0  0.00000000000E+00 -0.00000000000E+00 -0.31266188031E+02  0.31266188135E+02  0.25500000000E-02 0.  1.
         23    2    1    2    0    0  0.00000000000E+00  0.00000000000E+00  0.35821356329E+02  0.98353732544E+02  0.91598510556E+02 0.  0.
    9000005    2    3    3    0    0  0.34268815660E+02 -0.29238246795E+02  0.10494911016E+02  0.46675346012E+02  0.62624249068E+01 0.  0.
         22    1    3    3    0    0 -0.34268815660E+02  0.29238246795E+02  0.25326445313E+02  0.51678386532E+02  0.00000000000E+00 0.  1.
         22    1    4    4    0    0  0.17209046247E+02 -0.13444872363E+02  0.81493265085E+01  0.23309384121E+02  0.00000000000E+00 0. -1.
         22    1    4    4    0    0  0.17059769413E+02 -0.15793374433E+02  0.23455845079E+01  0.23365961891E+02  0.00000000000E+00 0. -1.
<mgrwt>
<rscale>  0 0.91598511E+02</rscale>
<asrwt>0</asrwt>
<pdfrwt beam="2">  1        2 0.48101828E-02 0.91598511E+02</pdfrwt>
<pdfrwt beam="1">  1       -2 0.10321161E-01 0.91598511E+02</pdfrwt>
<totfact> 0.88230525E+04</totfact>
</mgrwt>
</event>
<event>
 7    1  0.3056193E-009  0.8862647E+02  0.7818608E-02  0.1306212E+00
          2   -1    0    0  501    0  0.00000000000E+00  0.00000000000E+00  0.79342835864E+02  0.79342835905E+02  0.25500000000E-02 0. -1.
         -2   -1    0    0    0  501 -0.00000000000E+00 -0.00000000000E+00 -0.24749090190E+02  0.24749090322E+02  0.25500000000E-02 0.  1.
         23    2    1    2    0    0 -0.35527136788E-14  0.00000000000E+00  0.54593745674E+02  0.10409192623E+03  0.88626474819E+02 0.  0.
    9000005    2    3    3    0    0 -0.30643688585E+02 -0.18694294508E+01 -0.85961966818E+01  0.33838817886E+02  0.11341983160E+02 0.  0.
         22    1    3    3    0    0  0.30643688585E+02  0.18694294508E+01  0.63189942356E+02  0.70253108340E+02  0.00000000000E+00 0. -1.
         22    1    4    4    0    0 -0.65331053004E+01 -0.52077748467E+01 -0.15344012400E+01  0.84945141642E+01  0.00000000000E+00 0.  1.
         22    1    4    4    0    0 -0.24110583284E+02  0.33383453959E+01 -0.70617954418E+01  0.25344303722E+02  0.00000000000E+00 0.  1.
<mgrwt>
<rscale>  0 0.88626475E+02</rscale>
<asrwt>0</asrwt>
<pdfrwt beam="1">  1        2 0.12206590E-01 0.88626475E+02</pdfrwt>
<pdfrwt beam="2">  1       -2 0.38075523E-02 0.88626475E+02</pdfrwt>
<totfact> 0.12395954E+05</totfact>
</mgrwt>
</event>
<event>
 7    1  0.3056193E-009  0.9263743E+02  0.7818608E-02  0.1296588E+00
          2   -1    0    0  501    0  0.00000000000E+00  0.00000000000E+00  0.13260526083E+03  0.13260526085E+03  0.25500000000E-02 0. -1.
         -2   -1    0    0    0  501 -0.00000000000E+00 -0.00000000000E+00 -0.16179020474E+02  0.16179020675E+02  0.25500000000E-02 0.  1.
         23    2    1    2    0    0  0.00000000000E+00  0.00000000000E+00  0.11642624036E+03  0.14878428153E+03  0.92637427571E+02 0.  0.
    9000005    2    3    3    0    0 -0.18890388271E+02  0.63975195984E+01  0.12494155745E+03  0.12709821109E+03  0.12074247752E+02 0.  0.
         22    1    3    3    0    0  0.18890388271E+02 -0.63975195984E+01 -0.85153170903E+01  0.21686070441E+02  0.00000000000E+00 0.  1.
         22    1    4    4    0    0 -0.64871996428E+01  0.41880521629E+01  0.20614249561E+02  0.22012969475E+02  0.00000000000E+00 0. -1.
         22    1    4    4    0    0 -0.12403188628E+02  0.22094674356E+01  0.10432730789E+03  0.10508524161E+03  0.00000000000E+00 0. -1.
<mgrwt>
<rscale>  0 0.92637428E+02</rscale>
<asrwt>0</asrwt>
<pdfrwt beam="1">  1        2 0.20400808E-01 0.92637428E+02</pdfrwt>
<pdfrwt beam="2">  1       -2 0.24890802E-02 0.92637428E+02</pdfrwt>
<totfact> 0.12845756E+05</totfact>
</mgrwt>
</event>
<event>
 7    1  0.3056193E-009  0.1011352E+03  0.7818608E-02  0.1277927E+00
          2   -1    0    0  501    0  0.00000000000E+00  0.00000000000E+00  0.26956295785E+03  0.26956295787E+03  0.25500000000E-02 0.  1.
         -2   -1    0    0    0  501 -0.00000000000E+00 -0.00000000000E+00 -0.94860242933E+01  0.94860246361E+01  0.25500000000E-02 0. -1.
         23    2    1    2    0    0  0.71054273576E-14  0.00000000000E+00  0.26007693356E+03  0.27904898250E+03  0.10113517323E+03 0.  0.
    9000005    2    3    3    0    0  0.34508041606E+02 -0.32372374895E+02  0.90098104808E+02  0.10260755365E+03  0.13109766737E+02 0.  0.
         22    1    3    3    0    0 -0.34508041606E+02  0.32372374895E+02  0.16997882875E+03  0.17644142885E+03  0.00000000000E+00 0.  1.
         22    1    4    4    0    0  0.74108886795E+01 -0.89056092238E+01  0.35066633166E+02  0.36931015533E+02  0.00000000000E+00 0. -1.
         22    1    4    4    0    0  0.27097152926E+02 -0.23466765671E+02  0.55031471642E+02  0.65676538116E+02  0.00000000000E+00 0. -1.
<mgrwt>
<rscale>  0 0.10113517E+03</rscale>
<asrwt>0</asrwt>
<pdfrwt beam="1">  1        2 0.41471227E-01 0.10113517E+03</pdfrwt>
<pdfrwt beam="2">  1       -2 0.14593883E-02 0.10113517E+03</pdfrwt>
<totfact> 0.13061293E+05</totfact>
</mgrwt>
</event>
<event>
 7    1  0.3056193E-009  0.9111361E+02  0.7818608E-02  0.1300177E+00
         -2   -1    0    0    0  501 -0.00000000000E+00  0.00000000000E+00  0.40668764291E+02  0.40668764371E+02  0.25500000000E-02 0.  1.
          2   -1    0    0  501    0  0.00000000000E+00 -0.00000000000E+00 -0.51032345617E+02  0.51032345681E+02  0.25500000000E-02 0. -1.
         23    2    1    2    0    0 -0.17763568394E-14  0.11102230246E-15 -0.10363581326E+02  0.91701110052E+02  0.91113609120E+02 0.  0.
    9000005    2    3    3    0    0 -0.15063804105E+02 -0.62493601036E+00 -0.48133768699E+02  0.51032992401E+02  0.77587296006E+01 0.  0.
         22    1    3    3    0    0  0.15063804105E+02  0.62493601036E+00  0.37770187373E+02  0.40668117652E+02  0.00000000000E+00 0.  1.
         22    1    4    4    0    0  0.58948802481E+00 -0.11498446504E+01 -0.34762384399E+01  0.37086213803E+01  0.00000000000E+00 0. -1.
         22    1    4    4    0    0 -0.15653292130E+02  0.52490864002E+00 -0.44657530259E+02  0.47324371020E+02  0.00000000000E+00 0. -1.
<mgrwt>
<rscale>  0 0.91113609E+02</rscale>
<asrwt>0</asrwt>
<pdfrwt beam="2">  1        2 0.78511301E-02 0.91113609E+02</pdfrwt>
<pdfrwt beam="1">  1       -2 0.62567330E-02 0.91113609E+02</pdfrwt>
<totfact> 0.10182052E+05</totfact>
</mgrwt>
</event>
<event>
 7    1  0.3110116E-009  0.9091258E+02  0.7818608E-02  0.1300657E+00
          2   -1    0    0  501    0  0.00000000000E+00  0.00000000000E+00  0.35026898685E+03  0.35026898686E+03  0.25500000000E-02 0. -1.
         -2   -1    0    0    0  501 -0.00000000000E+00 -0.00000000000E+00 -0.58991072216E+01  0.58991077728E+01  0.25500000000E-02 0.  1.
         23    2    1    2    0    0  0.00000000000E+00 -0.17763568394E-14  0.34436987963E+03  0.35616809463E+03  0.90912582400E+02 0.  0.
    9000005    2    3    3    0    0  0.39770360709E+02 -0.82065062725E+01  0.10626960916E+03  0.11462975993E+03  0.14061425721E+02 0.  0.
         22    1    3    3    0    0 -0.39770360709E+02  0.82065062725E+01  0.23810027047E+03  0.24153833471E+03  0.00000000000E+00 0. -1.
         22    1    4    4    0    0  0.10534319987E+02  0.35834032603E+01  0.21931698271E+02  0.24592927145E+02  0.00000000000E+00 0.  1.
         22    1    4    4    0    0  0.29236040722E+02 -0.11789909533E+02  0.84337910893E+02  0.90036832784E+02  0.00000000000E+00 0.  1.
<mgrwt>
<rscale>  0 0.90912582E+02</rscale>
<asrwt>0</asrwt>
<pdfrwt beam="1">  1        2 0.53887548E-01 0.90912582E+02</pdfrwt>
<pdfrwt beam="2">  1       -2 0.90755481E-03 0.90912582E+02</pdfrwt>
<totfact> 0.19172504E+05</totfact>
</mgrwt>
</event>
<event>
 7    1  0.3056193E-009  0.9117989E+02  0.7818608E-02  0.1300019E+00
         -2   -1    0    0    0  501 -0.00000000000E+00  0.00000000000E+00  0.15630374122E+01  0.15630394922E+01  0.25500000000E-02 0.  1.
          2   -1    0    0  501    0  0.00000000000E+00 -0.00000000000E+00 -0.13297453519E+04  0.13297453519E+04  0.25500000000E-02 0. -1.
         23    2    1    2    0    0  0.00000000000E+00  0.00000000000E+00 -0.13281823144E+04  0.13313083913E+04  0.91179890762E+02 0.  0.
    9000005    2    3    3    0    0  0.21286593740E+02  0.17013409858E+02 -0.11962090494E+04  0.11965511360E+04  0.87152720160E+01 0.  0.
         22    1    3    3    0    0 -0.21286593740E+02 -0.17013409858E+02 -0.13197326504E+03  0.13475725537E+03  0.00000000000E+00 0.  1.
         22    1    4    4    0    0  0.97082901985E+00 -0.10201560926E+01 -0.73518992656E+02  0.73532479277E+02  0.00000000000E+00 0. -1.
         22    1    4    4    0    0  0.20315764720E+02  0.18033565951E+02 -0.11226900567E+04  0.11230186567E+04  0.00000000000E+00 0. -1.
<mgrwt>
<rscale>  0 0.91179891E+02</rscale>
<asrwt>0</asrwt>
<pdfrwt beam="2">  1        2 0.20457530E+00 0.91179891E+02</pdfrwt>
<pdfrwt beam="1">  1       -2 0.24046852E-03 0.91179891E+02</pdfrwt>
<totfact> 0.24452366E+05</totfact>
</mgrwt>
</event>
<event>
 7    1  0.3056193E-009  0.9597892E+02  0.7818608E-02  0.1288986E+00
         -2   -1    0    0    0  501 -0.00000000000E+00  0.00000000000E+00  0.69071182595E+02  0.69071182642E+02  0.25500000000E-02 0.  1.
          2   -1    0    0  501    0  0.00000000000E+00 -0.00000000000E+00 -0.33342242871E+02  0.33342242969E+02  0.25500000000E-02 0. -1.
         23    2    1    2    0    0  0.00000000000E+00  0.00000000000E+00  0.35728939724E+02  0.10241342561E+03  0.95978917537E+02 0.  0.
    9000005    2    3    3    0    0 -0.13333076692E+02  0.38180345314E+02 -0.85303373566E+01  0.42460166233E+02  0.97257060787E+01 0.  0.
         22    1    3    3    0    0  0.13333076692E+02 -0.38180345314E+02  0.44259277080E+02  0.59953259378E+02  0.00000000000E+00 0.  1.
         22    1    4    4    0    0 -0.10356440701E+02  0.28434899920E+02 -0.10594864231E+02  0.32063227310E+02  0.00000000000E+00 0.  1.
         22    1    4    4    0    0 -0.29766359917E+01  0.97454453937E+01  0.20645268746E+01  0.10396938923E+02  0.00000000000E+00 0.  1.
<mgrwt>
<rscale>  0 0.95978918E+02</rscale>
<asrwt>0</asrwt>
<pdfrwt beam="2">  1        2 0.51295759E-02 0.95978918E+02</pdfrwt>
<pdfrwt beam="1">  1       -2 0.10626336E-01 0.95978918E+02</pdfrwt>
<totfact> 0.78148228E+04</totfact>
</mgrwt>
</event>
<event>
 7    1  0.3056193E-009  0.9077055E+02  0.7818608E-02  0.1300996E+00
          2   -1    0    0  501    0  0.00000000000E+00  0.00000000000E+00  0.75361985708E+03  0.75361985709E+03  0.25500000000E-02 0. -1.
         -2   -1    0    0    0  501 -0.00000000000E+00 -0.00000000000E+00 -0.27332382110E+01  0.27332394006E+01  0.25500000000E-02 0.  1.
         23    2    1    2    0    0  0.00000000000E+00  0.00000000000E+00  0.75088661887E+03  0.75635309649E+03  0.90770546797E+02 0.  0.
    9000005    2    3    3    0    0 -0.33930248537E+02  0.24523808434E+02  0.50464472467E+03  0.50657769857E+03  0.14212234276E+02 0.  0.
         22    1    3    3    0    0  0.33930248537E+02 -0.24523808434E+02  0.24624189420E+03  0.24977539792E+03  0.00000000000E+00 0. -1.
         22    1    4    4    0    0 -0.14387717271E+02  0.73752207378E+01  0.12458594317E+03  0.12563063928E+03  0.00000000000E+00 0. -1.
         22    1    4    4    0    0 -0.19542531267E+02  0.17148587697E+02  0.38005878150E+03  0.38094705929E+03  0.00000000000E+00 0. -1.
<mgrwt>
<rscale>  0 0.90770547E+02</rscale>
<asrwt>0</asrwt>
<pdfrwt beam="1">  1        2 0.11594149E+00 0.90770547E+02</pdfrwt>
<pdfrwt beam="2">  1       -2 0.42049839E-03 0.90770547E+02</pdfrwt>
<totfact> 0.24384870E+05</totfact>
</mgrwt>
</event>
<event>
 7    1  0.3056193E-009  0.8870415E+02  0.7818608E-02  0.1306020E+00
          2   -1    0    0  501    0  0.00000000000E+00  0.00000000000E+00  0.37471782753E+03  0.37471782754E+03  0.25500000000E-02 0. -1.
         -2   -1    0    0    0  501 -0.00000000000E+00 -0.00000000000E+00 -0.52495676885E+01  0.52495683078E+01  0.25500000000E-02 0.  1.
         23    2    1    2    0    0  0.71054273576E-14  0.88817841970E-15  0.36946825984E+03  0.37996739584E+03  0.88704153657E+02 0.  0.
    9000005    2    3    3    0    0 -0.43367004127E+02  0.48086389460E+01  0.19015518430E+03  0.19542201087E+03  0.11267127466E+02 0.  0.
         22    1    3    3    0    0  0.43367004127E+02 -0.48086389460E+01  0.17931307554E+03  0.18454538498E+03  0.00000000000E+00 0.  1.
         22    1    4    4    0    0 -0.34063588316E+02  0.80850368904E+01  0.15535802344E+03  0.15925392088E+03  0.00000000000E+00 0. -1.
         22    1    4    4    0    0 -0.93034158110E+01 -0.32763979444E+01  0.34797160858E+02  0.36168089983E+02  0.00000000000E+00 0. -1.
<mgrwt>
<rscale>  0 0.88704154E+02</rscale>
<asrwt>0</asrwt>
<pdfrwt beam="1">  1        2 0.57648894E-01 0.88704154E+02</pdfrwt>
<pdfrwt beam="2">  1       -2 0.80762589E-03 0.88704154E+02</pdfrwt>
<totfact> 0.20973004E+05</totfact>
</mgrwt>
</event>
<event>
 7    1  0.3056193E-009  0.9519976E+02  0.7818608E-02  0.1290727E+00
          2   -1    0    0  501    0  0.00000000000E+00  0.00000000000E+00  0.13435840345E+04  0.13435840345E+04  0.25500000000E-02 0. -1.
         -2   -1    0    0    0  501 -0.00000000000E+00 -0.00000000000E+00 -0.16863459381E+01  0.16863478661E+01  0.25500000000E-02 0.  1.
         23    2    1    2    0    0  0.88817841970E-15  0.17763568394E-14  0.13418976885E+04  0.13452703824E+04  0.95199764234E+02 0.  0.
    9000005    2    3    3    0    0  0.50437326511E+01  0.10183774120E+02  0.13237148999E+04  0.13238283139E+04  0.13081289141E+02 0.  0.
         22    1    3    3    0    0 -0.50437326511E+01 -0.10183774120E+02  0.18182788691E+02  0.21442068439E+02  0.00000000000E+00 0.  1.
         22    1    4    4    0    0 -0.21412350191E+01  0.92723078349E+01  0.91268029028E+03  0.91272990136E+03  0.00000000000E+00 0.  1.
         22    1    4    4    0    0  0.71849676702E+01  0.91146628511E+00  0.41103460958E+03  0.41109841255E+03  0.00000000000E+00 0.  1.
<mgrwt>
<rscale>  0 0.95199764E+02</rscale>
<asrwt>0</asrwt>
<pdfrwt beam="1">  1        2 0.20670612E+00 0.95199764E+02</pdfrwt>
<pdfrwt beam="2">  1       -2 0.25943688E-03 0.95199764E+02</pdfrwt>
<totfact> 0.21770152E+05</totfact>
</mgrwt>
</event>
<event>
 7    1  0.3056193E-009  0.9247730E+02  0.7818608E-02  0.1296961E+00
         -2   -1    0    0    0  501 -0.00000000000E+00  0.00000000000E+00  0.13838632266E+03  0.13838632268E+03  0.25500000000E-02 0. -1.
          2   -1    0    0  501    0  0.00000000000E+00 -0.00000000000E+00 -0.15449595682E+02  0.15449595892E+02  0.25500000000E-02 0.  1.
         23    2    1    2    0    0  0.00000000000E+00  0.00000000000E+00  0.12293672698E+03  0.15383591857E+03  0.92477299937E+02 0.  0.
    9000005    2    3    3    0    0 -0.87027215475E+01  0.42237937944E+02  0.86770432741E+02  0.97552869591E+02  0.11299274454E+02 0.  0.
         22    1    3    3    0    0  0.87027215475E+01 -0.42237937944E+02  0.36166294235E+02  0.56283048983E+02  0.00000000000E+00 0.  1.
         22    1    4    4    0    0  0.79184800231E+00  0.19424247317E+02  0.45016284799E+02  0.49034623524E+02  0.00000000000E+00 0. -1.
         22    1    4    4    0    0 -0.94945695498E+01  0.22813690627E+02  0.41754147943E+02  0.48518246067E+02  0.00000000000E+00 0. -1.
<mgrwt>
<rscale>  0 0.92477300E+02</rscale>
<asrwt>0</asrwt>
<pdfrwt beam="2">  1        2 0.23768609E-02 0.92477300E+02</pdfrwt>
<pdfrwt beam="1">  1       -2 0.21290204E-01 0.92477300E+02</pdfrwt>
<totfact> 0.69363474E+04</totfact>
</mgrwt>
</event>
<event>
 7    1  0.3056193E-009  0.9264950E+02  0.7818608E-02  0.1296559E+00
         -2   -1    0    0    0  501 -0.00000000000E+00  0.00000000000E+00  0.12934814597E+02  0.12934814849E+02  0.25500000000E-02 0. -1.
          2   -1    0    0  501    0  0.00000000000E+00 -0.00000000000E+00 -0.16590745838E+03  0.16590745840E+03  0.25500000000E-02 0.  1.
         23    2    1    2    0    0  0.00000000000E+00  0.00000000000E+00 -0.15297264378E+03  0.17884227325E+03  0.92649495167E+02 0.  0.
    9000005    2    3    3    0    0  0.21411863490E+02 -0.11608323078E+02 -0.15241921692E+03  0.15447985662E+03  0.62599800865E+01 0.  0.
         22    1    3    3    0    0 -0.21411863490E+02  0.11608323078E+02 -0.55342686102E+00  0.24362416631E+02  0.00000000000E+00 0. -1.
         22    1    4    4    0    0  0.10778153711E+02 -0.90322156346E+01 -0.93806277593E+02  0.94854452888E+02  0.00000000000E+00 0.  1.
         22    1    4    4    0    0  0.10633709779E+02 -0.25761074438E+01 -0.58612939329E+02  0.59625403731E+02  0.00000000000E+00 0.  1.
<mgrwt>
<rscale>  0 0.92649495E+02</rscale>
<asrwt>0</asrwt>
<pdfrwt beam="2">  1        2 0.25524223E-01 0.92649495E+02</pdfrwt>
<pdfrwt beam="1">  1       -2 0.19899716E-02 0.92649495E+02</pdfrwt>
<totfact> 0.13859115E+05</totfact>
</mgrwt>
</event>
<event>
 7    1  0.3056193E-009  0.8870338E+02  0.7818608E-02  0.1306022E+00
         -2   -1    0    0    0  501 -0.00000000000E+00  0.00000000000E+00  0.63046251189E+02  0.63046251241E+02  0.25500000000E-02 0. -1.
          2   -1    0    0  501    0  0.00000000000E+00 -0.00000000000E+00 -0.31200467966E+02  0.31200468070E+02  0.25500000000E-02 0.  1.
         23    2    1    2    0    0  0.00000000000E+00 -0.71054273576E-14  0.31845783223E+02  0.94246719311E+02  0.88703383204E+02 0.  0.
    9000005    2    3    3    0    0  0.24904613321E+02 -0.32865271879E+02  0.31702432015E+02  0.53010977412E+02  0.10234924042E+02 0.  0.
         22    1    3    3    0    0 -0.24904613321E+02  0.32865271879E+02  0.14335120811E+00  0.41235741899E+02  0.00000000000E+00 0.  1.
         22    1    4    4    0    0  0.98859637700E+01 -0.58477818044E+01  0.10147887711E+02  0.15326723612E+02  0.00000000000E+00 0.  1.
         22    1    4    4    0    0  0.15018649551E+02 -0.27017490075E+02  0.21554544304E+02  0.37684253800E+02  0.00000000000E+00 0.  1.
<mgrwt>
<rscale>  0 0.88703383E+02</rscale>
<asrwt>0</asrwt>
<pdfrwt beam="2">  1        2 0.48000720E-02 0.88703383E+02</pdfrwt>
<pdfrwt beam="1">  1       -2 0.96994232E-02 0.88703383E+02</pdfrwt>
<totfact> 0.96936260E+04</totfact>
</mgrwt>
</event>
<event>
 7    1  0.3056193E-009  0.9134722E+02  0.7818608E-02  0.1299622E+00
         -2   -1    0    0    0  501 -0.00000000000E+00  0.00000000000E+00  0.12148480745E+02  0.12148481012E+02  0.25500000000E-02 0. -1.
          2   -1    0    0  501    0  0.00000000000E+00 -0.00000000000E+00 -0.17171518381E+03  0.17171518383E+03  0.25500000000E-02 0.  1.
         23    2    1    2    0    0  0.17763568394E-14  0.00000000000E+00 -0.15956670306E+03  0.18386366484E+03  0.91347219562E+02 0.  0.
    9000005    2    3    3    0    0  0.11981920990E+02  0.35301904094E+02 -0.28220189826E+02  0.47329063354E+02  0.73396362883E+01 0.  0.
         22    1    3    3    0    0 -0.11981920990E+02 -0.35301904094E+02 -0.13134651324E+03  0.13653460149E+03  0.00000000000E+00 0.  1.
         22    1    4    4    0    0  0.94421267883E+01  0.21601129500E+02 -0.21296444077E+02  0.31769499277E+02  0.00000000000E+00 0.  1.
         22    1    4    4    0    0  0.25397942014E+01  0.13700774595E+02 -0.69237457485E+01  0.15559564077E+02  0.00000000000E+00 0.  1.
<mgrwt>
<rscale>  0 0.91347220E+02</rscale>
<asrwt>0</asrwt>
<pdfrwt beam="2">  1        2 0.26417719E-01 0.91347220E+02</pdfrwt>
<pdfrwt beam="1">  1       -2 0.18689972E-02 0.91347220E+02</pdfrwt>
<totfact> 0.14575417E+05</totfact>
</mgrwt>
</event>
<event>
 6    1  0.3056193E-009  0.2026377E+03  0.7818608E-02  0.1147532E+00
         -2   -1    0    0    0  501 -0.00000000000E+00  0.00000000000E+00  0.28887868054E+02  0.28887868167E+02  0.25500000000E-02 0. -1.
          2   -1    0    0  501    0  0.00000000000E+00 -0.00000000000E+00 -0.35535720841E+03  0.35535720842E+03  0.25500000000E-02 0.  1.
    9000005    2    1    2    0    0 -0.15002417750E+02 -0.90578072156E+02 -0.24374222208E+03  0.26066014307E+03  0.10197042127E+02 0.  0.
         22    1    1    2    0    0  0.15002417750E+02  0.90578072156E+02 -0.82727118282E+02  0.12358493352E+03  0.00000000000E+00 0.  1.
         22    1    3    3    0    0  0.12453937337E+01 -0.16026710481E+02 -0.42192548072E+02  0.45151052780E+02  0.00000000000E+00 0.  1.
         22    1    3    3    0    0 -0.16247811484E+02 -0.74551361675E+02 -0.20154967400E+03  0.21550909029E+03  0.00000000000E+00 0.  1.
<mgrwt>
<rscale>  0 0.20263773E+03</rscale>
<asrwt>0</asrwt>
<pdfrwt beam="2">  1        2 0.54670337E-01 0.20263773E+03</pdfrwt>
<pdfrwt beam="1">  1       -2 0.44442876E-02 0.20263773E+03</pdfrwt>
<totfact> 0.20634752E+04</totfact>
</mgrwt>
</event>
<event>
 7    1  0.3056193E-009  0.9099226E+02  0.7818608E-02  0.1300466E+00
          2   -1    0    0  501    0  0.00000000000E+00  0.00000000000E+00  0.37312002915E+03  0.37312002916E+03  0.25500000000E-02 0. -1.
         -2   -1    0    0    0  501 -0.00000000000E+00 -0.00000000000E+00 -0.55475380728E+01  0.55475386589E+01  0.25500000000E-02 0.  1.
         23    2    1    2    0    0  0.00000000000E+00  0.00000000000E+00  0.36757249108E+03  0.37866756782E+03  0.90992256375E+02 0.  0.
    9000005    2    3    3    0    0 -0.36537813451E+02  0.66269455122E+01  0.29044257817E+03  0.29306411179E+03  0.12278199675E+02 0.  0.
         22    1    3    3    0    0  0.36537813451E+02 -0.66269455122E+01  0.77129912908E+02  0.85603456028E+02  0.00000000000E+00 0.  1.
         22    1    4    4    0    0 -0.28416374317E+02  0.38288566661E+01  0.17807339897E+03  0.18036708650E+03  0.00000000000E+00 0.  1.
         22    1    4    4    0    0 -0.81214391342E+01  0.27980888461E+01  0.11236917920E+03  0.11269702529E+03  0.00000000000E+00 0.  1.
<mgrwt>
<rscale>  0 0.90992256E+02</rscale>
<asrwt>0</asrwt>
<pdfrwt beam="1">  1        2 0.57403089E-01 0.90992256E+02</pdfrwt>
<pdfrwt beam="2">  1       -2 0.85346733E-03 0.90992256E+02</pdfrwt>
<totfact> 0.19572875E+05</totfact>
</mgrwt>
</event>
<event>
 7    1  0.3394429E-009  0.9146917E+02  0.7818608E-02  0.1299332E+00
         -2   -1    0    0    0  501 -0.00000000000E+00  0.00000000000E+00  0.70271209241E+02  0.70271209288E+02  0.25500000000E-02 0.  1.
          2   -1    0    0  501    0  0.00000000000E+00 -0.00000000000E+00 -0.29765424185E+02  0.29765424294E+02  0.25500000000E-02 0. -1.
         23    2    1    2    0    0  0.00000000000E+00  0.00000000000E+00  0.40505785057E+02  0.10003663358E+03  0.91469172049E+02 0.  0.
    9000005    2    3    3    0    0 -0.49268385431E+01  0.12437973799E+02  0.67396306032E+02  0.70002036055E+02  0.13380809202E+02 0.  0.
         22    1    3    3    0    0  0.49268385431E+01 -0.12437973799E+02 -0.26890520975E+02  0.30034597526E+02  0.00000000000E+00 0. -1.
         22    1    4    4    0    0  0.45066256031E+01  0.50183182156E+01  0.19861450926E+02  0.20975471983E+02  0.00000000000E+00 0. -1.
         22    1    4    4    0    0 -0.94334641462E+01  0.74196555833E+01  0.47534855106E+02  0.49026564072E+02  0.00000000000E+00 0. -1.
<mgrwt>
<rscale>  0 0.91469172E+02</rscale>
<asrwt>0</asrwt>
<pdfrwt beam="2">  1        2 0.45792961E-02 0.91469172E+02</pdfrwt>
<pdfrwt beam="1">  1       -2 0.10810955E-01 0.91469172E+02</pdfrwt>
<totfact> 0.87444242E+04</totfact>
</mgrwt>
</event>
<event>
 7    1  0.3056193E-009  0.8850172E+02  0.7818608E-02  0.1306521E+00
         -2   -1    0    0    0  501 -0.00000000000E+00  0.00000000000E+00  0.18246455472E+02  0.18246455650E+02  0.25500000000E-02 0. -1.
          2   -1    0    0  501    0  0.00000000000E+00 -0.00000000000E+00 -0.10731612070E+03  0.10731612073E+03  0.25500000000E-02 0.  1.
         23    2    1    2    0    0  0.00000000000E+00  0.00000000000E+00 -0.89069665232E+02  0.12556257638E+03  0.88501724976E+02 0.  0.
    9000005    2    3    3    0    0 -0.87363300538E+01 -0.29380853685E+02 -0.73745121654E+00  0.32063175001E+02  0.93779171893E+01 0.  0.
         22    1    3    3    0    0  0.87363300538E+01  0.29380853685E+02 -0.88332214015E+02  0.93499401383E+02  0.00000000000E+00 0.  1.
         22    1    4    4    0    0 -0.51880626332E+00 -0.63621248182E+01  0.34648631611E+01  0.72629931066E+01  0.00000000000E+00 0. -1.
         22    1    4    4    0    0 -0.82175237905E+01 -0.23018728867E+02 -0.42023143777E+01  0.24800181895E+02  0.00000000000E+00 0. -1.
<mgrwt>
<rscale>  0 0.88501725E+02</rscale>
<asrwt>0</asrwt>
<pdfrwt beam="2">  1        2 0.16510172E-01 0.88501725E+02</pdfrwt>
<pdfrwt beam="1">  1       -2 0.28071471E-02 0.88501725E+02</pdfrwt>
<totfact> 0.13601633E+05</totfact>
</mgrwt>
</event>
<event>
 7    1  0.3056193E-009  0.9440410E+02  0.7818608E-02  0.1292524E+00
          2   -1    0    0  501    0  0.00000000000E+00  0.00000000000E+00  0.15171142879E+02  0.15171143094E+02  0.25500000000E-02 0. -1.
         -2   -1    0    0    0  501 -0.00000000000E+00 -0.00000000000E+00 -0.14685996944E+03  0.14685996946E+03  0.25500000000E-02 0.  1.
         23    2    1    2    0    0  0.00000000000E+00  0.00000000000E+00 -0.13168882656E+03  0.16203111255E+03  0.94404101580E+02 0.  0.
    9000005    2    3    3    0    0  0.16318137280E+02  0.39975927277E+02 -0.36594207826E+02  0.57592887378E+02  0.10651209515E+02 0.  0.
         22    1    3    3    0    0 -0.16318137280E+02 -0.39975927277E+02 -0.95094618733E+02  0.10443822518E+03  0.00000000000E+00 0. -1.
         22    1    4    4    0    0  0.11621288816E+02  0.23106173094E+02 -0.15405300227E+02  0.30104366193E+02  0.00000000000E+00 0. -1.
         22    1    4    4    0    0  0.46968484642E+01  0.16869754183E+02 -0.21188907598E+02  0.27488521185E+02  0.00000000000E+00 0. -1.
<mgrwt>
<rscale>  0 0.94404102E+02</rscale>
<asrwt>0</asrwt>
<pdfrwt beam="1">  1        2 0.23340221E-02 0.94404102E+02</pdfrwt>
<pdfrwt beam="2">  1       -2 0.22593841E-01 0.94404102E+02</pdfrwt>
<totfact> 0.64458375E+04</totfact>
</mgrwt>
</event>
<event>
 7    1  0.3056193E-009  0.9237143E+02  0.7818608E-02  0.1297208E+00
          2   -1    0    0  501    0  0.00000000000E+00  0.00000000000E+00  0.22347005448E+02  0.22347005593E+02  0.25500000000E-02 0. -1.
         -2   -1    0    0    0  501 -0.00000000000E+00 -0.00000000000E+00 -0.95454402184E+02  0.95454402218E+02  0.25500000000E-02 0.  1.
         23    2    1    2    0    0  0.00000000000E+00  0.00000000000E+00 -0.73107396736E+02  0.11780140781E+03  0.92371425370E+02 0.  0.
    9000005    2    3    3    0    0  0.17173242523E+02 -0.21699920339E+02 -0.82753153650E+02  0.88495308994E+02  0.14748846513E+02 0.  0.
         22    1    3    3    0    0 -0.17173242523E+02  0.21699920339E+02  0.96457569140E+01  0.29306098818E+02  0.00000000000E+00 0. -1.
         22    1    4    4    0    0  0.16119827588E+02 -0.21297543370E+02 -0.59562988907E+02  0.65277743854E+02  0.00000000000E+00 0. -1.
         22    1    4    4    0    0  0.10534149355E+01 -0.40237696865E+00 -0.23190164743E+02  0.23217565141E+02  0.00000000000E+00 0. -1.
<mgrwt>
<rscale>  0 0.92371425E+02</rscale>
<asrwt>0</asrwt>
<pdfrwt beam="1">  1        2 0.34380009E-02 0.92371425E+02</pdfrwt>
<pdfrwt beam="2">  1       -2 0.14685292E-01 0.92371425E+02</pdfrwt>
<totfact> 0.78337024E+04</totfact>
</mgrwt>
</event>
<event>
 7    1  0.3056193E-009  0.1045589E+03  0.7818608E-02  0.1270991E+00
         -2   -1    0    0    0  501 -0.00000000000E+00  0.00000000000E+00  0.46509756739E+02  0.46509756809E+02  0.25500000000E-02 0. -1.
          2   -1    0    0  501    0  0.00000000000E+00 -0.00000000000E+00 -0.58764915042E+02  0.58764915098E+02  0.25500000000E-02 0.  1.
         23    2    1    2    0    0  0.00000000000E+00  0.00000000000E+00 -0.12255158303E+02  0.10527467191E+03  0.10455891947E+03 0.  0.
    9000005    2    3    3    0    0 -0.11519541636E+02 -0.16817113500E+02 -0.54428696516E+02  0.58433210877E+02  0.60367195577E+01 0.  0.
         22    1    3    3    0    0  0.11519541636E+02  0.16817113500E+02  0.42173538213E+02  0.46841461030E+02  0.00000000000E+00 0. -1.
         22    1    4    4    0    0 -0.87243629462E+01 -0.80389995244E+01 -0.26778150273E+02  0.29288382581E+02  0.00000000000E+00 0. -1.
         22    1    4    4    0    0 -0.27951786896E+01 -0.87781139761E+01 -0.27650546243E+02  0.29144828297E+02  0.00000000000E+00 0. -1.
<mgrwt>
<rscale>  0 0.10455892E+03</rscale>
<asrwt>0</asrwt>
<pdfrwt beam="2">  1        2 0.90407562E-02 0.10455892E+03</pdfrwt>
<pdfrwt beam="1">  1       -2 0.71553472E-02 0.10455892E+03</pdfrwt>
<totfact> 0.71271256E+04</totfact>
</mgrwt>
</event>
<event>
 7    1  0.3056193E-009  0.9087372E+02  0.7818608E-02  0.1300750E+00
          2   -1    0    0  501    0  0.00000000000E+00  0.00000000000E+00  0.83875411137E+02  0.83875411176E+02  0.25500000000E-02 0. -1.
         -2   -1    0    0    0  501 -0.00000000000E+00 -0.00000000000E+00 -0.24613987789E+02  0.24613987921E+02  0.25500000000E-02 0.  1.
         23    2    1    2    0    0  0.00000000000E+00  0.35527136788E-14  0.59261423349E+02  0.10848939910E+03  0.90873722379E+02 0.  0.
    9000005    2    3    3    0    0 -0.54806088653E+01 -0.25540049564E+02  0.73233616808E+02  0.78865871364E+02  0.13203477952E+02 0.  0.
         22    1    3    3    0    0  0.54806088653E+01  0.25540049564E+02 -0.13972193459E+02  0.29623527732E+02  0.00000000000E+00 0.  1.
         22    1    4    4    0    0 -0.10068337900E+01 -0.17019750620E+02  0.29379053310E+02  0.33967843600E+02  0.00000000000E+00 0. -1.
         22    1    4    4    0    0 -0.44737750753E+01 -0.85202989433E+01  0.43854563498E+02  0.44898027764E+02  0.00000000000E+00 0. -1.
<mgrwt>
<rscale>  0 0.90873722E+02</rscale>
<asrwt>0</asrwt>
<pdfrwt beam="1">  1        2 0.12903909E-01 0.90873722E+02</pdfrwt>
<pdfrwt beam="2">  1       -2 0.37867674E-02 0.90873722E+02</pdfrwt>
<totfact> 0.11751021E+05</totfact>
</mgrwt>
</event>
<event>
 7    1  0.3056193E-009  0.9187819E+02  0.7818608E-02  0.1298366E+00
          2   -1    0    0  501    0  0.00000000000E+00  0.00000000000E+00  0.50183357669E+02  0.50183357734E+02  0.25500000000E-02 0. -1.
         -2   -1    0    0    0  501 -0.00000000000E+00 -0.00000000000E+00 -0.42053790968E+02  0.42053791046E+02  0.25500000000E-02 0.  1.
         23    2    1    2    0    0  0.00000000000E+00  0.00000000000E+00  0.81295667007E+01  0.92237148780E+02  0.91878189796E+02 0.  0.
    9000005    2    3    3    0    0 -0.31195382658E+02 -0.18058921258E+02  0.31314567876E+02  0.49379001180E+02  0.12585986656E+02 0.  0.
         22    1    3    3    0    0  0.31195382658E+02  0.18058921258E+02 -0.23185001175E+02  0.42858147600E+02  0.00000000000E+00 0.  1.
         22    1    4    4    0    0 -0.16004565819E+02 -0.58287147248E+01  0.75353283221E+01  0.18625284301E+02  0.00000000000E+00 0. -1.
         22    1    4    4    0    0 -0.15190816840E+02 -0.12230206533E+02  0.23779239554E+02  0.30753716879E+02  0.00000000000E+00 0. -1.
<mgrwt>
<rscale>  0 0.91878190E+02</rscale>
<asrwt>0</asrwt>
<pdfrwt beam="1">  1        2 0.77205166E-02 0.91878190E+02</pdfrwt>
<pdfrwt beam="2">  1       -2 0.64698140E-02 0.91878190E+02</pdfrwt>
<totfact> 0.98983423E+04</totfact>
</mgrwt>
</event>
<event>
 7    1  0.3056193E-009  0.8534884E+02  0.7818608E-02  0.1314523E+00
         -2   -1    0    0    0  501 -0.00000000000E+00  0.00000000000E+00  0.86461277936E+02  0.86461277974E+02  0.25500000000E-02 0. -1.
          2   -1    0    0  501    0  0.00000000000E+00 -0.00000000000E+00 -0.21062676529E+02  0.21062676683E+02  0.25500000000E-02 0.  1.
         23    2    1    2    0    0 -0.17763568394E-14  0.00000000000E+00  0.65398601407E+02  0.10752395466E+03  0.85348835721E+02 0.  0.
    9000005    2    3    3    0    0  0.10635537914E+02  0.71488388472E+01  0.83353793350E+02  0.85464727987E+02  0.13861612476E+02 0.  0.
         22    1    3    3    0    0 -0.10635537914E+02 -0.71488388472E+01 -0.17955191943E+02  0.22059226670E+02  0.00000000000E+00 0.  1.
         22    1    4    4    0    0  0.61080139844E+01  0.10044993140E+02  0.37566492359E+02  0.39363067337E+02  0.00000000000E+00 0.  1.
         22    1    4    4    0    0  0.45275239295E+01 -0.28961542931E+01  0.45787300991E+02  0.46101660650E+02  0.00000000000E+00 0.  1.
<mgrwt>
<rscale>  0 0.85348836E+02</rscale>
<asrwt>0</asrwt>
<pdfrwt beam="2">  1        2 0.32404117E-02 0.85348836E+02</pdfrwt>
<pdfrwt beam="1">  1       -2 0.13301735E-01 0.85348836E+02</pdfrwt>
<totfact> 0.97997618E+04</totfact>
</mgrwt>
</event>
<event>
 7    1  0.3056193E-009  0.1031850E+03  0.7818608E-02  0.1273737E+00
         -2   -1    0    0    0  501 -0.00000000000E+00  0.00000000000E+00  0.12695507121E+02  0.12695507377E+02  0.25500000000E-02 0.  1.
          2   -1    0    0  501    0  0.00000000000E+00 -0.00000000000E+00 -0.20966369254E+03  0.20966369255E+03  0.25500000000E-02 0. -1.
         23    2    1    2    0    0  0.00000000000E+00  0.00000000000E+00 -0.19696818542E+03  0.22235919993E+03  0.10318501697E+03 0.  0.
    9000005    2    3    3    0    0  0.78312064124E+01 -0.34389947480E+02 -0.19399420003E+02  0.41321461511E+02  0.93343132242E+01 0.  0.
         22    1    3    3    0    0 -0.78312064124E+01  0.34389947480E+02 -0.17756876542E+03  0.18103773842E+03  0.00000000000E+00 0. -1.
         22    1    4    4    0    0  0.84172436375E+01 -0.34739713759E+02 -0.18686909750E+02  0.40334827364E+02  0.00000000000E+00 0.  1.
         22    1    4    4    0    0 -0.58603722504E+00  0.34976627853E+00 -0.71251025281E+00  0.98663414652E+00  0.00000000000E+00 0.  1.
<mgrwt>
<rscale>  0 0.10318502E+03</rscale>
<asrwt>0</asrwt>
<pdfrwt beam="2">  1        2 0.32255950E-01 0.10318502E+03</pdfrwt>
<pdfrwt beam="1">  1       -2 0.19531551E-02 0.10318502E+03</pdfrwt>
<totfact> 0.11251991E+05</totfact>
</mgrwt>
</event>
<event>
 7    1  0.3056193E-009  0.9118580E+02  0.7818608E-02  0.1300005E+00
          2   -1    0    0  501    0  0.00000000000E+00  0.00000000000E+00  0.46822767120E+03  0.46822767120E+03  0.25500000000E-02 0.  1.
         -2   -1    0    0    0  501 -0.00000000000E+00 -0.00000000000E+00 -0.44395331099E+01  0.44395338422E+01  0.25500000000E-02 0. -1.
         23    2    1    2    0    0  0.00000000000E+00  0.00000000000E+00  0.46378813809E+03  0.47266720505E+03  0.91185797665E+02 0.  0.
    9000005    2    3    3    0    0 -0.32957094236E+01  0.20527340858E+02  0.44211771712E+03  0.44263654457E+03  0.51770050957E+01 0.  0.
         22    1    3    3    0    0  0.32957094236E+01 -0.20527340858E+02  0.21670420971E+02  0.30030660471E+02  0.00000000000E+00 0. -1.
         22    1    4    4    0    0 -0.28359583863E+01  0.44804137125E+01  0.12584882747E+03  0.12596048643E+03  0.00000000000E+00 0. -1.
         22    1    4    4    0    0 -0.45975103729E+00  0.16046927145E+02  0.31626888965E+03  0.31667605814E+03  0.00000000000E+00 0. -1.
<mgrwt>
<rscale>  0 0.91185798E+02</rscale>
<asrwt>0</asrwt>
<pdfrwt beam="1">  1        2 0.72035001E-01 0.91185798E+02</pdfrwt>
<pdfrwt beam="2">  1       -2 0.68300539E-03 0.91185798E+02</pdfrwt>
<totfact> 0.21081057E+05</totfact>
</mgrwt>
</event>
<event>
 7    1  0.3056193E-009  0.9658715E+02  0.7818608E-02  0.1287641E+00
          2   -1    0    0  501    0  0.00000000000E+00  0.00000000000E+00  0.12811210498E+02  0.12811210752E+02  0.25500000000E-02 0. -1.
         -2   -1    0    0    0  501 -0.00000000000E+00 -0.00000000000E+00 -0.18204910374E+03  0.18204910376E+03  0.25500000000E-02 0.  1.
         23    2    1    2    0    0  0.00000000000E+00  0.00000000000E+00 -0.16923789324E+03  0.19486031451E+03  0.96587150604E+02 0.  0.
    9000005    2    3    3    0    0 -0.39612960481E+02 -0.24323960467E+02 -0.73343342150E+02  0.88292933853E+02  0.15986076434E+02 0.  0.
         22    1    3    3    0    0  0.39612960481E+02  0.24323960467E+02 -0.95894551090E+02  0.10656738065E+03  0.00000000000E+00 0. -1.
         22    1    4    4    0    0 -0.32058357198E+02 -0.19722926430E+02 -0.45349131592E+02  0.58934504573E+02  0.00000000000E+00 0. -1.
         22    1    4    4    0    0 -0.75546032829E+01 -0.46010340372E+01 -0.27994210559E+02  0.29358429280E+02  0.00000000000E+00 0. -1.
<mgrwt>
<rscale>  0 0.96587151E+02</rscale>
<asrwt>0</asrwt>
<pdfrwt beam="1">  1        2 0.19709556E-02 0.96587151E+02</pdfrwt>
<pdfrwt beam="2">  1       -2 0.28007553E-01 0.96587151E+02</pdfrwt>
<totfact> 0.55970107E+04</totfact>
</mgrwt>
</event>
<event>
 7    1  0.3056193E-009  0.8734898E+02  0.7818608E-02  0.1309402E+00
          2   -1    0    0  501    0  0.00000000000E+00  0.00000000000E+00  0.35954448461E+03  0.35954448461E+03  0.25500000000E-02 0.  1.
         -2   -1    0    0    0  501 -0.00000000000E+00 -0.00000000000E+00 -0.53052148762E+01  0.53052154890E+01  0.25500000000E-02 0. -1.
         23    2    1    2    0    0  0.00000000000E+00  0.00000000000E+00  0.35423926973E+03  0.36484970010E+03  0.87348975079E+02 0.  0.
    9000005    2    3    3    0    0  0.39661901308E+02 -0.17088486191E+02  0.16192985016E+03  0.16775075127E+03  0.73454342018E+01 0.  0.
         22    1    3    3    0    0 -0.39661901308E+02  0.17088486191E+02  0.19230941957E+03  0.19709894883E+03  0.00000000000E+00 0. -1.
         22    1    4    4    0    0  0.39953057867E+02 -0.17104231906E+02  0.16136444497E+03  0.16711458848E+03  0.00000000000E+00 0.  1.
         22    1    4    4    0    0 -0.29115655914E+00  0.15745714957E-01  0.56540518909E+00  0.63616279152E+00  0.00000000000E+00 0.  1.
<mgrwt>
<rscale>  0 0.87348975E+02</rscale>
<asrwt>0</asrwt>
<pdfrwt beam="1">  1        2 0.55314520E-01 0.87348975E+02</pdfrwt>
<pdfrwt beam="2">  1       -2 0.81618719E-03 0.87348975E+02</pdfrwt>
<totfact> 0.21521220E+05</totfact>
</mgrwt>
</event>
<event>
 7    1  0.3056193E-009  0.9345545E+02  0.7818608E-02  0.1294693E+00
         -2   -1    0    0    0  501 -0.00000000000E+00  0.00000000000E+00  0.57102528986E+02  0.57102529043E+02  0.25500000000E-02 0.  1.
          2   -1    0    0  501    0  0.00000000000E+00 -0.00000000000E+00 -0.38237891401E+02  0.38237891486E+02  0.25500000000E-02 0. -1.
         23    2    1    2    0    0  0.00000000000E+00  0.00000000000E+00  0.18864637585E+02  0.95340420529E+02  0.93455450539E+02 0.  0.
    9000005    2    3    3    0    0  0.12267791504E+02  0.17943447564E+02  0.50349464930E+02  0.57081299109E+02  0.15834774086E+02 0.  0.
         22    1    3    3    0    0 -0.12267791504E+02 -0.17943447564E+02 -0.31484827345E+02  0.38259121420E+02  0.00000000000E+00 0. -1.
         22    1    4    4    0    0  0.19130549992E+01  0.67265179706E+01  0.34004629513E+02  0.34716287989E+02  0.00000000000E+00 0. -1.
         22    1    4    4    0    0  0.10354736504E+02  0.11216929593E+02  0.16344835417E+02  0.22365011120E+02  0.00000000000E+00 0. -1.
<mgrwt>
<rscale>  0 0.93455451E+02</rscale>
<asrwt>0</asrwt>
<pdfrwt beam="2">  1        2 0.58827525E-02 0.93455451E+02</pdfrwt>
<pdfrwt beam="1">  1       -2 0.87850044E-02 0.93455451E+02</pdfrwt>
<totfact> 0.87731371E+04</totfact>
</mgrwt>
</event>
<event>
 7    1  0.3056193E-009  0.9478998E+02  0.7818608E-02  0.1291650E+00
          2   -1    0    0  501    0  0.00000000000E+00  0.00000000000E+00  0.88303297796E+03  0.88303297797E+03  0.25500000000E-02 0. -1.
         -2   -1    0    0    0  501 -0.00000000000E+00 -0.00000000000E+00 -0.25438283330E+01  0.25438296111E+01  0.25500000000E-02 0.  1.
         23    2    1    2    0    0  0.00000000000E+00  0.00000000000E+00  0.88048914963E+03  0.88557680758E+03  0.94789975754E+02 0.  0.
    9000005    2    3    3    0    0 -0.15466860160E+02 -0.27321286418E+02  0.77070436897E+03  0.77139110567E+03  0.85637087891E+01 0.  0.
         22    1    3    3    0    0  0.15466860160E+02  0.27321286418E+02  0.10978478066E+03  0.11418570190E+03  0.00000000000E+00 0.  1.
         22    1    4    4    0    0 -0.13651420827E+02 -0.16170849644E+02  0.52804459135E+03  0.52846849303E+03  0.00000000000E+00 0.  1.
         22    1    4    4    0    0 -0.18154393330E+01 -0.11150436774E+02  0.24265977762E+03  0.24292261264E+03  0.00000000000E+00 0.  1.
<mgrwt>
<rscale>  0 0.94789976E+02</rscale>
<asrwt>0</asrwt>
<pdfrwt beam="1">  1        2 0.13585117E+00 0.94789976E+02</pdfrwt>
<pdfrwt beam="2">  1       -2 0.39135847E-03 0.94789976E+02</pdfrwt>
<totfact> 0.22326810E+05</totfact>
</mgrwt>
</event>
<event>
 7    1  0.3056193E-009  0.9289757E+02  0.7818608E-02  0.1295983E+00
         -2   -1    0    0    0  501 -0.00000000000E+00  0.00000000000E+00  0.40800469902E+01  0.40800477871E+01  0.25500000000E-02 0. -1.
          2   -1    0    0  501    0  0.00000000000E+00 -0.00000000000E+00 -0.52879037805E+03  0.52879037806E+03  0.25500000000E-02 0.  1.
         23    2    1    2    0    0  0.00000000000E+00  0.00000000000E+00 -0.52471033106E+03  0.53287042584E+03  0.92897573798E+02 0.  0.
    9000005    2    3    3    0    0  0.26980420928E+01 -0.46109518460E+02 -0.24677972292E+03  0.25112800791E+03  0.56282845607E+01 0.  0.
         22    1    3    3    0    0 -0.26980420928E+01  0.46109518460E+02 -0.27793060814E+03  0.28174241793E+03  0.00000000000E+00 0. -1.
         22    1    4    4    0    0 -0.11207248636E+01 -0.66503371420E+01 -0.43354444850E+02  0.43875857787E+02  0.00000000000E+00 0.  1.
         22    1    4    4    0    0  0.38187669563E+01 -0.39459181318E+02 -0.20342527807E+03  0.20725215012E+03  0.00000000000E+00 0.  1.
<mgrwt>
<rscale>  0 0.92897574E+02</rscale>
<asrwt>0</asrwt>
<pdfrwt beam="2">  1        2 0.81352312E-01 0.92897574E+02</pdfrwt>
<pdfrwt beam="1">  1       -2 0.62770002E-03 0.92897574E+02</pdfrwt>
<totfact> 0.20878675E+05</totfact>
</mgrwt>
</event>
<event>
 7    1  0.5739091E-009  0.9085798E+02  0.7818608E-02  0.1300787E+00
          2   -1    0    0  501    0  0.00000000000E+00  0.00000000000E+00  0.31239136201E+03  0.31239136202E+03  0.25500000000E-02 0. -1.
         -2   -1    0    0    0  501 -0.00000000000E+00 -0.00000000000E+00 -0.66064349847E+01  0.66064354768E+01  0.25500000000E-02 0.  1.
         23    2    1    2    0    0  0.00000000000E+00  0.00000000000E+00  0.30578492703E+03  0.31899779750E+03  0.90857983756E+02 0.  0.
    9000005    2    3    3    0    0 -0.36374981496E+02 -0.15590358072E+02  0.22579615909E+03  0.22975430172E+03  0.15392698036E+02 0.  0.
         22    1    3    3    0    0  0.36374981496E+02  0.15590358072E+02  0.79988767933E+02  0.89243495780E+02  0.00000000000E+00 0.  1.
         22    1    4    4    0    0 -0.77696070616E+00 -0.53403666089E+01  0.31288373147E+02  0.31750361851E+02  0.00000000000E+00 0. -1.
         22    1    4    4    0    0 -0.35598020790E+02 -0.10249991463E+02  0.19450778595E+03  0.19800393987E+03  0.00000000000E+00 0. -1.
<mgrwt>
<rscale>  0 0.90857984E+02</rscale>
<asrwt>0</asrwt>
<pdfrwt beam="1">  1        2 0.48060205E-01 0.90857984E+02</pdfrwt>
<pdfrwt beam="2">  1       -2 0.10163747E-02 0.90857984E+02</pdfrwt>
<totfact> 0.18409585E+05</totfact>
</mgrwt>
</event>
<event>
 7    1  0.3056193E-009  0.9104185E+02  0.7818608E-02  0.1300348E+00
          2   -1    0    0  501    0  0.00000000000E+00  0.00000000000E+00  0.88817316214E+03  0.88817316215E+03  0.25500000000E-02 0.  1.
         -2   -1    0    0    0  501 -0.00000000000E+00 -0.00000000000E+00 -0.23330515548E+01  0.23330529484E+01  0.25500000000E-02 0. -1.
         23    2    1    2    0    0  0.00000000000E+00  0.00000000000E+00  0.88584011059E+03  0.89050621510E+03  0.91041845302E+02 0.  0.
    9000005    2    3    3    0    0 -0.92758936089E+01  0.30035311420E+02  0.76215430229E+03  0.76288826452E+03  0.11452576585E+02 0.  0.
         22    1    3    3    0    0  0.92758936089E+01 -0.30035311420E+02  0.12368580830E+03  0.12761795057E+03  0.00000000000E+00 0. -1.
         22    1    4    4    0    0 -0.54991094064E+01  0.10789900588E+02  0.41815421721E+03  0.41832954895E+03  0.00000000000E+00 0.  1.
         22    1    4    4    0    0 -0.37767842024E+01  0.19245410832E+02  0.34400008508E+03  0.34455871557E+03  0.00000000000E+00 0.  1.
<mgrwt>
<rscale>  0 0.91041845E+02</rscale>
<asrwt>0</asrwt>
<pdfrwt beam="1">  1        2 0.13664196E+00 0.91041845E+02</pdfrwt>
<pdfrwt beam="2">  1       -2 0.35893128E-03 0.91041845E+02</pdfrwt>
<totfact> 0.24852851E+05</totfact>
</mgrwt>
</event>
<event>
 7    1  0.3056193E-009  0.9277911E+02  0.7818608E-02  0.1296258E+00
         -2   -1    0    0    0  501 -0.00000000000E+00  0.00000000000E+00  0.12173311391E+03  0.12173311393E+03  0.25500000000E-02 0.  1.
          2   -1    0    0  501    0  0.00000000000E+00 -0.00000000000E+00 -0.17677940643E+02  0.17677940827E+02  0.25500000000E-02 0. -1.
         23    2    1    2    0    0 -0.88817841970E-15 -0.35527136788E-14  0.10405517326E+03  0.13941105476E+03  0.92779109212E+02 0.  0.
    9000005    2    3    3    0    0  0.47103048292E+01  0.27683515360E+02 -0.97437692144E+00  0.30692287261E+02  0.12349214252E+02 0.  0.
         22    1    3    3    0    0 -0.47103048292E+01 -0.27683515360E+02  0.10502955018E+03  0.10871876750E+03  0.00000000000E+00 0.  1.
         22    1    4    4    0    0  0.21434525410E+01  0.25067502938E+02 -0.45555906024E+01  0.25568095316E+02  0.00000000000E+00 0.  1.
         22    1    4    4    0    0  0.25668522882E+01  0.26160124223E+01  0.35812136810E+01  0.51241919453E+01  0.00000000000E+00 0.  1.
<mgrwt>
<rscale>  0 0.92779109E+02</rscale>
<asrwt>0</asrwt>
<pdfrwt beam="2">  1        2 0.27196832E-02 0.92779109E+02</pdfrwt>
<pdfrwt beam="1">  1       -2 0.18728171E-01 0.92779109E+02</pdfrwt>
<totfact> 0.71850765E+04</totfact>
</mgrwt>
</event>
<event>
 7    1  0.3056193E-009  0.9140904E+02  0.7818608E-02  0.1299475E+00
         -2   -1    0    0    0  501 -0.00000000000E+00  0.00000000000E+00  0.15165492210E+02  0.15165492424E+02  0.25500000000E-02 0.  1.
          2   -1    0    0  501    0  0.00000000000E+00 -0.00000000000E+00 -0.13774054762E+03  0.13774054765E+03  0.25500000000E-02 0. -1.
         23    2    1    2    0    0  0.00000000000E+00  0.00000000000E+00 -0.12257505541E+03  0.15290604007E+03  0.91409041569E+02 0.  0.
    9000005    2    3    3    0    0  0.17427134999E+02 -0.20552403521E+02 -0.12231175782E+03  0.12595839360E+03  0.13388222158E+02 0.  0.
         22    1    3    3    0    0 -0.17427134999E+02  0.20552403521E+02 -0.26329759475E+00  0.26947646472E+02  0.00000000000E+00 0.  1.
         22    1    4    4    0    0  0.65269542645E+01 -0.12749344171E+02 -0.87317219400E+02  0.88484143848E+02  0.00000000000E+00 0.  1.
         22    1    4    4    0    0  0.10900180734E+02 -0.78030593499E+01 -0.34994538419E+02  0.37474249751E+02  0.00000000000E+00 0.  1.
<mgrwt>
<rscale>  0 0.91409042E+02</rscale>
<asrwt>0</asrwt>
<pdfrwt beam="2">  1        2 0.21190853E-01 0.91409042E+02</pdfrwt>
<pdfrwt beam="1">  1       -2 0.23331528E-02 0.91409042E+02</pdfrwt>
<totfact> 0.13491554E+05</totfact>
</mgrwt>
</event>
<event>
 7    1  0.3056193E-009  0.8504564E+02  0.7818608E-02  0.1315313E+00
          2   -1    0    0  501    0  0.00000000000E+00  0.00000000000E+00  0.49342284779E+02  0.49342284845E+02  0.25500000000E-02 0.  1.
         -2   -1    0    0    0  501 -0.00000000000E+00 -0.00000000000E+00 -0.36645858818E+02  0.36645858907E+02  0.25500000000E-02 0. -1.
         23    2    1    2    0    0  0.00000000000E+00  0.88817841970E-15  0.12696425961E+02  0.85988143751E+02  0.85045644413E+02 0.  0.
    9000005    2    3    3    0    0  0.40655419185E+02  0.57399131280E+01  0.10647858466E+02  0.44878457050E+02  0.14659103160E+02 0.  0.
         22    1    3    3    0    0 -0.40655419185E+02 -0.57399131280E+01  0.20485674951E+01  0.41109686701E+02  0.00000000000E+00 0.  1.
         22    1    4    4    0    0 -0.85000584318E+00  0.15372389525E+01 -0.21501405614E+00  0.17697018322E+01  0.00000000000E+00 0.  1.
         22    1    4    4    0    0  0.41505425029E+02  0.42026741755E+01  0.10862872522E+02  0.43108755218E+02  0.00000000000E+00 0.  1.
<mgrwt>
<rscale>  0 0.85045644E+02</rscale>
<asrwt>0</asrwt>
<pdfrwt beam="1">  1        2 0.75911207E-02 0.85045644E+02</pdfrwt>
<pdfrwt beam="2">  1       -2 0.56378245E-02 0.85045644E+02</pdfrwt>
<totfact> 0.12268691E+05</totfact>
</mgrwt>
</event>
<event>
 7    1  0.3056193E-009  0.8970050E+02  0.7818608E-02  0.1303579E+00
          2   -1    0    0  501    0  0.00000000000E+00  0.00000000000E+00  0.12627348876E+04  0.12627348876E+04  0.25500000000E-02 0. -1.
         -2   -1    0    0    0  501 -0.00000000000E+00 -0.00000000000E+00 -0.15930053915E+01  0.15930074324E+01  0.25500000000E-02 0.  1.
         23    2    1    2    0    0  0.00000000000E+00  0.17763568394E-14  0.12611418823E+04  0.12643278951E+04  0.89700496674E+02 0.  0.
    9000005    2    3    3    0    0 -0.92777484216E+01  0.13376840103E+02  0.12182360019E+04  0.12184374709E+04  0.15029889607E+02 0.  0.
         22    1    3    3    0    0  0.92777484216E+01 -0.13376840103E+02  0.42905880338E+02  0.45890424213E+02  0.00000000000E+00 0.  1.
         22    1    4    4    0    0 -0.38006370256E+01  0.67363683219E+01  0.10024677629E+04  0.10024976006E+04  0.00000000000E+00 0.  1.
         22    1    4    4    0    0 -0.54771113960E+01  0.66404717811E+01  0.21576823899E+03  0.21593987027E+03  0.00000000000E+00 0.  1.
<mgrwt>
<rscale>  0 0.89700497E+02</rscale>
<asrwt>0</asrwt>
<pdfrwt beam="1">  1        2 0.19426614E+00 0.89700497E+02</pdfrwt>
<pdfrwt beam="2">  1       -2 0.24507887E-03 0.89700497E+02</pdfrwt>
<totfact> 0.25781026E+05</totfact>
</mgrwt>
</event>
<event>
 7    1  0.3056193E-009  0.8932512E+02  0.7818608E-02  0.1304494E+00
          2   -1    0    0  501    0  0.00000000000E+00  0.00000000000E+00  0.68383567696E+01  0.68383572451E+01  0.25500000000E-02 0. -1.
         -2   -1    0    0    0  501 -0.00000000000E+00 -0.00000000000E+00 -0.29169936539E+03  0.29169936540E+03  0.25500000000E-02 0.  1.
         23    2    1    2    0    0  0.00000000000E+00  0.00000000000E+00 -0.28486100862E+03  0.29853772265E+03  0.89325123065E+02 0.  0.
    9000005    2    3    3    0    0  0.25173508380E+02  0.27029221898E+02 -0.71695094641E+02  0.82195421551E+02  0.15862419985E+02 0.  0.
         22    1    3    3    0    0 -0.25173508380E+02 -0.27029221898E+02 -0.21316591398E+03  0.21634230110E+03  0.00000000000E+00 0.  1.
         22    1    4    4    0    0 -0.89132307136E+00  0.59304020812E+01 -0.17130561692E+02  0.18149938555E+02  0.00000000000E+00 0.  1.
         22    1    4    4    0    0  0.26064831451E+02  0.21098819817E+02 -0.54564532949E+02  0.64045482996E+02  0.00000000000E+00 0.  1.
<mgrwt>
<rscale>  0 0.89325123E+02</rscale>
<asrwt>0</asrwt>
<pdfrwt beam="1">  1        2 0.10520551E-02 0.89325123E+02</pdfrwt>
<pdfrwt beam="2">  1       -2 0.44876816E-01 0.89325123E+02</pdfrwt>
<totfact> 0.54611232E+04</totfact>
</mgrwt>
</event>
<event>
 7    1  0.3322481E-009  0.9127641E+02  0.7818608E-02  0.1299790E+00
          2   -1    0    0  501    0  0.00000000000E+00  0.00000000000E+00  0.31722832556E+03  0.31722832557E+03  0.25500000000E-02 0.  1.
         -2   -1    0    0    0  501 -0.00000000000E+00 -0.00000000000E+00 -0.65657618618E+01  0.65657623570E+01  0.25500000000E-02 0. -1.
         23    2    1    2    0    0 -0.35527136788E-14  0.00000000000E+00  0.31066256370E+03  0.32379408793E+03  0.91276409292E+02 0.  0.
    9000005    2    3    3    0    0  0.18005308258E+02 -0.40577563743E+02  0.15516473322E+03  0.16208352832E+03  0.14974842668E+02 0.  0.
         22    1    3    3    0    0 -0.18005308258E+02  0.40577563743E+02  0.15549783048E+03  0.16171055961E+03  0.00000000000E+00 0. -1.
         22    1    4    4    0    0  0.65448071617E+01 -0.20190950116E+02  0.49449942509E+02  0.53812691640E+02  0.00000000000E+00 0. -1.
         22    1    4    4    0    0  0.11460501096E+02 -0.20386613627E+02  0.10571479071E+03  0.10827083668E+03  0.00000000000E+00 0. -1.
<mgrwt>
<rscale>  0 0.91276409E+02</rscale>
<asrwt>0</asrwt>
<pdfrwt beam="1">  1        2 0.48804353E-01 0.91276409E+02</pdfrwt>
<pdfrwt beam="2">  1       -2 0.10101173E-02 0.91276409E+02</pdfrwt>
<totfact> 0.18289442E+05</totfact>
</mgrwt>
</event>
<event>
 7    1  0.3056193E-009  0.8960532E+02  0.7818608E-02  0.1303810E+00
          2   -1    0    0  501    0  0.00000000000E+00  0.00000000000E+00  0.25626995318E+02  0.25626995445E+02  0.25500000000E-02 0.  1.
         -2   -1    0    0    0  501 -0.00000000000E+00 -0.00000000000E+00 -0.78326719953E+02  0.78326719994E+02  0.25500000000E-02 0. -1.
         23    2    1    2    0    0  0.00000000000E+00  0.00000000000E+00 -0.52699724635E+02  0.10395371544E+03  0.89605323374E+02 0.  0.
    9000005    2    3    3    0    0 -0.15574034001E+02 -0.27717063684E+02  0.94471510286E+01  0.34146693521E+02  0.81216908070E+01 0.  0.
         22    1    3    3    0    0  0.15574034001E+02  0.27717063684E+02 -0.62146875664E+02  0.69807021918E+02  0.00000000000E+00 0. -1.
         22    1    4    4    0    0 -0.38701531728E+01 -0.34193835822E+01 -0.93406213800E+00  0.52481179237E+01  0.00000000000E+00 0.  1.
         22    1    4    4    0    0 -0.11703880828E+02 -0.24297680101E+02  0.10381213167E+02  0.28898575597E+02  0.00000000000E+00 0.  1.
<mgrwt>
<rscale>  0 0.89605323E+02</rscale>
<asrwt>0</asrwt>
<pdfrwt beam="1">  1        2 0.39426147E-02 0.89605323E+02</pdfrwt>
<pdfrwt beam="2">  1       -2 0.12050265E-01 0.89605323E+02</pdfrwt>
<totfact> 0.89302916E+04</totfact>
</mgrwt>
</event>
<event>
 7    1  0.3056193E-009  0.9139170E+02  0.7818608E-02  0.1299516E+00
         -2   -1    0    0    0  501 -0.00000000000E+00  0.00000000000E+00  0.77341107859E+01  0.77341112063E+01  0.25500000000E-02 0.  1.
          2   -1    0    0  501    0  0.00000000000E+00 -0.00000000000E+00 -0.26998715941E+03  0.26998715942E+03  0.25500000000E-02 0. -1.
         23    2    1    2    0    0  0.00000000000E+00 -0.88817841970E-15 -0.26225304862E+03  0.27772127062E+03  0.91391699003E+02 0.  0.
    9000005    2    3    3    0    0  0.42904405077E+02  0.71151508988E+01 -0.92992592148E+02  0.10296282169E+03  0.78934852551E+01 0.  0.
         22    1    3    3    0    0 -0.42904405077E+02 -0.71151508988E+01 -0.16926045647E+03  0.17475844893E+03  0.00000000000E+00 0. -1.
         22    1    4    4    0    0  0.31211484193E+02  0.75294429888E+01 -0.73853698875E+02  0.80530851819E+02  0.00000000000E+00 0.  1.
         22    1    4    4    0    0  0.11692920884E+02 -0.41429209005E+00 -0.19138893273E+02  0.22431969874E+02  0.00000000000E+00 0.  1.
<mgrwt>
<rscale>  0 0.91391699E+02</rscale>
<asrwt>0</asrwt>
<pdfrwt beam="2">  1        2 0.41536479E-01 0.91391699E+02</pdfrwt>
<pdfrwt beam="1">  1       -2 0.11898634E-02 0.91391699E+02</pdfrwt>
<totfact> 0.17164891E+05</totfact>
</mgrwt>
</event>
<event>
 7    1  0.3056193E-009  0.9039893E+02  0.7818608E-02  0.1301888E+00
          2   -1    0    0  501    0  0.00000000000E+00  0.00000000000E+00  0.49520919136E+02  0.49520919202E+02  0.25500000000E-02 0. -1.
         -2   -1    0    0    0  501 -0.00000000000E+00 -0.00000000000E+00 -0.41255122971E+02  0.41255123050E+02  0.25500000000E-02 0.  1.
         23    2    1    2    0    0 -0.35527136788E-14  0.00000000000E+00  0.82657961654E+01  0.90776042252E+02  0.90398929533E+02 0.  0.
    9000005    2    3    3    0    0 -0.21710400334E+02  0.19535676454E+02  0.37507515653E+02  0.49447331943E+02  0.13610318461E+02 0.  0.
         22    1    3    3    0    0  0.21710400334E+02 -0.19535676454E+02 -0.29241719488E+02  0.41328710309E+02  0.00000000000E+00 0.  1.
         22    1    4    4    0    0  0.11073002680E+01  0.68221339069E+00  0.63108190079E+01  0.64434436091E+01  0.00000000000E+00 0.  1.
         22    1    4    4    0    0 -0.22817700602E+02  0.18853463063E+02  0.31196696645E+02  0.43003888334E+02  0.00000000000E+00 0.  1.
<mgrwt>
<rscale>  0 0.90398930E+02</rscale>
<asrwt>0</asrwt>
<pdfrwt beam="1">  1        2 0.76186030E-02 0.90398930E+02</pdfrwt>
<pdfrwt beam="2">  1       -2 0.63469420E-02 0.90398930E+02</pdfrwt>
<totfact> 0.10331542E+05</totfact>
</mgrwt>
</event>
<event>
 7    1  0.3056193E-009  0.8984683E+02  0.7818608E-02  0.1303223E+00
          2   -1    0    0  501    0  0.00000000000E+00  0.00000000000E+00  0.33579732493E+03  0.33579732494E+03  0.25500000000E-02 0.  1.
         -2   -1    0    0    0  501 -0.00000000000E+00 -0.00000000000E+00 -0.60099145901E+01  0.60099151311E+01  0.25500000000E-02 0. -1.
         23    2    1    2    0    0  0.17763568394E-14  0.00000000000E+00  0.32978741034E+03  0.34180724007E+03  0.89846832699E+02 0.  0.
    9000005    2    3    3    0    0 -0.11584313391E+02  0.20666932807E+02  0.30918267483E+03  0.31040861663E+03  0.14080640470E+02 0.  0.
         22    1    3    3    0    0  0.11584313391E+02 -0.20666932807E+02  0.20604735508E+02  0.31398623437E+02  0.00000000000E+00 0. -1.
         22    1    4    4    0    0 -0.96749414379E+00  0.78789083413E+01  0.44343448264E+02  0.45048358965E+02  0.00000000000E+00 0.  1.
         22    1    4    4    0    0 -0.10616819247E+02  0.12788024465E+02  0.26483922657E+03  0.26536025767E+03  0.00000000000E+00 0.  1.
<mgrwt>
<rscale>  0 0.89846833E+02</rscale>
<asrwt>0</asrwt>
<pdfrwt beam="1">  1        2 0.51661155E-01 0.89846833E+02</pdfrwt>
<pdfrwt beam="2">  1       -2 0.92460178E-03 0.89846833E+02</pdfrwt>
<totfact> 0.19479014E+05</totfact>
</mgrwt>
</event>
<event>
 7    1  0.3056193E-009  0.9108744E+02  0.7818608E-02  0.1300239E+00
         -2   -1    0    0    0  501 -0.00000000000E+00  0.00000000000E+00  0.12146636793E+02  0.12146637061E+02  0.25500000000E-02 0.  1.
          2   -1    0    0  501    0  0.00000000000E+00 -0.00000000000E+00 -0.17076580694E+03  0.17076580696E+03  0.25500000000E-02 0. -1.
         23    2    1    2    0    0 -0.44408920985E-15  0.00000000000E+00 -0.15861917015E+03  0.18291244402E+03  0.91087436233E+02 0.  0.
    9000005    2    3    3    0    0  0.36932576690E+01  0.36356881269E+02 -0.27377307053E+02  0.46677758290E+02  0.96867543414E+01 0.  0.
         22    1    3    3    0    0 -0.36932576690E+01 -0.36356881269E+02 -0.13124186310E+03  0.13623468573E+03  0.00000000000E+00 0. -1.
         22    1    4    4    0    0  0.43747641695E+01  0.35832028516E+02 -0.24380871704E+02  0.43560299978E+02  0.00000000000E+00 0. -1.
         22    1    4    4    0    0 -0.68150650047E+00  0.52485275237E+00 -0.29964353496E+01  0.31174583119E+01  0.00000000000E+00 0. -1.
<mgrwt>
<rscale>  0 0.91087436E+02</rscale>
<asrwt>0</asrwt>
<pdfrwt beam="2">  1        2 0.26271661E-01 0.91087436E+02</pdfrwt>
<pdfrwt beam="1">  1       -2 0.18687135E-02 0.91087436E+02</pdfrwt>
<totfact> 0.14659679E+05</totfact>
</mgrwt>
</event>
<event>
 6    1  0.3056193E-009  0.1335438E+03  0.7818608E-02  0.1222290E+00
         -2   -1    0    0    0  501 -0.00000000000E+00  0.00000000000E+00  0.13300422263E+02  0.13300422508E+02  0.25500000000E-02 0.  1.
          2   -1    0    0  501    0  0.00000000000E+00 -0.00000000000E+00 -0.33521373590E+03  0.33521373591E+03  0.25500000000E-02 0. -1.
    9000005    2    1    2    0    0 -0.25154867917E+02 -0.39450130666E+02 -0.39852785464E+02  0.62599447808E+02  0.11889750507E+02 0.  0.
         22    1    1    2    0    0  0.25154867917E+02  0.39450130666E+02 -0.28206052817E+03  0.28591471061E+03  0.00000000000E+00 0. -1.
         22    1    3    3    0    0 -0.70353441289E+01 -0.11785223031E+02 -0.51426928785E+01  0.14657245271E+02  0.00000000000E+00 0. -1.
         22    1    3    3    0    0 -0.18119523788E+02 -0.27664907635E+02 -0.34710092585E+02  0.47942202536E+02  0.00000000000E+00 0. -1.
<mgrwt>
<rscale>  0 0.13354376E+03</rscale>
<asrwt>0</asrwt>
<pdfrwt beam="2">  1        2 0.51571337E-01 0.13354376E+03</pdfrwt>
<pdfrwt beam="1">  1       -2 0.20462191E-02 0.13354376E+03</pdfrwt>
<totfact> 0.66273168E+04</totfact>
</mgrwt>
</event>
<event>
 7    1  0.3056193E-009  0.9114244E+02  0.7818608E-02  0.1300108E+00
          2   -1    0    0  501    0  0.00000000000E+00  0.00000000000E+00  0.54334523629E+03  0.54334523630E+03  0.25500000000E-02 0. -1.
         -2   -1    0    0    0  501 -0.00000000000E+00 -0.00000000000E+00 -0.38221296177E+01  0.38221304683E+01  0.25500000000E-02 0.  1.
         23    2    1    2    0    0  0.22204460493E-15  0.00000000000E+00  0.53952310668E+03  0.54716736677E+03  0.91142441368E+02 0.  0.
    9000005    2    3    3    0    0  0.57910892856E+00 -0.45011598410E+02  0.30288644512E+03  0.30628712899E+03  0.67251312437E+01 0.  0.
         22    1    3    3    0    0 -0.57910892856E+00  0.45011598410E+02  0.23663666156E+03  0.24088023778E+03  0.00000000000E+00 0.  1.
         22    1    4    4    0    0  0.16963833649E+01 -0.35522137949E+02  0.25379304903E+03  0.25627253411E+03  0.00000000000E+00 0. -1.
         22    1    4    4    0    0 -0.11172744363E+01 -0.94894604611E+01  0.49093396086E+02  0.50014594883E+02  0.00000000000E+00 0. -1.
<mgrwt>
<rscale>  0 0.91142441E+02</rscale>
<asrwt>0</asrwt>
<pdfrwt beam="1">  1        2 0.83591559E-01 0.91142441E+02</pdfrwt>
<pdfrwt beam="2">  1       -2 0.58802012E-03 0.91142441E+02</pdfrwt>
<totfact> 0.22146694E+05</totfact>
</mgrwt>
</event>
<event>
 7    1  0.3056193E-009  0.9085616E+02  0.7818608E-02  0.1300792E+00
         -2   -1    0    0    0  501 -0.00000000000E+00  0.00000000000E+00  0.12453251729E+01  0.12453277837E+01  0.25500000000E-02 0. -1.
          2   -1    0    0  501    0  0.00000000000E+00 -0.00000000000E+00 -0.16571641802E+04  0.16571641802E+04  0.25500000000E-02 0.  1.
         23    2    1    2    0    0  0.00000000000E+00 -0.88817841970E-15 -0.16559188550E+04  0.16584095080E+04  0.90856159632E+02 0.  0.
    9000005    2    3    3    0    0 -0.22778296569E+02  0.59554249245E+01 -0.15336136073E+04  0.15338587493E+04  0.14058743362E+02 0.  0.
         22    1    3    3    0    0  0.22778296569E+02 -0.59554249245E+01 -0.12230524768E+03  0.12455075870E+03  0.00000000000E+00 0. -1.
         22    1    4    4    0    0 -0.13212382898E+01 -0.44202806851E+00 -0.12029489132E+02  0.12109899595E+02  0.00000000000E+00 0. -1.
         22    1    4    4    0    0 -0.21457058279E+02  0.63974529930E+01 -0.15215841182E+04  0.15217488497E+04  0.00000000000E+00 0. -1.
<mgrwt>
<rscale>  0 0.90856160E+02</rscale>
<asrwt>0</asrwt>
<pdfrwt beam="2">  1        2 0.25494657E+00 0.90856160E+02</pdfrwt>
<pdfrwt beam="1">  1       -2 0.19159001E-03 0.90856160E+02</pdfrwt>
<totfact> 0.22759641E+05</totfact>
</mgrwt>
</event>
<event>
 7    1  0.3056193E-009  0.9404485E+02  0.7818608E-02  0.1293342E+00
          2   -1    0    0  501    0  0.00000000000E+00  0.00000000000E+00  0.63071321550E+01  0.63071326705E+01  0.25500000000E-02 0. -1.
         -2   -1    0    0    0  501 -0.00000000000E+00 -0.00000000000E+00 -0.35057270414E+03  0.35057270415E+03  0.25500000000E-02 0.  1.
         23    2    1    2    0    0  0.00000000000E+00 -0.71054273576E-14 -0.34426557199E+03  0.35687983682E+03  0.94044850334E+02 0.  0.
    9000005    2    3    3    0    0  0.25198855282E+02  0.38720359995E+02 -0.20166663254E+03  0.20698418606E+03  0.62268783140E+01 0.  0.
         22    1    3    3    0    0 -0.25198855282E+02 -0.38720359995E+02 -0.14259893945E+03  0.14989565076E+03  0.00000000000E+00 0.  1.
         22    1    4    4    0    0  0.11566564380E+02  0.21095438449E+02 -0.11588228595E+03  0.11835331484E+03  0.00000000000E+00 0. -1.
         22    1    4    4    0    0  0.13632290902E+02  0.17624921546E+02 -0.85784346581E+02  0.88630871219E+02  0.00000000000E+00 0. -1.
<mgrwt>
<rscale>  0 0.94044850E+02</rscale>
<asrwt>0</asrwt>
<pdfrwt beam="1">  1        2 0.97032834E-03 0.94044850E+02</pdfrwt>
<pdfrwt beam="2">  1       -2 0.53934247E-01 0.94044850E+02</pdfrwt>
<totfact> 0.42930927E+04</totfact>
</mgrwt>
</event>
<event>
 7    1  0.3056193E-009  0.9438162E+02  0.7818608E-02  0.1292575E+00
          2   -1    0    0  501    0  0.00000000000E+00  0.00000000000E+00  0.40504051501E+02  0.40504051582E+02  0.25500000000E-02 0. -1.
         -2   -1    0    0    0  501 -0.00000000000E+00 -0.00000000000E+00 -0.54981477999E+02  0.54981478058E+02  0.25500000000E-02 0.  1.
         23    2    1    2    0    0  0.00000000000E+00  0.00000000000E+00 -0.14477426498E+02  0.95485529640E+02  0.94381621583E+02 0.  0.
    9000005    2    3    3    0    0  0.57071918391E+01  0.95515954204E+01  0.38161356572E+02  0.41683610558E+02  0.12547080934E+02 0.  0.
         22    1    3    3    0    0 -0.57071918391E+01 -0.95515954204E+01 -0.52638783070E+02  0.53801919081E+02  0.00000000000E+00 0.  1.
         22    1    4    4    0    0  0.29408758948E+00  0.10941712813E+02  0.28389134072E+02  0.30426148297E+02  0.00000000000E+00 0.  1.
         22    1    4    4    0    0  0.54131042496E+01 -0.13901173926E+01  0.97722224998E+01  0.11257462261E+02  0.00000000000E+00 0.  1.
<mgrwt>
<rscale>  0 0.94381622E+02</rscale>
<asrwt>0</asrwt>
<pdfrwt beam="1">  1        2 0.62313925E-02 0.94381622E+02</pdfrwt>
<pdfrwt beam="2">  1       -2 0.84586889E-02 0.94381622E+02</pdfrwt>
<totfact> 0.86553336E+04</totfact>
</mgrwt>
</event>
<event>
 7    1  0.3056193E-009  0.9263783E+02  0.7818608E-02  0.1296587E+00
         -2   -1    0    0    0  501 -0.00000000000E+00  0.00000000000E+00  0.24392938875E+02  0.24392939009E+02  0.25500000000E-02 0.  1.
          2   -1    0    0  501    0  0.00000000000E+00 -0.00000000000E+00 -0.87953399327E+02  0.87953399364E+02  0.25500000000E-02 0. -1.
         23    2    1    2    0    0  0.44408920985E-15  0.17763568394E-14 -0.63560460452E+02  0.11234633837E+03  0.92637830355E+02 0.  0.
    9000005    2    3    3    0    0 -0.38857037807E+01 -0.15618273872E+02  0.19546311423E+02  0.27695498424E+02  0.11222885996E+02 0.  0.
         22    1    3    3    0    0  0.38857037807E+01  0.15618273872E+02 -0.83106771875E+02  0.84650839949E+02  0.00000000000E+00 0. -1.
         22    1    4    4    0    0 -0.46974406133E+00 -0.12562956612E+02  0.71131496044E+01  0.14444564224E+02  0.00000000000E+00 0. -1.
         22    1    4    4    0    0 -0.34159597193E+01 -0.30553172600E+01  0.12433161819E+02  0.13250934200E+02  0.00000000000E+00 0. -1.
<mgrwt>
<rscale>  0 0.92637830E+02</rscale>
<asrwt>0</asrwt>
<pdfrwt beam="2">  1        2 0.13531292E-01 0.92637830E+02</pdfrwt>
<pdfrwt beam="1">  1       -2 0.37527599E-02 0.92637830E+02</pdfrwt>
<totfact> 0.11296325E+05</totfact>
</mgrwt>
</event>
<event>
 7    1  0.3056193E-009  0.9185524E+02  0.7818608E-02  0.1298420E+00
         -2   -1    0    0    0  501 -0.00000000000E+00  0.00000000000E+00  0.34450120313E+02  0.34450120408E+02  0.25500000000E-02 0.  1.
          2   -1    0    0  501    0  0.00000000000E+00 -0.00000000000E+00 -0.61228998359E+02  0.61228998412E+02  0.25500000000E-02 0. -1.
         23    2    1    2    0    0  0.17763568394E-14  0.00000000000E+00 -0.26778878045E+02  0.95679118820E+02  0.91855241923E+02 0.  0.
    9000005    2    3    3    0    0 -0.91146188344E+01  0.39742179565E+02  0.70975130252E+01  0.42668487951E+02  0.10378249363E+02 0.  0.
         22    1    3    3    0    0  0.91146188344E+01 -0.39742179565E+02 -0.33876391071E+02  0.53010630868E+02  0.00000000000E+00 0. -1.
         22    1    4    4    0    0  0.78297797498E+00  0.14596331516E+02 -0.40437974465E+00  0.14622909122E+02  0.00000000000E+00 0.  1.
         22    1    4    4    0    0 -0.98975968093E+01  0.25145848049E+02  0.75018927699E+01  0.28045578829E+02  0.00000000000E+00 0.  1.
<mgrwt>
<rscale>  0 0.91855242E+02</rscale>
<asrwt>0</asrwt>
<pdfrwt beam="2">  1        2 0.94198459E-02 0.91855242E+02</pdfrwt>
<pdfrwt beam="1">  1       -2 0.53000185E-02 0.91855242E+02</pdfrwt>
<totfact> 0.10444111E+05</totfact>
</mgrwt>
</event>
<event>
 7    1  0.3056193E-009  0.9293475E+02  0.7818608E-02  0.1295896E+00
          2   -1    0    0  501    0  0.00000000000E+00  0.00000000000E+00  0.63534921395E+03  0.63534921396E+03  0.25500000000E-02 0. -1.
         -2   -1    0    0    0  501 -0.00000000000E+00 -0.00000000000E+00 -0.33984718649E+01  0.33984728216E+01  0.25500000000E-02 0.  1.
         23    2    1    2    0    0  0.44408920985E-15  0.00000000000E+00  0.63195074209E+03  0.63874768678E+03  0.92934745606E+02 0.  0.
    9000005    2    3    3    0    0  0.36363487209E+01 -0.43031895730E+02  0.41765859782E+03  0.42014738903E+03  0.14837691598E+02 0.  0.
         22    1    3    3    0    0 -0.36363487209E+01  0.43031895730E+02  0.21429214426E+03  0.21860029775E+03  0.00000000000E+00 0. -1.
         22    1    4    4    0    0 -0.25818005907E+01 -0.15557135070E+02  0.20928696643E+03  0.20988026220E+03  0.00000000000E+00 0.  1.
         22    1    4    4    0    0  0.62181493116E+01 -0.27474760660E+02  0.20837163140E+03  0.21026712683E+03  0.00000000000E+00 0.  1.
<mgrwt>
<rscale>  0 0.92934746E+02</rscale>
<asrwt>0</asrwt>
<pdfrwt beam="1">  1        2 0.97746047E-01 0.92934746E+02</pdfrwt>
<pdfrwt beam="2">  1       -2 0.52284182E-03 0.92934746E+02</pdfrwt>
<totfact> 0.22007129E+05</totfact>
</mgrwt>
</event>
<event>
 7    1  0.3056193E-009  0.9444303E+02  0.7818608E-02  0.1292435E+00
          2   -1    0    0  501    0  0.00000000000E+00  0.00000000000E+00  0.46112843637E+03  0.46112843638E+03  0.25500000000E-02 0. -1.
         -2   -1    0    0    0  501 -0.00000000000E+00 -0.00000000000E+00 -0.48356833691E+01  0.48356840414E+01  0.25500000000E-02 0.  1.
         23    2    1    2    0    0  0.00000000000E+00  0.00000000000E+00  0.45629275300E+03  0.46596412042E+03  0.94443025556E+02 0.  0.
    9000005    2    3    3    0    0 -0.30397876197E+02 -0.28363695939E+02  0.33831221527E+03  0.34087240443E+03  0.32110713822E+01 0.  0.
         22    1    3    3    0    0  0.30397876197E+02  0.28363695939E+02  0.11798053774E+03  0.12509171599E+03  0.00000000000E+00 0.  1.
         22    1    4    4    0    0 -0.26590664726E+02 -0.24471402563E+02  0.28466533594E+03  0.28694993723E+03  0.00000000000E+00 0.  1.
         22    1    4    4    0    0 -0.38072114706E+01 -0.38922933764E+01  0.53646879327E+02  0.53922467196E+02  0.00000000000E+00 0.  1.
<mgrwt>
<rscale>  0 0.94443026E+02</rscale>
<asrwt>0</asrwt>
<pdfrwt beam="1">  1        2 0.70942824E-01 0.94443026E+02</pdfrwt>
<pdfrwt beam="2">  1       -2 0.74395147E-03 0.94443026E+02</pdfrwt>
<totfact> 0.19106173E+05</totfact>
</mgrwt>
</event>
<event>
 7    1  0.3056193E-009  0.9418341E+02  0.7818608E-02  0.1293026E+00
          2   -1    0    0  501    0  0.00000000000E+00  0.00000000000E+00  0.48983429437E+03  0.48983429438E+03  0.25500000000E-02 0. -1.
         -2   -1    0    0    0  501 -0.00000000000E+00 -0.00000000000E+00 -0.45273034789E+01  0.45273041971E+01  0.25500000000E-02 0.  1.
         23    2    1    2    0    0  0.00000000000E+00  0.00000000000E+00  0.48530699089E+03  0.49436159858E+03  0.94183410093E+02 0.  0.
    9000005    2    3    3    0    0 -0.30619187062E+02 -0.25752812992E+02  0.36867298846E+03  0.37105615458E+03  0.12734027051E+02 0.  0.
         22    1    3    3    0    0  0.30619187062E+02  0.25752812992E+02  0.11663400244E+03  0.12330544399E+03  0.00000000000E+00 0.  1.
         22    1    4    4    0    0 -0.26864619749E+02 -0.15395067064E+02  0.26902173798E+03  0.27079773151E+03  0.00000000000E+00 0.  1.
         22    1    4    4    0    0 -0.37545673128E+01 -0.10357745927E+02  0.99651250478E+02  0.10025842308E+03  0.00000000000E+00 0.  1.
<mgrwt>
<rscale>  0 0.94183410E+02</rscale>
<asrwt>0</asrwt>
<pdfrwt beam="1">  1        2 0.75359149E-01 0.94183410E+02</pdfrwt>
<pdfrwt beam="2">  1       -2 0.69650803E-03 0.94183410E+02</pdfrwt>
<totfact> 0.19640186E+05</totfact>
</mgrwt>
</event>
<event>
 7    1  0.3056193E-009  0.9196718E+02  0.7818608E-02  0.1298157E+00
          2   -1    0    0  501    0  0.00000000000E+00  0.00000000000E+00  0.65095232824E+02  0.65095232874E+02  0.25500000000E-02 0.  1.
         -2   -1    0    0    0  501 -0.00000000000E+00 -0.00000000000E+00 -0.32483033331E+02  0.32483033431E+02  0.25500000000E-02 0. -1.
         23    2    1    2    0    0  0.00000000000E+00  0.00000000000E+00  0.32612199493E+02  0.97578266306E+02  0.91967181643E+02 0.  0.
    9000005    2    3    3    0    0 -0.38122075925E+02  0.13980904314E+02  0.37335116534E+02  0.56699612908E+02  0.13121616479E+02 0.  0.
         22    1    3    3    0    0  0.38122075925E+02 -0.13980904314E+02 -0.47229170408E+01  0.40878653398E+02  0.00000000000E+00 0. -1.
         22    1    4    4    0    0 -0.33673765537E+02  0.73468510868E+01  0.27941235290E+02  0.44369035778E+02  0.00000000000E+00 0.  1.
         22    1    4    4    0    0 -0.44483103879E+01  0.66340532271E+01  0.93938812435E+01  0.12330577129E+02  0.00000000000E+00 0.  1.
<mgrwt>
<rscale>  0 0.91967182E+02</rscale>
<asrwt>0</asrwt>
<pdfrwt beam="1">  1        2 0.10014651E-01 0.91967182E+02</pdfrwt>
<pdfrwt beam="2">  1       -2 0.49973897E-02 0.91967182E+02</pdfrwt>
<totfact> 0.10583225E+05</totfact>
</mgrwt>
</event>
<event>
 7    1  0.3056193E-009  0.8785468E+02  0.7818608E-02  0.1308132E+00
          2   -1    0    0  501    0  0.00000000000E+00  0.00000000000E+00  0.16974640576E+02  0.16974640768E+02  0.25500000000E-02 0.  1.
         -2   -1    0    0    0  501 -0.00000000000E+00 -0.00000000000E+00 -0.11367610691E+03  0.11367610694E+03  0.25500000000E-02 0. -1.
         23    2    1    2    0    0  0.00000000000E+00  0.00000000000E+00 -0.96701466330E+02  0.13065074770E+03  0.87854677081E+02 0.  0.
    9000005    2    3    3    0    0 -0.32634594902E+02  0.74708840629E+01 -0.10821969664E+02  0.38476354075E+02  0.15571894631E+02 0.  0.
         22    1    3    3    0    0  0.32634594902E+02 -0.74708840629E+01 -0.85879496666E+02  0.92174393628E+02  0.00000000000E+00 0. -1.
         22    1    4    4    0    0 -0.14423979643E+02  0.39508170849E+01 -0.12981281383E+02  0.19803378770E+02  0.00000000000E+00 0.  1.
         22    1    4    4    0    0 -0.18210615259E+02  0.35200669780E+01  0.21593117184E+01  0.18672975305E+02  0.00000000000E+00 0.  1.
<mgrwt>
<rscale>  0 0.87854677E+02</rscale>
<asrwt>0</asrwt>
<pdfrwt beam="1">  1        2 0.26114832E-02 0.87854677E+02</pdfrwt>
<pdfrwt beam="2">  1       -2 0.17488631E-01 0.87854677E+02</pdfrwt>
<totfact> 0.84197611E+04</totfact>
</mgrwt>
</event>
<event>
 7    1  0.3056193E-009  0.9011391E+02  0.7818608E-02  0.1302576E+00
         -2   -1    0    0    0  501 -0.00000000000E+00  0.00000000000E+00  0.15181801873E+02  0.15181802087E+02  0.25500000000E-02 0.  1.
          2   -1    0    0  501    0  0.00000000000E+00 -0.00000000000E+00 -0.13372121490E+03  0.13372121492E+03  0.25500000000E-02 0. -1.
         23    2    1    2    0    0  0.00000000000E+00  0.35527136788E-14 -0.11853941302E+03  0.14890301701E+03  0.90113905886E+02 0.  0.
    9000005    2    3    3    0    0  0.53824382831E+01 -0.22583066698E+02  0.43707936929E+01  0.23819507069E+02  0.30495140822E+01 0.  0.
         22    1    3    3    0    0 -0.53824382831E+01  0.22583066698E+02 -0.12291020672E+03  0.12508350994E+03  0.00000000000E+00 0. -1.
         22    1    4    4    0    0  0.43562230165E+01 -0.19284256374E+02  0.26093057608E+01  0.19941607242E+02  0.00000000000E+00 0. -1.
         22    1    4    4    0    0  0.10262152667E+01 -0.32988103246E+01  0.17614879321E+01  0.38778998267E+01  0.00000000000E+00 0. -1.
<mgrwt>
<rscale>  0 0.90113906E+02</rscale>
<asrwt>0</asrwt>
<pdfrwt beam="2">  1        2 0.20572494E-01 0.90113906E+02</pdfrwt>
<pdfrwt beam="1">  1       -2 0.23356619E-02 0.90113906E+02</pdfrwt>
<totfact> 0.13888530E+05</totfact>
</mgrwt>
</event>
<event>
 7    1  0.3056193E-009  0.8727190E+02  0.7818608E-02  0.1309596E+00
         -2   -1    0    0    0  501 -0.00000000000E+00  0.00000000000E+00  0.59860356903E+02  0.59860356957E+02  0.25500000000E-02 0.  1.
          2   -1    0    0  501    0  0.00000000000E+00 -0.00000000000E+00 -0.31808964992E+02  0.31808965095E+02  0.25500000000E-02 0. -1.
         23    2    1    2    0    0  0.00000000000E+00 -0.35527136788E-14  0.28051391911E+02  0.91669322052E+02  0.87271897065E+02 0.  0.
    9000005    2    3    3    0    0  0.22219586408E+02 -0.28909064322E+02 -0.10972665839E+02  0.38262196091E+02  0.37619455082E+01 0.  0.
         22    1    3    3    0    0 -0.22219586408E+02  0.28909064322E+02  0.39024057750E+02  0.53407125961E+02  0.00000000000E+00 0.  1.
         22    1    4    4    0    0  0.55482543834E+01 -0.98347981103E+01 -0.41039718484E+01  0.12014531431E+02  0.00000000000E+00 0. -1.
         22    1    4    4    0    0  0.16671332025E+02 -0.19074266212E+02 -0.68686939908E+01  0.26247664661E+02  0.00000000000E+00 0. -1.
<mgrwt>
<rscale>  0 0.87271897E+02</rscale>
<asrwt>0</asrwt>
<pdfrwt beam="2">  1        2 0.48936869E-02 0.87271897E+02</pdfrwt>
<pdfrwt beam="1">  1       -2 0.92092858E-02 0.87271897E+02</pdfrwt>
<totfact> 0.10216769E+05</totfact>
</mgrwt>
</event>
<event>
 7    1  0.3196382E-009  0.9032495E+02  0.7818608E-02  0.1302067E+00
         -2   -1    0    0    0  501 -0.00000000000E+00  0.00000000000E+00  0.97210499867E+00  0.97210834321E+00  0.25500000000E-02 0.  1.
          2   -1    0    0  501    0  0.00000000000E+00 -0.00000000000E+00 -0.20981742130E+04  0.20981742130E+04  0.25500000000E-02 0. -1.
         23    2    1    2    0    0  0.17763568394E-14  0.00000000000E+00 -0.20972021080E+04  0.20991463213E+04  0.90324950097E+02 0.  0.
    9000005    2    3    3    0    0  0.99616537172E+01 -0.20473819265E+01 -0.20706084488E+04  0.20706744224E+04  0.13030318514E+02 0.  0.
         22    1    3    3    0    0 -0.99616537172E+01  0.20473819265E+01 -0.26593659250E+02  0.28471898951E+02  0.00000000000E+00 0.  1.
         22    1    4    4    0    0  0.10700347035E+02  0.19590248145E+01 -0.10186015952E+04  0.10186596807E+04  0.00000000000E+00 0. -1.
         22    1    4    4    0    0 -0.73869331810E+00 -0.40064067409E+01 -0.10520068535E+04  0.10520147417E+04  0.00000000000E+00 0. -1.
<mgrwt>
<rscale>  0 0.90324950E+02</rscale>
<asrwt>0</asrwt>
<pdfrwt beam="2">  1        2 0.32279241E+00 0.90324950E+02</pdfrwt>
<pdfrwt beam="1">  1       -2 0.14955655E-03 0.90324950E+02</pdfrwt>
<totfact> 0.19236294E+05</totfact>
</mgrwt>
</event>
<event>
 7    1  0.3056193E-009  0.8216809E+02  0.7818608E-02  0.1323009E+00
          2   -1    0    0  501    0  0.00000000000E+00  0.00000000000E+00  0.25653075985E+02  0.25653076112E+02  0.25500000000E-02 0. -1.
         -2   -1    0    0    0  501 -0.00000000000E+00 -0.00000000000E+00 -0.65797135747E+02  0.65797135796E+02  0.25500000000E-02 0.  1.
         23    2    1    2    0    0  0.00000000000E+00  0.44408920985E-15 -0.40144059762E+02  0.91450211908E+02  0.82168094318E+02 0.  0.
    9000005    2    3    3    0    0 -0.16351191447E+02 -0.22259367164E+01  0.21634042101E+02  0.27506094697E+02  0.40295423891E+01 0.  0.
         22    1    3    3    0    0  0.16351191447E+02  0.22259367164E+01 -0.61778101863E+02  0.63944117210E+02  0.00000000000E+00 0.  1.
         22    1    4    4    0    0 -0.11796254559E+02 -0.17779324858E+01  0.12438798904E+02  0.17234743506E+02  0.00000000000E+00 0. -1.
         22    1    4    4    0    0 -0.45549368885E+01 -0.44800423066E+00  0.91952431968E+01  0.10271351191E+02  0.00000000000E+00 0. -1.
<mgrwt>
<rscale>  0 0.82168094E+02</rscale>
<asrwt>0</asrwt>
<pdfrwt beam="1">  1        2 0.39466271E-02 0.82168094E+02</pdfrwt>
<pdfrwt beam="2">  1       -2 0.10122636E-01 0.82168094E+02</pdfrwt>
<totfact> 0.11548136E+05</totfact>
</mgrwt>
</event>
<event>
 7    1  0.3056193E-009  0.9151880E+02  0.7818608E-02  0.1299215E+00
          2   -1    0    0  501    0  0.00000000000E+00  0.00000000000E+00  0.52767444202E+02  0.52767444264E+02  0.25500000000E-02 0. -1.
         -2   -1    0    0    0  501 -0.00000000000E+00 -0.00000000000E+00 -0.39682094525E+02  0.39682094607E+02  0.25500000000E-02 0.  1.
         23    2    1    2    0    0  0.00000000000E+00  0.00000000000E+00  0.13085349677E+02  0.92449538871E+02  0.91518800589E+02 0.  0.
    9000005    2    3    3    0    0 -0.40362458729E+02 -0.16727793612E+02 -0.19326377425E+01  0.46249029135E+02  0.15042953617E+02 0.  0.
         22    1    3    3    0    0  0.40362458729E+02  0.16727793612E+02  0.15017987419E+02  0.46200509736E+02  0.00000000000E+00 0. -1.
         22    1    4    4    0    0 -0.19558685658E+02 -0.14026376025E+01  0.33021980713E+01  0.19885021725E+02  0.00000000000E+00 0.  1.
         22    1    4    4    0    0 -0.20803773071E+02 -0.15325156009E+02 -0.52348358138E+01  0.26364007409E+02  0.00000000000E+00 0.  1.
<mgrwt>
<rscale>  0 0.91518801E+02</rscale>
<asrwt>0</asrwt>
<pdfrwt beam="1">  1        2 0.81180683E-02 0.91518801E+02</pdfrwt>
<pdfrwt beam="2">  1       -2 0.61049376E-02 0.91518801E+02</pdfrwt>
<totfact> 0.10142862E+05</totfact>
</mgrwt>
</event>
<event>
 7    1  0.3056193E-009  0.9355172E+02  0.7818608E-02  0.1294472E+00
         -2   -1    0    0    0  501 -0.00000000000E+00  0.00000000000E+00  0.23676336890E+01  0.23676350622E+01  0.25500000000E-02 0.  1.
          2   -1    0    0  501    0  0.00000000000E+00 -0.00000000000E+00 -0.92412123182E+03  0.92412123183E+03  0.25500000000E-02 0. -1.
         23    2    1    2    0    0  0.35527136788E-14  0.35527136788E-14 -0.92175359813E+03  0.92648886689E+03  0.93551722569E+02 0.  0.
    9000005    2    3    3    0    0 -0.21251519845E+02 -0.18235753467E+02 -0.83183639366E+03  0.83231204670E+03  0.27179893153E+01 0.  0.
         22    1    3    3    0    0  0.21251519845E+02  0.18235753467E+02 -0.89917204471E+02  0.94176820185E+02  0.00000000000E+00 0.  1.
         22    1    4    4    0    0 -0.20594962649E+02 -0.16948382967E+02 -0.79510284266E+03  0.79555008049E+03  0.00000000000E+00 0.  1.
         22    1    4    4    0    0 -0.65655719608E+00 -0.12873704996E+01 -0.36733551005E+02  0.36761966210E+02  0.00000000000E+00 0.  1.
<mgrwt>
<rscale>  0 0.93551723E+02</rscale>
<asrwt>0</asrwt>
<pdfrwt beam="2">  1        2 0.14217221E+00 0.93551723E+02</pdfrwt>
<pdfrwt beam="1">  1       -2 0.36425218E-03 0.93551723E+02</pdfrwt>
<totfact> 0.23232649E+05</totfact>
</mgrwt>
</event>
<event>
 7    1  0.3056193E-009  0.8976060E+02  0.7818608E-02  0.1303432E+00
          2   -1    0    0  501    0  0.00000000000E+00  0.00000000000E+00  0.15446310254E+04  0.15446310255E+04  0.25500000000E-02 0. -1.
         -2   -1    0    0    0  501 -0.00000000000E+00 -0.00000000000E+00 -0.13040263397E+01  0.13040288330E+01  0.25500000000E-02 0.  1.
         23    2    1    2    0    0  0.17763568394E-14  0.88817841970E-15  0.15433269991E+04  0.15459350543E+04  0.89760603188E+02 0.  0.
    9000005    2    3    3    0    0  0.10707014723E+02  0.57749199287E+01  0.15156196123E+04  0.15156746983E+04  0.43579588220E+01 0.  0.
         22    1    3    3    0    0 -0.10707014723E+02 -0.57749199287E+01  0.27707386772E+02  0.30260356016E+02  0.00000000000E+00 0.  1.
         22    1    4    4    0    0  0.93135542890E+01  0.41161016360E+01  0.13821197611E+04  0.13821572698E+04  0.00000000000E+00 0. -1.
         22    1    4    4    0    0  0.13934604340E+01  0.16588182927E+01  0.13349985127E+03  0.13351742845E+03  0.00000000000E+00 0. -1.
<mgrwt>
<rscale>  0 0.89760603E+02</rscale>
<asrwt>0</asrwt>
<pdfrwt beam="1">  1        2 0.23763746E+00 0.89760603E+02</pdfrwt>
<pdfrwt beam="2">  1       -2 0.20061801E-03 0.89760603E+02</pdfrwt>
<totfact> 0.24303076E+05</totfact>
</mgrwt>
</event>
<event>
 7    1  0.3056193E-009  0.9155415E+02  0.7818608E-02  0.1299131E+00
          2   -1    0    0  501    0  0.00000000000E+00  0.00000000000E+00  0.69959478546E+03  0.69959478546E+03  0.25500000000E-02 0. -1.
         -2   -1    0    0    0  501 -0.00000000000E+00 -0.00000000000E+00 -0.29953629471E+01  0.29953640325E+01  0.25500000000E-02 0.  1.
         23    2    1    2    0    0  0.00000000000E+00  0.00000000000E+00  0.69659942251E+03  0.70259014949E+03  0.91554151873E+02 0.  0.
    9000005    2    3    3    0    0  0.28528854706E+02 -0.21932873984E+02  0.56311398407E+03  0.56433925877E+03  0.93001836367E+01 0.  0.
         22    1    3    3    0    0 -0.28528854706E+02  0.21932873984E+02  0.13348543844E+03  0.13825089073E+03  0.00000000000E+00 0.  1.
         22    1    4    4    0    0  0.12138606582E+02 -0.14314016793E+02  0.32400621432E+03  0.32454932409E+03  0.00000000000E+00 0.  1.
         22    1    4    4    0    0  0.16390248124E+02 -0.76188571910E+01  0.23910776975E+03  0.23978993468E+03  0.00000000000E+00 0.  1.
<mgrwt>
<rscale>  0 0.91554152E+02</rscale>
<asrwt>0</asrwt>
<pdfrwt beam="1">  1        2 0.10762989E+00 0.91554152E+02</pdfrwt>
<pdfrwt beam="2">  1       -2 0.46082546E-03 0.91554152E+02</pdfrwt>
<totfact> 0.23454114E+05</totfact>
</mgrwt>
</event>
<event>
 7    1  0.3056193E-009  0.9097919E+02  0.7818608E-02  0.1300498E+00
          2   -1    0    0  501    0  0.00000000000E+00  0.00000000000E+00  0.14425510389E+02  0.14425510615E+02  0.25500000000E-02 0. -1.
         -2   -1    0    0    0  501 -0.00000000000E+00 -0.00000000000E+00 -0.14344747704E+03  0.14344747707E+03  0.25500000000E-02 0.  1.
         23    2    1    2    0    0  0.17763568394E-14  0.00000000000E+00 -0.12902196666E+03  0.15787298768E+03  0.90979186411E+02 0.  0.
    9000005    2    3    3    0    0  0.13886193711E+02  0.25674519988E+02 -0.12429496939E+03  0.12830354644E+03  0.12670961277E+02 0.  0.
         22    1    3    3    0    0 -0.13886193711E+02 -0.25674519988E+02 -0.47269972617E+01  0.29569441244E+02  0.00000000000E+00 0. -1.
         22    1    4    4    0    0  0.13565145395E+02  0.22719540380E+02 -0.12102732057E+03  0.12388625028E+03  0.00000000000E+00 0. -1.
         22    1    4    4    0    0  0.32104831611E+00  0.29549796076E+01 -0.32676488277E+01  0.44172961598E+01  0.00000000000E+00 0. -1.
<mgrwt>
<rscale>  0 0.90979186E+02</rscale>
<asrwt>0</asrwt>
<pdfrwt beam="1">  1        2 0.22193094E-02 0.90979186E+02</pdfrwt>
<pdfrwt beam="2">  1       -2 0.22068842E-01 0.90979186E+02</pdfrwt>
<totfact> 0.71378350E+04</totfact>
</mgrwt>
</event>
<event>
 7    1  0.3056193E-009  0.8932842E+02  0.7818608E-02  0.1304486E+00
         -2   -1    0    0    0  501 -0.00000000000E+00  0.00000000000E+00  0.15245069347E+02  0.15245069560E+02  0.25500000000E-02 0.  1.
          2   -1    0    0  501    0  0.00000000000E+00 -0.00000000000E+00 -0.13085486752E+03  0.13085486754E+03  0.25500000000E-02 0. -1.
         23    2    1    2    0    0  0.35527136788E-14  0.00000000000E+00 -0.11560979817E+03  0.14609993710E+03  0.89328417584E+02 0.  0.
    9000005    2    3    3    0    0  0.26593233456E+02  0.86442564468E+01 -0.11458470064E+03  0.11811826345E+03  0.63519529302E+01 0.  0.
         22    1    3    3    0    0 -0.26593233456E+02 -0.86442564468E+01 -0.10250975318E+01  0.27981673647E+02  0.00000000000E+00 0.  1.
         22    1    4    4    0    0  0.92205087512E+00 -0.52712326814E+00 -0.18377902459E+01  0.21226186054E+01  0.00000000000E+00 0. -1.
         22    1    4    4    0    0  0.25671182580E+02  0.91713797149E+01 -0.11274691039E+03  0.11599564485E+03  0.00000000000E+00 0. -1.
<mgrwt>
<rscale>  0 0.89328418E+02</rscale>
<asrwt>0</asrwt>
<pdfrwt beam="2">  1        2 0.20131517E-01 0.89328418E+02</pdfrwt>
<pdfrwt beam="1">  1       -2 0.23453954E-02 0.89328418E+02</pdfrwt>
<totfact> 0.14122044E+05</totfact>
</mgrwt>
</event>
<event>
 7    1  0.3056193E-009  0.8940589E+02  0.7818608E-02  0.1304297E+00
          2   -1    0    0  501    0  0.00000000000E+00  0.00000000000E+00  0.24958904677E+03  0.24958904678E+03  0.25500000000E-02 0. -1.
         -2   -1    0    0    0  501 -0.00000000000E+00 -0.00000000000E+00 -0.80065746216E+01  0.80065750277E+01  0.25500000000E-02 0.  1.
         23    2    1    2    0    0  0.00000000000E+00  0.00000000000E+00  0.24158247215E+03  0.25759562181E+03  0.89405892013E+02 0.  0.
    9000005    2    3    3    0    0 -0.43652137111E+02 -0.79128062398E+01  0.10689112489E+03  0.11578631111E+03  0.35546704083E+01 0.  0.
         22    1    3    3    0    0  0.43652137111E+02  0.79128062398E+01  0.13469134725E+03  0.14180931070E+03  0.00000000000E+00 0. -1.
         22    1    4    4    0    0 -0.10450724954E+02 -0.44949477065E+00  0.23859573297E+02  0.26051850904E+02  0.00000000000E+00 0. -1.
         22    1    4    4    0    0 -0.33201412158E+02 -0.74633114692E+01  0.83031551596E+02  0.89734460203E+02  0.00000000000E+00 0. -1.
<mgrwt>
<rscale>  0 0.89405892E+02</rscale>
<asrwt>0</asrwt>
<pdfrwt beam="1">  1        2 0.38398311E-01 0.89405892E+02</pdfrwt>
<pdfrwt beam="2">  1       -2 0.12317809E-02 0.89405892E+02</pdfrwt>
<totfact> 0.17679027E+05</totfact>
</mgrwt>
</event>
<event>
 7    1  0.3056193E-009  0.9167726E+02  0.7818608E-02  0.1298840E+00
         -2   -1    0    0    0  501 -0.00000000000E+00  0.00000000000E+00  0.16291988384E+02  0.16291988584E+02  0.25500000000E-02 0. -1.
          2   -1    0    0  501    0  0.00000000000E+00 -0.00000000000E+00 -0.12897012732E+03  0.12897012734E+03  0.25500000000E-02 0.  1.
         23    2    1    2    0    0  0.00000000000E+00 -0.71054273576E-14 -0.11267813893E+03  0.14526211593E+03  0.91677256340E+02 0.  0.
    9000005    2    3    3    0    0  0.30814719769E+02 -0.33229569943E+02 -0.58596107244E+02  0.74702797444E+02  0.96567535349E+01 0.  0.
         22    1    3    3    0    0 -0.30814719769E+02  0.33229569943E+02 -0.54082031690E+02  0.70559318483E+02  0.00000000000E+00 0. -1.
         22    1    4    4    0    0  0.21894022121E+02 -0.25296377248E+02 -0.49264960256E+02  0.59550744879E+02  0.00000000000E+00 0.  1.
         22    1    4    4    0    0  0.89206976473E+01 -0.79331926950E+01 -0.93311469875E+01  0.15152052566E+02  0.00000000000E+00 0.  1.
<mgrwt>
<rscale>  0 0.91677256E+02</rscale>
<asrwt>0</asrwt>
<pdfrwt beam="2">  1        2 0.19841557E-01 0.91677256E+02</pdfrwt>
<pdfrwt beam="1">  1       -2 0.25064599E-02 0.91677256E+02</pdfrwt>
<totfact> 0.13096155E+05</totfact>
</mgrwt>
</event>
<event>
 7    1  0.3056193E-009  0.8973679E+02  0.7818608E-02  0.1303490E+00
         -2   -1    0    0    0  501 -0.00000000000E+00  0.00000000000E+00  0.21686513408E+01  0.21686528400E+01  0.25500000000E-02 0.  1.
          2   -1    0    0  501    0  0.00000000000E+00 -0.00000000000E+00 -0.92830607176E+03  0.92830607176E+03  0.25500000000E-02 0. -1.
         23    2    1    2    0    0  0.35527136788E-14 -0.35527136788E-14 -0.92613742042E+03  0.93047472460E+03  0.89736790812E+02 0.  0.
    9000005    2    3    3    0    0 -0.25471371530E+02  0.19273847299E+02 -0.78489041372E+03  0.78566108968E+03  0.13788195508E+02 0.  0.
         22    1    3    3    0    0  0.25471371530E+02 -0.19273847299E+02 -0.14124700669E+03  0.14481363492E+03  0.00000000000E+00 0.  1.
         22    1    4    4    0    0 -0.23559055409E+02  0.10912686098E+02 -0.54646069631E+03  0.54707715033E+03  0.00000000000E+00 0.  1.
         22    1    4    4    0    0 -0.19123161208E+01  0.83611612006E+01 -0.23842971741E+03  0.23858393935E+03  0.00000000000E+00 0.  1.
<mgrwt>
<rscale>  0 0.89736791E+02</rscale>
<asrwt>0</asrwt>
<pdfrwt beam="2">  1        2 0.14281600E+00 0.89736791E+02</pdfrwt>
<pdfrwt beam="1">  1       -2 0.33363952E-03 0.89736791E+02</pdfrwt>
<totfact> 0.25937474E+05</totfact>
</mgrwt>
</event>
<event>
 7    1  0.3056193E-009  0.9044747E+02  0.7818608E-02  0.1301772E+00
          2   -1    0    0  501    0  0.00000000000E+00  0.00000000000E+00  0.20985764582E+03  0.20985764584E+03  0.25500000000E-02 0.  1.
         -2   -1    0    0    0  501 -0.00000000000E+00 -0.00000000000E+00 -0.97455886116E+01  0.97455889452E+01  0.25500000000E-02 0. -1.
         23    2    1    2    0    0  0.00000000000E+00  0.00000000000E+00  0.20011205721E+03  0.21960323478E+03  0.90447472525E+02 0.  0.
    9000005    2    3    3    0    0 -0.14355782977E+02 -0.21414256642E+02  0.19022809480E+03  0.19199251938E+03  0.31209858745E+01 0.  0.
         22    1    3    3    0    0  0.14355782977E+02  0.21414256642E+02  0.98839624129E+01  0.27610715409E+02  0.00000000000E+00 0. -1.
         22    1    4    4    0    0 -0.61104617569E+01 -0.93195661619E+01  0.71009464907E+02  0.71878621040E+02  0.00000000000E+00 0. -1.
         22    1    4    4    0    0 -0.82453212196E+01 -0.12094690480E+02  0.11921862989E+03  0.12011389834E+03  0.00000000000E+00 0. -1.
<mgrwt>
<rscale>  0 0.90447473E+02</rscale>
<asrwt>0</asrwt>
<pdfrwt beam="1">  1        2 0.32285792E-01 0.90447473E+02</pdfrwt>
<pdfrwt beam="2">  1       -2 0.14993213E-02 0.90447473E+02</pdfrwt>
<totfact> 0.16083720E+05</totfact>
</mgrwt>
</event>
<event>
 7    1  0.3056193E-009  0.8895495E+02  0.7818608E-02  0.1305402E+00
         -2   -1    0    0    0  501 -0.00000000000E+00  0.00000000000E+00  0.86203523000E+01  0.86203526772E+01  0.25500000000E-02 0.  1.
          2   -1    0    0  501    0  0.00000000000E+00 -0.00000000000E+00 -0.22948546152E+03  0.22948546153E+03  0.25500000000E-02 0. -1.
         23    2    1    2    0    0  0.00000000000E+00  0.33306690739E-15 -0.22086510922E+03  0.23810581421E+03  0.88954945284E+02 0.  0.
    9000005    2    3    3    0    0  0.41787370438E+02  0.60019517093E+00 -0.75610929868E+02  0.86959126581E+02  0.99162703639E+01 0.  0.
         22    1    3    3    0    0 -0.41787370438E+02 -0.60019517093E+00 -0.14525417935E+03  0.15114668763E+03  0.00000000000E+00 0. -1.
         22    1    4    4    0    0  0.18175541265E+02  0.51052298444E+01 -0.35019433439E+02  0.39784097205E+02  0.00000000000E+00 0. -1.
         22    1    4    4    0    0  0.23611829173E+02 -0.45050346735E+01 -0.40591496429E+02  0.47175029376E+02  0.00000000000E+00 0. -1.
<mgrwt>
<rscale>  0 0.88954945E+02</rscale>
<asrwt>0</asrwt>
<pdfrwt beam="2">  1        2 0.35305451E-01 0.88954945E+02</pdfrwt>
<pdfrwt beam="1">  1       -2 0.13262082E-02 0.88954945E+02</pdfrwt>
<totfact> 0.17374751E+05</totfact>
</mgrwt>
</event>
<event>
 7    1  0.3056193E-009  0.8855047E+02  0.7818608E-02  0.1306400E+00
         -2   -1    0    0    0  501 -0.00000000000E+00  0.00000000000E+00  0.36194927604E+01  0.36194936586E+01  0.25500000000E-02 0.  1.
          2   -1    0    0  501    0  0.00000000000E+00 -0.00000000000E+00 -0.54159419309E+03  0.54159419309E+03  0.25500000000E-02 0. -1.
         23    2    1    2    0    0  0.00000000000E+00  0.00000000000E+00 -0.53797470033E+03  0.54521368675E+03  0.88550471652E+02 0.  0.
    9000005    2    3    3    0    0  0.32527678476E+02  0.26627984783E+01 -0.45218989096E+03  0.45343038827E+03  0.76340784571E+01 0.  0.
         22    1    3    3    0    0 -0.32527678476E+02 -0.26627984783E+01 -0.85784809363E+02  0.91783298482E+02  0.00000000000E+00 0.  1.
         22    1    4    4    0    0  0.22445763436E+02 -0.17335739671E+01 -0.29969834944E+03  0.30054270617E+03  0.00000000000E+00 0. -1.
         22    1    4    4    0    0  0.10081915041E+02  0.43963724454E+01 -0.15249154152E+03  0.15288768210E+03  0.00000000000E+00 0. -1.
<mgrwt>
<rscale>  0 0.88550472E+02</rscale>
<asrwt>0</asrwt>
<pdfrwt beam="2">  1        2 0.83322119E-01 0.88550472E+02</pdfrwt>
<pdfrwt beam="1">  1       -2 0.55684554E-03 0.88550472E+02</pdfrwt>
<totfact> 0.23875014E+05</totfact>
</mgrwt>
</event>
<event>
 7    1  0.3056193E-009  0.1097827E+03  0.7818608E-02  0.1260973E+00
         -2   -1    0    0    0  501 -0.00000000000E+00  0.00000000000E+00  0.41395232384E+03  0.41395232385E+03  0.25500000000E-02 0.  1.
          2   -1    0    0  501    0  0.00000000000E+00 -0.00000000000E+00 -0.72787571472E+01  0.72787575938E+01  0.25500000000E-02 0. -1.
         23    2    1    2    0    0  0.44408920985E-15  0.71054273576E-14  0.40667356670E+03  0.42123108145E+03  0.10978266769E+03 0.  0.
    9000005    2    3    3    0    0 -0.36766940943E+00 -0.53060613426E+02  0.15848344653E+03  0.16743214602E+03  0.10047726949E+02 0.  0.
         22    1    3    3    0    0  0.36766940943E+00  0.53060613426E+02  0.24819012016E+03  0.25379893543E+03  0.00000000000E+00 0. -1.
         22    1    4    4    0    0 -0.46454601428E+01 -0.15718636623E+02  0.50631911745E+02  0.53218853090E+02  0.00000000000E+00 0.  1.
         22    1    4    4    0    0  0.42777907334E+01 -0.37341976803E+02  0.10785153479E+03  0.11421329293E+03  0.00000000000E+00 0.  1.
<mgrwt>
<rscale>  0 0.10978267E+03</rscale>
<asrwt>0</asrwt>
<pdfrwt beam="2">  1        2 0.11198085E-02 0.10978267E+03</pdfrwt>
<pdfrwt beam="1">  1       -2 0.63684989E-01 0.10978267E+03</pdfrwt>
<totfact> 0.25736892E+04</totfact>
</mgrwt>
</event>
<event>
 7    1  0.3056193E-009  0.8814084E+02  0.7818608E-02  0.1307417E+00
          2   -1    0    0  501    0  0.00000000000E+00  0.00000000000E+00  0.36295432926E+01  0.36295441884E+01  0.25500000000E-02 0. -1.
         -2   -1    0    0    0  501 -0.00000000000E+00 -0.00000000000E+00 -0.53510909421E+03  0.53510909422E+03  0.25500000000E-02 0.  1.
         23    2    1    2    0    0  0.00000000000E+00  0.00000000000E+00 -0.53147955092E+03  0.53873863840E+03  0.88140838812E+02 0.  0.
    9000005    2    3    3    0    0 -0.23064297903E+02 -0.23344836034E+02 -0.44230555331E+03  0.44371787722E+03  0.13206394917E+02 0.  0.
         22    1    3    3    0    0  0.23064297903E+02  0.23344836034E+02 -0.89173997607E+02  0.95020761187E+02  0.00000000000E+00 0.  1.
         22    1    4    4    0    0 -0.23428701019E+02 -0.17992952816E+02 -0.39659169367E+03  0.39769035929E+03  0.00000000000E+00 0. -1.
         22    1    4    4    0    0  0.36440311645E+00 -0.53518832181E+01 -0.45713859635E+02  0.46027517925E+02  0.00000000000E+00 0. -1.
<mgrwt>
<rscale>  0 0.88140839E+02</rscale>
<asrwt>0</asrwt>
<pdfrwt beam="1">  1        2 0.55839177E-03 0.88140839E+02</pdfrwt>
<pdfrwt beam="2">  1       -2 0.82324413E-01 0.88140839E+02</pdfrwt>
<totfact> 0.37550668E+04</totfact>
</mgrwt>
</event>
<event>
 7    1  0.3056193E-009  0.9261436E+02  0.7818608E-02  0.1296641E+00
          2   -1    0    0  501    0  0.00000000000E+00  0.00000000000E+00  0.38487056759E+02  0.38487056843E+02  0.25500000000E-02 0. -1.
         -2   -1    0    0    0  501 -0.00000000000E+00 -0.00000000000E+00 -0.55716263325E+02  0.55716263384E+02  0.25500000000E-02 0.  1.
         23    2    1    2    0    0  0.00000000000E+00 -0.71054273576E-14 -0.17229206567E+02  0.94203320227E+02  0.92614361645E+02 0.  0.
    9000005    2    3    3    0    0 -0.58361813489E+01 -0.43923421978E+02  0.22675330267E+01  0.45794117943E+02  0.11341583716E+02 0.  0.
         22    1    3    3    0    0  0.58361813489E+01  0.43923421978E+02 -0.19496739594E+02  0.48409202284E+02  0.00000000000E+00 0.  1.
         22    1    4    4    0    0 -0.28693894688E+01 -0.10068828598E+02  0.51878405092E+01  0.11684536551E+02  0.00000000000E+00 0. -1.
         22    1    4    4    0    0 -0.29667918801E+01 -0.33854593380E+02 -0.29203074824E+01  0.34109581392E+02  0.00000000000E+00 0. -1.
<mgrwt>
<rscale>  0 0.92614362E+02</rscale>
<asrwt>0</asrwt>
<pdfrwt beam="1">  1        2 0.59210857E-02 0.92614362E+02</pdfrwt>
<pdfrwt beam="2">  1       -2 0.85717328E-02 0.92614362E+02</pdfrwt>
<totfact> 0.90233854E+04</totfact>
</mgrwt>
</event>
<event>
 7    1  0.3056193E-009  0.9291522E+02  0.7818608E-02  0.1295942E+00
         -2   -1    0    0    0  501 -0.00000000000E+00  0.00000000000E+00  0.51059209345E+02  0.51059209409E+02  0.25500000000E-02 0.  1.
          2   -1    0    0  501    0  0.00000000000E+00 -0.00000000000E+00 -0.42270716883E+02  0.42270716960E+02  0.25500000000E-02 0. -1.
         23    2    1    2    0    0  0.88817841970E-15  0.00000000000E+00  0.87884924623E+01  0.93329926369E+02  0.92915217033E+02 0.  0.
    9000005    2    3    3    0    0  0.64881892378E+01  0.32609651705E+02 -0.26934851727E+02  0.44527843381E+02  0.12318953474E+02 0.  0.
         22    1    3    3    0    0 -0.64881892378E+01 -0.32609651705E+02  0.35723344189E+02  0.48802082988E+02  0.00000000000E+00 0.  1.
         22    1    4    4    0    0  0.29117475224E+01  0.31323514477E+02 -0.25385277539E+02  0.40423423266E+02  0.00000000000E+00 0.  1.
         22    1    4    4    0    0  0.35764417154E+01  0.12861372279E+01 -0.15495741880E+01  0.41044201145E+01  0.00000000000E+00 0.  1.
<mgrwt>
<rscale>  0 0.92915217E+02</rscale>
<asrwt>0</asrwt>
<pdfrwt beam="2">  1        2 0.65031872E-02 0.92915217E+02</pdfrwt>
<pdfrwt beam="1">  1       -2 0.78552630E-02 0.92915217E+02</pdfrwt>
<totfact> 0.91615491E+04</totfact>
</mgrwt>
</event>
<event>
 7    1  0.3056193E-009  0.9171745E+02  0.7818608E-02  0.1298745E+00
         -2   -1    0    0    0  501 -0.00000000000E+00  0.00000000000E+00  0.15875800136E+02  0.15875800341E+02  0.25500000000E-02 0.  1.
          2   -1    0    0  501    0  0.00000000000E+00 -0.00000000000E+00 -0.13246718124E+03  0.13246718127E+03  0.25500000000E-02 0. -1.
         23    2    1    2    0    0  0.44408920985E-15  0.00000000000E+00 -0.11659138111E+03  0.14834298161E+03  0.91717446782E+02 0.  0.
    9000005    2    3    3    0    0  0.27072734112E+01  0.13398990361E+02 -0.12890365490E+03  0.12994585254E+03  0.91054969760E+01 0.  0.
         22    1    3    3    0    0 -0.27072734112E+01 -0.13398990361E+02  0.12312273790E+02  0.18397129066E+02  0.00000000000E+00 0.  1.
         22    1    4    4    0    0 -0.19520495638E+01  0.52411124100E+01 -0.24980933087E+02  0.25599351060E+02  0.00000000000E+00 0. -1.
         22    1    4    4    0    0  0.46593229750E+01  0.81578779506E+01 -0.10392272181E+03  0.10434650148E+03  0.00000000000E+00 0. -1.
<mgrwt>
<rscale>  0 0.91717447E+02</rscale>
<asrwt>0</asrwt>
<pdfrwt beam="2">  1        2 0.20379566E-01 0.91717447E+02</pdfrwt>
<pdfrwt beam="1">  1       -2 0.24424309E-02 0.91717447E+02</pdfrwt>
<totfact> 0.13196168E+05</totfact>
</mgrwt>
</event>
<event>
 7    1  0.3056193E-009  0.1132772E+03  0.7818608E-02  0.1254619E+00
          2   -1    0    0  501    0  0.00000000000E+00  0.00000000000E+00  0.27710402672E+03  0.27710402673E+03  0.25500000000E-02 0. -1.
         -2   -1    0    0    0  501 -0.00000000000E+00 -0.00000000000E+00 -0.11576630041E+02  0.11576630321E+02  0.25500000000E-02 0.  1.
         23    2    1    2    0    0  0.00000000000E+00  0.00000000000E+00  0.26552739668E+03  0.28868065705E+03  0.11327719704E+03 0.  0.
    9000005    2    3    3    0    0  0.37597956838E+02  0.42247756804E+02  0.13213380349E+03  0.14379335596E+03  0.43252607865E+01 0.  0.
         22    1    3    3    0    0 -0.37597956838E+02 -0.42247756804E+02  0.13339359319E+03  0.14488730109E+03  0.00000000000E+00 0. -1.
         22    1    4    4    0    0  0.35328574480E+02  0.40059449057E+02  0.12198287944E+03  0.13316414874E+03  0.00000000000E+00 0. -1.
         22    1    4    4    0    0  0.22693823584E+01  0.21883077469E+01  0.10150924049E+02  0.10629207221E+02  0.00000000000E+00 0. -1.
<mgrwt>
<rscale>  0 0.11327720E+03</rscale>
<asrwt>0</asrwt>
<pdfrwt beam="1">  1        2 0.42631390E-01 0.11327720E+03</pdfrwt>
<pdfrwt beam="2">  1       -2 0.17810200E-02 0.11327720E+03</pdfrwt>
<totfact> 0.96933204E+04</totfact>
</mgrwt>
</event>
<event>
 7    1  0.3056193E-009  0.8971246E+02  0.7818608E-02  0.1303550E+00
          2   -1    0    0  501    0  0.00000000000E+00  0.00000000000E+00  0.15430108797E+03  0.15430108799E+03  0.25500000000E-02 0. -1.
         -2   -1    0    0    0  501 -0.00000000000E+00 -0.00000000000E+00 -0.13039968587E+02  0.13039968837E+02  0.25500000000E-02 0.  1.
         23    2    1    2    0    0  0.00000000000E+00 -0.22204460493E-15  0.14126111938E+03  0.16734105683E+03  0.89712459843E+02 0.  0.
    9000005    2    3    3    0    0 -0.40088376601E+02 -0.18493749746E+01  0.10652961863E+03  0.11426775591E+03  0.99026394399E+01 0.  0.
         22    1    3    3    0    0  0.40088376601E+02  0.18493749746E+01  0.34731500754E+02  0.53073300924E+02  0.00000000000E+00 0.  1.
         22    1    4    4    0    0 -0.78429895038E+01 -0.15386372020E+01  0.12258404996E+02  0.14633809547E+02  0.00000000000E+00 0.  1.
         22    1    4    4    0    0 -0.32245387098E+02 -0.31073777260E+00  0.94271213634E+02  0.99633946359E+02  0.00000000000E+00 0.  1.
<mgrwt>
<rscale>  0 0.89712460E+02</rscale>
<asrwt>0</asrwt>
<pdfrwt beam="1">  1        2 0.23738630E-01 0.89712460E+02</pdfrwt>
<pdfrwt beam="2">  1       -2 0.20061490E-02 0.89712460E+02</pdfrwt>
<totfact> 0.14749042E+05</totfact>
</mgrwt>
</event>
<event>
 7    1  0.3056193E-009  0.9392971E+02  0.7818608E-02  0.1293605E+00
         -2   -1    0    0    0  501 -0.00000000000E+00  0.00000000000E+00  0.39945743414E+02  0.39945743495E+02  0.25500000000E-02 0.  1.
          2   -1    0    0  501    0  0.00000000000E+00 -0.00000000000E+00 -0.55217335751E+02  0.55217335810E+02  0.25500000000E-02 0. -1.
         23    2    1    2    0    0  0.00000000000E+00  0.00000000000E+00 -0.15271592337E+02  0.95163079305E+02  0.93929708454E+02 0.  0.
    9000005    2    3    3    0    0 -0.27372372021E+02 -0.14726547483E+02  0.26183651588E+02  0.43349420877E+02  0.15082132776E+02 0.  0.
         22    1    3    3    0    0  0.27372372021E+02  0.14726547483E+02 -0.41455243925E+02  0.51813658428E+02  0.00000000000E+00 0. -1.
         22    1    4    4    0    0 -0.26490014122E+02 -0.79143061470E+01  0.21705525793E+02  0.35149494163E+02  0.00000000000E+00 0.  1.
         22    1    4    4    0    0 -0.88235789920E+00 -0.68122413357E+01  0.44781257949E+01  0.81999267139E+01  0.00000000000E+00 0.  1.
<mgrwt>
<rscale>  0 0.93929708E+02</rscale>
<asrwt>0</asrwt>
<pdfrwt beam="2">  1        2 0.84949747E-02 0.93929708E+02</pdfrwt>
<pdfrwt beam="1">  1       -2 0.61454990E-02 0.93929708E+02</pdfrwt>
<totfact> 0.95330810E+04</totfact>
</mgrwt>
</event>
<event>
 7    1  0.3056193E-009  0.8900409E+02  0.7818608E-02  0.1305281E+00
         -2   -1    0    0    0  501 -0.00000000000E+00  0.00000000000E+00  0.11025655484E+02  0.11025655779E+02  0.25500000000E-02 0.  1.
          2   -1    0    0  501    0  0.00000000000E+00 -0.00000000000E+00 -0.17962035566E+03  0.17962035568E+03  0.25500000000E-02 0. -1.
         23    2    1    2    0    0  0.00000000000E+00  0.00000000000E+00 -0.16859470018E+03  0.19064601146E+03  0.89004094049E+02 0.  0.
    9000005    2    3    3    0    0  0.16232911920E+02 -0.40665971564E+02 -0.99508660938E+02  0.10885292196E+03  0.54549375926E+01 0.  0.
         22    1    3    3    0    0 -0.16232911920E+02  0.40665971564E+02 -0.69086039241E+02  0.81793089504E+02  0.00000000000E+00 0.  1.
         22    1    4    4    0    0  0.16581428844E+02 -0.39536899961E+02 -0.97693063870E+02  0.10668666725E+03  0.00000000000E+00 0. -1.
         22    1    4    4    0    0 -0.34851692374E+00 -0.11290716036E+01 -0.18155970675E+01  0.21662547043E+01  0.00000000000E+00 0. -1.
<mgrwt>
<rscale>  0 0.89004094E+02</rscale>
<asrwt>0</asrwt>
<pdfrwt beam="2">  1        2 0.27633899E-01 0.89004094E+02</pdfrwt>
<pdfrwt beam="1">  1       -2 0.16962548E-02 0.89004094E+02</pdfrwt>
<totfact> 0.15882678E+05</totfact>
</mgrwt>
</event>
<event>
 7    1  0.3056193E-009  0.8700788E+02  0.7818608E-02  0.1310264E+00
         -2   -1    0    0    0  501 -0.00000000000E+00  0.00000000000E+00  0.91678410623E+02  0.91678410659E+02  0.25500000000E-02 0.  1.
          2   -1    0    0  501    0  0.00000000000E+00 -0.00000000000E+00 -0.20643821829E+02  0.20643821987E+02  0.25500000000E-02 0. -1.
         23    2    1    2    0    0 -0.71054273576E-14  0.00000000000E+00  0.71034588794E+02  0.11232223265E+03  0.87007879766E+02 0.  0.
    9000005    2    3    3    0    0  0.40535929753E+02 -0.15341764052E+02  0.32171544082E+02  0.54108251769E+02  0.37634207463E+01 0.  0.
         22    1    3    3    0    0 -0.40535929753E+02  0.15341764052E+02  0.38863044712E+02  0.58213980876E+02  0.00000000000E+00 0.  1.
         22    1    4    4    0    0  0.23366226993E+02 -0.72220044570E+01  0.16749642801E+02  0.29642679471E+02  0.00000000000E+00 0. -1.
         22    1    4    4    0    0  0.17169702761E+02 -0.81197595946E+01  0.15421901281E+02  0.24465572299E+02  0.00000000000E+00 0. -1.
<mgrwt>
<rscale>  0 0.87007880E+02</rscale>
<asrwt>0</asrwt>
<pdfrwt beam="2">  1        2 0.31759726E-02 0.87007880E+02</pdfrwt>
<pdfrwt beam="1">  1       -2 0.14104371E-01 0.87007880E+02</pdfrwt>
<totfact> 0.91926549E+04</totfact>
</mgrwt>
</event>
<event>
 7    1  0.3056193E-009  0.9125273E+02  0.7818608E-02  0.1299846E+00
          2   -1    0    0  501    0  0.00000000000E+00  0.00000000000E+00  0.32480808499E+03  0.32480808500E+03  0.25500000000E-02 0. -1.
         -2   -1    0    0    0  501 -0.00000000000E+00 -0.00000000000E+00 -0.64092162995E+01  0.64092168068E+01  0.25500000000E-02 0.  1.
         23    2    1    2    0    0 -0.35527136788E-14  0.00000000000E+00  0.31839886869E+03  0.33121730180E+03  0.91252733837E+02 0.  0.
    9000005    2    3    3    0    0  0.17551952325E+02 -0.38796093592E+02  0.20954939187E+03  0.21433523940E+03  0.14677850899E+02 0.  0.
         22    1    3    3    0    0 -0.17551952325E+02  0.38796093592E+02  0.10884947681E+03  0.11688206240E+03  0.00000000000E+00 0.  1.
         22    1    4    4    0    0 -0.14283381429E+01 -0.78430350608E+01  0.24735133759E+02  0.25988077861E+02  0.00000000000E+00 0.  1.
         22    1    4    4    0    0  0.18980290468E+02 -0.30953058531E+02  0.18481425811E+03  0.18834716154E+03  0.00000000000E+00 0.  1.
<mgrwt>
<rscale>  0 0.91252734E+02</rscale>
<asrwt>0</asrwt>
<pdfrwt beam="1">  1        2 0.49970461E-01 0.91252734E+02</pdfrwt>
<pdfrwt beam="2">  1       -2 0.98603360E-03 0.91252734E+02</pdfrwt>
<totfact> 0.18462883E+05</totfact>
</mgrwt>
</event>
<event>
 7    1  0.3056193E-009  0.9893119E+02  0.7818608E-02  0.1282560E+00
          2   -1    0    0  501    0  0.00000000000E+00  0.00000000000E+00  0.80786253719E+03  0.80786253720E+03  0.25500000000E-02 0. -1.
         -2   -1    0    0    0  501 -0.00000000000E+00 -0.00000000000E+00 -0.30287882551E+01  0.30287893285E+01  0.25500000000E-02 0.  1.
         23    2    1    2    0    0  0.00000000000E+00  0.00000000000E+00  0.80483374894E+03  0.81089132653E+03  0.98931188232E+02 0.  0.
    9000005    2    3    3    0    0 -0.19804648554E+02 -0.24325046167E+02  0.71455168385E+03  0.71531526649E+03  0.10386992145E+02 0.  0.
         22    1    3    3    0    0  0.19804648554E+02  0.24325046167E+02  0.90282065091E+02  0.95576060038E+02  0.00000000000E+00 0.  1.
         22    1    4    4    0    0 -0.10783575244E+02 -0.17337015388E+02  0.35863322735E+03  0.35921393258E+03  0.00000000000E+00 0.  1.
         22    1    4    4    0    0 -0.90210733101E+01 -0.69880307792E+01  0.35591845650E+03  0.35610133391E+03  0.00000000000E+00 0.  1.
<mgrwt>
<rscale>  0 0.98931188E+02</rscale>
<asrwt>0</asrwt>
<pdfrwt beam="1">  1        2 0.12428661E+00 0.98931188E+02</pdfrwt>
<pdfrwt beam="2">  1       -2 0.46596727E-03 0.98931188E+02</pdfrwt>
<totfact> 0.19672360E+05</totfact>
</mgrwt>
</event>
<event>
 7    1  0.3056193E-009  0.9290664E+02  0.7818608E-02  0.1295962E+00
          2   -1    0    0  501    0  0.00000000000E+00  0.00000000000E+00  0.33887024024E+03  0.33887024025E+03  0.25500000000E-02 0. -1.
         -2   -1    0    0    0  501 -0.00000000000E+00 -0.00000000000E+00 -0.63679561610E+01  0.63679566715E+01  0.25500000000E-02 0.  1.
         23    2    1    2    0    0  0.00000000000E+00  0.00000000000E+00  0.33250228408E+03  0.34523819692E+03  0.92906639675E+02 0.  0.
    9000005    2    3    3    0    0 -0.17055295046E+02 -0.39569265250E+02  0.23069092347E+03  0.23468430513E+03  0.13457565613E+01 0.  0.
         22    1    3    3    0    0  0.17055295046E+02  0.39569265250E+02  0.10181136061E+03  0.11055389180E+03  0.00000000000E+00 0.  1.
         22    1    4    4    0    0 -0.74062875421E+01 -0.15768163070E+02  0.95148467059E+02  0.96730134113E+02  0.00000000000E+00 0.  1.
         22    1    4    4    0    0 -0.96490075037E+01 -0.23801102179E+02  0.13554245641E+03  0.13795417101E+03  0.00000000000E+00 0.  1.
<mgrwt>
<rscale>  0 0.92906640E+02</rscale>
<asrwt>0</asrwt>
<pdfrwt beam="1">  1        2 0.52133869E-01 0.92906640E+02</pdfrwt>
<pdfrwt beam="2">  1       -2 0.97968586E-03 0.92906640E+02</pdfrwt>
<totfact> 0.17876788E+05</totfact>
</mgrwt>
</event>
<event>
 7    1  0.3056193E-009  0.8813751E+02  0.7818608E-02  0.1307426E+00
         -2   -1    0    0    0  501 -0.00000000000E+00  0.00000000000E+00  0.44375910880E+02  0.44375910953E+02  0.25500000000E-02 0.  1.
          2   -1    0    0  501    0  0.00000000000E+00 -0.00000000000E+00 -0.43763726198E+02  0.43763726272E+02  0.25500000000E-02 0. -1.
         23    2    1    2    0    0  0.35527136788E-14  0.00000000000E+00  0.61218468175E+00  0.88139637225E+02  0.88137511197E+02 0.  0.
    9000005    2    3    3    0    0  0.25660435541E+02 -0.19025145922E+02  0.29212910962E+02  0.45262887426E+02  0.13225758269E+02 0.  0.
         22    1    3    3    0    0 -0.25660435541E+02  0.19025145922E+02 -0.28600726281E+02  0.42876749799E+02  0.00000000000E+00 0. -1.
         22    1    4    4    0    0  0.94129599610E+01 -0.20876988879E+00  0.10790255627E+02  0.14320510347E+02  0.00000000000E+00 0. -1.
         22    1    4    4    0    0  0.16247475580E+02 -0.18816376033E+02  0.18422655335E+02  0.30942377080E+02  0.00000000000E+00 0. -1.
<mgrwt>
<rscale>  0 0.88137511E+02</rscale>
<asrwt>0</asrwt>
<pdfrwt beam="2">  1        2 0.67328809E-02 0.88137511E+02</pdfrwt>
<pdfrwt beam="1">  1       -2 0.68270633E-02 0.88137511E+02</pdfrwt>
<totfact> 0.10759585E+05</totfact>
</mgrwt>
</event>
<event>
 7    1  0.3056193E-009  0.9103717E+02  0.7818608E-02  0.1300359E+00
         -2   -1    0    0    0  501 -0.00000000000E+00  0.00000000000E+00  0.20058930546E+01  0.20058946755E+01  0.25500000000E-02 0.  1.
          2   -1    0    0  501    0  0.00000000000E+00 -0.00000000000E+00 -0.10329268827E+04  0.10329268827E+04  0.25500000000E-02 0. -1.
         23    2    1    2    0    0  0.00000000000E+00  0.00000000000E+00 -0.10309209896E+04  0.10349327773E+04  0.91037172633E+02 0.  0.
    9000005    2    3    3    0    0 -0.68490750921E+01  0.28511775507E+02 -0.90994595853E+03  0.91045470973E+03  0.81424720200E+01 0.  0.
         22    1    3    3    0    0  0.68490750921E+01 -0.28511775507E+02 -0.12097503108E+03  0.12447806761E+03  0.00000000000E+00 0.  1.
         22    1    4    4    0    0 -0.79939472488E+01  0.16179329435E+02 -0.53706631210E+03  0.53736942367E+03  0.00000000000E+00 0. -1.
         22    1    4    4    0    0  0.11448721567E+01  0.12332446072E+02 -0.37287964643E+03  0.37308528607E+03  0.00000000000E+00 0. -1.
<mgrwt>
<rscale>  0 0.91037173E+02</rscale>
<asrwt>0</asrwt>
<pdfrwt beam="2">  1        2 0.15891140E+00 0.91037173E+02</pdfrwt>
<pdfrwt beam="1">  1       -2 0.30859988E-03 0.91037173E+02</pdfrwt>
<totfact> 0.25128264E+05</totfact>
</mgrwt>
</event>
<event>
 6    1  0.3056193E-009  0.1416781E+03  0.7818608E-02  0.1211089E+00
         -2   -1    0    0    0  501 -0.00000000000E+00  0.00000000000E+00  0.71372509384E+02  0.71372509429E+02  0.25500000000E-02 0. -1.
          2   -1    0    0  501    0  0.00000000000E+00 -0.00000000000E+00 -0.70309570934E+02  0.70309570980E+02  0.25500000000E-02 0.  1.
    9000005    2    1    2    0    0 -0.84960808616E+01  0.68614488153E+02  0.15587291719E+02  0.71034446249E+02  0.47746744617E+01 0.  0.
         22    1    1    2    0    0  0.84960808616E+01 -0.68614488153E+02 -0.14524353269E+02  0.70647634160E+02  0.00000000000E+00 0.  1.
         22    1    3    3    0    0 -0.59371197773E+01  0.38248308521E+02  0.10817909624E+02  0.40189671118E+02  0.00000000000E+00 0.  1.
         22    1    3    3    0    0 -0.25589610844E+01  0.30366179632E+02  0.47693820955E+01  0.30844775130E+02  0.00000000000E+00 0.  1.
<mgrwt>
<rscale>  0 0.14167809E+03</rscale>
<asrwt>0</asrwt>
<pdfrwt beam="2">  1        2 0.10816857E-01 0.14167809E+03</pdfrwt>
<pdfrwt beam="1">  1       -2 0.10980386E-01 0.14167809E+03</pdfrwt>
<totfact> 0.30581645E+04</totfact>
</mgrwt>
</event>
<event>
 7    1  0.3056193E-009  0.9043638E+02  0.7818608E-02  0.1301798E+00
          2   -1    0    0  501    0  0.00000000000E+00  0.00000000000E+00  0.43379959561E+03  0.43379959562E+03  0.25500000000E-02 0. -1.
         -2   -1    0    0    0  501 -0.00000000000E+00 -0.00000000000E+00 -0.47134311174E+01  0.47134318071E+01  0.25500000000E-02 0.  1.
         23    2    1    2    0    0  0.00000000000E+00  0.00000000000E+00  0.42908616450E+03  0.43851302743E+03  0.90436379086E+02 0.  0.
    9000005    2    3    3    0    0 -0.28155968369E+02 -0.19962064915E+02  0.35206742328E+03  0.35411439540E+03  0.15946532567E+02 0.  0.
         22    1    3    3    0    0  0.28155968369E+02  0.19962064915E+02  0.77018741216E+02  0.84398632032E+02  0.00000000000E+00 0.  1.
         22    1    4    4    0    0 -0.12172247405E+02  0.34516198550E+00  0.11283123469E+03  0.11348643208E+03  0.00000000000E+00 0. -1.
         22    1    4    4    0    0 -0.15983720964E+02 -0.20307226900E+02  0.23923618859E+03  0.24062796332E+03  0.00000000000E+00 0. -1.
<mgrwt>
<rscale>  0 0.90436379E+02</rscale>
<asrwt>0</asrwt>
<pdfrwt beam="1">  1        2 0.66738417E-01 0.90436379E+02</pdfrwt>
<pdfrwt beam="2">  1       -2 0.72514311E-03 0.90436379E+02</pdfrwt>
<totfact> 0.20990907E+05</totfact>
</mgrwt>
</event>
<event>
 7    1  0.3056193E-009  0.9433810E+02  0.7818608E-02  0.1292674E+00
         -2   -1    0    0    0  501 -0.00000000000E+00  0.00000000000E+00  0.55650554749E+01  0.55650560592E+01  0.25500000000E-02 0.  1.
          2   -1    0    0  501    0  0.00000000000E+00 -0.00000000000E+00 -0.39980181138E+03  0.39980181139E+03  0.25500000000E-02 0. -1.
         23    2    1    2    0    0  0.00000000000E+00  0.00000000000E+00 -0.39423675590E+03  0.40536686745E+03  0.94338102151E+02 0.  0.
    9000005    2    3    3    0    0  0.12541123093E+02 -0.44427549083E+02 -0.19840023333E+03  0.20416291505E+03  0.13738864957E+02 0.  0.
         22    1    3    3    0    0 -0.12541123093E+02  0.44427549083E+02 -0.19583652257E+03  0.20120395239E+03  0.00000000000E+00 0. -1.
         22    1    4    4    0    0 -0.28471475917E+01 -0.41721571185E+01 -0.22550204289E+02  0.23108977863E+02  0.00000000000E+00 0.  1.
         22    1    4    4    0    0  0.15388270685E+02 -0.40255391965E+02 -0.17585002904E+03  0.18105393719E+03  0.00000000000E+00 0.  1.
<mgrwt>
<rscale>  0 0.94338102E+02</rscale>
<asrwt>0</asrwt>
<pdfrwt beam="2">  1        2 0.61507948E-01 0.94338102E+02</pdfrwt>
<pdfrwt beam="1">  1       -2 0.85616274E-03 0.94338102E+02</pdfrwt>
<totfact> 0.18228399E+05</totfact>
</mgrwt>
</event>
<event>
 7    1  0.3056193E-009  0.9086292E+02  0.7818608E-02  0.1300775E+00
          2   -1    0    0  501    0  0.00000000000E+00  0.00000000000E+00  0.22935390191E+02  0.22935390333E+02  0.25500000000E-02 0. -1.
         -2   -1    0    0    0  501 -0.00000000000E+00 -0.00000000000E+00 -0.89992694120E+02  0.89992694157E+02  0.25500000000E-02 0.  1.
         23    2    1    2    0    0  0.00000000000E+00  0.00000000000E+00 -0.67057303929E+02  0.11292808449E+03  0.90862920139E+02 0.  0.
    9000005    2    3    3    0    0  0.32705131421E+02  0.23935560193E+02 -0.89051177525E+01  0.42046398419E+02  0.67868869729E+01 0.  0.
         22    1    3    3    0    0 -0.32705131421E+02 -0.23935560193E+02 -0.58152186177E+02  0.70881686070E+02  0.00000000000E+00 0.  1.
         22    1    4    4    0    0  0.16649508553E+02  0.16335454696E+02 -0.53470268925E+01  0.23929979352E+02  0.00000000000E+00 0.  1.
         22    1    4    4    0    0  0.16055622868E+02  0.76001054968E+01 -0.35580908600E+01  0.18116419067E+02  0.00000000000E+00 0.  1.
<mgrwt>
<rscale>  0 0.90862920E+02</rscale>
<asrwt>0</asrwt>
<pdfrwt beam="1">  1        2 0.35285216E-02 0.90862920E+02</pdfrwt>
<pdfrwt beam="2">  1       -2 0.13845030E-01 0.90862920E+02</pdfrwt>
<totfact> 0.83011673E+04</totfact>
</mgrwt>
</event>
<event>
 7    1  0.3056193E-009  0.9104040E+02  0.7818608E-02  0.1300352E+00
          2   -1    0    0  501    0  0.00000000000E+00  0.00000000000E+00  0.34246400951E+03  0.34246400952E+03  0.25500000000E-02 0.  1.
         -2   -1    0    0    0  501 -0.00000000000E+00 -0.00000000000E+00 -0.60505289717E+01  0.60505295091E+01  0.25500000000E-02 0. -1.
         23    2    1    2    0    0  0.00000000000E+00  0.00000000000E+00  0.33641348054E+03  0.34851453903E+03  0.91040397771E+02 0.  0.
    9000005    2    3    3    0    0 -0.38160076878E+02  0.10885875040E+02  0.24918155932E+03  0.25268081938E+03  0.13470457806E+02 0.  0.
         22    1    3    3    0    0  0.38160076878E+02 -0.10885875040E+02  0.87231921217E+02  0.95833719650E+02  0.00000000000E+00 0.  1.
         22    1    4    4    0    0 -0.31453284796E+02  0.11826052212E+02  0.17545315291E+03  0.17864202614E+03  0.00000000000E+00 0.  1.
         22    1    4    4    0    0 -0.67067920821E+01 -0.94017717293E+00  0.73728406406E+02  0.74038793239E+02  0.00000000000E+00 0.  1.
<mgrwt>
<rscale>  0 0.91040398E+02</rscale>
<asrwt>0</asrwt>
<pdfrwt beam="1">  1        2 0.52686789E-01 0.91040398E+02</pdfrwt>
<pdfrwt beam="2">  1       -2 0.93085034E-03 0.91040398E+02</pdfrwt>
<totfact> 0.18943907E+05</totfact>
</mgrwt>
</event>
<event>
 7    1  0.3056193E-009  0.7803733E+02  0.7818608E-02  0.1334715E+00
         -2   -1    0    0    0  501 -0.00000000000E+00  0.00000000000E+00  0.15501950565E+02  0.15501950775E+02  0.25500000000E-02 0.  1.
          2   -1    0    0  501    0  0.00000000000E+00 -0.00000000000E+00 -0.98210612320E+02  0.98210612354E+02  0.25500000000E-02 0. -1.
         23    2    1    2    0    0  0.00000000000E+00  0.00000000000E+00 -0.82708661755E+02  0.11371256313E+03  0.78037326222E+02 0.  0.
    9000005    2    3    3    0    0  0.22765897057E+02 -0.39457511669E+01 -0.86976517680E+02  0.90216401415E+02  0.63426678532E+01 0.  0.
         22    1    3    3    0    0 -0.22765897057E+02  0.39457511669E+01  0.42678559246E+01  0.23496161714E+02  0.00000000000E+00 0.  1.
         22    1    4    4    0    0  0.13605229031E+02 -0.54739237525E+01 -0.52133980829E+02  0.54157345349E+02  0.00000000000E+00 0.  1.
         22    1    4    4    0    0  0.91606680258E+01  0.15281725856E+01 -0.34842536851E+02  0.36059056066E+02  0.00000000000E+00 0.  1.
<mgrwt>
<rscale>  0 0.78037326E+02</rscale>
<asrwt>0</asrwt>
<pdfrwt beam="2">  1        2 0.15109325E-01 0.78037326E+02</pdfrwt>
<pdfrwt beam="1">  1       -2 0.23849155E-02 0.78037326E+02</pdfrwt>
<totfact> 0.18637167E+05</totfact>
</mgrwt>
</event>
<event>
 7    1  0.3056193E-009  0.8633367E+02  0.7818608E-02  0.1311981E+00
         -2   -1    0    0    0  501 -0.00000000000E+00  0.00000000000E+00  0.69116886722E+02  0.69116886769E+02  0.25500000000E-02 0.  1.
          2   -1    0    0  501    0  0.00000000000E+00 -0.00000000000E+00 -0.26959775668E+02  0.26959775789E+02  0.25500000000E-02 0. -1.
         23    2    1    2    0    0  0.00000000000E+00  0.00000000000E+00  0.42157111054E+02  0.96076662557E+02  0.86333672896E+02 0.  0.
    9000005    2    3    3    0    0 -0.10476520292E+02  0.19477012255E+02 -0.19771668751E+02  0.30317364721E+02  0.62539775071E+01 0.  0.
         22    1    3    3    0    0  0.10476520292E+02 -0.19477012255E+02  0.61928779805E+02  0.65759297836E+02  0.00000000000E+00 0.  1.
         22    1    4    4    0    0 -0.23187734071E+01  0.18391763507E+01 -0.53627980165E+01  0.61252658986E+01  0.00000000000E+00 0.  1.
         22    1    4    4    0    0 -0.81577468849E+01  0.17637835904E+02 -0.14408870734E+02  0.24192098823E+02  0.00000000000E+00 0.  1.
<mgrwt>
<rscale>  0 0.86333673E+02</rscale>
<asrwt>0</asrwt>
<pdfrwt beam="2">  1        2 0.41476579E-02 0.86333673E+02</pdfrwt>
<pdfrwt beam="1">  1       -2 0.10633367E-01 0.86333673E+02</pdfrwt>
<totfact> 0.10110137E+05</totfact>
</mgrwt>
</event>
<event>
 7    1  0.3056193E-009  0.9105373E+02  0.7818608E-02  0.1300320E+00
          2   -1    0    0  501    0  0.00000000000E+00  0.00000000000E+00  0.12018787872E+03  0.12018787874E+03  0.25500000000E-02 0. -1.
         -2   -1    0    0    0  501 -0.00000000000E+00 -0.00000000000E+00 -0.17245460177E+02  0.17245460365E+02  0.25500000000E-02 0.  1.
         23    2    1    2    0    0  0.00000000000E+00  0.00000000000E+00  0.10294241854E+03  0.13743333911E+03  0.91053726798E+02 0.  0.
    9000005    2    3    3    0    0 -0.30093252386E+02  0.30880421822E+02  0.32360873306E+02  0.54723250132E+02  0.93916821053E+01 0.  0.
         22    1    3    3    0    0  0.30093252386E+02 -0.30880421822E+02  0.70581545234E+02  0.82710088977E+02  0.00000000000E+00 0.  1.
         22    1    4    4    0    0 -0.26401412781E+02  0.29539620841E+02  0.26486288367E+02  0.47656555349E+02  0.00000000000E+00 0.  1.
         22    1    4    4    0    0 -0.36918396055E+01  0.13408009803E+01  0.58745849397E+01  0.70666947830E+01  0.00000000000E+00 0.  1.
<mgrwt>
<rscale>  0 0.91053727E+02</rscale>
<asrwt>0</asrwt>
<pdfrwt beam="1">  1        2 0.18490442E-01 0.91053727E+02</pdfrwt>
<pdfrwt beam="2">  1       -2 0.26531478E-02 0.91053727E+02</pdfrwt>
<totfact> 0.13041044E+05</totfact>
</mgrwt>
</event>
<event>
 7    1  0.3056193E-009  0.1264836E+03  0.7818608E-02  0.1232769E+00
         -2   -1    0    0    0  501 -0.00000000000E+00  0.00000000000E+00  0.20103173345E+02  0.20103173507E+02  0.25500000000E-02 0.  1.
          2   -1    0    0  501    0  0.00000000000E+00 -0.00000000000E+00 -0.19894981229E+03  0.19894981231E+03  0.25500000000E-02 0. -1.
         23    2    1    2    0    0  0.44408920985E-15 -0.71054273576E-14 -0.17884663895E+03  0.21905298581E+03  0.12648355756E+03 0.  0.
    9000005    2    3    3    0    0  0.25669094133E+01 -0.62792106479E+02 -0.77464211361E+02  0.99772500055E+02  0.21000155537E+01 0.  0.
         22    1    3    3    0    0 -0.25669094133E+01  0.62792106479E+02 -0.10138242759E+03  0.11928048576E+03  0.00000000000E+00 0. -1.
         22    1    4    4    0    0  0.11520196169E+00 -0.10609952523E+02 -0.14243563565E+02  0.17761291256E+02  0.00000000000E+00 0.  1.
         22    1    4    4    0    0  0.24517074516E+01 -0.52182153956E+02 -0.63220647796E+02  0.82011208799E+02  0.00000000000E+00 0.  1.
<mgrwt>
<rscale>  0 0.12648356E+03</rscale>
<asrwt>0</asrwt>
<pdfrwt beam="2">  1        2 0.30607662E-01 0.12648356E+03</pdfrwt>
<pdfrwt beam="1">  1       -2 0.30927960E-02 0.12648356E+03</pdfrwt>
<totfact> 0.62757507E+04</totfact>
</mgrwt>
</event>
<event>
 7    1  0.3056193E-009  0.1030839E+03  0.7818608E-02  0.1273941E+00
          2   -1    0    0  501    0  0.00000000000E+00  0.00000000000E+00  0.37422057129E+01  0.37422065817E+01  0.25500000000E-02 0. -1.
         -2   -1    0    0    0  501 -0.00000000000E+00 -0.00000000000E+00 -0.70989527790E+03  0.70989527790E+03  0.25500000000E-02 0.  1.
         23    2    1    2    0    0  0.00000000000E+00  0.00000000000E+00 -0.70615307218E+03  0.71363748448E+03  0.10308393621E+03 0.  0.
    9000005    2    3    3    0    0 -0.15534656808E+02 -0.62595929117E+01 -0.69013662482E+03  0.69046347637E+03  0.13066875200E+02 0.  0.
         22    1    3    3    0    0  0.15534656808E+02  0.62595929117E+01 -0.16016447366E+02  0.23174008108E+02  0.00000000000E+00 0. -1.
         22    1    4    4    0    0 -0.16786827226E+02 -0.70146765766E+01 -0.67722175894E+03  0.67746609808E+03  0.00000000000E+00 0.  1.
         22    1    4    4    0    0  0.12521704186E+01  0.75508366484E+00 -0.12914865874E+02  0.12997378298E+02  0.00000000000E+00 0.  1.
<mgrwt>
<rscale>  0 0.10308394E+03</rscale>
<asrwt>0</asrwt>
<pdfrwt beam="1">  1        2 0.57572458E-03 0.10308394E+03</pdfrwt>
<pdfrwt beam="2">  1       -2 0.10921455E+00 0.10308394E+03</pdfrwt>
<totfact> 0.19476135E+04</totfact>
</mgrwt>
</event>
<event>
 7    1  0.3056193E-009  0.9202113E+02  0.7818608E-02  0.1298030E+00
          2   -1    0    0  501    0  0.00000000000E+00  0.00000000000E+00  0.19808074229E+03  0.19808074230E+03  0.25500000000E-02 0. -1.
         -2   -1    0    0    0  501 -0.00000000000E+00 -0.00000000000E+00 -0.10687419335E+02  0.10687419639E+02  0.25500000000E-02 0.  1.
         23    2    1    2    0    0 -0.44408920985E-15  0.00000000000E+00  0.18739332295E+03  0.20876816194E+03  0.92021127757E+02 0.  0.
    9000005    2    3    3    0    0  0.35755166089E+01  0.45117238163E+02  0.84218689233E+02  0.96103373559E+02  0.97324865631E+01 0.  0.
         22    1    3    3    0    0 -0.35755166089E+01 -0.45117238163E+02  0.10317463372E+03  0.11266478838E+03  0.00000000000E+00 0.  1.
         22    1    4    4    0    0  0.32020442475E+01  0.36668889625E+02  0.59364180559E+02  0.69849599048E+02  0.00000000000E+00 0. -1.
         22    1    4    4    0    0  0.37347236144E+00  0.84483485377E+01  0.24854508674E+02  0.26253774511E+02  0.00000000000E+00 0. -1.
<mgrwt>
<rscale>  0 0.92021128E+02</rscale>
<asrwt>0</asrwt>
<pdfrwt beam="1">  1        2 0.30473961E-01 0.92021128E+02</pdfrwt>
<pdfrwt beam="2">  1       -2 0.16442184E-02 0.92021128E+02</pdfrwt>
<totfact> 0.15035758E+05</totfact>
</mgrwt>
</event>
<event>
 7    1  0.3056193E-009  0.9176311E+02  0.7818608E-02  0.1298637E+00
          2   -1    0    0  501    0  0.00000000000E+00  0.00000000000E+00  0.27698190083E+01  0.27698201821E+01  0.25500000000E-02 0.  1.
         -2   -1    0    0    0  501 -0.00000000000E+00 -0.00000000000E+00 -0.76001960983E+03  0.76001960984E+03  0.25500000000E-02 0. -1.
         23    2    1    2    0    0  0.00000000000E+00 -0.11102230246E-15 -0.75724979082E+03  0.76278943002E+03  0.91763112661E+02 0.  0.
    9000005    2    3    3    0    0 -0.24576975012E+02 -0.61219290733E+00 -0.69897976354E+03  0.69954546936E+03  0.13665700627E+02 0.  0.
         22    1    3    3    0    0  0.24576975012E+02  0.61219290733E+00 -0.58270027278E+02  0.63243960659E+02  0.00000000000E+00 0.  1.
         22    1    4    4    0    0 -0.55467176883E+00  0.28502332177E+01 -0.34282897619E+02  0.34405647201E+02  0.00000000000E+00 0.  1.
         22    1    4    4    0    0 -0.24022303243E+02 -0.34624261250E+01 -0.66469686593E+03  0.66513982216E+03  0.00000000000E+00 0.  1.
<mgrwt>
<rscale>  0 0.91763113E+02</rscale>
<asrwt>0</asrwt>
<pdfrwt beam="1">  1        2 0.42612670E-03 0.91763113E+02</pdfrwt>
<pdfrwt beam="2">  1       -2 0.11692593E+00 0.91763113E+02</pdfrwt>
<totfact> 0.24694050E+04</totfact>
</mgrwt>
</event>
<event>
 7    1  0.3056193E-009  0.8801431E+02  0.7818608E-02  0.1307733E+00
         -2   -1    0    0    0  501 -0.00000000000E+00  0.00000000000E+00  0.10107846616E+02  0.10107846937E+02  0.25500000000E-02 0. -1.
          2   -1    0    0  501    0  0.00000000000E+00 -0.00000000000E+00 -0.19159667208E+03  0.19159667210E+03  0.25500000000E-02 0.  1.
         23    2    1    2    0    0  0.00000000000E+00  0.00000000000E+00 -0.18148882546E+03  0.20170451903E+03  0.88014312645E+02 0.  0.
    9000005    2    3    3    0    0 -0.35928973905E+02 -0.25417595946E+01 -0.32954253575E+02  0.48865156453E+02  0.21139959412E+01 0.  0.
         22    1    3    3    0    0  0.35928973905E+02  0.25417595946E+01 -0.14853457189E+03  0.15283936258E+03  0.00000000000E+00 0.  1.
         22    1    4    4    0    0 -0.18667589577E+01  0.28515688778E+00 -0.20288411227E+01  0.27716961879E+01  0.00000000000E+00 0. -1.
         22    1    4    4    0    0 -0.34062214947E+02 -0.28269164824E+01 -0.30925412452E+02  0.46093460266E+02  0.00000000000E+00 0. -1.
<mgrwt>
<rscale>  0 0.88014313E+02</rscale>
<asrwt>0</asrwt>
<pdfrwt beam="2">  1        2 0.29476408E-01 0.88014313E+02</pdfrwt>
<pdfrwt beam="1">  1       -2 0.15550535E-02 0.88014313E+02</pdfrwt>
<totfact> 0.16746395E+05</totfact>
</mgrwt>
</event>
<event>
 7    1  0.3056193E-009  0.9088448E+02  0.7818608E-02  0.1300724E+00
         -2   -1    0    0    0  501 -0.00000000000E+00  0.00000000000E+00  0.75004002923E+02  0.75004002966E+02  0.25500000000E-02 0.  1.
          2   -1    0    0  501    0  0.00000000000E+00 -0.00000000000E+00 -0.27531825965E+02  0.27531826084E+02  0.25500000000E-02 0. -1.
         23    2    1    2    0    0 -0.71054273576E-14  0.00000000000E+00  0.47472176957E+02  0.10253582905E+03  0.90884479719E+02 0.  0.
    9000005    2    3    3    0    0  0.35987703975E+02 -0.99401387307E+01 -0.31659550553E+01  0.39622065777E+02  0.12882687204E+02 0.  0.
         22    1    3    3    0    0 -0.35987703975E+02  0.99401387307E+01  0.50638132013E+02  0.62913763273E+02  0.00000000000E+00 0.  1.
         22    1    4    4    0    0  0.13238846974E+02  0.16884169332E+01  0.21721779688E+01  0.13521692870E+02  0.00000000000E+00 0. -1.
         22    1    4    4    0    0  0.22748857001E+02 -0.11628555664E+02 -0.53381330241E+01  0.26100372907E+02  0.00000000000E+00 0. -1.
<mgrwt>
<rscale>  0 0.90884480E+02</rscale>
<asrwt>0</asrwt>
<pdfrwt beam="2">  1        2 0.42356656E-02 0.90884480E+02</pdfrwt>
<pdfrwt beam="1">  1       -2 0.11539077E-01 0.90884480E+02</pdfrwt>
<totfact> 0.87277802E+04</totfact>
</mgrwt>
</event>
<event>
 7    1  0.3056193E-009  0.9020639E+02  0.7818608E-02  0.1302353E+00
         -2   -1    0    0    0  501 -0.00000000000E+00  0.00000000000E+00  0.29447180235E+01  0.29447191276E+01  0.25500000000E-02 0.  1.
          2   -1    0    0  501    0  0.00000000000E+00 -0.00000000000E+00 -0.69082946953E+03  0.69082946953E+03  0.25500000000E-02 0. -1.
         23    2    1    2    0    0  0.00000000000E+00  0.00000000000E+00 -0.68788475150E+03  0.69377418866E+03  0.90206393891E+02 0.  0.
    9000005    2    3    3    0    0 -0.30225088551E+02 -0.93409638497E+01 -0.58691157022E+03  0.58796117943E+03  0.15242954959E+02 0.  0.
         22    1    3    3    0    0  0.30225088551E+02  0.93409638497E+01 -0.10097318129E+03  0.10581300923E+03  0.00000000000E+00 0.  1.
         22    1    4    4    0    0 -0.17039653932E+02  0.26703464465E+01 -0.30120358522E+03  0.30169700082E+03  0.00000000000E+00 0.  1.
         22    1    4    4    0    0 -0.13185434618E+02 -0.12011310296E+02 -0.28570798500E+03  0.28626417861E+03  0.00000000000E+00 0.  1.
<mgrwt>
<rscale>  0 0.90206394E+02</rscale>
<asrwt>0</asrwt>
<pdfrwt beam="2">  1        2 0.10628133E+00 0.90206394E+02</pdfrwt>
<pdfrwt beam="1">  1       -2 0.45303418E-03 0.90206394E+02</pdfrwt>
<totfact> 0.24317169E+05</totfact>
</mgrwt>
</event>
<event>
 7    1  0.3056193E-009  0.9110974E+02  0.7818608E-02  0.1300186E+00
          2   -1    0    0  501    0  0.00000000000E+00  0.00000000000E+00  0.54195567118E+03  0.54195567119E+03  0.25500000000E-02 0. -1.
         -2   -1    0    0    0  501 -0.00000000000E+00 -0.00000000000E+00 -0.38291800670E+01  0.38291809161E+01  0.25500000000E-02 0.  1.
         23    2    1    2    0    0  0.00000000000E+00  0.00000000000E+00  0.53812649112E+03  0.54578485211E+03  0.91109737935E+02 0.  0.
    9000005    2    3    3    0    0  0.75005138498E+01 -0.32722311721E+02  0.45289843170E+03  0.45418338103E+03  0.62086044906E+01 0.  0.
         22    1    3    3    0    0 -0.75005138498E+01  0.32722311721E+02  0.85228059413E+02  0.91601471078E+02  0.00000000000E+00 0.  1.
         22    1    4    4    0    0  0.51240961625E+01 -0.20460955272E+02  0.24301581300E+03  0.24392948248E+03  0.00000000000E+00 0. -1.
         22    1    4    4    0    0  0.23764176874E+01 -0.12261356449E+02  0.20988261870E+03  0.21025389855E+03  0.00000000000E+00 0. -1.
<mgrwt>
<rscale>  0 0.91109738E+02</rscale>
<asrwt>0</asrwt>
<pdfrwt beam="1">  1        2 0.83377848E-01 0.91109738E+02</pdfrwt>
<pdfrwt beam="2">  1       -2 0.58910432E-03 0.91109738E+02</pdfrwt>
<totfact> 0.22150195E+05</totfact>
</mgrwt>
</event>
<event>
 7    1  0.3056193E-009  0.9206091E+02  0.7818608E-02  0.1297936E+00
          2   -1    0    0  501    0  0.00000000000E+00  0.00000000000E+00  0.71671731777E+03  0.71671731777E+03  0.25500000000E-02 0. -1.
         -2   -1    0    0    0  501 -0.00000000000E+00 -0.00000000000E+00 -0.29562597213E+01  0.29562608211E+01  0.25500000000E-02 0.  1.
         23    2    1    2    0    0  0.00000000000E+00  0.00000000000E+00  0.71376105805E+03  0.71967357859E+03  0.92060913214E+02 0.  0.
    9000005    2    3    3    0    0  0.20115044722E+02 -0.38259087531E+02  0.46354206329E+03  0.46574855395E+03  0.13494379017E+02 0.  0.
         22    1    3    3    0    0 -0.20115044722E+02  0.38259087531E+02  0.25021899475E+03  0.25392502464E+03  0.00000000000E+00 0. -1.
         22    1    4    4    0    0 -0.15355431779E+01 -0.72296233856E+01  0.67631610235E+02  0.68034256446E+02  0.00000000000E+00 0. -1.
         22    1    4    4    0    0  0.21650587900E+02 -0.31029464146E+02  0.39591045306E+03  0.39771429751E+03  0.00000000000E+00 0. -1.
<mgrwt>
<rscale>  0 0.92060913E+02</rscale>
<asrwt>0</asrwt>
<pdfrwt beam="1">  1        2 0.11026421E+00 0.92060913E+02</pdfrwt>
<pdfrwt beam="2">  1       -2 0.45480924E-03 0.92060913E+02</pdfrwt>
<totfact> 0.23242975E+05</totfact>
</mgrwt>
</event>
<event>
 7    1  0.3056193E-009  0.9146651E+02  0.7818608E-02  0.1299339E+00
         -2   -1    0    0    0  501 -0.00000000000E+00  0.00000000000E+00  0.18439528009E+02  0.18439528185E+02  0.25500000000E-02 0.  1.
          2   -1    0    0  501    0  0.00000000000E+00 -0.00000000000E+00 -0.11342646252E+03  0.11342646255E+03  0.25500000000E-02 0. -1.
         23    2    1    2    0    0  0.00000000000E+00  0.00000000000E+00 -0.94986934509E+02  0.13186599073E+03  0.91466506353E+02 0.  0.
    9000005    2    3    3    0    0 -0.17946743565E+02  0.14986540976E+02 -0.10331585065E+03  0.10704557859E+03  0.15424295295E+02 0.  0.
         22    1    3    3    0    0  0.17946743565E+02 -0.14986540976E+02  0.83289161371E+01  0.24820412145E+02  0.00000000000E+00 0.  1.
         22    1    4    4    0    0 -0.10772019156E+02  0.91553526560E-01 -0.52981132747E+02  0.54065194033E+02  0.00000000000E+00 0. -1.
         22    1    4    4    0    0 -0.71747244089E+01  0.14894987449E+02 -0.50334717899E+02  0.52980384554E+02  0.00000000000E+00 0. -1.
<mgrwt>
<rscale>  0 0.91466506E+02</rscale>
<asrwt>0</asrwt>
<pdfrwt beam="2">  1        2 0.17450225E-01 0.91466506E+02</pdfrwt>
<pdfrwt beam="1">  1       -2 0.28368506E-02 0.91466506E+02</pdfrwt>
<totfact> 0.12645543E+05</totfact>
</mgrwt>
</event>
<event>
 7    1  0.3056193E-009  0.9020646E+02  0.7818608E-02  0.1302352E+00
         -2   -1    0    0    0  501 -0.00000000000E+00  0.00000000000E+00  0.20568540195E+02  0.20568540353E+02  0.25500000000E-02 0. -1.
          2   -1    0    0  501    0  0.00000000000E+00 -0.00000000000E+00 -0.98903529933E+02  0.98903529966E+02  0.25500000000E-02 0.  1.
         23    2    1    2    0    0  0.22204460493E-15  0.00000000000E+00 -0.78334989739E+02  0.11947207032E+03  0.90206457468E+02 0.  0.
    9000005    2    3    3    0    0 -0.17191810101E+01 -0.44537439696E+02 -0.46108487677E+02  0.64471283478E+02  0.66343529754E+01 0.  0.
         22    1    3    3    0    0  0.17191810101E+01  0.44537439696E+02 -0.32226502062E+02  0.55000786841E+02  0.00000000000E+00 0.  1.
         22    1    4    4    0    0 -0.21889470977E+01 -0.81432660219E+01 -0.62583262434E+01  0.10500996061E+02  0.00000000000E+00 0. -1.
         22    1    4    4    0    0  0.46976608757E+00 -0.36394173674E+02 -0.39850161434E+02  0.53970287417E+02  0.00000000000E+00 0. -1.
<mgrwt>
<rscale>  0 0.90206457E+02</rscale>
<asrwt>0</asrwt>
<pdfrwt beam="2">  1        2 0.15215928E-01 0.90206457E+02</pdfrwt>
<pdfrwt beam="1">  1       -2 0.31643909E-02 0.90206457E+02</pdfrwt>
<totfact> 0.12591699E+05</totfact>
</mgrwt>
</event>
<event>
 7    1  0.3056193E-009  0.9151046E+02  0.7818608E-02  0.1299235E+00
         -2   -1    0    0    0  501 -0.00000000000E+00  0.00000000000E+00  0.68018497550E+01  0.68018502330E+01  0.25500000000E-02 0.  1.
          2   -1    0    0  501    0  0.00000000000E+00 -0.00000000000E+00 -0.30778996383E+03  0.30778996384E+03  0.25500000000E-02 0. -1.
         23    2    1    2    0    0  0.00000000000E+00 -0.55511151231E-16 -0.30098811407E+03  0.31459181407E+03  0.91510462066E+02 0.  0.
    9000005    2    3    3    0    0  0.10043200142E+02  0.32592990056E+00 -0.30392801144E+03  0.30412209125E+03  0.41277295068E+01 0.  0.
         22    1    3    3    0    0 -0.10043200142E+02 -0.32592990056E+00  0.29398973662E+01  0.10469722819E+02  0.00000000000E+00 0.  1.
         22    1    4    4    0    0  0.10311763053E+01  0.13580882350E+01 -0.35626660753E+02  0.35667445726E+02  0.00000000000E+00 0.  1.
         22    1    4    4    0    0  0.90120238364E+01 -0.10321583344E+01 -0.26830135069E+03  0.26845464553E+03  0.00000000000E+00 0.  1.
<mgrwt>
<rscale>  0 0.91510462E+02</rscale>
<asrwt>0</asrwt>
<pdfrwt beam="2">  1        2 0.47352291E-01 0.91510462E+02</pdfrwt>
<pdfrwt beam="1">  1       -2 0.10464387E-02 0.91510462E+02</pdfrwt>
<totfact> 0.17962232E+05</totfact>
</mgrwt>
</event>
<event>
 7    1  0.3056193E-009  0.9021826E+02  0.7818608E-02  0.1302324E+00
         -2   -1    0    0    0  501 -0.00000000000E+00  0.00000000000E+00  0.13471736813E+03  0.13471736816E+03  0.25500000000E-02 0.  1.
          2   -1    0    0  501    0  0.00000000000E+00 -0.00000000000E+00 -0.15104463625E+02  0.15104463840E+02  0.25500000000E-02 0. -1.
         23    2    1    2    0    0  0.17763568394E-14 -0.71054273576E-14  0.11961290451E+03  0.14982183200E+03  0.90218259894E+02 0.  0.
    9000005    2    3    3    0    0  0.14952737086E+02 -0.34342183097E+02  0.21300663985E+02  0.44616002677E+02  0.11571496120E+02 0.  0.
         22    1    3    3    0    0 -0.14952737086E+02  0.34342183097E+02  0.98312240525E+02  0.10520582932E+03  0.00000000000E+00 0. -1.
         22    1    4    4    0    0  0.69306700554E+01 -0.14897175226E+02  0.29323337840E+01  0.16690074852E+02  0.00000000000E+00 0.  1.
         22    1    4    4    0    0  0.80220670309E+01 -0.19445007871E+02  0.18368330201E+02  0.27925927826E+02  0.00000000000E+00 0.  1.
<mgrwt>
<rscale>  0 0.90218260E+02</rscale>
<asrwt>0</asrwt>
<pdfrwt beam="2">  1        2 0.23237637E-02 0.90218260E+02</pdfrwt>
<pdfrwt beam="1">  1       -2 0.20725748E-01 0.90218260E+02</pdfrwt>
<totfact> 0.74520404E+04</totfact>
</mgrwt>
</event>
<event>
 7    1  0.3056193E-009  0.9032416E+02  0.7818608E-02  0.1302069E+00
          2   -1    0    0  501    0  0.00000000000E+00  0.00000000000E+00  0.61848892405E+02  0.61848892457E+02  0.25500000000E-02 0.  1.
         -2   -1    0    0    0  501 -0.00000000000E+00 -0.00000000000E+00 -0.32977366579E+02  0.32977366677E+02  0.25500000000E-02 0. -1.
         23    2    1    2    0    0 -0.44408920985E-15  0.00000000000E+00  0.28871525826E+02  0.94826259135E+02  0.90324162980E+02 0.  0.
    9000005    2    3    3    0    0 -0.36621509333E+01  0.97952837240E+01 -0.31132804077E+02  0.33917486862E+02  0.84726319797E+01 0.  0.
         22    1    3    3    0    0  0.36621509333E+01 -0.97952837240E+01  0.60004329903E+02  0.60908772273E+02  0.00000000000E+00 0.  1.
         22    1    4    4    0    0 -0.48637745348E+01  0.37347809692E+01 -0.22371594600E+02  0.23196834623E+02  0.00000000000E+00 0.  1.
         22    1    4    4    0    0  0.12016236015E+01  0.60605027549E+01 -0.87612094771E+01  0.10720652239E+02  0.00000000000E+00 0.  1.
<mgrwt>
<rscale>  0 0.90324163E+02</rscale>
<asrwt>0</asrwt>
<pdfrwt beam="1">  1        2 0.95152141E-02 0.90324163E+02</pdfrwt>
<pdfrwt beam="2">  1       -2 0.50734411E-02 0.90324163E+02</pdfrwt>
<totfact> 0.10980188E+05</totfact>
</mgrwt>
</event>
<event>
 7    1  0.3056193E-009  0.7277720E+02  0.7818608E-02  0.1350896E+00
         -2   -1    0    0    0  501 -0.00000000000E+00  0.00000000000E+00  0.10278851646E+03  0.10278851649E+03  0.25500000000E-02 0.  1.
          2   -1    0    0  501    0  0.00000000000E+00 -0.00000000000E+00 -0.12882083187E+02  0.12882083440E+02  0.25500000000E-02 0. -1.
         23    2    1    2    0    0  0.17763568394E-14  0.00000000000E+00  0.89906433271E+02  0.11567059993E+03  0.72777200720E+02 0.  0.
    9000005    2    3    3    0    0 -0.13697661157E+02  0.30296029028E+02  0.21801390681E+02  0.39882922025E+02  0.31419003169E+01 0.  0.
         22    1    3    3    0    0  0.13697661157E+02 -0.30296029028E+02  0.68105042590E+02  0.75787677905E+02  0.00000000000E+00 0.  1.
         22    1    4    4    0    0 -0.31911553840E+01  0.10342906728E+02  0.77618704726E+01  0.13319377819E+02  0.00000000000E+00 0.  1.
         22    1    4    4    0    0 -0.10506505773E+02  0.19953122300E+02  0.14039520209E+02  0.26563544206E+02  0.00000000000E+00 0.  1.
<mgrwt>
<rscale>  0 0.72777201E+02</rscale>
<asrwt>0</asrwt>
<pdfrwt beam="2">  1        2 0.19818590E-02 0.72777201E+02</pdfrwt>
<pdfrwt beam="1">  1       -2 0.15813618E-01 0.72777201E+02</pdfrwt>
<totfact> 0.13878447E+05</totfact>
</mgrwt>
</event>
<event>
 7    1  0.3056193E-009  0.9139947E+02  0.7818608E-02  0.1299498E+00
         -2   -1    0    0    0  501 -0.00000000000E+00  0.00000000000E+00  0.35716166380E+02  0.35716166471E+02  0.25500000000E-02 0.  1.
          2   -1    0    0  501    0  0.00000000000E+00 -0.00000000000E+00 -0.58473967459E+02  0.58473967515E+02  0.25500000000E-02 0. -1.
         23    2    1    2    0    0  0.00000000000E+00  0.00000000000E+00 -0.22757801079E+02  0.94190133986E+02  0.91399473907E+02 0.  0.
    9000005    2    3    3    0    0  0.26034870541E+02 -0.32673327125E+02  0.72495546896E+01  0.42752772179E+02  0.54665067682E+01 0.  0.
         22    1    3    3    0    0 -0.26034870541E+02  0.32673327125E+02 -0.30007355768E+02  0.51437361808E+02  0.00000000000E+00 0. -1.
         22    1    4    4    0    0  0.26876743222E-01 -0.13963754570E+01  0.66077857402E+00  0.15450615198E+01  0.00000000000E+00 0. -1.
         22    1    4    4    0    0  0.26007993798E+02 -0.31276951668E+02  0.65887761156E+01  0.41207710659E+02  0.00000000000E+00 0. -1.
<mgrwt>
<rscale>  0 0.91399474E+02</rscale>
<asrwt>0</asrwt>
<pdfrwt beam="2">  1        2 0.89959950E-02 0.91399474E+02</pdfrwt>
<pdfrwt beam="1">  1       -2 0.54947948E-02 0.91399474E+02</pdfrwt>
<totfact> 0.10461626E+05</totfact>
</mgrwt>
</event>
<event>
 7    1  0.3056193E-009  0.9086907E+02  0.7818608E-02  0.1300761E+00
          2   -1    0    0  501    0  0.00000000000E+00  0.00000000000E+00  0.34208900438E+02  0.34208900533E+02  0.25500000000E-02 0. -1.
         -2   -1    0    0    0  501 -0.00000000000E+00 -0.00000000000E+00 -0.60343854428E+02  0.60343854482E+02  0.25500000000E-02 0.  1.
         23    2    1    2    0    0 -0.35527136788E-14  0.35527136788E-14 -0.26134953990E+02  0.94552755015E+02  0.90869068780E+02 0.  0.
    9000005    2    3    3    0    0 -0.18067745266E+02  0.29001814034E+02 -0.43360759148E+02  0.56286882497E+02  0.10977662367E+02 0.  0.
         22    1    3    3    0    0  0.18067745266E+02 -0.29001814034E+02  0.17225805158E+02  0.38265872518E+02  0.00000000000E+00 0. -1.
         22    1    4    4    0    0  0.27006209645E+00 -0.18263473368E+00  0.44198325105E+00  0.54921596489E+00  0.00000000000E+00 0.  1.
         22    1    4    4    0    0 -0.18337807362E+02  0.29184448768E+02 -0.43802742399E+02  0.55737666532E+02  0.00000000000E+00 0.  1.
<mgrwt>
<rscale>  0 0.90869069E+02</rscale>
<asrwt>0</asrwt>
<pdfrwt beam="1">  1        2 0.52629078E-02 0.90869069E+02</pdfrwt>
<pdfrwt beam="2">  1       -2 0.92836699E-02 0.90869069E+02</pdfrwt>
<totfact> 0.92501062E+04</totfact>
</mgrwt>
</event>
<event>
 7    1  0.3056193E-009  0.9539651E+02  0.7818608E-02  0.1290286E+00
          2   -1    0    0  501    0  0.00000000000E+00  0.00000000000E+00  0.39682349771E+02  0.39682349853E+02  0.25500000000E-02 0. -1.
         -2   -1    0    0    0  501 -0.00000000000E+00 -0.00000000000E+00 -0.57333382379E+02  0.57333382436E+02  0.25500000000E-02 0.  1.
         23    2    1    2    0    0  0.00000000000E+00  0.00000000000E+00 -0.17651032608E+02  0.97015732289E+02  0.95396506013E+02 0.  0.
    9000005    2    3    3    0    0 -0.31482057830E+02  0.25931538632E+02 -0.33800779963E+02  0.53147987867E+02  0.43187066608E+01 0.  0.
         22    1    3    3    0    0  0.31482057830E+02 -0.25931538632E+02  0.16149747356E+02  0.43867744422E+02  0.00000000000E+00 0. -1.
         22    1    4    4    0    0 -0.28302075887E+02  0.22476297712E+02 -0.31387995491E+02  0.47868546241E+02  0.00000000000E+00 0. -1.
         22    1    4    4    0    0 -0.31799819426E+01  0.34552409201E+01 -0.24127844728E+01  0.52794416261E+01  0.00000000000E+00 0. -1.
<mgrwt>
<rscale>  0 0.95396506E+02</rscale>
<asrwt>0</asrwt>
<pdfrwt beam="1">  1        2 0.61049769E-02 0.95396506E+02</pdfrwt>
<pdfrwt beam="2">  1       -2 0.88205203E-02 0.95396506E+02</pdfrwt>
<totfact> 0.83429375E+04</totfact>
</mgrwt>
</event>
<event>
 7    1  0.3056193E-009  0.8967239E+02  0.7818608E-02  0.1303647E+00
          2   -1    0    0  501    0  0.00000000000E+00  0.00000000000E+00  0.61373404175E+03  0.61373404176E+03  0.25500000000E-02 0.  1.
         -2   -1    0    0    0  501 -0.00000000000E+00 -0.00000000000E+00 -0.32754968170E+01  0.32754978096E+01  0.25500000000E-02 0. -1.
         23    2    1    2    0    0  0.00000000000E+00  0.35527136788E-14  0.61045854493E+03  0.61700953957E+03  0.89672386120E+02 0.  0.
    9000005    2    3    3    0    0 -0.11540434616E+02 -0.29797497933E+02  0.52074610863E+03  0.52177617492E+03  0.72659856003E+01 0.  0.
         22    1    3    3    0    0  0.11540434616E+02  0.29797497933E+02  0.89712436304E+02  0.95233364645E+02  0.00000000000E+00 0. -1.
         22    1    4    4    0    0 -0.10169724419E+02 -0.18345864980E+02  0.36624074748E+03  0.36684094533E+03  0.00000000000E+00 0. -1.
         22    1    4    4    0    0 -0.13707101972E+01 -0.11451632953E+02  0.15450536115E+03  0.15493522959E+03  0.00000000000E+00 0. -1.
<mgrwt>
<rscale>  0 0.89672386E+02</rscale>
<asrwt>0</asrwt>
<pdfrwt beam="1">  1        2 0.94420654E-01 0.89672386E+02</pdfrwt>
<pdfrwt beam="2">  1       -2 0.50392249E-03 0.89672386E+02</pdfrwt>
<totfact> 0.23958646E+05</totfact>
</mgrwt>
</event>
<event>
 7    1  0.3056193E-009  0.9614445E+02  0.7818608E-02  0.1288619E+00
         -2   -1    0    0    0  501 -0.00000000000E+00  0.00000000000E+00  0.19654170854E+03  0.19654170855E+03  0.25500000000E-02 0. -1.
          2   -1    0    0  501    0  0.00000000000E+00 -0.00000000000E+00 -0.11758006894E+02  0.11758007170E+02  0.25500000000E-02 0.  1.
         23    2    1    2    0    0  0.00000000000E+00  0.35527136788E-14  0.18478370164E+03  0.20829971572E+03  0.96144449541E+02 0.  0.
    9000005    2    3    3    0    0  0.36364878909E+02 -0.27415903992E+02  0.59647364695E+02  0.75133882888E+02  0.36408835573E+01 0.  0.
         22    1    3    3    0    0 -0.36364878909E+02  0.27415903992E+02  0.12513633695E+03  0.13316583284E+03  0.00000000000E+00 0. -1.
         22    1    4    4    0    0  0.15546001056E+02 -0.97406028151E+01  0.22612785910E+02  0.29118646580E+02  0.00000000000E+00 0. -1.
         22    1    4    4    0    0  0.20818877853E+02 -0.17675301177E+02  0.37034578785E+02  0.46015236308E+02  0.00000000000E+00 0. -1.
<mgrwt>
<rscale>  0 0.96144450E+02</rscale>
<asrwt>0</asrwt>
<pdfrwt beam="2">  1        2 0.18089242E-02 0.96144450E+02</pdfrwt>
<pdfrwt beam="1">  1       -2 0.30237186E-01 0.96144450E+02</pdfrwt>
<totfact> 0.54827194E+04</totfact>
</mgrwt>
</event>
<event>
 7    1  0.3056193E-009  0.9225479E+02  0.7818608E-02  0.1297481E+00
         -2   -1    0    0    0  501 -0.00000000000E+00  0.00000000000E+00  0.66742711371E+01  0.66742716242E+01  0.25500000000E-02 0.  1.
          2   -1    0    0  501    0  0.00000000000E+00 -0.00000000000E+00 -0.31879683493E+03  0.31879683494E+03  0.25500000000E-02 0. -1.
         23    2    1    2    0    0  0.71054273576E-14  0.00000000000E+00 -0.31212256379E+03  0.32547110656E+03  0.92254790551E+02 0.  0.
    9000005    2    3    3    0    0  0.38670927637E+02  0.13601872618E+02 -0.23009296299E+03  0.23376883292E+03  0.49642769755E+01 0.  0.
         22    1    3    3    0    0 -0.38670927637E+02 -0.13601872618E+02 -0.82029600801E+02  0.91702273639E+02  0.00000000000E+00 0.  1.
         22    1    4    4    0    0  0.11820027169E+01  0.50725604232E+00 -0.13882748183E+02  0.13942207007E+02  0.00000000000E+00 0. -1.
         22    1    4    4    0    0  0.37488924920E+02  0.13094616576E+02 -0.21621021481E+03  0.21982662592E+03  0.00000000000E+00 0. -1.
<mgrwt>
<rscale>  0 0.92254791E+02</rscale>
<asrwt>0</asrwt>
<pdfrwt beam="2">  1        2 0.49045655E-01 0.92254791E+02</pdfrwt>
<pdfrwt beam="1">  1       -2 0.10268112E-02 0.92254791E+02</pdfrwt>
<totfact> 0.17808922E+05</totfact>
</mgrwt>
</event>
<event>
 7    1  0.3056193E-009  0.9232104E+02  0.7818608E-02  0.1297326E+00
         -2   -1    0    0    0  501 -0.00000000000E+00  0.00000000000E+00  0.10118838676E+02  0.10118838997E+02  0.25500000000E-02 0. -1.
          2   -1    0    0  501    0  0.00000000000E+00 -0.00000000000E+00 -0.21057688688E+03  0.21057688689E+03  0.25500000000E-02 0.  1.
         23    2    1    2    0    0  0.00000000000E+00  0.00000000000E+00 -0.20045804820E+03  0.22069572589E+03  0.92321039517E+02 0.  0.
    9000005    2    3    3    0    0  0.18087592057E+02  0.10745093372E+02 -0.19783197076E+03  0.19949397359E+03  0.14755975866E+02 0.  0.
         22    1    3    3    0    0 -0.18087592057E+02 -0.10745093372E+02 -0.26260774380E+01  0.21201752302E+02  0.00000000000E+00 0. -1.
         22    1    4    4    0    0  0.12035931299E+02 -0.10052813283E+01 -0.11216442559E+03  0.11281282108E+03  0.00000000000E+00 0. -1.
         22    1    4    4    0    0  0.60516607578E+01  0.11750374701E+02 -0.85667545175E+02  0.86681152507E+02  0.00000000000E+00 0. -1.
<mgrwt>
<rscale>  0 0.92321040E+02</rscale>
<asrwt>0</asrwt>
<pdfrwt beam="2">  1        2 0.32396441E-01 0.92321040E+02</pdfrwt>
<pdfrwt beam="1">  1       -2 0.15567446E-02 0.92321040E+02</pdfrwt>
<totfact> 0.15239510E+05</totfact>
</mgrwt>
</event>
<event>
 7    1  0.3056193E-009  0.9439910E+02  0.7818608E-02  0.1292535E+00
         -2   -1    0    0    0  501 -0.00000000000E+00  0.00000000000E+00  0.59062230084E+02  0.59062230139E+02  0.25500000000E-02 0.  1.
          2   -1    0    0  501    0  0.00000000000E+00 -0.00000000000E+00 -0.37719498909E+02  0.37719498996E+02  0.25500000000E-02 0. -1.
         23    2    1    2    0    0 -0.35527136788E-14  0.00000000000E+00  0.21342731175E+02  0.96781729135E+02  0.94399104447E+02 0.  0.
    9000005    2    3    3    0    0  0.30566657700E+02  0.22032011595E+02 -0.17484764897E+02  0.42677158634E+02  0.97924852677E+01 0.  0.
         22    1    3    3    0    0 -0.30566657700E+02 -0.22032011595E+02  0.38827496072E+02  0.54104570501E+02  0.00000000000E+00 0.  1.
         22    1    4    4    0    0  0.64023299498E+01  0.50648698190E+01 -0.85667903913E+01  0.11833538468E+02  0.00000000000E+00 0.  1.
         22    1    4    4    0    0  0.24164327750E+02  0.16967141776E+02 -0.89179745059E+01  0.30843620166E+02  0.00000000000E+00 0.  1.
<mgrwt>
<rscale>  0 0.94399104E+02</rscale>
<asrwt>0</asrwt>
<pdfrwt beam="2">  1        2 0.58029999E-02 0.94399104E+02</pdfrwt>
<pdfrwt beam="1">  1       -2 0.90864969E-02 0.94399104E+02</pdfrwt>
<totfact> 0.84876763E+04</totfact>
</mgrwt>
</event>
<event>
 7    1  0.3056193E-009  0.8934556E+02  0.7818608E-02  0.1304444E+00
         -2   -1    0    0    0  501 -0.00000000000E+00  0.00000000000E+00  0.34389187993E+03  0.34389187994E+03  0.25500000000E-02 0.  1.
          2   -1    0    0  501    0  0.00000000000E+00 -0.00000000000E+00 -0.58031523449E+01  0.58031529051E+01  0.25500000000E-02 0. -1.
         23    2    1    2    0    0 -0.35527136788E-14  0.00000000000E+00  0.33808872758E+03  0.34969503284E+03  0.89345555435E+02 0.  0.
    9000005    2    3    3    0    0 -0.15618241529E+02  0.40638641065E+02  0.18733892293E+03  0.19278444615E+03  0.13211434940E+02 0.  0.
         22    1    3    3    0    0  0.15618241529E+02 -0.40638641065E+02  0.15074980465E+03  0.15691058670E+03  0.00000000000E+00 0.  1.
         22    1    4    4    0    0 -0.16776772739E+02  0.26910185959E+02  0.12890474715E+03  0.13274807738E+03  0.00000000000E+00 0.  1.
         22    1    4    4    0    0  0.11585312101E+01  0.13728455106E+02  0.58434175786E+02  0.60036368761E+02  0.00000000000E+00 0.  1.
<mgrwt>
<rscale>  0 0.89345555E+02</rscale>
<asrwt>0</asrwt>
<pdfrwt beam="2">  1        2 0.89279254E-03 0.89345555E+02</pdfrwt>
<pdfrwt beam="1">  1       -2 0.52906453E-01 0.89345555E+02</pdfrwt>
<totfact> 0.49592168E+04</totfact>
</mgrwt>
</event>
<event>
 7    1  0.3056193E-009  0.9121022E+02  0.7818608E-02  0.1299947E+00
          2   -1    0    0  501    0  0.00000000000E+00  0.00000000000E+00  0.15362428523E+03  0.15362428525E+03  0.25500000000E-02 0. -1.
         -2   -1    0    0    0  501 -0.00000000000E+00 -0.00000000000E+00 -0.13538392315E+02  0.13538392555E+02  0.25500000000E-02 0.  1.
         23    2    1    2    0    0  0.00000000000E+00  0.00000000000E+00  0.14008589292E+03  0.16716267781E+03  0.91210215752E+02 0.  0.
    9000005    2    3    3    0    0 -0.73464623033E+01 -0.33958708743E+02  0.12301222013E+03  0.12844995754E+03  0.12657838822E+02 0.  0.
         22    1    3    3    0    0  0.73464623033E+01  0.33958708743E+02  0.17073672787E+02  0.38712720265E+02  0.00000000000E+00 0.  1.
         22    1    4    4    0    0 -0.45626650169E+01 -0.26677048420E+02  0.11000610351E+03  0.11328647595E+03  0.00000000000E+00 0.  1.
         22    1    4    4    0    0 -0.27837972865E+01 -0.72816603235E+01  0.13006116621E+02  0.15163481591E+02  0.00000000000E+00 0.  1.
<mgrwt>
<rscale>  0 0.91210216E+02</rscale>
<asrwt>0</asrwt>
<pdfrwt beam="1">  1        2 0.23634506E-01 0.91210216E+02</pdfrwt>
<pdfrwt beam="2">  1       -2 0.20828295E-02 0.91210216E+02</pdfrwt>
<totfact> 0.14081294E+05</totfact>
</mgrwt>
</event>
<event>
 7    1  0.3056193E-009  0.9141567E+02  0.7818608E-02  0.1299459E+00
         -2   -1    0    0    0  501 -0.00000000000E+00  0.00000000000E+00  0.43609919052E+03  0.43609919053E+03  0.25500000000E-02 0.  1.
          2   -1    0    0  501    0  0.00000000000E+00 -0.00000000000E+00 -0.47906672715E+01  0.47906679501E+01  0.25500000000E-02 0. -1.
         23    2    1    2    0    0  0.00000000000E+00  0.35527136788E-14  0.43130852325E+03  0.44088985848E+03  0.91415671969E+02 0.  0.
    9000005    2    3    3    0    0  0.27009255627E+02  0.21363291374E+02  0.35675133962E+03  0.35876395672E+03  0.15942654037E+02 0.  0.
         22    1    3    3    0    0 -0.27009255627E+02 -0.21363291374E+02  0.74557183636E+02  0.82125901758E+02  0.00000000000E+00 0. -1.
         22    1    4    4    0    0  0.15973481960E+02  0.27958106002E+01  0.16797230402E+03  0.16875326249E+03  0.00000000000E+00 0.  1.
         22    1    4    4    0    0  0.11035773667E+02  0.18567480774E+02  0.18877903560E+03  0.19001069424E+03  0.00000000000E+00 0.  1.
<mgrwt>
<rscale>  0 0.91415672E+02</rscale>
<asrwt>0</asrwt>
<pdfrwt beam="2">  1        2 0.73702568E-03 0.91415672E+02</pdfrwt>
<pdfrwt beam="1">  1       -2 0.67092193E-01 0.91415672E+02</pdfrwt>
<totfact> 0.39931545E+04</totfact>
</mgrwt>
</event>
<event>
 7    1  0.3056193E-009  0.9070891E+02  0.7818608E-02  0.1301144E+00
         -2   -1    0    0    0  501 -0.00000000000E+00  0.00000000000E+00  0.39270743397E+02  0.39270743480E+02  0.25500000000E-02 0.  1.
          2   -1    0    0  501    0  0.00000000000E+00 -0.00000000000E+00 -0.52380633056E+02  0.52380633118E+02  0.25500000000E-02 0. -1.
         23    2    1    2    0    0 -0.69388939039E-17  0.00000000000E+00 -0.13109889659E+02  0.91651376599E+02  0.90708905988E+02 0.  0.
    9000005    2    3    3    0    0 -0.61493245409E-01  0.19108116216E+02 -0.47069941258E+02  0.52684608817E+02  0.13962977814E+02 0.  0.
         22    1    3    3    0    0  0.61493245409E-01 -0.19108116216E+02  0.33960051599E+02  0.38966767781E+02  0.00000000000E+00 0.  1.
         22    1    4    4    0    0 -0.69332850458E+00  0.15906004282E+02 -0.20705700427E+02  0.26119106164E+02  0.00000000000E+00 0. -1.
         22    1    4    4    0    0  0.63183525917E+00  0.32021119342E+01 -0.26364240831E+02  0.26565502653E+02  0.00000000000E+00 0. -1.
<mgrwt>
<rscale>  0 0.90708906E+02</rscale>
<asrwt>0</asrwt>
<pdfrwt beam="2">  1        2 0.80585590E-02 0.90708906E+02</pdfrwt>
<pdfrwt beam="1">  1       -2 0.60416528E-02 0.90708906E+02</pdfrwt>
<totfact> 0.10382358E+05</totfact>
</mgrwt>
</event>
<event>
 7    1  0.3056193E-009  0.8935308E+02  0.7818608E-02  0.1304426E+00
          2   -1    0    0  501    0  0.00000000000E+00  0.00000000000E+00  0.54540353399E+02  0.54540353458E+02  0.25500000000E-02 0. -1.
         -2   -1    0    0    0  501 -0.00000000000E+00 -0.00000000000E+00 -0.36596635543E+02  0.36596635632E+02  0.25500000000E-02 0.  1.
         23    2    1    2    0    0  0.00000000000E+00  0.00000000000E+00  0.17943717855E+02  0.91136989090E+02  0.89353084837E+02 0.  0.
    9000005    2    3    3    0    0 -0.41234526439E+02  0.15293646096E+02  0.16072399832E+02  0.47117861286E+02  0.52525264626E+01 0.  0.
         22    1    3    3    0    0  0.41234526439E+02 -0.15293646096E+02  0.18713180233E+01  0.44019127804E+02  0.00000000000E+00 0.  1.
         22    1    4    4    0    0 -0.31172027114E+02  0.95415069788E+01  0.13243938230E+02  0.35187178484E+02  0.00000000000E+00 0.  1.
         22    1    4    4    0    0 -0.10062499325E+02  0.57521391169E+01  0.28284616026E+01  0.11930682802E+02  0.00000000000E+00 0.  1.
<mgrwt>
<rscale>  0 0.89353085E+02</rscale>
<asrwt>0</asrwt>
<pdfrwt beam="1">  1        2 0.83908235E-02 0.89353085E+02</pdfrwt>
<pdfrwt beam="2">  1       -2 0.56302517E-02 0.89353085E+02</pdfrwt>
<totfact> 0.10949355E+05</totfact>
</mgrwt>
</event>
<event>
 7    1  0.3056193E-009  0.8936609E+02  0.7818608E-02  0.1304394E+00
          2   -1    0    0  501    0  0.00000000000E+00  0.00000000000E+00  0.13246804932E+04  0.13246804932E+04  0.25500000000E-02 0. -1.
         -2   -1    0    0    0  501 -0.00000000000E+00 -0.00000000000E+00 -0.15072109249E+01  0.15072130820E+01  0.25500000000E-02 0.  1.
         23    2    1    2    0    0  0.17763568394E-14  0.88817841970E-15  0.13231732823E+04  0.13261877063E+04  0.89366086260E+02 0.  0.
    9000005    2    3    3    0    0  0.99927802748E+01  0.69198429833E+01  0.12991609327E+04  0.12992742744E+04  0.12114913451E+02 0.  0.
         22    1    3    3    0    0 -0.99927802748E+01 -0.69198429833E+01  0.24012349539E+02  0.26913431868E+02  0.00000000000E+00 0.  1.
         22    1    4    4    0    0  0.35369080107E+01  0.65426044567E+01  0.10595114772E+04  0.10595375811E+04  0.00000000000E+00 0. -1.
         22    1    4    4    0    0  0.64558722642E+01  0.37723852658E+00  0.23964945555E+03  0.23973669336E+03  0.00000000000E+00 0. -1.
<mgrwt>
<rscale>  0 0.89366086E+02</rscale>
<asrwt>0</asrwt>
<pdfrwt beam="1">  1        2 0.20379812E+00 0.89366086E+02</pdfrwt>
<pdfrwt beam="2">  1       -2 0.23187749E-03 0.89366086E+02</pdfrwt>
<totfact> 0.25801466E+05</totfact>
</mgrwt>
</event>
<event>
 7    1  0.3056193E-009  0.9069632E+02  0.7818608E-02  0.1301174E+00
          2   -1    0    0  501    0  0.00000000000E+00  0.00000000000E+00  0.56476689352E+01  0.56476695108E+01  0.25500000000E-02 0. -1.
         -2   -1    0    0    0  501 -0.00000000000E+00 -0.00000000000E+00 -0.36412466072E+03  0.36412466072E+03  0.25500000000E-02 0.  1.
         23    2    1    2    0    0  0.00000000000E+00  0.00000000000E+00 -0.35847699178E+03  0.36977233024E+03  0.90696320607E+02 0.  0.
    9000005    2    3    3    0    0  0.39357539479E+02 -0.18937053830E+02 -0.14833477880E+03  0.15513920698E+03  0.12543485140E+02 0.  0.
         22    1    3    3    0    0 -0.39357539479E+02  0.18937053830E+02 -0.21014221298E+03  0.21463312325E+03  0.00000000000E+00 0.  1.
         22    1    4    4    0    0  0.20832330729E+02 -0.16077161183E+02 -0.76514470042E+02  0.80913072128E+02  0.00000000000E+00 0. -1.
         22    1    4    4    0    0  0.18525208750E+02 -0.28598926461E+01 -0.71820308758E+02  0.74226134854E+02  0.00000000000E+00 0. -1.
<mgrwt>
<rscale>  0 0.90696321E+02</rscale>
<asrwt>0</asrwt>
<pdfrwt beam="1">  1        2 0.86887247E-03 0.90696321E+02</pdfrwt>
<pdfrwt beam="2">  1       -2 0.56019160E-01 0.90696321E+02</pdfrwt>
<totfact> 0.46033725E+04</totfact>
</mgrwt>
</event>
<event>
 7    1  0.3056193E-009  0.9093960E+02  0.7818608E-02  0.1300592E+00
          2   -1    0    0  501    0  0.00000000000E+00  0.00000000000E+00  0.24194909365E+02  0.24194909500E+02  0.25500000000E-02 0. -1.
         -2   -1    0    0    0  501 -0.00000000000E+00 -0.00000000000E+00 -0.85451975205E+02  0.85451975243E+02  0.25500000000E-02 0.  1.
         23    2    1    2    0    0  0.00000000000E+00  0.00000000000E+00 -0.61257065840E+02  0.10964688474E+03  0.90939602036E+02 0.  0.
    9000005    2    3    3    0    0 -0.36685653352E+02 -0.15188795183E+02 -0.62817892101E+01  0.41832301492E+02  0.11573413990E+02 0.  0.
         22    1    3    3    0    0  0.36685653352E+02  0.15188795183E+02 -0.54975276630E+02  0.67814583251E+02  0.00000000000E+00 0.  1.
         22    1    4    4    0    0 -0.13456517438E+01 -0.10254338225E+00  0.21067411446E+01  0.25019296575E+01  0.00000000000E+00 0.  1.
         22    1    4    4    0    0 -0.35340001609E+02 -0.15086251801E+02 -0.83885303547E+01  0.39330371834E+02  0.00000000000E+00 0.  1.
<mgrwt>
<rscale>  0 0.90939602E+02</rscale>
<asrwt>0</asrwt>
<pdfrwt beam="1">  1        2 0.37222938E-02 0.90939602E+02</pdfrwt>
<pdfrwt beam="2">  1       -2 0.13146458E-01 0.90939602E+02</pdfrwt>
<totfact> 0.84066815E+04</totfact>
</mgrwt>
</event>
<event>
 7    1  0.3254674E-009  0.9167328E+02  0.7818608E-02  0.1298849E+00
         -2   -1    0    0    0  501 -0.00000000000E+00  0.00000000000E+00  0.28128418042E+01  0.28128429601E+01  0.25500000000E-02 0.  1.
          2   -1    0    0  501    0  0.00000000000E+00 -0.00000000000E+00 -0.74693038959E+03  0.74693038959E+03  0.25500000000E-02 0. -1.
         23    2    1    2    0    0  0.00000000000E+00  0.00000000000E+00 -0.74411754778E+03  0.74974323255E+03  0.91673277668E+02 0.  0.
    9000005    2    3    3    0    0 -0.10792872624E+02 -0.16981651110E+02 -0.70747022276E+03  0.70793547005E+03  0.15926427482E+02 0.  0.
         22    1    3    3    0    0  0.10792872624E+02  0.16981651110E+02 -0.36647325027E+02  0.41807762504E+02  0.00000000000E+00 0.  1.
         22    1    4    4    0    0  0.25245956153E+01 -0.17156344317E+00 -0.19535914312E+03  0.19537553025E+03  0.00000000000E+00 0.  1.
         22    1    4    4    0    0 -0.13317468239E+02 -0.16810087667E+02 -0.51211107963E+03  0.51255993980E+03  0.00000000000E+00 0.  1.
<mgrwt>
<rscale>  0 0.91673278E+02</rscale>
<asrwt>0</asrwt>
<pdfrwt beam="2">  1        2 0.11491221E+00 0.91673278E+02</pdfrwt>
<pdfrwt beam="1">  1       -2 0.43274558E-03 0.91673278E+02</pdfrwt>
<totfact> 0.23713439E+05</totfact>
</mgrwt>
</event>
<event>
 7    1  0.3056193E-009  0.9189194E+02  0.7818608E-02  0.1298334E+00
          2   -1    0    0  501    0  0.00000000000E+00  0.00000000000E+00  0.14681940761E+02  0.14681940982E+02  0.25500000000E-02 0. -1.
         -2   -1    0    0    0  501 -0.00000000000E+00 -0.00000000000E+00 -0.14378428140E+03  0.14378428143E+03  0.25500000000E-02 0.  1.
         23    2    1    2    0    0  0.00000000000E+00  0.00000000000E+00 -0.12910234064E+03  0.15846622241E+03  0.91891943525E+02 0.  0.
    9000005    2    3    3    0    0  0.16021288780E+02  0.42510928282E+02 -0.71162553498E+02  0.84839599153E+02  0.83539120511E+01 0.  0.
         22    1    3    3    0    0 -0.16021288780E+02 -0.42510928282E+02 -0.57939787145E+02  0.73626623256E+02  0.00000000000E+00 0. -1.
         22    1    4    4    0    0 -0.20321917897E+00  0.46272633041E+01 -0.44424982770E+01  0.64178387843E+01  0.00000000000E+00 0.  1.
         22    1    4    4    0    0  0.16224507959E+02  0.37883664978E+02 -0.66720055221E+02  0.78421760369E+02  0.00000000000E+00 0.  1.
<mgrwt>
<rscale>  0 0.91891944E+02</rscale>
<asrwt>0</asrwt>
<pdfrwt beam="1">  1        2 0.22587602E-02 0.91891944E+02</pdfrwt>
<pdfrwt beam="2">  1       -2 0.22120658E-01 0.91891944E+02</pdfrwt>
<totfact> 0.69540180E+04</totfact>
</mgrwt>
</event>
<event>
 7    1  0.3056193E-009  0.9486194E+02  0.7818608E-02  0.1291487E+00
          2   -1    0    0  501    0  0.00000000000E+00  0.00000000000E+00  0.44848100391E+03  0.44848100392E+03  0.25500000000E-02 0. -1.
         -2   -1    0    0    0  501 -0.00000000000E+00 -0.00000000000E+00 -0.50162585716E+01  0.50162592198E+01  0.25500000000E-02 0.  1.
         23    2    1    2    0    0  0.00000000000E+00  0.00000000000E+00  0.44346474534E+03  0.45349726314E+03  0.94861938177E+02 0.  0.
    9000005    2    3    3    0    0 -0.16279619121E+01  0.27952811882E+02  0.40311419531E+03  0.40438334617E+03  0.15518577518E+02 0.  0.
         22    1    3    3    0    0  0.16279619121E+01 -0.27952811882E+02  0.40350550028E+02  0.49113916966E+02  0.00000000000E+00 0.  1.
         22    1    4    4    0    0 -0.17107735029E+01  0.20036107621E+02  0.17840488205E+03  0.17953460473E+03  0.00000000000E+00 0. -1.
         22    1    4    4    0    0  0.82811590777E-01  0.79167042615E+01  0.22470931326E+03  0.22484874144E+03  0.00000000000E+00 0. -1.
<mgrwt>
<rscale>  0 0.94861938E+02</rscale>
<asrwt>0</asrwt>
<pdfrwt beam="1">  1        2 0.68997077E-01 0.94861938E+02</pdfrwt>
<pdfrwt beam="2">  1       -2 0.77173215E-03 0.94861938E+02</pdfrwt>
<totfact> 0.18703413E+05</totfact>
</mgrwt>
</event>
<event>
 7    1  0.3056193E-009  0.9058720E+02  0.7818608E-02  0.1301436E+00
          2   -1    0    0  501    0  0.00000000000E+00  0.00000000000E+00  0.19457017841E+04  0.19457017841E+04  0.25500000000E-02 0. -1.
         -2   -1    0    0    0  501 -0.00000000000E+00 -0.00000000000E+00 -0.10543789346E+01  0.10543820181E+01  0.25500000000E-02 0.  1.
         23    2    1    2    0    0  0.88817841970E-15  0.00000000000E+00  0.19446474051E+04  0.19467561661E+04  0.90587195060E+02 0.  0.
    9000005    2    3    3    0    0  0.68801256311E+01  0.21435621734E+02  0.18165972409E+04  0.18167420647E+04  0.44013496844E+01 0.  0.
         22    1    3    3    0    0 -0.68801256311E+01 -0.21435621734E+02  0.12805016421E+03  0.13001410139E+03  0.00000000000E+00 0.  1.
         22    1    4    4    0    0  0.52375683059E+01  0.18925808197E+02  0.14572330273E+04  0.14573653331E+04  0.00000000000E+00 0.  1.
         22    1    4    4    0    0  0.16425573251E+01  0.25098135371E+01  0.35936421362E+03  0.35937673156E+03  0.00000000000E+00 0.  1.
<mgrwt>
<rscale>  0 0.90587195E+02</rscale>
<asrwt>0</asrwt>
<pdfrwt beam="1">  1        2 0.29933693E+00 0.90587195E+02</pdfrwt>
<pdfrwt beam="2">  1       -2 0.16221336E-03 0.90587195E+02</pdfrwt>
<totfact> 0.20522684E+05</totfact>
</mgrwt>
</event>
<event>
 7    1  0.3056193E-009  0.9203108E+02  0.7818608E-02  0.1298006E+00
         -2   -1    0    0    0  501 -0.00000000000E+00  0.00000000000E+00  0.15059164761E+02  0.15059164977E+02  0.25500000000E-02 0.  1.
          2   -1    0    0  501    0  0.00000000000E+00 -0.00000000000E+00 -0.14060738590E+03  0.14060738593E+03  0.25500000000E-02 0. -1.
         23    2    1    2    0    0  0.00000000000E+00  0.00000000000E+00 -0.12554822114E+03  0.15566655090E+03  0.92031077567E+02 0.  0.
    9000005    2    3    3    0    0  0.41358678803E+02 -0.85172561938E+01 -0.32119344949E+02  0.53138316391E+02  0.29907162211E+01 0.  0.
         22    1    3    3    0    0 -0.41358678803E+02  0.85172561938E+01 -0.93428876194E+02  0.10252823451E+03  0.00000000000E+00 0. -1.
         22    1    4    4    0    0  0.31829898641E+02 -0.71114940829E+01 -0.26180727442E+02  0.41822796236E+02  0.00000000000E+00 0. -1.
         22    1    4    4    0    0  0.95287801623E+01 -0.14057621109E+01 -0.59386175072E+01  0.11315520156E+02  0.00000000000E+00 0. -1.
<mgrwt>
<rscale>  0 0.92031078E+02</rscale>
<asrwt>0</asrwt>
<pdfrwt beam="2">  1        2 0.21631905E-01 0.92031078E+02</pdfrwt>
<pdfrwt beam="1">  1       -2 0.23167947E-02 0.92031078E+02</pdfrwt>
<totfact> 0.13336083E+05</totfact>
</mgrwt>
</event>
<event>
 7    1  0.3056193E-009  0.9140024E+02  0.7818608E-02  0.1299496E+00
          2   -1    0    0  501    0  0.00000000000E+00  0.00000000000E+00  0.16752673403E+02  0.16752673597E+02  0.25500000000E-02 0. -1.
         -2   -1    0    0    0  501 -0.00000000000E+00 -0.00000000000E+00 -0.12466673392E+03  0.12466673394E+03  0.25500000000E-02 0.  1.
         23    2    1    2    0    0  0.00000000000E+00 -0.35527136788E-14 -0.10791406051E+03  0.14141940754E+03  0.91400242736E+02 0.  0.
    9000005    2    3    3    0    0  0.13925125136E+02  0.20895935958E+02 -0.11280504102E+03  0.11583677789E+03  0.79140749871E+01 0.  0.
         22    1    3    3    0    0 -0.13925125136E+02 -0.20895935958E+02  0.48909805040E+01  0.25582629652E+02  0.00000000000E+00 0. -1.
         22    1    4    4    0    0  0.63003683555E+01  0.81359172854E+01 -0.63879372728E+02  0.64702875142E+02  0.00000000000E+00 0. -1.
         22    1    4    4    0    0  0.76247567801E+01  0.12760018672E+02 -0.48925668288E+02  0.51133902745E+02  0.00000000000E+00 0. -1.
<mgrwt>
<rscale>  0 0.91400243E+02</rscale>
<asrwt>0</asrwt>
<pdfrwt beam="1">  1        2 0.25773345E-02 0.91400243E+02</pdfrwt>
<pdfrwt beam="2">  1       -2 0.19179497E-01 0.91400243E+02</pdfrwt>
<totfact> 0.74024809E+04</totfact>
</mgrwt>
</event>
<event>
 7    1  0.3056193E-009  0.8903618E+02  0.7818608E-02  0.1305203E+00
          2   -1    0    0  501    0  0.00000000000E+00  0.00000000000E+00  0.48731602526E+01  0.48731609198E+01  0.25500000000E-02 0. -1.
         -2   -1    0    0    0  501 -0.00000000000E+00 -0.00000000000E+00 -0.40668887482E+03  0.40668887483E+03  0.25500000000E-02 0.  1.
         23    2    1    2    0    0 -0.35527136788E-14  0.17763568394E-14 -0.40181571457E+03  0.41156203575E+03  0.89036176892E+02 0.  0.
    9000005    2    3    3    0    0  0.22408949982E+02  0.84693485169E+01 -0.37393960429E+03  0.37480651333E+03  0.86720170022E+01 0.  0.
         22    1    3    3    0    0 -0.22408949982E+02 -0.84693485169E+01 -0.27876110280E+02  0.36755522414E+02  0.00000000000E+00 0. -1.
         22    1    4    4    0    0  0.20892910686E+02  0.98256108695E+01 -0.35688259966E+03  0.35762864299E+03  0.00000000000E+00 0.  1.
         22    1    4    4    0    0  0.15160392959E+01 -0.13562623526E+01 -0.17057004623E+02  0.17177870340E+02  0.00000000000E+00 0.  1.
<mgrwt>
<rscale>  0 0.89036177E+02</rscale>
<asrwt>0</asrwt>
<pdfrwt beam="1">  1        2 0.74971734E-03 0.89036177E+02</pdfrwt>
<pdfrwt beam="2">  1       -2 0.62567492E-01 0.89036177E+02</pdfrwt>
<totfact> 0.44884547E+04</totfact>
</mgrwt>
</event>
<event>
 7    1  0.3056193E-009  0.8960312E+02  0.7818608E-02  0.1303816E+00
          2   -1    0    0  501    0  0.00000000000E+00  0.00000000000E+00  0.41125018740E+03  0.41125018741E+03  0.25500000000E-02 0. -1.
         -2   -1    0    0    0  501 -0.00000000000E+00 -0.00000000000E+00 -0.48806781996E+01  0.48806788657E+01  0.25500000000E-02 0.  1.
         23    2    1    2    0    0  0.71054273576E-14 -0.44408920985E-15  0.40636950920E+03  0.41613086627E+03  0.89603124152E+02 0.  0.
    9000005    2    3    3    0    0 -0.32743345550E+02  0.25820289766E+01  0.34464641913E+03  0.34621281854E+03  0.18351972430E+01 0.  0.
         22    1    3    3    0    0  0.32743345550E+02 -0.25820289766E+01  0.61723090070E+02  0.69918047736E+02  0.00000000000E+00 0.  1.
         22    1    4    4    0    0 -0.29179174397E+02  0.17378035458E+01  0.30760608225E+03  0.30899182192E+03  0.00000000000E+00 0. -1.
         22    1    4    4    0    0 -0.35641711525E+01  0.84422543080E+00  0.37040336883E+02  0.37220996615E+02  0.00000000000E+00 0. -1.
<mgrwt>
<rscale>  0 0.89603124E+02</rscale>
<asrwt>0</asrwt>
<pdfrwt beam="1">  1        2 0.63269243E-01 0.89603124E+02</pdfrwt>
<pdfrwt beam="2">  1       -2 0.75087382E-03 0.89603124E+02</pdfrwt>
<totfact> 0.21112632E+05</totfact>
</mgrwt>
</event>
<event>
 7    1  0.3056193E-009  0.8306509E+02  0.7818608E-02  0.1320572E+00
         -2   -1    0    0    0  501 -0.00000000000E+00  0.00000000000E+00  0.10788648907E+02  0.10788649209E+02  0.25500000000E-02 0.  1.
          2   -1    0    0  501    0  0.00000000000E+00 -0.00000000000E+00 -0.15988583349E+03  0.15988583351E+03  0.25500000000E-02 0. -1.
         23    2    1    2    0    0  0.00000000000E+00  0.00000000000E+00 -0.14909718458E+03  0.17067448272E+03  0.83065086534E+02 0.  0.
    9000005    2    3    3    0    0  0.16323085126E+02 -0.36277305394E+02 -0.59073560368E+02  0.72253250704E+02  0.12180341047E+02 0.  0.
         22    1    3    3    0    0 -0.16323085126E+02  0.36277305394E+02 -0.90023624213E+02  0.98421232014E+02  0.00000000000E+00 0. -1.
         22    1    4    4    0    0  0.29248569728E+01 -0.21086554589E+02 -0.32205824678E+02  0.38605863750E+02  0.00000000000E+00 0. -1.
         22    1    4    4    0    0  0.13398228153E+02 -0.15190750805E+02 -0.26867735690E+02  0.33647386953E+02  0.00000000000E+00 0. -1.
<mgrwt>
<rscale>  0 0.83065087E+02</rscale>
<asrwt>0</asrwt>
<pdfrwt beam="2">  1        2 0.24597819E-01 0.83065087E+02</pdfrwt>
<pdfrwt beam="1">  1       -2 0.16597923E-02 0.83065087E+02</pdfrwt>
<totfact> 0.18362913E+05</totfact>
</mgrwt>
</event>
<event>
 7    1  0.3056193E-009  0.9101763E+02  0.7818608E-02  0.1300406E+00
          2   -1    0    0  501    0  0.00000000000E+00  0.00000000000E+00  0.80544401556E+01  0.80544405592E+01  0.25500000000E-02 0. -1.
         -2   -1    0    0    0  501 -0.00000000000E+00 -0.00000000000E+00 -0.25713174092E+03  0.25713174093E+03  0.25500000000E-02 0.  1.
         23    2    1    2    0    0  0.00000000000E+00  0.35527136788E-14 -0.24907730076E+03  0.26518618149E+03  0.91017630699E+02 0.  0.
    9000005    2    3    3    0    0  0.34767963342E+02 -0.26143429413E+02 -0.15230006668E+03  0.15908187802E+03  0.14813623122E+02 0.  0.
         22    1    3    3    0    0 -0.34767963342E+02  0.26143429413E+02 -0.96777234087E+02  0.10610430347E+03  0.00000000000E+00 0. -1.
         22    1    4    4    0    0  0.14628096234E+02 -0.29304256454E+01 -0.58678249671E+02  0.60545070637E+02  0.00000000000E+00 0. -1.
         22    1    4    4    0    0  0.20139867107E+02 -0.23213003768E+02 -0.93621817004E+02  0.98536807387E+02  0.00000000000E+00 0. -1.
<mgrwt>
<rscale>  0 0.91017631E+02</rscale>
<asrwt>0</asrwt>
<pdfrwt beam="1">  1        2 0.12391449E-02 0.91017631E+02</pdfrwt>
<pdfrwt beam="2">  1       -2 0.39558723E-01 0.91017631E+02</pdfrwt>
<totfact> 0.55636105E+04</totfact>
</mgrwt>
</event>
<event>
 7    1  0.3056193E-009  0.9168140E+02  0.7818608E-02  0.1298830E+00
          2   -1    0    0  501    0  0.00000000000E+00  0.00000000000E+00  0.27600958031E+01  0.27600969811E+01  0.25500000000E-02 0. -1.
         -2   -1    0    0    0  501 -0.00000000000E+00 -0.00000000000E+00 -0.76133925961E+03  0.76133925962E+03  0.25500000000E-02 0.  1.
         23    2    1    2    0    0 -0.35527136788E-14 -0.35527136788E-14 -0.75857916381E+03  0.76409935660E+03  0.91681399354E+02 0.  0.
    9000005    2    3    3    0    0 -0.22542123041E+02  0.20614011709E+02 -0.66248096492E+03  0.66326311004E+03  0.10190165363E+02 0.  0.
         22    1    3    3    0    0  0.22542123041E+02 -0.20614011709E+02 -0.96098198892E+02  0.10083624656E+03  0.00000000000E+00 0. -1.
         22    1    4    4    0    0 -0.23271125356E+02  0.17869980870E+02 -0.61052216138E+03  0.61122679181E+03  0.00000000000E+00 0. -1.
         22    1    4    4    0    0  0.72900231540E+00  0.27440308384E+01 -0.51958803535E+02  0.52036318225E+02  0.00000000000E+00 0. -1.
<mgrwt>
<rscale>  0 0.91681399E+02</rscale>
<asrwt>0</asrwt>
<pdfrwt beam="1">  1        2 0.42463082E-03 0.91681399E+02</pdfrwt>
<pdfrwt beam="2">  1       -2 0.11712895E+00 0.91681399E+02</pdfrwt>
<totfact> 0.24709110E+04</totfact>
</mgrwt>
</event>
<event>
 7    1  0.3056193E-009  0.8819608E+02  0.7818608E-02  0.1307280E+00
          2   -1    0    0  501    0  0.00000000000E+00  0.00000000000E+00  0.13300440844E+03  0.13300440847E+03  0.25500000000E-02 0. -1.
         -2   -1    0    0    0  501 -0.00000000000E+00 -0.00000000000E+00 -0.14620846996E+02  0.14620847218E+02  0.25500000000E-02 0.  1.
         23    2    1    2    0    0  0.35527136788E-14  0.88817841970E-15  0.11838356145E+03  0.14762525568E+03  0.88196079818E+02 0.  0.
    9000005    2    3    3    0    0 -0.28864428784E+02 -0.51724302213E+01  0.11326890961E+03  0.11785834542E+03  0.14171606030E+02 0.  0.
         22    1    3    3    0    0  0.28864428784E+02  0.51724302213E+01  0.51146518380E+01  0.29766910267E+02  0.00000000000E+00 0.  1.
         22    1    4    4    0    0  0.97499384278E+00 -0.85585591924E+00  0.15302894149E+02  0.15357788633E+02  0.00000000000E+00 0.  1.
         22    1    4    4    0    0 -0.29839422626E+02 -0.43165743021E+01  0.97966015458E+02  0.10250055678E+03  0.00000000000E+00 0.  1.
<mgrwt>
<rscale>  0 0.88196080E+02</rscale>
<asrwt>0</asrwt>
<pdfrwt beam="1">  1        2 0.20462217E-01 0.88196080E+02</pdfrwt>
<pdfrwt beam="2">  1       -2 0.22493611E-02 0.88196080E+02</pdfrwt>
<totfact> 0.14697540E+05</totfact>
</mgrwt>
</event>
<event>
 7    1  0.3056193E-009  0.9162214E+02  0.7818608E-02  0.1298970E+00
          2   -1    0    0  501    0  0.00000000000E+00  0.00000000000E+00  0.15318546266E+02  0.15318546478E+02  0.25500000000E-02 0. -1.
         -2   -1    0    0    0  501 -0.00000000000E+00 -0.00000000000E+00 -0.13700087861E+03  0.13700087863E+03  0.25500000000E-02 0.  1.
         23    2    1    2    0    0  0.00000000000E+00 -0.88817841970E-15 -0.12168233234E+03  0.15231942511E+03  0.91622143949E+02 0.  0.
    9000005    2    3    3    0    0 -0.45289554747E+02 -0.66444803879E+01 -0.58616425499E+02  0.74392526708E+02  0.17520852938E+01 0.  0.
         22    1    3    3    0    0  0.45289554747E+02  0.66444803879E+01 -0.63065906844E+02  0.77926898404E+02  0.00000000000E+00 0.  1.
         22    1    4    4    0    0 -0.96554247320E+01 -0.20744217452E+01 -0.13144648132E+02  0.16441174740E+02  0.00000000000E+00 0. -1.
         22    1    4    4    0    0 -0.35634130015E+02 -0.45700586427E+01 -0.45471777368E+02  0.57951351968E+02  0.00000000000E+00 0. -1.
<mgrwt>
<rscale>  0 0.91622144E+02</rscale>
<asrwt>0</asrwt>
<pdfrwt beam="1">  1        2 0.23566995E-02 0.91622144E+02</pdfrwt>
<pdfrwt beam="2">  1       -2 0.21077057E-01 0.91622144E+02</pdfrwt>
<totfact> 0.71260025E+04</totfact>
</mgrwt>
</event>
<event>
 7    1  0.3056193E-009  0.8873988E+02  0.7818608E-02  0.1305932E+00
          2   -1    0    0  501    0  0.00000000000E+00  0.00000000000E+00  0.12174977931E+03  0.12174977933E+03  0.25500000000E-02 0. -1.
         -2   -1    0    0    0  501 -0.00000000000E+00 -0.00000000000E+00 -0.16169980656E+02  0.16169980857E+02  0.25500000000E-02 0.  1.
         23    2    1    2    0    0  0.00000000000E+00  0.00000000000E+00  0.10557979865E+03  0.13791976019E+03  0.88739880367E+02 0.  0.
    9000005    2    3    3    0    0 -0.39313074430E+02 -0.49882397395E+01  0.83771104540E+02  0.92686813174E+02  0.16873126131E+01 0.  0.
         22    1    3    3    0    0  0.39313074430E+02  0.49882397395E+01  0.21808694110E+02  0.45232947014E+02  0.00000000000E+00 0.  1.
         22    1    4    4    0    0 -0.17530771800E+02 -0.28870087265E+01  0.36321346123E+02  0.40433933317E+02  0.00000000000E+00 0.  1.
         22    1    4    4    0    0 -0.21782302630E+02 -0.21012310130E+01  0.47449758417E+02  0.52252879858E+02  0.00000000000E+00 0.  1.
<mgrwt>
<rscale>  0 0.88739880E+02</rscale>
<asrwt>0</asrwt>
<pdfrwt beam="1">  1        2 0.18730735E-01 0.88739880E+02</pdfrwt>
<pdfrwt beam="2">  1       -2 0.24876894E-02 0.88739880E+02</pdfrwt>
<totfact> 0.14046661E+05</totfact>
</mgrwt>
</event>
<event>
 7    1  0.3056193E-009  0.9204434E+02  0.7818608E-02  0.1297975E+00
          2   -1    0    0  501    0  0.00000000000E+00  0.00000000000E+00  0.45823942739E+02  0.45823942810E+02  0.25500000000E-02 0. -1.
         -2   -1    0    0    0  501 -0.00000000000E+00 -0.00000000000E+00 -0.46221252631E+02  0.46221252701E+02  0.25500000000E-02 0.  1.
         23    2    1    2    0    0  0.17763568394E-14  0.00000000000E+00 -0.39730989127E+00  0.92045195511E+02  0.92044338020E+02 0.  0.
    9000005    2    3    3    0    0 -0.14267807012E+02 -0.35589462916E+02 -0.24006030274E+02  0.47016850375E+02  0.12810719811E+02 0.  0.
         22    1    3    3    0    0  0.14267807012E+02  0.35589462916E+02  0.23608720383E+02  0.45028345136E+02  0.00000000000E+00 0. -1.
         22    1    4    4    0    0 -0.14558513044E+02 -0.19572236941E+02 -0.13894872354E+02  0.28072944959E+02  0.00000000000E+00 0. -1.
         22    1    4    4    0    0  0.29070603194E+00 -0.16017225975E+02 -0.10111157920E+02  0.18943905416E+02  0.00000000000E+00 0. -1.
<mgrwt>
<rscale>  0 0.92044338E+02</rscale>
<asrwt>0</asrwt>
<pdfrwt beam="1">  1        2 0.70498374E-02 0.92044338E+02</pdfrwt>
<pdfrwt beam="2">  1       -2 0.71109619E-02 0.92044338E+02</pdfrwt>
<totfact> 0.96153654E+04</totfact>
</mgrwt>
</event>
<event>
 7    1  0.3056193E-009  0.9149026E+02  0.7818608E-02  0.1299282E+00
          2   -1    0    0  501    0  0.00000000000E+00  0.00000000000E+00  0.72764771259E+02  0.72764771303E+02  0.25500000000E-02 0. -1.
         -2   -1    0    0    0  501 -0.00000000000E+00 -0.00000000000E+00 -0.28758653393E+02  0.28758653506E+02  0.25500000000E-02 0.  1.
         23    2    1    2    0    0 -0.66613381478E-15  0.00000000000E+00  0.44006117866E+02  0.10152342481E+03  0.91490258363E+02 0.  0.
    9000005    2    3    3    0    0  0.14585546527E+01 -0.44935485762E+02  0.15875194345E+02  0.48488774622E+02  0.88212361071E+01 0.  0.
         22    1    3    3    0    0 -0.14585546527E+01  0.44935485762E+02  0.28130923521E+02  0.53034650187E+02  0.00000000000E+00 0.  1.
         22    1    4    4    0    0  0.49867757459E+01 -0.27302882861E+02  0.11024050368E+02  0.29863774567E+02  0.00000000000E+00 0. -1.
         22    1    4    4    0    0 -0.35282210932E+01 -0.17632602902E+02  0.48511439765E+01  0.18625000055E+02  0.00000000000E+00 0. -1.
<mgrwt>
<rscale>  0 0.91490258E+02</rscale>
<asrwt>0</asrwt>
<pdfrwt beam="1">  1        2 0.11194580E-01 0.91490258E+02</pdfrwt>
<pdfrwt beam="2">  1       -2 0.44244082E-02 0.91490258E+02</pdfrwt>
<totfact> 0.11075079E+05</totfact>
</mgrwt>
</event>
<event>
 7    1  0.3056193E-009  0.9184901E+02  0.7818608E-02  0.1298435E+00
         -2   -1    0    0    0  501 -0.00000000000E+00  0.00000000000E+00  0.24189803318E+02  0.24189803452E+02  0.25500000000E-02 0.  1.
          2   -1    0    0  501    0  0.00000000000E+00 -0.00000000000E+00 -0.87187988604E+02  0.87187988641E+02  0.25500000000E-02 0. -1.
         23    2    1    2    0    0  0.35527136788E-14  0.00000000000E+00 -0.62998185286E+02  0.11137779209E+03  0.91849013181E+02 0.  0.
    9000005    2    3    3    0    0 -0.26623798715E+02  0.25074657152E+02  0.18209105282E-01  0.38517439011E+02  0.12084191618E+02 0.  0.
         22    1    3    3    0    0  0.26623798715E+02 -0.25074657152E+02 -0.63016394392E+02  0.72860353083E+02  0.00000000000E+00 0. -1.
         22    1    4    4    0    0 -0.10105763162E+02  0.14819738511E+02 -0.46336048436E+01  0.18526235248E+02  0.00000000000E+00 0.  1.
         22    1    4    4    0    0 -0.16518035553E+02  0.10254918641E+02  0.46518139489E+01  0.19991203763E+02  0.00000000000E+00 0.  1.
<mgrwt>
<rscale>  0 0.91849013E+02</rscale>
<asrwt>0</asrwt>
<pdfrwt beam="2">  1        2 0.13413537E-01 0.91849013E+02</pdfrwt>
<pdfrwt beam="1">  1       -2 0.37215082E-02 0.91849013E+02</pdfrwt>
<totfact> 0.11537876E+05</totfact>
</mgrwt>
</event>
<event>
 7    1  0.3056193E-009  0.9328376E+02  0.7818608E-02  0.1295089E+00
         -2   -1    0    0    0  501 -0.00000000000E+00  0.00000000000E+00  0.54105108267E+01  0.54105114276E+01  0.25500000000E-02 0.  1.
          2   -1    0    0  501    0  0.00000000000E+00 -0.00000000000E+00 -0.40208123300E+03  0.40208123301E+03  0.25500000000E-02 0. -1.
         23    2    1    2    0    0  0.00000000000E+00  0.00000000000E+00 -0.39667072218E+03  0.40749174444E+03  0.93283760397E+02 0.  0.
    9000005    2    3    3    0    0 -0.93072609551E+00 -0.32854751101E+02 -0.34118540929E+03  0.34300204862E+03  0.12752290888E+02 0.  0.
         22    1    3    3    0    0  0.93072609551E+00  0.32854751101E+02 -0.55485312889E+02  0.64489695823E+02  0.00000000000E+00 0.  1.
         22    1    4    4    0    0 -0.80046944841E+00 -0.23862519011E+01 -0.71527444730E+01  0.75826580411E+01  0.00000000000E+00 0.  1.
         22    1    4    4    0    0 -0.13025664711E+00 -0.30468499200E+02 -0.33403266482E+03  0.33541939058E+03  0.00000000000E+00 0.  1.
<mgrwt>
<rscale>  0 0.93283760E+02</rscale>
<asrwt>0</asrwt>
<pdfrwt beam="2">  1        2 0.61858628E-01 0.93283760E+02</pdfrwt>
<pdfrwt beam="1">  1       -2 0.83238665E-03 0.93283760E+02</pdfrwt>
<totfact> 0.18820730E+05</totfact>
</mgrwt>
</event>
<event>
 7    1  0.3056193E-009  0.9060210E+02  0.7818608E-02  0.1301400E+00
          2   -1    0    0  501    0  0.00000000000E+00  0.00000000000E+00  0.44681417245E+03  0.44681417246E+03  0.25500000000E-02 0. -1.
         -2   -1    0    0    0  501 -0.00000000000E+00 -0.00000000000E+00 -0.45929275682E+01  0.45929282760E+01  0.25500000000E-02 0.  1.
         23    2    1    2    0    0  0.00000000000E+00  0.00000000000E+00  0.44222124488E+03  0.45140710073E+03  0.90602103550E+02 0.  0.
    9000005    2    3    3    0    0 -0.43955146766E+02  0.39803666450E+01  0.21882721069E+03  0.22369501770E+03  0.14360172722E+02 0.  0.
         22    1    3    3    0    0  0.43955146766E+02 -0.39803666450E+01  0.22339403420E+03  0.22771208304E+03  0.00000000000E+00 0.  1.
         22    1    4    4    0    0 -0.37710379468E+02 -0.14514015444E+01  0.16698465524E+03  0.17119595314E+03  0.00000000000E+00 0. -1.
         22    1    4    4    0    0 -0.62447672977E+01  0.54317681894E+01  0.51842555448E+02  0.52499064559E+02  0.00000000000E+00 0. -1.
<mgrwt>
<rscale>  0 0.90602104E+02</rscale>
<asrwt>0</asrwt>
<pdfrwt beam="1">  1        2 0.68740638E-01 0.90602104E+02</pdfrwt>
<pdfrwt beam="2">  1       -2 0.70660434E-03 0.90602104E+02</pdfrwt>
<totfact> 0.21103906E+05</totfact>
</mgrwt>
</event>
<event>
 7    1  0.3056193E-009  0.8992173E+02  0.7818608E-02  0.1303041E+00
         -2   -1    0    0    0  501 -0.00000000000E+00  0.00000000000E+00  0.10704764071E+04  0.10704764071E+04  0.25500000000E-02 0. -1.
          2   -1    0    0  501    0  0.00000000000E+00 -0.00000000000E+00 -0.18883914974E+01  0.18883932191E+01  0.25500000000E-02 0.  1.
         23    2    1    2    0    0  0.00000000000E+00  0.00000000000E+00  0.10685880156E+04  0.10723648003E+04  0.89921731970E+02 0.  0.
    9000005    2    3    3    0    0 -0.30507337983E+02 -0.45827607107E+01  0.92140028015E+03  0.92197886736E+03  0.10717099587E+02 0.  0.
         22    1    3    3    0    0  0.30507337983E+02  0.45827607107E+01  0.14718773545E+03  0.15038593297E+03  0.00000000000E+00 0.  1.
         22    1    4    4    0    0 -0.11375763991E+01 -0.25903967446E+01  0.13112405314E+03  0.13115457121E+03  0.00000000000E+00 0. -1.
         22    1    4    4    0    0 -0.29369761584E+02 -0.19923639661E+01  0.79027622701E+03  0.79082429615E+03  0.00000000000E+00 0. -1.
<mgrwt>
<rscale>  0 0.89921732E+02</rscale>
<asrwt>0</asrwt>
<pdfrwt beam="2">  1        2 0.29052181E-03 0.89921732E+02</pdfrwt>
<pdfrwt beam="1">  1       -2 0.16468873E+00 0.89921732E+02</pdfrwt>
<totfact> 0.17846587E+04</totfact>
</mgrwt>
</event>
<event>
 7    1  0.3056193E-009  0.8987370E+02  0.7818608E-02  0.1303158E+00
         -2   -1    0    0    0  501 -0.00000000000E+00  0.00000000000E+00  0.45195745523E+01  0.45195752717E+01  0.25500000000E-02 0.  1.
          2   -1    0    0  501    0  0.00000000000E+00 -0.00000000000E+00 -0.44679432682E+03  0.44679432682E+03  0.25500000000E-02 0. -1.
         23    2    1    2    0    0  0.17763568394E-14  0.00000000000E+00 -0.44227475226E+03  0.45131390210E+03  0.89873698791E+02 0.  0.
    9000005    2    3    3    0    0 -0.93621377323E+01 -0.42245630881E+02 -0.26816593744E+03  0.27190871167E+03  0.12207969883E+02 0.  0.
         22    1    3    3    0    0  0.93621377323E+01  0.42245630881E+02 -0.17410881483E+03  0.17940519043E+03  0.00000000000E+00 0. -1.
         22    1    4    4    0    0  0.27452426334E+00  0.77122742543E+00 -0.33438150108E+01  0.34425650523E+01  0.00000000000E+00 0.  1.
         22    1    4    4    0    0 -0.96366619957E+01 -0.43016858306E+02 -0.26482212242E+03  0.26846614662E+03  0.00000000000E+00 0.  1.
<mgrwt>
<rscale>  0 0.89873699E+02</rscale>
<asrwt>0</asrwt>
<pdfrwt beam="2">  1        2 0.68737553E-01 0.89873699E+02</pdfrwt>
<pdfrwt beam="1">  1       -2 0.69531958E-03 0.89873699E+02</pdfrwt>
<totfact> 0.21559254E+05</totfact>
</mgrwt>
</event>
<event>
 7    1  0.3056193E-009  0.8507702E+02  0.7818608E-02  0.1315231E+00
          2   -1    0    0  501    0  0.00000000000E+00  0.00000000000E+00  0.12012734682E+02  0.12012734953E+02  0.25500000000E-02 0. -1.
         -2   -1    0    0    0  501 -0.00000000000E+00 -0.00000000000E+00 -0.15063387430E+03  0.15063387432E+03  0.25500000000E-02 0.  1.
         23    2    1    2    0    0  0.00000000000E+00  0.00000000000E+00 -0.13862113962E+03  0.16264660927E+03  0.85077018985E+02 0.  0.
    9000005    2    3    3    0    0  0.18289986197E+02  0.28452672641E+02 -0.11830254449E+03  0.12318873954E+03  0.59912722011E+01 0.  0.
         22    1    3    3    0    0 -0.18289986197E+02 -0.28452672641E+02 -0.20318595127E+02  0.39457869727E+02  0.00000000000E+00 0. -1.
         22    1    4    4    0    0  0.51487212523E+01  0.13296217869E+02 -0.46538940070E+02  0.48674137722E+02  0.00000000000E+00 0.  1.
         22    1    4    4    0    0  0.13141264944E+02  0.15156454772E+02 -0.71763604419E+02  0.74514601823E+02  0.00000000000E+00 0.  1.
<mgrwt>
<rscale>  0 0.85077019E+02</rscale>
<asrwt>0</asrwt>
<pdfrwt beam="1">  1        2 0.18481132E-02 0.85077019E+02</pdfrwt>
<pdfrwt beam="2">  1       -2 0.23174441E-01 0.85077019E+02</pdfrwt>
<totfact> 0.83096655E+04</totfact>
</mgrwt>
</event>
<event>
 7    1  0.3056193E-009  0.8991844E+02  0.7818608E-02  0.1303049E+00
         -2   -1    0    0    0  501 -0.00000000000E+00  0.00000000000E+00  0.64170759179E+00  0.64171265833E+00  0.25500000000E-02 0.  1.
          2   -1    0    0  501    0  0.00000000000E+00 -0.00000000000E+00 -0.31499133022E+04  0.31499133022E+04  0.25500000000E-02 0. -1.
         23    2    1    2    0    0  0.00000000000E+00  0.00000000000E+00 -0.31492715946E+04  0.31505550149E+04  0.89918435536E+02 0.  0.
    9000005    2    3    3    0    0 -0.10235425802E+02 -0.92733128007E+01 -0.30735206319E+04  0.30735552316E+04  0.46828059136E+01 0.  0.
         22    1    3    3    0    0  0.10235425802E+02  0.92733128007E+01 -0.75750962677E+02  0.76999783235E+02  0.00000000000E+00 0.  1.
         22    1    4    4    0    0 -0.20827938194E+01 -0.46347092981E+01 -0.89749528843E+03  0.89750967199E+03  0.00000000000E+00 0.  1.
         22    1    4    4    0    0 -0.81526319822E+01 -0.46386035025E+01 -0.21760253435E+04  0.21760455596E+04  0.00000000000E+00 0.  1.
<mgrwt>
<rscale>  0 0.89918436E+02</rscale>
<asrwt>0</asrwt>
<pdfrwt beam="2">  1        2 0.48458967E+00 0.89918436E+02</pdfrwt>
<pdfrwt beam="1">  1       -2 0.98727157E-04 0.89918436E+02</pdfrwt>
<totfact> 0.92658256E+04</totfact>
</mgrwt>
</event>
<event>
 7    1  0.3953206E-009  0.9262240E+02  0.7818608E-02  0.1296623E+00
          2   -1    0    0  501    0  0.00000000000E+00  0.00000000000E+00  0.16416012851E+04  0.16416012851E+04  0.25500000000E-02 0. -1.
         -2   -1    0    0    0  501 -0.00000000000E+00 -0.00000000000E+00 -0.13064837328E+01  0.13064862213E+01  0.25500000000E-02 0.  1.
         23    2    1    2    0    0 -0.17763568394E-14 -0.35527136788E-14  0.16402948014E+04  0.16429077714E+04  0.92622403783E+02 0.  0.
    9000005    2    3    3    0    0  0.95201638710E+01  0.19846926201E+02  0.15397087824E+04  0.15399413632E+04  0.15222790587E+02 0.  0.
         22    1    3    3    0    0 -0.95201638710E+01 -0.19846926201E+02  0.10058601900E+03  0.10296640820E+03  0.00000000000E+00 0.  1.
         22    1    4    4    0    0  0.93810036058E+01  0.30455028174E+01  0.63462632302E+03  0.63470296060E+03  0.00000000000E+00 0. -1.
         22    1    4    4    0    0  0.13916026516E+00  0.16801423384E+02  0.90508245938E+03  0.90523840256E+03  0.00000000000E+00 0. -1.
<mgrwt>
<rscale>  0 0.92622404E+02</rscale>
<asrwt>0</asrwt>
<pdfrwt beam="1">  1        2 0.25255413E+00 0.92622404E+02</pdfrwt>
<pdfrwt beam="2">  1       -2 0.20099762E-03 0.92622404E+02</pdfrwt>
<totfact> 0.21741045E+05</totfact>
</mgrwt>
</event>
<event>
 7    1  0.3056193E-009  0.9261287E+02  0.7818608E-02  0.1296645E+00
          2   -1    0    0  501    0  0.00000000000E+00  0.00000000000E+00  0.14942192843E+02  0.14942193060E+02  0.25500000000E-02 0. -1.
         -2   -1    0    0    0  501 -0.00000000000E+00 -0.00000000000E+00 -0.14350542777E+03  0.14350542779E+03  0.25500000000E-02 0.  1.
         23    2    1    2    0    0 -0.35527136788E-14  0.35527136788E-14 -0.12856323492E+03  0.15844762085E+03  0.92612867242E+02 0.  0.
    9000005    2    3    3    0    0 -0.18368860021E+02  0.19236441520E+02 -0.12855518124E+03  0.13184958021E+03  0.12264643367E+02 0.  0.
         22    1    3    3    0    0  0.18368860021E+02 -0.19236441520E+02 -0.80536793475E-02  0.26598040636E+02  0.00000000000E+00 0. -1.
         22    1    4    4    0    0 -0.77070932614E+01  0.55759315745E+01 -0.23130047825E+02  0.25009786321E+02  0.00000000000E+00 0.  1.
         22    1    4    4    0    0 -0.10661766759E+02  0.13660509945E+02 -0.10542513342E+03  0.10683979389E+03  0.00000000000E+00 0.  1.
<mgrwt>
<rscale>  0 0.92612867E+02</rscale>
<asrwt>0</asrwt>
<pdfrwt beam="1">  1        2 0.22987990E-02 0.92612867E+02</pdfrwt>
<pdfrwt beam="2">  1       -2 0.22077757E-01 0.92612867E+02</pdfrwt>
<totfact> 0.68225871E+04</totfact>
</mgrwt>
</event>
<event>
 7    1  0.3056193E-009  0.9364456E+02  0.7818608E-02  0.1294258E+00
          2   -1    0    0  501    0  0.00000000000E+00  0.00000000000E+00  0.73348627266E+03  0.73348627266E+03  0.25500000000E-02 0. -1.
         -2   -1    0    0    0  501 -0.00000000000E+00 -0.00000000000E+00 -0.29889115193E+01  0.29889126071E+01  0.25500000000E-02 0.  1.
         23    2    1    2    0    0  0.00000000000E+00  0.00000000000E+00  0.73049736114E+03  0.73647518527E+03  0.93644561439E+02 0.  0.
    9000005    2    3    3    0    0 -0.84209774250E+01 -0.42948339240E+02  0.47396473980E+03  0.47623595203E+03  0.15576736870E+02 0.  0.
         22    1    3    3    0    0  0.84209774250E+01  0.42948339240E+02  0.25653262134E+03  0.26023923323E+03  0.00000000000E+00 0.  1.
         22    1    4    4    0    0 -0.10156679154E+02 -0.21045342343E+02  0.19208410280E+03  0.19350030262E+03  0.00000000000E+00 0. -1.
         22    1    4    4    0    0  0.17357017290E+01 -0.21902996897E+02  0.28188063700E+03  0.28273564941E+03  0.00000000000E+00 0. -1.
<mgrwt>
<rscale>  0 0.93644561E+02</rscale>
<asrwt>0</asrwt>
<pdfrwt beam="1">  1        2 0.11284411E+00 0.93644561E+02</pdfrwt>
<pdfrwt beam="2">  1       -2 0.45983233E-03 0.93644561E+02</pdfrwt>
<totfact> 0.22331812E+05</totfact>
</mgrwt>
</event>
<event>
 7    1  0.3056193E-009  0.9339857E+02  0.7818608E-02  0.1294824E+00
         -2   -1    0    0    0  501 -0.00000000000E+00  0.00000000000E+00  0.12202186958E+02  0.12202187225E+02  0.25500000000E-02 0. -1.
          2   -1    0    0  501    0  0.00000000000E+00 -0.00000000000E+00 -0.17872394343E+03  0.17872394345E+03  0.25500000000E-02 0.  1.
         23    2    1    2    0    0  0.35527136788E-14  0.00000000000E+00 -0.16652175647E+03  0.19092613067E+03  0.93398565274E+02 0.  0.
    9000005    2    3    3    0    0 -0.19282050365E+02 -0.35586783726E+02 -0.42304867551E+02  0.60281375189E+02  0.14350112680E+02 0.  0.
         22    1    3    3    0    0  0.19282050365E+02  0.35586783726E+02 -0.12421688892E+03  0.13064475548E+03  0.00000000000E+00 0. -1.
         22    1    4    4    0    0 -0.21015293379E+02 -0.27337712013E+02 -0.34907394679E+02  0.49066477938E+02  0.00000000000E+00 0.  1.
         22    1    4    4    0    0  0.17332430141E+01 -0.82490717128E+01 -0.73974728716E+01  0.11214897251E+02  0.00000000000E+00 0.  1.
<mgrwt>
<rscale>  0 0.93398565E+02</rscale>
<asrwt>0</asrwt>
<pdfrwt beam="2">  1        2 0.27495989E-01 0.93398565E+02</pdfrwt>
<pdfrwt beam="1">  1       -2 0.18772597E-02 0.93398565E+02</pdfrwt>
<totfact> 0.13919946E+05</totfact>
</mgrwt>
</event>
<event>
 7    1  0.3056193E-009  0.8203906E+02  0.7818608E-02  0.1323362E+00
          2   -1    0    0  501    0  0.00000000000E+00  0.00000000000E+00  0.12977108039E+02  0.12977108289E+02  0.25500000000E-02 0. -1.
         -2   -1    0    0    0  501 -0.00000000000E+00 -0.00000000000E+00 -0.12965922527E+03  0.12965922530E+03  0.25500000000E-02 0.  1.
         23    2    1    2    0    0  0.00000000000E+00  0.00000000000E+00 -0.11668211724E+03  0.14263633359E+03  0.82039058850E+02 0.  0.
    9000005    2    3    3    0    0 -0.13523952389E+02 -0.36827834911E+02 -0.49423820077E+02  0.64771930624E+02  0.14611717671E+02 0.  0.
         22    1    3    3    0    0  0.13523952389E+02  0.36827834911E+02 -0.67258297158E+02  0.77864402964E+02  0.00000000000E+00 0.  1.
         22    1    4    4    0    0 -0.12136119369E+02 -0.31821699344E+02 -0.48843196749E+02  0.59544637132E+02  0.00000000000E+00 0.  1.
         22    1    4    4    0    0 -0.13878330196E+01 -0.50061355669E+01 -0.58062332805E+00  0.52272934922E+01  0.00000000000E+00 0.  1.
<mgrwt>
<rscale>  0 0.82039059E+02</rscale>
<asrwt>0</asrwt>
<pdfrwt beam="1">  1        2 0.19964783E-02 0.82039059E+02</pdfrwt>
<pdfrwt beam="2">  1       -2 0.19947572E-01 0.82039059E+02</pdfrwt>
<totfact> 0.95879949E+04</totfact>
</mgrwt>
</event>
<event>
 7    1  0.3056193E-009  0.9049375E+02  0.7818608E-02  0.1301660E+00
          2   -1    0    0  501    0  0.00000000000E+00  0.00000000000E+00  0.16836158607E+02  0.16836158800E+02  0.25500000000E-02 0. -1.
         -2   -1    0    0    0  501 -0.00000000000E+00 -0.00000000000E+00 -0.12160017303E+03  0.12160017305E+03  0.25500000000E-02 0.  1.
         23    2    1    2    0    0  0.00000000000E+00  0.00000000000E+00 -0.10476401442E+03  0.13843633185E+03  0.90493752600E+02 0.  0.
    9000005    2    3    3    0    0  0.30754785479E+02  0.12213796968E+02 -0.52058331286E+01  0.33522723926E+02  0.12800994590E+01 0.  0.
         22    1    3    3    0    0 -0.30754785479E+02 -0.12213796968E+02 -0.99558181291E+02  0.10491360793E+03  0.00000000000E+00 0. -1.
         22    1    4    4    0    0  0.16888094075E+02  0.66449698308E+01 -0.22124271378E+01  0.18282728992E+02  0.00000000000E+00 0. -1.
         22    1    4    4    0    0  0.13866691404E+02  0.55688271377E+01 -0.29934059909E+01  0.15239994934E+02  0.00000000000E+00 0. -1.
<mgrwt>
<rscale>  0 0.90493753E+02</rscale>
<asrwt>0</asrwt>
<pdfrwt beam="1">  1        2 0.25901783E-02 0.90493753E+02</pdfrwt>
<pdfrwt beam="2">  1       -2 0.18707718E-01 0.90493753E+02</pdfrwt>
<totfact> 0.76523960E+04</totfact>
</mgrwt>
</event>
<event>
 7    1  0.3056193E-009  0.9080081E+02  0.7818608E-02  0.1300924E+00
          2   -1    0    0  501    0  0.00000000000E+00  0.00000000000E+00  0.52067219787E+01  0.52067226032E+01  0.25500000000E-02 0. -1.
         -2   -1    0    0    0  501 -0.00000000000E+00 -0.00000000000E+00 -0.39587223491E+03  0.39587223491E+03  0.25500000000E-02 0.  1.
         23    2    1    2    0    0 -0.35527136788E-14  0.00000000000E+00 -0.39066551293E+03  0.40107895752E+03  0.90800810418E+02 0.  0.
    9000005    2    3    3    0    0 -0.27527662478E+02 -0.35000643102E+02 -0.18253962552E+03  0.18824286512E+03  0.11482341377E+02 0.  0.
         22    1    3    3    0    0  0.27527662478E+02  0.35000643102E+02 -0.20812588741E+03  0.21283609240E+03  0.00000000000E+00 0.  1.
         22    1    4    4    0    0 -0.28549063138E+01  0.33252737208E+00 -0.12682717220E+02  0.13004321612E+02  0.00000000000E+00 0. -1.
         22    1    4    4    0    0 -0.24672756165E+02 -0.35333170474E+02 -0.16985690830E+03  0.17523854350E+03  0.00000000000E+00 0. -1.
<mgrwt>
<rscale>  0 0.90800810E+02</rscale>
<asrwt>0</asrwt>
<pdfrwt beam="1">  1        2 0.80103451E-03 0.90800810E+02</pdfrwt>
<pdfrwt beam="2">  1       -2 0.60903397E-01 0.90800810E+02</pdfrwt>
<totfact> 0.43453618E+04</totfact>
</mgrwt>
</event>
<event>
 7    1  0.3056193E-009  0.9119882E+02  0.7818608E-02  0.1299974E+00
         -2   -1    0    0    0  501 -0.00000000000E+00  0.00000000000E+00  0.13409636530E+02  0.13409636772E+02  0.25500000000E-02 0.  1.
          2   -1    0    0  501    0  0.00000000000E+00 -0.00000000000E+00 -0.15506060677E+03  0.15506060679E+03  0.25500000000E-02 0. -1.
         23    2    1    2    0    0  0.00000000000E+00  0.00000000000E+00 -0.14165097024E+03  0.16847024357E+03  0.91198824534E+02 0.  0.
    9000005    2    3    3    0    0 -0.22444000206E+02 -0.24174235915E+02 -0.12794857180E+03  0.13275074538E+03  0.12798302530E+02 0.  0.
         22    1    3    3    0    0  0.22444000206E+02  0.24174235915E+02 -0.13702398449E+02  0.35719498185E+02  0.00000000000E+00 0.  1.
         22    1    4    4    0    0 -0.10315466809E+02 -0.14561905373E+02 -0.90283997294E+02  0.92030745466E+02  0.00000000000E+00 0. -1.
         22    1    4    4    0    0 -0.12128533397E+02 -0.96123305418E+01 -0.37664574502E+02  0.40719999917E+02  0.00000000000E+00 0. -1.
<mgrwt>
<rscale>  0 0.91198825E+02</rscale>
<asrwt>0</asrwt>
<pdfrwt beam="2">  1        2 0.23855477E-01 0.91198825E+02</pdfrwt>
<pdfrwt beam="1">  1       -2 0.20630211E-02 0.91198825E+02</pdfrwt>
<totfact> 0.14131031E+05</totfact>
</mgrwt>
</event>
<event>
 7    1  0.3056193E-009  0.9218519E+02  0.7818608E-02  0.1297645E+00
          2   -1    0    0  501    0  0.00000000000E+00  0.00000000000E+00  0.64311877037E+02  0.64311877088E+02  0.25500000000E-02 0. -1.
         -2   -1    0    0    0  501 -0.00000000000E+00 -0.00000000000E+00 -0.33034757830E+02  0.33034757929E+02  0.25500000000E-02 0.  1.
         23    2    1    2    0    0  0.00000000000E+00  0.00000000000E+00  0.31277119207E+02  0.97346635017E+02  0.92185189500E+02 0.  0.
    9000005    2    3    3    0    0  0.18173472577E+02 -0.13259341702E+02  0.57493717029E+02  0.62801081768E+02  0.11504917453E+02 0.  0.
         22    1    3    3    0    0 -0.18173472577E+02  0.13259341702E+02 -0.26216597822E+02  0.34545553248E+02  0.00000000000E+00 0.  1.
         22    1    4    4    0    0  0.68913458395E+01 -0.55685241869E+01  0.98916519112E+01  0.13279453552E+02  0.00000000000E+00 0.  1.
         22    1    4    4    0    0  0.11282126738E+02 -0.76908175154E+01  0.47602065117E+02  0.49521628217E+02  0.00000000000E+00 0.  1.
<mgrwt>
<rscale>  0 0.92185190E+02</rscale>
<asrwt>0</asrwt>
<pdfrwt beam="1">  1        2 0.98941347E-02 0.92185190E+02</pdfrwt>
<pdfrwt beam="2">  1       -2 0.50822705E-02 0.92185190E+02</pdfrwt>
<totfact> 0.10478096E+05</totfact>
</mgrwt>
</event>
<event>
 7    1  0.3056193E-009  0.8327228E+02  0.7818608E-02  0.1320014E+00
         -2   -1    0    0    0  501 -0.00000000000E+00  0.00000000000E+00  0.70667565643E+03  0.70667565644E+03  0.25500000000E-02 0. -1.
          2   -1    0    0  501    0  0.00000000000E+00 -0.00000000000E+00 -0.24531305844E+01  0.24531319098E+01  0.25500000000E-02 0.  1.
         23    2    1    2    0    0  0.00000000000E+00  0.17763568394E-14  0.70422252585E+03  0.70912878835E+03  0.83272279604E+02 0.  0.
    9000005    2    3    3    0    0 -0.52918327180E+01 -0.14343989866E+02  0.68098667585E+03  0.68131407527E+03  0.14569245949E+02 0.  0.
         22    1    3    3    0    0  0.52918327180E+01  0.14343989866E+02  0.23235849996E+02  0.27814713082E+02  0.00000000000E+00 0.  1.
         22    1    4    4    0    0 -0.60846679659E+01 -0.17029230686E+02  0.54913757625E+03  0.54943525145E+03  0.00000000000E+00 0. -1.
         22    1    4    4    0    0  0.79283524790E+00  0.26852408200E+01  0.13184909960E+03  0.13187882382E+03  0.00000000000E+00 0. -1.
<mgrwt>
<rscale>  0 0.83272280E+02</rscale>
<asrwt>0</asrwt>
<pdfrwt beam="2">  1        2 0.37740432E-03 0.83272280E+02</pdfrwt>
<pdfrwt beam="1">  1       -2 0.10871947E+00 0.83272280E+02</pdfrwt>
<totfact> 0.34059231E+04</totfact>
</mgrwt>
</event>
<event>
 7    1  0.3056193E-009  0.9203944E+02  0.7818608E-02  0.1297987E+00
         -2   -1    0    0    0  501 -0.00000000000E+00  0.00000000000E+00  0.46122885734E+02  0.46122885805E+02  0.25500000000E-02 0. -1.
          2   -1    0    0  501    0  0.00000000000E+00 -0.00000000000E+00 -0.45916788372E+02  0.45916788443E+02  0.25500000000E-02 0.  1.
         23    2    1    2    0    0 -0.35527136788E-14  0.00000000000E+00  0.20609736212E+00  0.92039674248E+02  0.92039443498E+02 0.  0.
    9000005    2    3    3    0    0 -0.21303105199E+02 -0.37911591616E+02 -0.11058014047E+02  0.47117616460E+02  0.14376335980E+02 0.  0.
         22    1    3    3    0    0  0.21303105199E+02  0.37911591616E+02  0.11264111409E+02  0.44922057787E+02  0.00000000000E+00 0.  1.
         22    1    4    4    0    0 -0.21679014449E+02 -0.36901067544E+02 -0.13142790655E+02  0.44770541649E+02  0.00000000000E+00 0. -1.
         22    1    4    4    0    0  0.37590924973E+00 -0.10105240724E+01  0.20847766077E+01  0.23470748111E+01  0.00000000000E+00 0. -1.
<mgrwt>
<rscale>  0 0.92039443E+02</rscale>
<asrwt>0</asrwt>
<pdfrwt beam="2">  1        2 0.70641213E-02 0.92039443E+02</pdfrwt>
<pdfrwt beam="1">  1       -2 0.70958286E-02 0.92039443E+02</pdfrwt>
<totfact> 0.96219282E+04</totfact>
</mgrwt>
</event>
<event>
 7    1  0.3056193E-009  0.9209386E+02  0.7818608E-02  0.1297859E+00
         -2   -1    0    0    0  501 -0.00000000000E+00  0.00000000000E+00  0.60242765878E+02  0.60242765932E+02  0.25500000000E-02 0.  1.
          2   -1    0    0  501    0  0.00000000000E+00 -0.00000000000E+00 -0.35196254421E+02  0.35196254514E+02  0.25500000000E-02 0. -1.
         23    2    1    2    0    0  0.00000000000E+00 -0.71054273576E-14  0.25046511457E+02  0.95439020445E+02  0.92093859119E+02 0.  0.
    9000005    2    3    3    0    0  0.49211208905E+01  0.36760526530E+02  0.39779040635E+02  0.55531613143E+02  0.11217586318E+02 0.  0.
         22    1    3    3    0    0 -0.49211208905E+01 -0.36760526530E+02 -0.14732529179E+02  0.39907407302E+02  0.00000000000E+00 0. -1.
         22    1    4    4    0    0  0.21340257828E+01  0.34001863731E+02  0.38493973221E+02  0.51404929506E+02  0.00000000000E+00 0. -1.
         22    1    4    4    0    0  0.27870951077E+01  0.27586627994E+01  0.12850674149E+01  0.41266836371E+01  0.00000000000E+00 0. -1.
<mgrwt>
<rscale>  0 0.92093859E+02</rscale>
<asrwt>0</asrwt>
<pdfrwt beam="2">  1        2 0.54148084E-02 0.92093859E+02</pdfrwt>
<pdfrwt beam="1">  1       -2 0.92681178E-02 0.92093859E+02</pdfrwt>
<totfact> 0.89603377E+04</totfact>
</mgrwt>
</event>
<event>
 7    1  0.3056193E-009  0.9179769E+02  0.7818608E-02  0.1298556E+00
          2   -1    0    0  501    0  0.00000000000E+00  0.00000000000E+00  0.53795530300E+02  0.53795530360E+02  0.25500000000E-02 0.  1.
         -2   -1    0    0    0  501 -0.00000000000E+00 -0.00000000000E+00 -0.39161318174E+02  0.39161318257E+02  0.25500000000E-02 0. -1.
         23    2    1    2    0    0  0.00000000000E+00  0.17763568394E-14  0.14634212126E+02  0.92956848617E+02  0.91797688098E+02 0.  0.
    9000005    2    3    3    0    0  0.30136979299E+01 -0.14253243893E+02  0.51023478328E+02  0.53759705464E+02  0.86297887663E+01 0.  0.
         22    1    3    3    0    0 -0.30136979299E+01  0.14253243893E+02 -0.36389266202E+02  0.39197143153E+02  0.00000000000E+00 0. -1.
         22    1    4    4    0    0 -0.48669220031E-01  0.93960407941E+00  0.92777832363E+00  0.13213618493E+01  0.00000000000E+00 0. -1.
         22    1    4    4    0    0  0.30623671499E+01 -0.15192847972E+02  0.50095700004E+02  0.52438343614E+02  0.00000000000E+00 0. -1.
<mgrwt>
<rscale>  0 0.91797688E+02</rscale>
<asrwt>0</asrwt>
<pdfrwt beam="1">  1        2 0.82762354E-02 0.91797688E+02</pdfrwt>
<pdfrwt beam="2">  1       -2 0.60248182E-02 0.91797688E+02</pdfrwt>
<totfact> 0.10106776E+05</totfact>
</mgrwt>
</event>
<event>
 7    1  0.3056193E-009  0.9006592E+02  0.7818608E-02  0.1302692E+00
         -2   -1    0    0    0  501 -0.00000000000E+00  0.00000000000E+00  0.17612903944E+02  0.17612904129E+02  0.25500000000E-02 0.  1.
          2   -1    0    0  501    0  0.00000000000E+00 -0.00000000000E+00 -0.11514099593E+03  0.11514099595E+03  0.25500000000E-02 0. -1.
         23    2    1    2    0    0  0.00000000000E+00  0.00000000000E+00 -0.97528091982E+02  0.13275390008E+03  0.90065916204E+02 0.  0.
    9000005    2    3    3    0    0 -0.24810199119E+02 -0.20480415350E+02 -0.94935377251E+02  0.10047828138E+03  0.69401571605E+01 0.  0.
         22    1    3    3    0    0  0.24810199119E+02  0.20480415350E+02 -0.25927147313E+01  0.32275618707E+02  0.00000000000E+00 0.  1.
         22    1    4    4    0    0 -0.14902680973E+02 -0.82224293685E+01 -0.44825852428E+02  0.47948464947E+02  0.00000000000E+00 0. -1.
         22    1    4    4    0    0 -0.99075181463E+01 -0.12257985981E+02 -0.50109524823E+02  0.52529816429E+02  0.00000000000E+00 0. -1.
<mgrwt>
<rscale>  0 0.90065916E+02</rscale>
<asrwt>0</asrwt>
<pdfrwt beam="2">  1        2 0.17713999E-01 0.90065916E+02</pdfrwt>
<pdfrwt beam="1">  1       -2 0.27096776E-02 0.90065916E+02</pdfrwt>
<totfact> 0.13253435E+05</totfact>
</mgrwt>
</event>
<event>
 7    1  0.3056193E-009  0.9409390E+02  0.7818608E-02  0.1293230E+00
         -2   -1    0    0    0  501 -0.00000000000E+00  0.00000000000E+00  0.40499779258E+01  0.40499787286E+01  0.25500000000E-02 0.  1.
          2   -1    0    0  501    0  0.00000000000E+00 -0.00000000000E+00 -0.54652521912E+03  0.54652521912E+03  0.25500000000E-02 0. -1.
         23    2    1    2    0    0 -0.44408920985E-15  0.00000000000E+00 -0.54247524119E+03  0.55057519785E+03  0.94093895572E+02 0.  0.
    9000005    2    3    3    0    0 -0.35729601761E+01 -0.39814481381E+02 -0.41329451856E+03  0.41535087286E+03  0.10297064390E+02 0.  0.
         22    1    3    3    0    0  0.35729601761E+01  0.39814481381E+02 -0.12918072263E+03  0.13522432500E+03  0.00000000000E+00 0.  1.
         22    1    4    4    0    0 -0.46792917141E+01 -0.68966343510E+01 -0.80082507887E+02  0.80515013543E+02  0.00000000000E+00 0. -1.
         22    1    4    4    0    0  0.11063315380E+01 -0.32917847030E+02 -0.33321201068E+03  0.33483585931E+03  0.00000000000E+00 0. -1.
<mgrwt>
<rscale>  0 0.94093896E+02</rscale>
<asrwt>0</asrwt>
<pdfrwt beam="2">  1        2 0.84080745E-01 0.94093896E+02</pdfrwt>
<pdfrwt beam="1">  1       -2 0.62307402E-03 0.94093896E+02</pdfrwt>
<totfact> 0.20390378E+05</totfact>
</mgrwt>
</event>
<event>
 7    1  0.3056193E-009  0.8961187E+02  0.7818608E-02  0.1303794E+00
          2   -1    0    0  501    0  0.00000000000E+00  0.00000000000E+00  0.67039951086E+01  0.67039955936E+01  0.25500000000E-02 0.  1.
         -2   -1    0    0    0  501 -0.00000000000E+00 -0.00000000000E+00 -0.29945898990E+03  0.29945898991E+03  0.25500000000E-02 0. -1.
         23    2    1    2    0    0  0.00000000000E+00  0.00000000000E+00 -0.29275499479E+03  0.30616298550E+03  0.89611867058E+02 0.  0.
    9000005    2    3    3    0    0  0.18342368893E+02 -0.28238472951E+02 -0.24487571029E+03  0.24762855345E+03  0.14897420707E+02 0.  0.
         22    1    3    3    0    0 -0.18342368893E+02  0.28238472951E+02 -0.47879284498E+02  0.58534432048E+02  0.00000000000E+00 0.  1.
         22    1    4    4    0    0  0.15338298274E+02 -0.29739358603E+02 -0.22199467630E+03  0.22450240344E+03  0.00000000000E+00 0.  1.
         22    1    4    4    0    0  0.30040706193E+01  0.15008856519E+01 -0.22881033992E+02  0.23126150016E+02  0.00000000000E+00 0.  1.
<mgrwt>
<rscale>  0 0.89611867E+02</rscale>
<asrwt>0</asrwt>
<pdfrwt beam="1">  1        2 0.10313841E-02 0.89611867E+02</pdfrwt>
<pdfrwt beam="2">  1       -2 0.46070603E-01 0.89611867E+02</pdfrwt>
<totfact> 0.53378209E+04</totfact>
</mgrwt>
</event>
<event>
 7    1  0.3056193E-009  0.9127285E+02  0.7818608E-02  0.1299798E+00
         -2   -1    0    0    0  501 -0.00000000000E+00  0.00000000000E+00  0.93018260850E+01  0.93018264345E+01  0.25500000000E-02 0. -1.
          2   -1    0    0  501    0  0.00000000000E+00 -0.00000000000E+00 -0.22390046335E+03  0.22390046336E+03  0.25500000000E-02 0.  1.
         23    2    1    2    0    0 -0.71054273576E-14  0.00000000000E+00 -0.21459863726E+03  0.23320228980E+03  0.91272848380E+02 0.  0.
    9000005    2    3    3    0    0  0.40307355543E+02  0.75854810341E+01 -0.15590820461E+03  0.16160068843E+03  0.11188914275E+02 0.  0.
         22    1    3    3    0    0 -0.40307355543E+02 -0.75854810341E+01 -0.58690432652E+02  0.71601601367E+02  0.00000000000E+00 0. -1.
         22    1    4    4    0    0  0.11535160335E+00  0.18413313631E+01 -0.51226726062E+01  0.54447756438E+01  0.00000000000E+00 0.  1.
         22    1    4    4    0    0  0.40192003940E+02  0.57441496710E+01 -0.15078553200E+03  0.15615591279E+03  0.00000000000E+00 0.  1.
<mgrwt>
<rscale>  0 0.91272848E+02</rscale>
<asrwt>0</asrwt>
<pdfrwt beam="2">  1        2 0.34446221E-01 0.91272848E+02</pdfrwt>
<pdfrwt beam="1">  1       -2 0.14310504E-02 0.91272848E+02</pdfrwt>
<totfact> 0.16071994E+05</totfact>
</mgrwt>
</event>
<event>
 7    1  0.3056193E-009  0.8926429E+02  0.7818608E-02  0.1304643E+00
         -2   -1    0    0    0  501 -0.00000000000E+00  0.00000000000E+00  0.12995449194E+01  0.12995474213E+01  0.25500000000E-02 0.  1.
          2   -1    0    0  501    0  0.00000000000E+00 -0.00000000000E+00 -0.15328646694E+04  0.15328646694E+04  0.25500000000E-02 0. -1.
         23    2    1    2    0    0 -0.17763568394E-14 -0.17763568394E-14 -0.15315651245E+04  0.15341642168E+04  0.89264291046E+02 0.  0.
    9000005    2    3    3    0    0 -0.99275886725E+01 -0.11999553921E+02 -0.14835673861E+04  0.14837030515E+04  0.12649496812E+02 0.  0.
         22    1    3    3    0    0  0.99275886725E+01  0.11999553921E+02 -0.47997738402E+02  0.50461165294E+02  0.00000000000E+00 0.  1.
         22    1    4    4    0    0 -0.28329024806E+01 -0.64690955780E+01 -0.11272845512E+04  0.11273066725E+04  0.00000000000E+00 0.  1.
         22    1    4    4    0    0 -0.70946861919E+01 -0.55304583429E+01 -0.35628283488E+03  0.35639637901E+03  0.00000000000E+00 0.  1.
<mgrwt>
<rscale>  0 0.89264291E+02</rscale>
<asrwt>0</asrwt>
<pdfrwt beam="2">  1        2 0.23582389E+00 0.89264291E+02</pdfrwt>
<pdfrwt beam="1">  1       -2 0.19993141E-03 0.89264291E+02</pdfrwt>
<totfact> 0.24739025E+05</totfact>
</mgrwt>
</event>
<event>
 7    1  0.3056193E-009  0.8962924E+02  0.7818608E-02  0.1303752E+00
          2   -1    0    0  501    0  0.00000000000E+00  0.00000000000E+00  0.34368968640E+03  0.34368968641E+03  0.25500000000E-02 0. -1.
         -2   -1    0    0    0  501 -0.00000000000E+00 -0.00000000000E+00 -0.58434983870E+01  0.58434989434E+01  0.25500000000E-02 0.  1.
         23    2    1    2    0    0  0.00000000000E+00  0.00000000000E+00  0.33784618801E+03  0.34953318535E+03  0.89629241367E+02 0.  0.
    9000005    2    3    3    0    0  0.32521261641E+02 -0.23372471974E+02  0.24644455412E+03  0.24974258669E+03  0.57040723988E+01 0.  0.
         22    1    3    3    0    0 -0.32521261641E+02  0.23372471974E+02  0.91401633888E+02  0.99790598667E+02  0.00000000000E+00 0. -1.
         22    1    4    4    0    0  0.25528109771E+02 -0.21024798459E+02  0.20295341378E+03  0.20563028645E+03  0.00000000000E+00 0. -1.
         22    1    4    4    0    0  0.69931518693E+01 -0.23476735145E+01  0.43491140340E+02  0.44112300236E+02  0.00000000000E+00 0. -1.
<mgrwt>
<rscale>  0 0.89629241E+02</rscale>
<asrwt>0</asrwt>
<pdfrwt beam="1">  1        2 0.52875341E-01 0.89629241E+02</pdfrwt>
<pdfrwt beam="2">  1       -2 0.89899972E-03 0.89629241E+02</pdfrwt>
<totfact> 0.19772698E+05</totfact>
</mgrwt>
</event>
<event>
 7    1  0.3056193E-009  0.9049021E+02  0.7818608E-02  0.1301669E+00
         -2   -1    0    0    0  501 -0.00000000000E+00  0.00000000000E+00  0.15284874768E+03  0.15284874770E+03  0.25500000000E-02 0.  1.
          2   -1    0    0  501    0  0.00000000000E+00 -0.00000000000E+00 -0.13393107029E+02  0.13393107272E+02  0.25500000000E-02 0. -1.
         23    2    1    2    0    0  0.00000000000E+00  0.00000000000E+00  0.13945564065E+03  0.16624185497E+03  0.90490212926E+02 0.  0.
    9000005    2    3    3    0    0  0.12755596712E+02  0.10775171307E+02  0.14677926931E+03  0.14800877786E+03  0.91452097871E+01 0.  0.
         22    1    3    3    0    0 -0.12755596712E+02 -0.10775171307E+02 -0.73236286564E+01  0.18233077109E+02  0.00000000000E+00 0. -1.
         22    1    4    4    0    0  0.11408807044E+02  0.43922365959E+01  0.82769813504E+02  0.83667763493E+02  0.00000000000E+00 0. -1.
         22    1    4    4    0    0  0.13467896679E+01  0.63829347109E+01  0.64009455803E+02  0.64341014369E+02  0.00000000000E+00 0. -1.
<mgrwt>
<rscale>  0 0.90490213E+02</rscale>
<asrwt>0</asrwt>
<pdfrwt beam="2">  1        2 0.20604780E-02 0.90490213E+02</pdfrwt>
<pdfrwt beam="1">  1       -2 0.23515193E-01 0.90490213E+02</pdfrwt>
<totfact> 0.70717772E+04</totfact>
</mgrwt>
</event>
<event>
 7    1  0.3056193E-009  0.9324493E+02  0.7818608E-02  0.1295179E+00
          2   -1    0    0  501    0  0.00000000000E+00  0.00000000000E+00  0.46984656000E+02  0.46984656069E+02  0.25500000000E-02 0.  1.
         -2   -1    0    0    0  501 -0.00000000000E+00 -0.00000000000E+00 -0.46263065580E+02  0.46263065650E+02  0.25500000000E-02 0. -1.
         23    2    1    2    0    0  0.00000000000E+00  0.00000000000E+00  0.72159042049E+00  0.93247721719E+02  0.93244929691E+02 0.  0.
    9000005    2    3    3    0    0  0.40477034906E+01  0.44946001610E+02  0.38649088315E+01  0.48010486891E+02  0.15923013755E+02 0.  0.
         22    1    3    3    0    0 -0.40477034906E+01 -0.44946001610E+02 -0.31433184110E+01  0.45237234828E+02  0.00000000000E+00 0. -1.
         22    1    4    4    0    0 -0.30307674331E+01  0.33103414830E+02 -0.13290166300E+01  0.33268422113E+02  0.00000000000E+00 0. -1.
         22    1    4    4    0    0  0.70784709237E+01  0.11842586779E+02  0.51939254615E+01  0.14742064779E+02  0.00000000000E+00 0. -1.
<mgrwt>
<rscale>  0 0.93244930E+02</rscale>
<asrwt>0</asrwt>
<pdfrwt beam="1">  1        2 0.72284086E-02 0.93244930E+02</pdfrwt>
<pdfrwt beam="2">  1       -2 0.71173947E-02 0.93244930E+02</pdfrwt>
<totfact> 0.93244609E+04</totfact>
</mgrwt>
</event>
<event>
 7    1  0.3056193E-009  0.9090932E+02  0.7818608E-02  0.1300664E+00
          2   -1    0    0  501    0  0.00000000000E+00  0.00000000000E+00  0.10021765173E+03  0.10021765177E+03  0.25500000000E-02 0. -1.
         -2   -1    0    0    0  501 -0.00000000000E+00 -0.00000000000E+00 -0.20616388953E+02  0.20616389110E+02  0.25500000000E-02 0.  1.
         23    2    1    2    0    0  0.00000000000E+00  0.71054273576E-14  0.79601262780E+02  0.12083404088E+03  0.90909319644E+02 0.  0.
    9000005    2    3    3    0    0  0.90073584709E+01 -0.32419265996E+02 -0.29527823278E+00  0.34141488830E+02  0.57803768004E+01 0.  0.
         22    1    3    3    0    0 -0.90073584709E+01  0.32419265996E+02  0.79896541013E+02  0.86692552045E+02  0.00000000000E+00 0. -1.
         22    1    4    4    0    0  0.72462384906E+01 -0.30978178219E+02 -0.73935003833E+00  0.31822981264E+02  0.00000000000E+00 0.  1.
         22    1    4    4    0    0  0.17611199803E+01 -0.14410877766E+01  0.44407180554E+00  0.23185075659E+01  0.00000000000E+00 0.  1.
<mgrwt>
<rscale>  0 0.90909320E+02</rscale>
<asrwt>0</asrwt>
<pdfrwt beam="1">  1        2 0.15418100E-01 0.90909320E+02</pdfrwt>
<pdfrwt beam="2">  1       -2 0.31717522E-02 0.90909320E+02</pdfrwt>
<totfact> 0.12375429E+05</totfact>
</mgrwt>
</event>
<event>
 7    1  0.3056193E-009  0.9120413E+02  0.7818608E-02  0.1299962E+00
          2   -1    0    0  501    0  0.00000000000E+00  0.00000000000E+00  0.11367544564E+03  0.11367544567E+03  0.25500000000E-02 0.  1.
         -2   -1    0    0    0  501 -0.00000000000E+00 -0.00000000000E+00 -0.18293732285E+02  0.18293732463E+02  0.25500000000E-02 0. -1.
         23    2    1    2    0    0  0.00000000000E+00  0.00000000000E+00  0.95381713356E+02  0.13196917813E+03  0.91204126739E+02 0.  0.
    9000005    2    3    3    0    0 -0.34990969101E+02  0.22747687267E+02  0.71691974446E+02  0.83979294571E+02  0.13075072544E+02 0.  0.
         22    1    3    3    0    0  0.34990969101E+02 -0.22747687267E+02  0.23689738910E+02  0.47989883562E+02  0.00000000000E+00 0. -1.
         22    1    4    4    0    0 -0.61284327581E+01  0.42212177719E+01  0.24740134159E+02  0.25835065430E+02  0.00000000000E+00 0.  1.
         22    1    4    4    0    0 -0.28862536343E+02  0.18526469495E+02  0.46951840287E+02  0.58144229141E+02  0.00000000000E+00 0.  1.
<mgrwt>
<rscale>  0 0.91204127E+02</rscale>
<asrwt>0</asrwt>
<pdfrwt beam="1">  1        2 0.17488530E-01 0.91204127E+02</pdfrwt>
<pdfrwt beam="2">  1       -2 0.28144204E-02 0.91204127E+02</pdfrwt>
<totfact> 0.12754384E+05</totfact>
</mgrwt>
</event>
<event>
 7    1  0.3056193E-009  0.9154787E+02  0.7818608E-02  0.1299146E+00
          2   -1    0    0  501    0  0.00000000000E+00  0.00000000000E+00  0.15029744743E+04  0.15029744743E+04  0.25500000000E-02 0. -1.
         -2   -1    0    0    0  501 -0.00000000000E+00 -0.00000000000E+00 -0.13940697982E+01  0.13940721304E+01  0.25500000000E-02 0.  1.
         23    2    1    2    0    0 -0.88817841970E-15  0.00000000000E+00  0.15015804045E+04  0.15043685464E+04  0.91547868964E+02 0.  0.
    9000005    2    3    3    0    0 -0.44425010443E+01 -0.18988440341E+02  0.14293550922E+04  0.14295568333E+04  0.14016540384E+02 0.  0.
         22    1    3    3    0    0  0.44425010443E+01  0.18988440341E+02  0.72225312300E+02  0.74811713113E+02  0.00000000000E+00 0.  1.
         22    1    4    4    0    0  0.16967345090E+01 -0.94592334244E+01  0.10186676818E+04  0.10187130126E+04  0.00000000000E+00 0. -1.
         22    1    4    4    0    0 -0.61392355533E+01 -0.95292069171E+01  0.41068741034E+03  0.41084382070E+03  0.00000000000E+00 0. -1.
<mgrwt>
<rscale>  0 0.91547869E+02</rscale>
<asrwt>0</asrwt>
<pdfrwt beam="1">  1        2 0.23122648E+00 0.91547869E+02</pdfrwt>
<pdfrwt beam="2">  1       -2 0.21447280E-03 0.91547869E+02</pdfrwt>
<totfact> 0.23327838E+05</totfact>
</mgrwt>
</event>
<event>
 7    1  0.3056193E-009  0.8617798E+02  0.7818608E-02  0.1312380E+00
          2   -1    0    0  501    0  0.00000000000E+00  0.00000000000E+00  0.66887949774E+03  0.66887949774E+03  0.25500000000E-02 0. -1.
         -2   -1    0    0    0  501 -0.00000000000E+00 -0.00000000000E+00 -0.27757776318E+01  0.27757788031E+01  0.25500000000E-02 0.  1.
         23    2    1    2    0    0  0.00000000000E+00  0.00000000000E+00  0.66610372010E+03  0.67165527654E+03  0.86177981948E+02 0.  0.
    9000005    2    3    3    0    0  0.26409982606E+02 -0.30270058395E+02  0.44369603655E+03  0.44564876929E+03  0.11085535823E+02 0.  0.
         22    1    3    3    0    0 -0.26409982606E+02  0.30270058395E+02  0.22240768355E+03  0.22600650725E+03  0.00000000000E+00 0.  1.
         22    1    4    4    0    0  0.12562665707E+02 -0.20272569364E+02  0.29862029207E+03  0.29957115427E+03  0.00000000000E+00 0.  1.
         22    1    4    4    0    0  0.13847316899E+02 -0.99974890304E+01  0.14507574449E+03  0.14607761502E+03  0.00000000000E+00 0.  1.
<mgrwt>
<rscale>  0 0.86177982E+02</rscale>
<asrwt>0</asrwt>
<pdfrwt beam="1">  1        2 0.10290453E+00 0.86177982E+02</pdfrwt>
<pdfrwt beam="2">  1       -2 0.42704284E-03 0.86177982E+02</pdfrwt>
<totfact> 0.27205944E+05</totfact>
</mgrwt>
</event>
<event>
 7    1  0.3056193E-009  0.9461419E+02  0.7818608E-02  0.1292047E+00
         -2   -1    0    0    0  501 -0.00000000000E+00  0.00000000000E+00  0.20907884516E+01  0.20907900067E+01  0.25500000000E-02 0.  1.
          2   -1    0    0  501    0  0.00000000000E+00 -0.00000000000E+00 -0.10703905856E+04  0.10703905856E+04  0.25500000000E-02 0. -1.
         23    2    1    2    0    0  0.00000000000E+00  0.35527136788E-14 -0.10682997972E+04  0.10724813756E+04  0.94614187323E+02 0.  0.
    9000005    2    3    3    0    0 -0.87121948906E+01 -0.25200962036E+02 -0.97530786106E+03  0.97574208160E+03  0.11670267456E+02 0.  0.
         22    1    3    3    0    0  0.87121948906E+01  0.25200962036E+02 -0.92991936132E+02  0.96739294048E+02  0.00000000000E+00 0.  1.
         22    1    4    4    0    0 -0.36651269419E+01 -0.26645493552E+01 -0.74143146815E+02  0.74281486242E+02  0.00000000000E+00 0. -1.
         22    1    4    4    0    0 -0.50470679487E+01 -0.22536412681E+02 -0.90116471424E+03  0.90146059536E+03  0.00000000000E+00 0. -1.
<mgrwt>
<rscale>  0 0.94614187E+02</rscale>
<asrwt>0</asrwt>
<pdfrwt beam="2">  1        2 0.16467504E+00 0.94614187E+02</pdfrwt>
<pdfrwt beam="1">  1       -2 0.32166074E-03 0.94614187E+02</pdfrwt>
<totfact> 0.22704472E+05</totfact>
</mgrwt>
</event>
<event>
 7    1  0.3056193E-009  0.9100753E+02  0.7818608E-02  0.1300430E+00
          2   -1    0    0  501    0  0.00000000000E+00  0.00000000000E+00  0.14179020158E+03  0.14179020161E+03  0.25500000000E-02 0. -1.
         -2   -1    0    0    0  501 -0.00000000000E+00 -0.00000000000E+00 -0.14603214317E+02  0.14603214540E+02  0.25500000000E-02 0.  1.
         23    2    1    2    0    0  0.17763568394E-14  0.00000000000E+00  0.12718698727E+03  0.15639341615E+03  0.91007532018E+02 0.  0.
    9000005    2    3    3    0    0  0.14114014384E+02 -0.21067344917E+02 -0.64693866694E+00  0.26068625552E+02  0.60096825766E+01 0.  0.
         22    1    3    3    0    0 -0.14114014384E+02  0.21067344917E+02  0.12783392593E+03  0.13032479059E+03  0.00000000000E+00 0. -1.
         22    1    4    4    0    0  0.14268282829E+02 -0.21086562671E+02 -0.58886276970E-01  0.25460370928E+02  0.00000000000E+00 0.  1.
         22    1    4    4    0    0 -0.15426844492E+00  0.19217754445E-01 -0.58805238997E+00  0.60825462476E+00  0.00000000000E+00 0.  1.
<mgrwt>
<rscale>  0 0.91007532E+02</rscale>
<asrwt>0</asrwt>
<pdfrwt beam="1">  1        2 0.21813878E-01 0.91007532E+02</pdfrwt>
<pdfrwt beam="2">  1       -2 0.22466483E-02 0.91007532E+02</pdfrwt>
<totfact> 0.13787141E+05</totfact>
</mgrwt>
</event>
<event>
 7    1  0.3056193E-009  0.9039400E+02  0.7818608E-02  0.1301900E+00
         -2   -1    0    0    0  501 -0.00000000000E+00  0.00000000000E+00  0.39519101666E+02  0.39519101748E+02  0.25500000000E-02 0. -1.
          2   -1    0    0  501    0  0.00000000000E+00 -0.00000000000E+00 -0.51690665043E+02  0.51690665106E+02  0.25500000000E-02 0.  1.
         23    2    1    2    0    0  0.00000000000E+00  0.00000000000E+00 -0.12171563377E+02  0.91209766854E+02  0.90393996562E+02 0.  0.
    9000005    2    3    3    0    0 -0.27942003150E+02 -0.55391660550E+01 -0.40411278720E+02  0.51098429015E+02  0.12905041628E+02 0.  0.
         22    1    3    3    0    0  0.27942003150E+02  0.55391660550E+01  0.28239715343E+02  0.40111337839E+02  0.00000000000E+00 0. -1.
         22    1    4    4    0    0 -0.25417960575E+02 -0.86385249698E+01 -0.31883595789E+02  0.41680457218E+02  0.00000000000E+00 0. -1.
         22    1    4    4    0    0 -0.25240425742E+01  0.30993589147E+01 -0.85276829308E+01  0.94179717969E+01  0.00000000000E+00 0. -1.
<mgrwt>
<rscale>  0 0.90393997E+02</rscale>
<asrwt>0</asrwt>
<pdfrwt beam="2">  1        2 0.79524100E-02 0.90393997E+02</pdfrwt>
<pdfrwt beam="1">  1       -2 0.60798618E-02 0.90393997E+02</pdfrwt>
<totfact> 0.10449090E+05</totfact>
</mgrwt>
</event>
<event>
 7    1  0.3056193E-009  0.9310643E+02  0.7818608E-02  0.1295499E+00
         -2   -1    0    0    0  501 -0.00000000000E+00  0.00000000000E+00  0.20306363671E+03  0.20306363673E+03  0.25500000000E-02 0.  1.
          2   -1    0    0  501    0  0.00000000000E+00 -0.00000000000E+00 -0.10672525690E+02  0.10672525995E+02  0.25500000000E-02 0. -1.
         23    2    1    2    0    0  0.00000000000E+00  0.00000000000E+00  0.19239111102E+03  0.21373616272E+03  0.93106431869E+02 0.  0.
    9000005    2    3    3    0    0  0.17096804779E+02  0.38236399388E+02  0.13992540514E+03  0.14660216787E+03  0.12599747912E+02 0.  0.
         22    1    3    3    0    0 -0.17096804779E+02 -0.38236399388E+02  0.52465705880E+02  0.67133994856E+02  0.00000000000E+00 0. -1.
         22    1    4    4    0    0  0.14231607526E+02  0.32014323270E+02  0.12928059777E+03  0.13394375128E+03  0.00000000000E+00 0. -1.
         22    1    4    4    0    0  0.28651972530E+01  0.62220761176E+01  0.10644807373E+02  0.12658416588E+02  0.00000000000E+00 0. -1.
<mgrwt>
<rscale>  0 0.93106432E+02</rscale>
<asrwt>0</asrwt>
<pdfrwt beam="2">  1        2 0.16419272E-02 0.93106432E+02</pdfrwt>
<pdfrwt beam="1">  1       -2 0.31240556E-01 0.93106432E+02</pdfrwt>
<totfact> 0.58679841E+04</totfact>
</mgrwt>
</event>
<event>
 7    1  0.3056193E-009  0.8837989E+02  0.7818608E-02  0.1306823E+00
          2   -1    0    0  501    0  0.00000000000E+00  0.00000000000E+00  0.31472594151E+02  0.31472594255E+02  0.25500000000E-02 0. -1.
         -2   -1    0    0    0  501 -0.00000000000E+00 -0.00000000000E+00 -0.62046090966E+02  0.62046091018E+02  0.25500000000E-02 0.  1.
         23    2    1    2    0    0  0.35527136788E-14 -0.35527136788E-14 -0.30573496815E+02  0.93518685273E+02  0.88379894703E+02 0.  0.
    9000005    2    3    3    0    0  0.20836705774E+02 -0.29961810321E+02 -0.41070891512E+02  0.55544040039E+02  0.81513108766E+01 0.  0.
         22    1    3    3    0    0 -0.20836705774E+02  0.29961810321E+02  0.10497394698E+02  0.37974645234E+02  0.00000000000E+00 0. -1.
         22    1    4    4    0    0  0.11432399940E+02 -0.94633683218E+01 -0.16424707174E+02  0.22136533471E+02  0.00000000000E+00 0.  1.
         22    1    4    4    0    0  0.94043058337E+01 -0.20498442000E+02 -0.24646184338E+02  0.33407506568E+02  0.00000000000E+00 0.  1.
<mgrwt>
<rscale>  0 0.88379895E+02</rscale>
<asrwt>0</asrwt>
<pdfrwt beam="1">  1        2 0.48419376E-02 0.88379895E+02</pdfrwt>
<pdfrwt beam="2">  1       -2 0.95455524E-02 0.88379895E+02</pdfrwt>
<totfact> 0.98199798E+04</totfact>
</mgrwt>
</event>
<event>
 7    1  0.3056193E-009  0.9073040E+02  0.7818608E-02  0.1301092E+00
         -2   -1    0    0    0  501 -0.00000000000E+00  0.00000000000E+00  0.11679418753E+02  0.11679419031E+02  0.25500000000E-02 0.  1.
          2   -1    0    0  501    0  0.00000000000E+00 -0.00000000000E+00 -0.17620752656E+03  0.17620752658E+03  0.25500000000E-02 0. -1.
         23    2    1    2    0    0 -0.11102230246E-15  0.00000000000E+00 -0.16452810781E+03  0.18788694561E+03  0.90730403240E+02 0.  0.
    9000005    2    3    3    0    0 -0.91347434299E+00  0.44360152028E+02 -0.89585713315E+02  0.10079492522E+03  0.12859214468E+02 0.  0.
         22    1    3    3    0    0  0.91347434299E+00 -0.44360152028E+02 -0.74942394496E+02  0.87092020393E+02  0.00000000000E+00 0.  1.
         22    1    4    4    0    0 -0.58769666324E+01  0.35260786999E+02 -0.71885472375E+02  0.80283142534E+02  0.00000000000E+00 0.  1.
         22    1    4    4    0    0  0.49634922894E+01  0.90993650289E+01 -0.17700240940E+02  0.20511782686E+02  0.00000000000E+00 0.  1.
<mgrwt>
<rscale>  0 0.90730403E+02</rscale>
<asrwt>0</asrwt>
<pdfrwt beam="2">  1        2 0.27108848E-01 0.90730403E+02</pdfrwt>
<pdfrwt beam="1">  1       -2 0.17968338E-02 0.90730403E+02</pdfrwt>
<totfact> 0.14979935E+05</totfact>
</mgrwt>
</event>
<event>
 7    1  0.3056193E-009  0.8879097E+02  0.7818608E-02  0.1305806E+00
          2   -1    0    0  501    0  0.00000000000E+00  0.00000000000E+00  0.45196948188E+03  0.45196948189E+03  0.25500000000E-02 0.  1.
         -2   -1    0    0    0  501 -0.00000000000E+00 -0.00000000000E+00 -0.43608227341E+01  0.43608234797E+01  0.25500000000E-02 0. -1.
         23    2    1    2    0    0 -0.71054273576E-14  0.35527136788E-14  0.44760865914E+03  0.45633030537E+03  0.88790967186E+02 0.  0.
    9000005    2    3    3    0    0  0.33750050891E+02 -0.23950099298E+02  0.30436769572E+03  0.30723085267E+03  0.61991485244E+01 0.  0.
         22    1    3    3    0    0 -0.33750050891E+02  0.23950099298E+02  0.14324096342E+03  0.14909945270E+03  0.00000000000E+00 0. -1.
         22    1    4    4    0    0  0.33586287458E+02 -0.23722168853E+02  0.29423673413E+03  0.29709600420E+03  0.00000000000E+00 0. -1.
         22    1    4    4    0    0  0.16376343313E+00 -0.22793044498E+00  0.10130961592E+02  0.10134848471E+02  0.00000000000E+00 0. -1.
<mgrwt>
<rscale>  0 0.88790967E+02</rscale>
<asrwt>0</asrwt>
<pdfrwt beam="1">  1        2 0.69533697E-01 0.88790967E+02</pdfrwt>
<pdfrwt beam="2">  1       -2 0.67089653E-03 0.88790967E+02</pdfrwt>
<totfact> 0.22349135E+05</totfact>
</mgrwt>
</event>
<event>
 7    1  0.3056193E-009  0.9213009E+02  0.7818608E-02  0.1297774E+00
         -2   -1    0    0    0  501 -0.00000000000E+00  0.00000000000E+00  0.13540242210E+03  0.13540242212E+03  0.25500000000E-02 0.  1.
          2   -1    0    0  501    0  0.00000000000E+00 -0.00000000000E+00 -0.15671718006E+02  0.15671718214E+02  0.25500000000E-02 0. -1.
         23    2    1    2    0    0 -0.88817841970E-15  0.00000000000E+00  0.11973070409E+03  0.15107414033E+03  0.92130094842E+02 0.  0.
    9000005    2    3    3    0    0 -0.78887652102E+01  0.28590615856E+02  0.11689275918E+03  0.12127968006E+03  0.12852537351E+02 0.  0.
         22    1    3    3    0    0  0.78887652102E+01 -0.28590615856E+02  0.28379449126E+01  0.29794460271E+02  0.00000000000E+00 0. -1.
         22    1    4    4    0    0  0.13834651781E+01  0.10951832911E+01  0.15680700581E+01  0.23605605366E+01  0.00000000000E+00 0.  1.
         22    1    4    4    0    0 -0.92722303883E+01  0.27495432564E+02  0.11532468912E+03  0.11891911953E+03  0.00000000000E+00 0.  1.
<mgrwt>
<rscale>  0 0.92130095E+02</rscale>
<asrwt>0</asrwt>
<pdfrwt beam="2">  1        2 0.24110336E-02 0.92130095E+02</pdfrwt>
<pdfrwt beam="1">  1       -2 0.20831141E-01 0.92130095E+02</pdfrwt>
<totfact> 0.70558282E+04</totfact>
</mgrwt>
</event>
<event>
 7    1  0.3056193E-009  0.8972999E+02  0.7818608E-02  0.1303507E+00
         -2   -1    0    0    0  501 -0.00000000000E+00  0.00000000000E+00  0.45763407847E+02  0.45763407918E+02  0.25500000000E-02 0.  1.
          2   -1    0    0  501    0  0.00000000000E+00 -0.00000000000E+00 -0.43984217083E+02  0.43984217156E+02  0.25500000000E-02 0. -1.
         23    2    1    2    0    0 -0.44408920985E-15  0.00000000000E+00  0.17791907643E+01  0.89747625074E+02  0.89729987667E+02 0.  0.
    9000005    2    3    3    0    0 -0.25052134729E+01 -0.40162943129E+02 -0.17809977482E+02  0.44991914736E+02  0.93669097594E+01 0.  0.
         22    1    3    3    0    0  0.25052134729E+01  0.40162943129E+02  0.19589168246E+02  0.44755710338E+02  0.00000000000E+00 0.  1.
         22    1    4    4    0    0 -0.25627907860E+01 -0.37771363501E+02 -0.13746759662E+02  0.40276757547E+02  0.00000000000E+00 0.  1.
         22    1    4    4    0    0  0.57577313173E-01 -0.23915796277E+01 -0.40632178202E+01  0.47151571890E+01  0.00000000000E+00 0.  1.
<mgrwt>
<rscale>  0 0.89729988E+02</rscale>
<asrwt>0</asrwt>
<pdfrwt beam="2">  1        2 0.67668026E-02 0.89729988E+02</pdfrwt>
<pdfrwt beam="1">  1       -2 0.70405243E-02 0.89729988E+02</pdfrwt>
<totfact> 0.10235466E+05</totfact>
</mgrwt>
</event>
<event>
 7    1  0.3056193E-009  0.1013473E+03  0.7818608E-02  0.1277488E+00
         -2   -1    0    0    0  501 -0.00000000000E+00  0.00000000000E+00  0.49977238959E+02  0.49977239024E+02  0.25500000000E-02 0.  1.
          2   -1    0    0  501    0  0.00000000000E+00 -0.00000000000E+00 -0.51379759541E+02  0.51379759605E+02  0.25500000000E-02 0. -1.
         23    2    1    2    0    0  0.00000000000E+00  0.35527136788E-14 -0.14025205824E+01  0.10135699863E+03  0.10134729452E+03 0.  0.
    9000005    2    3    3    0    0 -0.19806112154E+02  0.22665637366E+02 -0.40552618460E+02  0.51973364096E+02  0.12276095291E+02 0.  0.
         22    1    3    3    0    0  0.19806112154E+02 -0.22665637366E+02  0.39150097878E+02  0.49383634533E+02  0.00000000000E+00 0.  1.
         22    1    4    4    0    0 -0.13003203934E+02  0.22090342447E+02 -0.33125110449E+02  0.41884835970E+02  0.00000000000E+00 0. -1.
         22    1    4    4    0    0 -0.68029082195E+01  0.57529491882E+00 -0.74275080116E+01  0.10088528126E+02  0.00000000000E+00 0. -1.
<mgrwt>
<rscale>  0 0.10134729E+03</rscale>
<asrwt>0</asrwt>
<pdfrwt beam="2">  1        2 0.79045784E-02 0.10134729E+03</pdfrwt>
<pdfrwt beam="1">  1       -2 0.76888060E-02 0.10134729E+03</pdfrwt>
<totfact> 0.75077283E+04</totfact>
</mgrwt>
</event>
<event>
 7    1  0.3056193E-009  0.9006207E+02  0.7818608E-02  0.1302701E+00
         -2   -1    0    0    0  501 -0.00000000000E+00  0.00000000000E+00  0.21967643066E+02  0.21967643214E+02  0.25500000000E-02 0.  1.
          2   -1    0    0  501    0  0.00000000000E+00 -0.00000000000E+00 -0.92308226913E+02  0.92308226948E+02  0.25500000000E-02 0. -1.
         23    2    1    2    0    0  0.00000000000E+00 -0.17763568394E-14 -0.70340583847E+02  0.11427587016E+03  0.90062071735E+02 0.  0.
    9000005    2    3    3    0    0  0.15423209883E+02 -0.14320712197E+02  0.12953830351E+02  0.28363603066E+02  0.13918838212E+02 0.  0.
         22    1    3    3    0    0 -0.15423209883E+02  0.14320712197E+02 -0.83294414198E+02  0.85912267096E+02  0.00000000000E+00 0. -1.
         22    1    4    4    0    0  0.42145092943E+01 -0.11676099275E+02  0.21999650984E+01  0.12606872305E+02  0.00000000000E+00 0. -1.
         22    1    4    4    0    0  0.11208700589E+02 -0.26446129221E+01  0.10753865253E+02  0.15756730761E+02  0.00000000000E+00 0. -1.
<mgrwt>
<rscale>  0 0.90062072E+02</rscale>
<asrwt>0</asrwt>
<pdfrwt beam="2">  1        2 0.14201266E-01 0.90062072E+02</pdfrwt>
<pdfrwt beam="1">  1       -2 0.33796374E-02 0.90062072E+02</pdfrwt>
<totfact> 0.12388680E+05</totfact>
</mgrwt>
</event>
<event>
 7    1  0.3056193E-009  0.9002581E+02  0.7818608E-02  0.1302789E+00
         -2   -1    0    0    0  501 -0.00000000000E+00  0.00000000000E+00  0.71829640929E+02  0.71829640974E+02  0.25500000000E-02 0.  1.
          2   -1    0    0  501    0  0.00000000000E+00 -0.00000000000E+00 -0.28207873703E+02  0.28207873819E+02  0.25500000000E-02 0. -1.
         23    2    1    2    0    0  0.00000000000E+00  0.88817841970E-15  0.43621767226E+02  0.10003751479E+03  0.90025806245E+02 0.  0.
    9000005    2    3    3    0    0 -0.19652139950E+02  0.44275610263E+01 -0.21067533035E+02  0.32284171927E+02  0.13878649343E+02 0.  0.
         22    1    3    3    0    0  0.19652139950E+02 -0.44275610263E+01  0.64689300261E+02  0.67753342866E+02  0.00000000000E+00 0.  1.
         22    1    4    4    0    0 -0.15854114212E+02  0.46538202985E+01 -0.22755665378E+02  0.28121722700E+02  0.00000000000E+00 0. -1.
         22    1    4    4    0    0 -0.37980257378E+01 -0.22625927218E+00  0.16881323426E+01  0.41624492273E+01  0.00000000000E+00 0. -1.
<mgrwt>
<rscale>  0 0.90025806E+02</rscale>
<asrwt>0</asrwt>
<pdfrwt beam="2">  1        2 0.43396729E-02 0.90025806E+02</pdfrwt>
<pdfrwt beam="1">  1       -2 0.11050714E-01 0.90025806E+02</pdfrwt>
<totfact> 0.90369184E+04</totfact>
</mgrwt>
</event>
<event>
 7    1  0.3056193E-009  0.9011445E+02  0.7818608E-02  0.1302575E+00
          2   -1    0    0  501    0  0.00000000000E+00  0.00000000000E+00  0.26586870193E+03  0.26586870194E+03  0.25500000000E-02 0. -1.
         -2   -1    0    0    0  501 -0.00000000000E+00 -0.00000000000E+00 -0.76359258133E+01  0.76359262391E+01  0.25500000000E-02 0.  1.
         23    2    1    2    0    0  0.00000000000E+00  0.35527136788E-14  0.25823277612E+03  0.27350462818E+03  0.90114454866E+02 0.  0.
    9000005    2    3    3    0    0  0.23436447295E+02  0.31134929426E+02  0.64284110729E+02  0.75679615360E+02  0.87353532596E+01 0.  0.
         22    1    3    3    0    0 -0.23436447295E+02 -0.31134929426E+02  0.19394866539E+03  0.19782501282E+03  0.00000000000E+00 0. -1.
         22    1    4    4    0    0  0.24130038080E+02  0.30873300777E+02  0.62830497744E+02  0.74047895887E+02  0.00000000000E+00 0. -1.
         22    1    4    4    0    0 -0.69359078419E+00  0.26162864897E+00  0.14536129851E+01  0.16317194723E+01  0.00000000000E+00 0. -1.
<mgrwt>
<rscale>  0 0.90114455E+02</rscale>
<asrwt>0</asrwt>
<pdfrwt beam="1">  1        2 0.40902868E-01 0.90114455E+02</pdfrwt>
<pdfrwt beam="2">  1       -2 0.11747581E-02 0.90114455E+02</pdfrwt>
<totfact> 0.17720801E+05</totfact>
</mgrwt>
</event>
<event>
 7    1  0.3056193E-009  0.8413125E+02  0.7818608E-02  0.1317720E+00
          2   -1    0    0  501    0  0.00000000000E+00  0.00000000000E+00  0.67790649890E+02  0.67790649938E+02  0.25500000000E-02 0. -1.
         -2   -1    0    0    0  501 -0.00000000000E+00 -0.00000000000E+00 -0.26102664555E+02  0.26102664680E+02  0.25500000000E-02 0.  1.
         23    2    1    2    0    0  0.00000000000E+00  0.00000000000E+00  0.41687985334E+02  0.93893314617E+02  0.84131245139E+02 0.  0.
    9000005    2    3    3    0    0  0.39406133001E+02 -0.13156993208E+02  0.27762896114E+02  0.50077131555E+02  0.33152549948E+01 0.  0.
         22    1    3    3    0    0 -0.39406133001E+02  0.13156993208E+02  0.13925089220E+02  0.43816183063E+02  0.00000000000E+00 0.  1.
         22    1    4    4    0    0  0.38840498710E+02 -0.12718231705E+02  0.27669438024E+02  0.49355197885E+02  0.00000000000E+00 0.  1.
         22    1    4    4    0    0  0.56563429148E+00 -0.43876150316E+00  0.93458090596E-01  0.72193366943E+00  0.00000000000E+00 0.  1.
<mgrwt>
<rscale>  0 0.84131245E+02</rscale>
<asrwt>0</asrwt>
<pdfrwt beam="1">  1        2 0.10429331E-01 0.84131245E+02</pdfrwt>
<pdfrwt beam="2">  1       -2 0.40157946E-02 0.84131245E+02</pdfrwt>
<totfact> 0.13712768E+05</totfact>
</mgrwt>
</event>
<event>
 7    1  0.3056193E-009  0.8669451E+02  0.7818608E-02  0.1311060E+00
          2   -1    0    0  501    0  0.00000000000E+00  0.00000000000E+00  0.23195529784E+03  0.23195529785E+03  0.25500000000E-02 0. -1.
         -2   -1    0    0    0  501 -0.00000000000E+00 -0.00000000000E+00 -0.81006309073E+01  0.81006313087E+01  0.25500000000E-02 0.  1.
         23    2    1    2    0    0  0.00000000000E+00  0.00000000000E+00  0.22385466693E+03  0.24005592916E+03  0.86694505123E+02 0.  0.
    9000005    2    3    3    0    0 -0.34967865395E+02  0.21237046048E+02  0.74913254373E+02  0.85597817979E+02  0.64208275845E+01 0.  0.
         22    1    3    3    0    0  0.34967865395E+02 -0.21237046048E+02  0.14894141256E+03  0.15445811118E+03  0.00000000000E+00 0.  1.
         22    1    4    4    0    0 -0.10204067260E+02  0.35308756089E+01  0.23193613169E+02  0.25583857470E+02  0.00000000000E+00 0. -1.
         22    1    4    4    0    0 -0.24763798135E+02  0.17706170440E+02  0.51719641203E+02  0.60013960508E+02  0.00000000000E+00 0. -1.
<mgrwt>
<rscale>  0 0.86694505E+02</rscale>
<asrwt>0</asrwt>
<pdfrwt beam="1">  1        2 0.35685434E-01 0.86694505E+02</pdfrwt>
<pdfrwt beam="2">  1       -2 0.12462508E-02 0.86694505E+02</pdfrwt>
<totfact> 0.18683622E+05</totfact>
</mgrwt>
</event>
<event>
 7    1  0.3056193E-009  0.9230683E+02  0.7818608E-02  0.1297360E+00
          2   -1    0    0  501    0  0.00000000000E+00  0.00000000000E+00  0.12913635117E+03  0.12913635120E+03  0.25500000000E-02 0. -1.
         -2   -1    0    0    0  501 -0.00000000000E+00 -0.00000000000E+00 -0.16495261636E+02  0.16495261833E+02  0.25500000000E-02 0.  1.
         23    2    1    2    0    0  0.00000000000E+00  0.00000000000E+00  0.11264108954E+03  0.14563161303E+03  0.92306834320E+02 0.  0.
    9000005    2    3    3    0    0 -0.43298273973E+02 -0.72407046370E+01  0.74084673570E+02  0.87204174744E+02  0.13742667210E+02 0.  0.
         22    1    3    3    0    0  0.43298273973E+02  0.72407046370E+01  0.38556415966E+02  0.58427438287E+02  0.00000000000E+00 0.  1.
         22    1    4    4    0    0 -0.11174518916E+02  0.29518889298E+00  0.94629327175E+01  0.14645958661E+02  0.00000000000E+00 0.  1.
         22    1    4    4    0    0 -0.32123755057E+02 -0.75358935300E+01  0.64621740853E+02  0.72558216083E+02  0.00000000000E+00 0.  1.
<mgrwt>
<rscale>  0 0.92306834E+02</rscale>
<asrwt>0</asrwt>
<pdfrwt beam="1">  1        2 0.19867130E-01 0.92306834E+02</pdfrwt>
<pdfrwt beam="2">  1       -2 0.25377326E-02 0.92306834E+02</pdfrwt>
<totfact> 0.12858933E+05</totfact>
</mgrwt>
</event>
<event>
 7    1  0.3056193E-009  0.1220917E+03  0.7818608E-02  0.1239686E+00
          2   -1    0    0  501    0  0.00000000000E+00  0.00000000000E+00  0.22950967252E+03  0.22950967254E+03  0.25500000000E-02 0.  1.
         -2   -1    0    0    0  501 -0.00000000000E+00 -0.00000000000E+00 -0.16237199439E+02  0.16237199639E+02  0.25500000000E-02 0. -1.
         23    2    1    2    0    0  0.00000000000E+00 -0.35527136788E-14  0.21327247308E+03  0.24574687217E+03  0.12209167625E+03 0.  0.
    9000005    2    3    3    0    0 -0.21024511733E+02  0.31275337788E+02  0.13441638251E+02  0.42393634195E+02  0.14013055842E+02 0.  0.
         22    1    3    3    0    0  0.21024511733E+02 -0.31275337788E+02  0.19983083483E+03  0.20335323798E+03  0.00000000000E+00 0.  1.
         22    1    4    4    0    0 -0.18189099040E+02  0.21672500079E+02  0.15366859612E+02  0.32197530307E+02  0.00000000000E+00 0.  1.
         22    1    4    4    0    0 -0.28354126936E+01  0.96028377083E+01 -0.19252213612E+01  0.10196103887E+02  0.00000000000E+00 0.  1.
<mgrwt>
<rscale>  0 0.12209168E+03</rscale>
<asrwt>0</asrwt>
<pdfrwt beam="1">  1        2 0.35309177E-01 0.12209168E+03</pdfrwt>
<pdfrwt beam="2">  1       -2 0.24980309E-02 0.12209168E+03</pdfrwt>
<totfact> 0.73244873E+04</totfact>
</mgrwt>
</event>
<event>
 7    1  0.3056193E-009  0.8984049E+02  0.7818608E-02  0.1303238E+00
         -2   -1    0    0    0  501 -0.00000000000E+00  0.00000000000E+00  0.13954970414E+02  0.13954970647E+02  0.25500000000E-02 0.  1.
          2   -1    0    0  501    0  0.00000000000E+00 -0.00000000000E+00 -0.14459566131E+03  0.14459566134E+03  0.25500000000E-02 0. -1.
         23    2    1    2    0    0  0.00000000000E+00  0.00000000000E+00 -0.13064069090E+03  0.15855063198E+03  0.89840485215E+02 0.  0.
    9000005    2    3    3    0    0 -0.20193528695E+02 -0.36897329475E+01 -0.13578209829E+03  0.13738871335E+03  0.41818186977E+01 0.  0.
         22    1    3    3    0    0  0.20193528695E+02  0.36897329475E+01  0.51414073950E+01  0.21161918636E+02  0.00000000000E+00 0.  1.
         22    1    4    4    0    0 -0.19478201664E+02 -0.26299477562E+01 -0.12611257710E+03  0.12763502289E+03  0.00000000000E+00 0.  1.
         22    1    4    4    0    0 -0.71532703107E+00 -0.10597851914E+01 -0.96695211956E+01  0.97536904587E+01  0.00000000000E+00 0.  1.
<mgrwt>
<rscale>  0 0.89840485E+02</rscale>
<asrwt>0</asrwt>
<pdfrwt beam="2">  1        2 0.22245485E-01 0.89840485E+02</pdfrwt>
<pdfrwt beam="1">  1       -2 0.21469186E-02 0.89840485E+02</pdfrwt>
<totfact> 0.14372617E+05</totfact>
</mgrwt>
</event>
<event>
 7    1  0.3056193E-009  0.9049033E+02  0.7818608E-02  0.1301669E+00
          2   -1    0    0  501    0  0.00000000000E+00  0.00000000000E+00  0.19169106426E+03  0.19169106427E+03  0.25500000000E-02 0.  1.
         -2   -1    0    0    0  501 -0.00000000000E+00 -0.00000000000E+00 -0.10679292068E+02  0.10679292373E+02  0.25500000000E-02 0. -1.
         23    2    1    2    0    0 -0.88817841970E-15  0.00000000000E+00  0.18101177219E+03  0.20237035665E+03  0.90490328646E+02 0.  0.
    9000005    2    3    3    0    0  0.31603401293E+01 -0.34675345423E+02  0.30235438145E+02  0.47625824473E+02  0.11902525238E+02 0.  0.
         22    1    3    3    0    0 -0.31603401293E+01  0.34675345423E+02  0.15077633404E+03  0.15474453217E+03  0.00000000000E+00 0.  1.
         22    1    4    4    0    0  0.73298359557E+01 -0.26535229693E+02  0.24326471107E+02  0.36737203303E+02  0.00000000000E+00 0.  1.
         22    1    4    4    0    0 -0.41694958264E+01 -0.81401157297E+01  0.59089670380E+01  0.10888621171E+02  0.00000000000E+00 0.  1.
<mgrwt>
<rscale>  0 0.90490329E+02</rscale>
<asrwt>0</asrwt>
<pdfrwt beam="1">  1        2 0.29490931E-01 0.90490329E+02</pdfrwt>
<pdfrwt beam="2">  1       -2 0.16429682E-02 0.90490329E+02</pdfrwt>
<totfact> 0.15546410E+05</totfact>
</mgrwt>
</event>
<event>
 7    1  0.3056193E-009  0.9291054E+02  0.7818608E-02  0.1295953E+00
         -2   -1    0    0    0  501 -0.00000000000E+00  0.00000000000E+00  0.63136708175E+02  0.63136708227E+02  0.25500000000E-02 0.  1.
          2   -1    0    0  501    0  0.00000000000E+00 -0.00000000000E+00 -0.34181256473E+02  0.34181256568E+02  0.25500000000E-02 0. -1.
         23    2    1    2    0    0  0.00000000000E+00  0.00000000000E+00  0.28955451702E+02  0.97317964795E+02  0.92910538092E+02 0.  0.
    9000005    2    3    3    0    0 -0.61987553475E+01 -0.16180224499E+02 -0.29832782039E+02  0.36029461313E+02  0.10387635227E+02 0.  0.
         22    1    3    3    0    0  0.61987553475E+01  0.16180224499E+02  0.58788233741E+02  0.61288503482E+02  0.00000000000E+00 0.  1.
         22    1    4    4    0    0 -0.44516125452E+01 -0.13615801548E+02 -0.29640356220E+02  0.32920474220E+02  0.00000000000E+00 0.  1.
         22    1    4    4    0    0 -0.17471428022E+01 -0.25644229516E+01 -0.19242581902E+00  0.31089870926E+01  0.00000000000E+00 0.  1.
<mgrwt>
<rscale>  0 0.92910538E+02</rscale>
<asrwt>0</asrwt>
<pdfrwt beam="2">  1        2 0.52586548E-02 0.92910538E+02</pdfrwt>
<pdfrwt beam="1">  1       -2 0.97133397E-02 0.92910538E+02</pdfrwt>
<totfact> 0.86630791E+04</totfact>
</mgrwt>
</event>
<event>
 6    1  0.3056193E-009  0.1750711E+03  0.7818608E-02  0.1172660E+00
          2   -1    0    0  501    0  0.00000000000E+00  0.00000000000E+00  0.14919679910E+03  0.14919679912E+03  0.25500000000E-02 0. -1.
         -2   -1    0    0    0  501 -0.00000000000E+00 -0.00000000000E+00 -0.51358180707E+02  0.51358180771E+02  0.25500000000E-02 0.  1.
    9000005    2    1    2    0    0 -0.52830092157E+02 -0.83499525371E+01  0.12798083806E+03  0.13916040561E+03  0.11215312507E+02 0.  0.
         22    1    1    2    0    0  0.52830092157E+02  0.83499525371E+01 -0.30142219667E+02  0.61394574281E+02  0.00000000000E+00 0.  1.
         22    1    3    3    0    0 -0.26524985244E+02  0.10801795870E+01  0.57077042209E+02  0.62948632848E+02  0.00000000000E+00 0.  1.
         22    1    3    3    0    0 -0.26305106913E+02 -0.94301321241E+01  0.70903795852E+02  0.76211772764E+02  0.00000000000E+00 0.  1.
<mgrwt>
<rscale>  0 0.17507114E+03</rscale>
<asrwt>0</asrwt>
<pdfrwt beam="1">  1        2 0.22953354E-01 0.17507114E+03</pdfrwt>
<pdfrwt beam="2">  1       -2 0.79012585E-02 0.17507114E+03</pdfrwt>
<totfact> 0.21718849E+04</totfact>
</mgrwt>
</event>
<event>
 7    1  0.3056193E-009  0.9106207E+02  0.7818608E-02  0.1300300E+00
          2   -1    0    0  501    0  0.00000000000E+00  0.00000000000E+00  0.42122999063E+03  0.42122999063E+03  0.25500000000E-02 0. -1.
         -2   -1    0    0    0  501 -0.00000000000E+00 -0.00000000000E+00 -0.49214802943E+01  0.49214809550E+01  0.25500000000E-02 0.  1.
         23    2    1    2    0    0  0.00000000000E+00  0.00000000000E+00  0.41630851033E+03  0.42615147159E+03  0.91062072031E+02 0.  0.
    9000005    2    3    3    0    0  0.42287411462E+02 -0.13109979571E+02  0.23859381914E+03  0.24300505967E+03  0.12819975115E+02 0.  0.
         22    1    3    3    0    0 -0.42287411462E+02  0.13109979571E+02  0.17771469120E+03  0.18314641192E+03  0.00000000000E+00 0.  1.
         22    1    4    4    0    0  0.39099882718E+02 -0.95712467574E+01  0.22565911537E+03  0.22922139067E+03  0.00000000000E+00 0. -1.
         22    1    4    4    0    0  0.31875287440E+01 -0.35387328140E+01  0.12934703766E+02  0.13783668994E+02  0.00000000000E+00 0. -1.
<mgrwt>
<rscale>  0 0.91062072E+02</rscale>
<asrwt>0</asrwt>
<pdfrwt beam="1">  1        2 0.64804593E-01 0.91062072E+02</pdfrwt>
<pdfrwt beam="2">  1       -2 0.75715111E-03 0.91062072E+02</pdfrwt>
<totfact> 0.20400091E+05</totfact>
</mgrwt>
</event>
<event>
 7    1  0.3056193E-009  0.9159070E+02  0.7818608E-02  0.1299045E+00
         -2   -1    0    0    0  501 -0.00000000000E+00  0.00000000000E+00  0.94631949128E+02  0.94631949162E+02  0.25500000000E-02 0.  1.
          2   -1    0    0  501    0  0.00000000000E+00 -0.00000000000E+00 -0.22161795203E+02  0.22161795350E+02  0.25500000000E-02 0. -1.
         23    2    1    2    0    0  0.00000000000E+00  0.00000000000E+00  0.72470153925E+02  0.11679374451E+03  0.91590695746E+02 0.  0.
    9000005    2    3    3    0    0  0.34092900969E+02 -0.22965816452E+02  0.14994842148E+02  0.46131405988E+02  0.14611868657E+02 0.  0.
         22    1    3    3    0    0 -0.34092900969E+02  0.22965816452E+02  0.57475311777E+02  0.70662338524E+02  0.00000000000E+00 0.  1.
         22    1    4    4    0    0  0.23735496460E+02 -0.73040073503E+01  0.91506000878E+01  0.26466125473E+02  0.00000000000E+00 0. -1.
         22    1    4    4    0    0  0.10357404508E+02 -0.15661809102E+02  0.58442420600E+01  0.19665280515E+02  0.00000000000E+00 0. -1.
<mgrwt>
<rscale>  0 0.91590696E+02</rscale>
<asrwt>0</asrwt>
<pdfrwt beam="2">  1        2 0.34095070E-02 0.91590696E+02</pdfrwt>
<pdfrwt beam="1">  1       -2 0.14558761E-01 0.91590696E+02</pdfrwt>
<totfact> 0.80209668E+04</totfact>
</mgrwt>
</event>
<event>
 7    1  0.3056193E-009  0.9102634E+02  0.7818608E-02  0.1300385E+00
         -2   -1    0    0    0  501 -0.00000000000E+00  0.00000000000E+00  0.21657095795E+02  0.21657095945E+02  0.25500000000E-02 0. -1.
          2   -1    0    0  501    0  0.00000000000E+00 -0.00000000000E+00 -0.95647561896E+02  0.95647561930E+02  0.25500000000E-02 0.  1.
         23    2    1    2    0    0  0.00000000000E+00  0.00000000000E+00 -0.73990466102E+02  0.11730465787E+03  0.91026335119E+02 0.  0.
    9000005    2    3    3    0    0  0.29069363943E+02  0.19580415986E+02 -0.96163123039E+00  0.36300760852E+02  0.94021217586E+01 0.  0.
         22    1    3    3    0    0 -0.29069363943E+02 -0.19580415986E+02 -0.73028834871E+02  0.81003897023E+02  0.00000000000E+00 0.  1.
         22    1    4    4    0    0  0.14509687683E+01 -0.75244965802E+00  0.10555809133E+01  0.19456983114E+01  0.00000000000E+00 0.  1.
         22    1    4    4    0    0  0.27618395175E+02  0.20332865645E+02 -0.20172121437E+01  0.34355062541E+02  0.00000000000E+00 0.  1.
<mgrwt>
<rscale>  0 0.91026335E+02</rscale>
<asrwt>0</asrwt>
<pdfrwt beam="2">  1        2 0.14715009E-01 0.91026335E+02</pdfrwt>
<pdfrwt beam="1">  1       -2 0.33318610E-02 0.91026335E+02</pdfrwt>
<totfact> 0.12158839E+05</totfact>
</mgrwt>
</event>
<event>
 7    1  0.3056193E-009  0.9090757E+02  0.7818608E-02  0.1300669E+00
          2   -1    0    0  501    0  0.00000000000E+00  0.00000000000E+00  0.11878819936E+03  0.11878819938E+03  0.25500000000E-02 0. -1.
         -2   -1    0    0    0  501 -0.00000000000E+00 -0.00000000000E+00 -0.17392691486E+02  0.17392691672E+02  0.25500000000E-02 0.  1.
         23    2    1    2    0    0 -0.71054273576E-14 -0.35527136788E-14  0.10139550787E+03  0.13618089106E+03  0.90907568840E+02 0.  0.
    9000005    2    3    3    0    0  0.39337597809E+02  0.17571647531E+02  0.67713628199E+02  0.81493795534E+02  0.14138382804E+02 0.  0.
         22    1    3    3    0    0 -0.39337597809E+02 -0.17571647531E+02  0.33681879671E+02  0.54687095521E+02  0.00000000000E+00 0. -1.
         22    1    4    4    0    0  0.10487731140E+02 -0.17195037183E+01  0.16648717032E+02  0.19751682873E+02  0.00000000000E+00 0.  1.
         22    1    4    4    0    0  0.28849866669E+02  0.19291151249E+02  0.51064911168E+02  0.61742112662E+02  0.00000000000E+00 0.  1.
<mgrwt>
<rscale>  0 0.90907569E+02</rscale>
<asrwt>0</asrwt>
<pdfrwt beam="1">  1        2 0.18275108E-01 0.90907569E+02</pdfrwt>
<pdfrwt beam="2">  1       -2 0.26757987E-02 0.90907569E+02</pdfrwt>
<totfact> 0.13049450E+05</totfact>
</mgrwt>
</event>
<event>
 7    1  0.3056193E-009  0.9130644E+02  0.7818608E-02  0.1299718E+00
          2   -1    0    0  501    0  0.00000000000E+00  0.00000000000E+00  0.34945178253E+03  0.34945178254E+03  0.25500000000E-02 0. -1.
         -2   -1    0    0    0  501 -0.00000000000E+00 -0.00000000000E+00 -0.59642456269E+01  0.59642461720E+01  0.25500000000E-02 0.  1.
         23    2    1    2    0    0  0.88817841970E-15  0.00000000000E+00  0.34348753690E+03  0.35541602871E+03  0.91306437107E+02 0.  0.
    9000005    2    3    3    0    0 -0.45268381267E+01 -0.41412756434E+02  0.24437033696E+03  0.24789985326E+03  0.14024984444E+01 0.  0.
         22    1    3    3    0    0  0.45268381267E+01  0.41412756434E+02  0.99117199943E+02  0.10751617545E+03  0.00000000000E+00 0.  1.
         22    1    4    4    0    0 -0.29422376032E+01 -0.28232649094E+02  0.17024725185E+03  0.17259741018E+03  0.00000000000E+00 0. -1.
         22    1    4    4    0    0 -0.15846005235E+01 -0.13180107341E+02  0.74123085105E+02  0.75302443080E+02  0.00000000000E+00 0. -1.
<mgrwt>
<rscale>  0 0.91306437E+02</rscale>
<asrwt>0</asrwt>
<pdfrwt beam="1">  1        2 0.53761815E-01 0.91306437E+02</pdfrwt>
<pdfrwt beam="2">  1       -2 0.91757625E-03 0.91306437E+02</pdfrwt>
<totfact> 0.18937027E+05</totfact>
</mgrwt>
</event>
<event>
 7    1  0.3056193E-009  0.9169954E+02  0.7818608E-02  0.1298787E+00
          2   -1    0    0  501    0  0.00000000000E+00  0.00000000000E+00  0.18895157860E+03  0.18895157861E+03  0.25500000000E-02 0. -1.
         -2   -1    0    0    0  501 -0.00000000000E+00 -0.00000000000E+00 -0.11125608457E+02  0.11125608749E+02  0.25500000000E-02 0.  1.
         23    2    1    2    0    0  0.00000000000E+00  0.00000000000E+00  0.17782597014E+03  0.20007718736E+03  0.91699537879E+02 0.  0.
    9000005    2    3    3    0    0 -0.20114082857E+02  0.37855486728E+02  0.62086078770E+02  0.76653783347E+02  0.13546479980E+02 0.  0.
         22    1    3    3    0    0  0.20114082857E+02 -0.37855486728E+02  0.11573989137E+03  0.12342340402E+03  0.00000000000E+00 0. -1.
         22    1    4    4    0    0 -0.15745292237E+02  0.19208143135E+02  0.27037481462E+02  0.36713654056E+02  0.00000000000E+00 0. -1.
         22    1    4    4    0    0 -0.43687906196E+01  0.18647343593E+02  0.35048597308E+02  0.39940129292E+02  0.00000000000E+00 0. -1.
<mgrwt>
<rscale>  0 0.91699538E+02</rscale>
<asrwt>0</asrwt>
<pdfrwt beam="1">  1        2 0.29069476E-01 0.91699538E+02</pdfrwt>
<pdfrwt beam="2">  1       -2 0.17116319E-02 0.91699538E+02</pdfrwt>
<totfact> 0.14922704E+05</totfact>
</mgrwt>
</event>
<event>
 7    1  0.3056193E-009  0.8964189E+02  0.7818608E-02  0.1303721E+00
         -2   -1    0    0    0  501 -0.00000000000E+00  0.00000000000E+00  0.32287449510E+02  0.32287449611E+02  0.25500000000E-02 0.  1.
          2   -1    0    0  501    0  0.00000000000E+00 -0.00000000000E+00 -0.62219748962E+02  0.62219749015E+02  0.25500000000E-02 0. -1.
         23    2    1    2    0    0  0.00000000000E+00  0.00000000000E+00 -0.29932299452E+02  0.94507198626E+02  0.89641887762E+02 0.  0.
    9000005    2    3    3    0    0  0.13188326288E+02  0.12805306503E+01 -0.59845465176E+02  0.61790701370E+02  0.78127693273E+01 0.  0.
         22    1    3    3    0    0 -0.13188326288E+02 -0.12805306503E+01  0.29913165724E+02  0.32716497256E+02  0.00000000000E+00 0.  1.
         22    1    4    4    0    0  0.67942194492E+01  0.52353872127E+00 -0.14874298528E+02  0.16360937242E+02  0.00000000000E+00 0.  1.
         22    1    4    4    0    0  0.63941068392E+01  0.75699192902E+00 -0.44971166648E+02  0.45429764128E+02  0.00000000000E+00 0.  1.
<mgrwt>
<rscale>  0 0.89641888E+02</rscale>
<asrwt>0</asrwt>
<pdfrwt beam="2">  1        2 0.95722691E-02 0.89641888E+02</pdfrwt>
<pdfrwt beam="1">  1       -2 0.49672999E-02 0.89641888E+02</pdfrwt>
<totfact> 0.11234310E+05</totfact>
</mgrwt>
</event>
<event>
 7    1  0.3056193E-009  0.9097017E+02  0.7818608E-02  0.1300519E+00
         -2   -1    0    0    0  501 -0.00000000000E+00  0.00000000000E+00  0.93806821950E+02  0.93806821985E+02  0.25500000000E-02 0.  1.
          2   -1    0    0  501    0  0.00000000000E+00 -0.00000000000E+00 -0.22054823120E+02  0.22054823268E+02  0.25500000000E-02 0. -1.
         23    2    1    2    0    0  0.00000000000E+00 -0.35527136788E-14  0.71751998830E+02  0.11586164525E+03  0.90970168212E+02 0.  0.
    9000005    2    3    3    0    0 -0.95012722835E+01  0.22603528779E+02  0.84642087331E+02  0.88160597081E+02  0.26104102400E+01 0.  0.
         22    1    3    3    0    0  0.95012722835E+01 -0.22603528779E+02 -0.12890088501E+02  0.27701048172E+02  0.00000000000E+00 0. -1.
         22    1    4    4    0    0 -0.20540675537E+01  0.66878883693E+01  0.27631071780E+02  0.28503037945E+02  0.00000000000E+00 0.  1.
         22    1    4    4    0    0 -0.74472047298E+01  0.15915640409E+02  0.57011015551E+02  0.59657559136E+02  0.00000000000E+00 0.  1.
<mgrwt>
<rscale>  0 0.90970168E+02</rscale>
<asrwt>0</asrwt>
<pdfrwt beam="2">  1        2 0.33930498E-02 0.90970168E+02</pdfrwt>
<pdfrwt beam="1">  1       -2 0.14431818E-01 0.90970168E+02</pdfrwt>
<totfact> 0.81783625E+04</totfact>
</mgrwt>
</event>
<event>
 7    1  0.3056193E-009  0.9655841E+02  0.7818608E-02  0.1287704E+00
          2   -1    0    0  501    0  0.00000000000E+00  0.00000000000E+00  0.91172789374E+02  0.91172789410E+02  0.25500000000E-02 0. -1.
         -2   -1    0    0    0  501 -0.00000000000E+00 -0.00000000000E+00 -0.25565542067E+02  0.25565542194E+02  0.25500000000E-02 0.  1.
         23    2    1    2    0    0  0.00000000000E+00  0.00000000000E+00  0.65607247307E+02  0.11673833160E+03  0.96558413235E+02 0.  0.
    9000005    2    3    3    0    0  0.13420021955E+02  0.22017398433E+02  0.81560331510E+02  0.86417320430E+02  0.12288318483E+02 0.  0.
         22    1    3    3    0    0 -0.13420021955E+02 -0.22017398433E+02 -0.15953084203E+02  0.30321011174E+02  0.00000000000E+00 0.  1.
         22    1    4    4    0    0  0.11062042338E+02  0.23345600599E+02  0.72750279853E+02  0.77200965452E+02  0.00000000000E+00 0. -1.
         22    1    4    4    0    0  0.23579796175E+01 -0.13282021662E+01  0.88100516575E+01  0.92163549778E+01  0.00000000000E+00 0. -1.
<mgrwt>
<rscale>  0 0.96558413E+02</rscale>
<asrwt>0</asrwt>
<pdfrwt beam="1">  1        2 0.14026583E-01 0.96558413E+02</pdfrwt>
<pdfrwt beam="2">  1       -2 0.39331603E-02 0.96558413E+02</pdfrwt>
<totfact> 0.10174537E+05</totfact>
</mgrwt>
</event>
<event>
 7    1  0.3056193E-009  0.9445731E+02  0.7818608E-02  0.1292403E+00
          2   -1    0    0  501    0  0.00000000000E+00  0.00000000000E+00  0.49006314155E+02  0.49006314221E+02  0.25500000000E-02 0. -1.
         -2   -1    0    0    0  501 -0.00000000000E+00 -0.00000000000E+00 -0.45515482875E+02  0.45515482947E+02  0.25500000000E-02 0.  1.
         23    2    1    2    0    0  0.35527136788E-14  0.00000000000E+00  0.34908312799E+01  0.94521797168E+02  0.94457314364E+02 0.  0.
    9000005    2    3    3    0    0  0.23219725915E+02  0.39674749583E+02  0.45142718994E+01  0.48540400313E+02  0.14918122729E+02 0.  0.
         22    1    3    3    0    0 -0.23219725915E+02 -0.39674749583E+02 -0.10234406196E+01  0.45981396855E+02  0.00000000000E+00 0. -1.
         22    1    4    4    0    0  0.13736196698E+00 -0.10029787131E+01  0.13165754657E+01  0.16607846235E+01  0.00000000000E+00 0. -1.
         22    1    4    4    0    0  0.23082363948E+02  0.40677728296E+02  0.31976964338E+01  0.46879615690E+02  0.00000000000E+00 0. -1.
<mgrwt>
<rscale>  0 0.94457314E+02</rscale>
<asrwt>0</asrwt>
<pdfrwt beam="1">  1        2 0.75394329E-02 0.94457314E+02</pdfrwt>
<pdfrwt beam="2">  1       -2 0.70023820E-02 0.94457314E+02</pdfrwt>
<totfact> 0.90853138E+04</totfact>
</mgrwt>
</event>
<event>
 7    1  0.3056193E-009  0.9205835E+02  0.7818608E-02  0.1297942E+00
         -2   -1    0    0    0  501 -0.00000000000E+00  0.00000000000E+00  0.26335378713E+02  0.26335378836E+02  0.25500000000E-02 0.  1.
          2   -1    0    0  501    0  0.00000000000E+00 -0.00000000000E+00 -0.80450142826E+02  0.80450142867E+02  0.25500000000E-02 0. -1.
         23    2    1    2    0    0  0.00000000000E+00 -0.22204460493E-15 -0.54114764113E+02  0.10678552170E+03  0.92058350791E+02 0.  0.
    9000005    2    3    3    0    0  0.42606323062E+02 -0.15984374183E+01 -0.69735481349E+01  0.43223363063E+02  0.13322814558E+01 0.  0.
         22    1    3    3    0    0 -0.42606323062E+02  0.15984374183E+01 -0.47141215979E+02  0.63562158640E+02  0.00000000000E+00 0. -1.
         22    1    4    4    0    0  0.12890491474E+02 -0.85569115691E+00 -0.16206034676E+01  0.13020112649E+02  0.00000000000E+00 0. -1.
         22    1    4    4    0    0  0.29715831587E+02 -0.74274626137E+00 -0.53529446673E+01  0.30203250414E+02  0.00000000000E+00 0. -1.
<mgrwt>
<rscale>  0 0.92058351E+02</rscale>
<asrwt>0</asrwt>
<pdfrwt beam="2">  1        2 0.12376945E-01 0.92058351E+02</pdfrwt>
<pdfrwt beam="1">  1       -2 0.40515968E-02 0.92058351E+02</pdfrwt>
<totfact> 0.11200044E+05</totfact>
</mgrwt>
</event>
<event>
 7    1  0.3056193E-009  0.9109134E+02  0.7818608E-02  0.1300230E+00
         -2   -1    0    0    0  501 -0.00000000000E+00  0.00000000000E+00  0.46540931819E+01  0.46540938804E+01  0.25500000000E-02 0.  1.
          2   -1    0    0  501    0  0.00000000000E+00 -0.00000000000E+00 -0.44571689056E+03  0.44571689057E+03  0.25500000000E-02 0. -1.
         23    2    1    2    0    0  0.00000000000E+00  0.71054273576E-14 -0.44106279738E+03  0.45037098445E+03  0.91091340979E+02 0.  0.
    9000005    2    3    3    0    0 -0.10997303112E+02  0.39426443311E+02 -0.31313950033E+03  0.31605882924E+03  0.12706367222E+02 0.  0.
         22    1    3    3    0    0  0.10997303112E+02 -0.39426443311E+02 -0.12792329705E+03  0.13431215520E+03  0.00000000000E+00 0.  1.
         22    1    4    4    0    0 -0.22764323169E+01  0.15987605034E+02 -0.16861266442E+03  0.16938422672E+03  0.00000000000E+00 0. -1.
         22    1    4    4    0    0 -0.87208707948E+01  0.23438838278E+02 -0.14452683591E+03  0.14667460253E+03  0.00000000000E+00 0. -1.
<mgrwt>
<rscale>  0 0.91091341E+02</rscale>
<asrwt>0</asrwt>
<pdfrwt beam="2">  1        2 0.68571796E-01 0.91091341E+02</pdfrwt>
<pdfrwt beam="1">  1       -2 0.71601474E-03 0.91091341E+02</pdfrwt>
<totfact> 0.20787438E+05</totfact>
</mgrwt>
</event>
<event>
 7    1  0.3056193E-009  0.9024727E+02  0.7818608E-02  0.1302254E+00
         -2   -1    0    0    0  501 -0.00000000000E+00  0.00000000000E+00  0.11889849595E+02  0.11889849869E+02  0.25500000000E-02 0.  1.
          2   -1    0    0  501    0  0.00000000000E+00 -0.00000000000E+00 -0.17125049396E+03  0.17125049398E+03  0.25500000000E-02 0. -1.
         23    2    1    2    0    0  0.00000000000E+00 -0.17763568394E-14 -0.15936064437E+03  0.18314034385E+03  0.90247274598E+02 0.  0.
    9000005    2    3    3    0    0 -0.25474498291E+02 -0.13035169327E+02 -0.14930037303E+03  0.15280760969E+03  0.15514460576E+02 0.  0.
         22    1    3    3    0    0  0.25474498291E+02  0.13035169327E+02 -0.10060271331E+02  0.30332734163E+02  0.00000000000E+00 0.  1.
         22    1    4    4    0    0 -0.13432254041E+02 -0.14639438684E+02 -0.10545568211E+03  0.10731094773E+03  0.00000000000E+00 0. -1.
         22    1    4    4    0    0 -0.12042244250E+02  0.16042693563E+01 -0.43844690921E+02  0.45496661951E+02  0.00000000000E+00 0. -1.
<mgrwt>
<rscale>  0 0.90247275E+02</rscale>
<asrwt>0</asrwt>
<pdfrwt beam="2">  1        2 0.26346228E-01 0.90247275E+02</pdfrwt>
<pdfrwt beam="1">  1       -2 0.18292078E-02 0.90247275E+02</pdfrwt>
<totfact> 0.15045938E+05</totfact>
</mgrwt>
</event>
<event>
 7    1  0.3056193E-009  0.8953351E+02  0.7818608E-02  0.1303985E+00
          2   -1    0    0  501    0  0.00000000000E+00  0.00000000000E+00  0.11669114563E+03  0.11669114566E+03  0.25500000000E-02 0. -1.
         -2   -1    0    0    0  501 -0.00000000000E+00 -0.00000000000E+00 -0.17174074213E+02  0.17174074402E+02  0.25500000000E-02 0.  1.
         23    2    1    2    0    0  0.00000000000E+00  0.00000000000E+00  0.99517071420E+02  0.13386522006E+03  0.89533511260E+02 0.  0.
    9000005    2    3    3    0    0  0.54170928188E+01 -0.43511764186E+02  0.48869767065E+02  0.66874415054E+02  0.12700973929E+02 0.  0.
         22    1    3    3    0    0 -0.54170928188E+01  0.43511764186E+02  0.50647304355E+02  0.66990805008E+02  0.00000000000E+00 0. -1.
         22    1    4    4    0    0 -0.92273112050E+00 -0.26721629100E+00 -0.37494482351E+00  0.10312230058E+01  0.00000000000E+00 0.  1.
         22    1    4    4    0    0  0.63398239393E+01 -0.43244547895E+02  0.49244711888E+02  0.65843192049E+02  0.00000000000E+00 0.  1.
<mgrwt>
<rscale>  0 0.89533511E+02</rscale>
<asrwt>0</asrwt>
<pdfrwt beam="1">  1        2 0.17952484E-01 0.89533511E+02</pdfrwt>
<pdfrwt beam="2">  1       -2 0.26421652E-02 0.89533511E+02</pdfrwt>
<totfact> 0.13526611E+05</totfact>
</mgrwt>
</event>
<event>
 7    1  0.3056193E-009  0.9414587E+02  0.7818608E-02  0.1293111E+00
         -2   -1    0    0    0  501 -0.00000000000E+00  0.00000000000E+00  0.29508473854E+03  0.29508473855E+03  0.25500000000E-02 0.  1.
          2   -1    0    0  501    0  0.00000000000E+00 -0.00000000000E+00 -0.75092371025E+01  0.75092375354E+01  0.25500000000E-02 0. -1.
         23    2    1    2    0    0  0.00000000000E+00  0.00000000000E+00  0.28757550144E+03  0.30259397609E+03  0.94145872649E+02 0.  0.
    9000005    2    3    3    0    0 -0.36581691637E+02  0.13907763576E+02  0.22687425581E+03  0.23037010696E+03  0.81738718801E+01 0.  0.
         22    1    3    3    0    0  0.36581691637E+02 -0.13907763576E+02  0.60701245635E+02  0.72223869132E+02  0.00000000000E+00 0. -1.
         22    1    4    4    0    0 -0.15564167726E+02  0.70727120700E+01  0.76995250046E+02  0.78870368978E+02  0.00000000000E+00 0.  1.
         22    1    4    4    0    0 -0.21017523911E+02  0.68350515064E+01  0.14987900576E+03  0.15149973798E+03  0.00000000000E+00 0.  1.
<mgrwt>
<rscale>  0 0.94145873E+02</rscale>
<asrwt>0</asrwt>
<pdfrwt beam="2">  1        2 0.11552672E-02 0.94145873E+02</pdfrwt>
<pdfrwt beam="1">  1       -2 0.45397656E-01 0.94145873E+02</pdfrwt>
<totfact> 0.47393165E+04</totfact>
</mgrwt>
</event>
<event>
 7    1  0.3056193E-009  0.9036888E+02  0.7818608E-02  0.1301961E+00
         -2   -1    0    0    0  501 -0.00000000000E+00  0.00000000000E+00  0.85616759162E+02  0.85616759200E+02  0.25500000000E-02 0.  1.
          2   -1    0    0  501    0  0.00000000000E+00 -0.00000000000E+00 -0.23846192818E+02  0.23846192955E+02  0.25500000000E-02 0. -1.
         23    2    1    2    0    0  0.71054273576E-14  0.00000000000E+00  0.61770566344E+02  0.10946295215E+03  0.90368883074E+02 0.  0.
    9000005    2    3    3    0    0  0.41316444127E+02 -0.10845016664E+01  0.49971901802E+02  0.66481174805E+02  0.14640045583E+02 0.  0.
         22    1    3    3    0    0 -0.41316444127E+02  0.10845016664E+01  0.11798664542E+02  0.42981777349E+02  0.00000000000E+00 0. -1.
         22    1    4    4    0    0  0.15318399315E+02  0.50215160982E+01  0.26015359602E+02  0.30605030905E+02  0.00000000000E+00 0.  1.
         22    1    4    4    0    0  0.25998044811E+02 -0.61060177646E+01  0.23956542200E+02  0.35876143900E+02  0.00000000000E+00 0.  1.
<mgrwt>
<rscale>  0 0.90368883E+02</rscale>
<asrwt>0</asrwt>
<pdfrwt beam="2">  1        2 0.36686450E-02 0.90368883E+02</pdfrwt>
<pdfrwt beam="1">  1       -2 0.13171809E-01 0.90368883E+02</pdfrwt>
<totfact> 0.85335086E+04</totfact>
</mgrwt>
</event>
<event>
 7    1  0.3056193E-009  0.9020743E+02  0.7818608E-02  0.1302350E+00
          2   -1    0    0  501    0  0.00000000000E+00  0.00000000000E+00  0.92256614294E+02  0.92256614329E+02  0.25500000000E-02 0. -1.
         -2   -1    0    0    0  501 -0.00000000000E+00 -0.00000000000E+00 -0.22050938397E+02  0.22050938544E+02  0.25500000000E-02 0.  1.
         23    2    1    2    0    0  0.00000000000E+00 -0.71054273576E-14  0.70205675897E+02  0.11430755287E+03  0.90207426056E+02 0.  0.
    9000005    2    3    3    0    0  0.21935563340E+02  0.39224448046E+02  0.34530430498E+02  0.56927683600E+02  0.53557694230E+01 0.  0.
         22    1    3    3    0    0 -0.21935563340E+02 -0.39224448046E+02  0.35675245399E+02  0.57379869273E+02  0.00000000000E+00 0.  1.
         22    1    4    4    0    0  0.20715918807E+01  0.12945500554E+01  0.18788963881E+01  0.30818183599E+01  0.00000000000E+00 0.  1.
         22    1    4    4    0    0  0.19863971460E+02  0.37929897990E+02  0.32651534110E+02  0.53845865240E+02  0.00000000000E+00 0.  1.
<mgrwt>
<rscale>  0 0.90207426E+02</rscale>
<asrwt>0</asrwt>
<pdfrwt beam="1">  1        2 0.14193325E-01 0.90207426E+02</pdfrwt>
<pdfrwt beam="2">  1       -2 0.33924521E-02 0.90207426E+02</pdfrwt>
<totfact> 0.12331725E+05</totfact>
</mgrwt>
</event>
<event>
 7    1  0.3056193E-009  0.9084817E+02  0.7818608E-02  0.1300811E+00
         -2   -1    0    0    0  501 -0.00000000000E+00  0.00000000000E+00  0.27512716985E+02  0.27512717103E+02  0.25500000000E-02 0.  1.
          2   -1    0    0  501    0  0.00000000000E+00 -0.00000000000E+00 -0.74996135986E+02  0.74996136029E+02  0.25500000000E-02 0. -1.
         23    2    1    2    0    0 -0.11102230246E-15  0.00000000000E+00 -0.47483419001E+02  0.10250885313E+03  0.90848169439E+02 0.  0.
    9000005    2    3    3    0    0 -0.78080874943E+00  0.30479942872E+02 -0.61388129294E+02  0.68997995964E+02  0.79110333725E+01 0.  0.
         22    1    3    3    0    0  0.78080874943E+00 -0.30479942872E+02  0.13904710293E+02  0.33510857168E+02  0.00000000000E+00 0.  1.
         22    1    4    4    0    0  0.27506578937E+01  0.52682023410E+01 -0.13878851051E+02  0.15097767426E+02  0.00000000000E+00 0. -1.
         22    1    4    4    0    0 -0.35314666432E+01  0.25211740531E+02 -0.47509278243E+02  0.53900228538E+02  0.00000000000E+00 0. -1.
<mgrwt>
<rscale>  0 0.90848169E+02</rscale>
<asrwt>0</asrwt>
<pdfrwt beam="2">  1        2 0.11537867E-01 0.90848169E+02</pdfrwt>
<pdfrwt beam="1">  1       -2 0.42327257E-02 0.90848169E+02</pdfrwt>
<totfact> 0.11391086E+05</totfact>
</mgrwt>
</event>
<event>
 7    1  0.3056193E-009  0.9713649E+02  0.7818608E-02  0.1286435E+00
         -2   -1    0    0    0  501 -0.00000000000E+00  0.00000000000E+00  0.12154169296E+03  0.12154169298E+03  0.25500000000E-02 0.  1.
          2   -1    0    0  501    0  0.00000000000E+00 -0.00000000000E+00 -0.19407944075E+02  0.19407944243E+02  0.25500000000E-02 0. -1.
         23    2    1    2    0    0  0.00000000000E+00 -0.17763568394E-14  0.10213374888E+03  0.14094963723E+03  0.97136489404E+02 0.  0.
    9000005    2    3    3    0    0  0.16107282229E+02 -0.96168699893E+01 -0.10704852731E+02  0.26562230825E+02  0.15460579071E+02 0.  0.
         22    1    3    3    0    0 -0.16107282229E+02  0.96168699893E+01  0.11283860161E+03  0.11438740640E+03  0.00000000000E+00 0.  1.
         22    1    4    4    0    0  0.35411880948E+01 -0.46672299181E+01 -0.11632632262E+02  0.13024637483E+02  0.00000000000E+00 0.  1.
         22    1    4    4    0    0  0.12566094134E+02 -0.49496400713E+01  0.92777953041E+00  0.13537593342E+02  0.00000000000E+00 0.  1.
<mgrwt>
<rscale>  0 0.97136489E+02</rscale>
<asrwt>0</asrwt>
<pdfrwt beam="2">  1        2 0.29858376E-02 0.97136489E+02</pdfrwt>
<pdfrwt beam="1">  1       -2 0.18698722E-01 0.97136489E+02</pdfrwt>
<totfact> 0.64060028E+04</totfact>
</mgrwt>
</event>
<event>
 7    1  0.3056193E-009  0.9071373E+02  0.7818608E-02  0.1301132E+00
         -2   -1    0    0    0  501 -0.00000000000E+00  0.00000000000E+00  0.52830250571E+03  0.52830250571E+03  0.25500000000E-02 0.  1.
          2   -1    0    0  501    0  0.00000000000E+00 -0.00000000000E+00 -0.38940662701E+01  0.38940671051E+01  0.25500000000E-02 0. -1.
         23    2    1    2    0    0  0.00000000000E+00  0.00000000000E+00  0.52440843944E+03  0.53219657282E+03  0.90713729759E+02 0.  0.
    9000005    2    3    3    0    0  0.15523453211E+02  0.38398482113E+02  0.36588299624E+03  0.36834988482E+03  0.97902849329E+01 0.  0.
         22    1    3    3    0    0 -0.15523453211E+02 -0.38398482113E+02  0.15852544319E+03  0.16384668800E+03  0.00000000000E+00 0. -1.
         22    1    4    4    0    0  0.22214985710E+01  0.12895099129E+02  0.14781510563E+03  0.14839314031E+03  0.00000000000E+00 0. -1.
         22    1    4    4    0    0  0.13301954640E+02  0.25503382984E+02  0.21806789061E+03  0.21995674451E+03  0.00000000000E+00 0. -1.
<mgrwt>
<rscale>  0 0.90713730E+02</rscale>
<asrwt>0</asrwt>
<pdfrwt beam="2">  1        2 0.59908764E-03 0.90713730E+02</pdfrwt>
<pdfrwt beam="1">  1       -2 0.81277247E-01 0.90713730E+02</pdfrwt>
<totfact> 0.35219184E+04</totfact>
</mgrwt>
</event>
<event>
 7    1  0.3056193E-009  0.9752687E+02  0.7818608E-02  0.1285584E+00
         -2   -1    0    0    0  501 -0.00000000000E+00  0.00000000000E+00  0.62603657727E+01  0.62603662920E+01  0.25500000000E-02 0.  1.
          2   -1    0    0  501    0  0.00000000000E+00 -0.00000000000E+00 -0.37982960349E+03  0.37982960350E+03  0.25500000000E-02 0. -1.
         23    2    1    2    0    0  0.00000000000E+00  0.00000000000E+00 -0.37356923772E+03  0.38608996980E+03  0.97526865039E+02 0.  0.
    9000005    2    3    3    0    0  0.37019484834E+02  0.40419224976E+01 -0.31125477275E+03  0.31349608617E+03  0.36719328023E+01 0.  0.
         22    1    3    3    0    0 -0.37019484834E+02 -0.40419224976E+01 -0.62314464975E+02  0.72593883626E+02  0.00000000000E+00 0.  1.
         22    1    4    4    0    0  0.25066850122E+01 -0.42526784046E+00 -0.26832964052E+02  0.26953149765E+02  0.00000000000E+00 0. -1.
         22    1    4    4    0    0  0.34512799822E+02  0.44671903381E+01 -0.28442180870E+03  0.28654293640E+03  0.00000000000E+00 0. -1.
<mgrwt>
<rscale>  0 0.97526865E+02</rscale>
<asrwt>0</asrwt>
<pdfrwt beam="2">  1        2 0.58435306E-01 0.97526865E+02</pdfrwt>
<pdfrwt beam="1">  1       -2 0.96313353E-03 0.97526865E+02</pdfrwt>
<totfact> 0.16372761E+05</totfact>
</mgrwt>
</event>
<event>
 7    1  0.3056193E-009  0.9319996E+02  0.7818608E-02  0.1295282E+00
         -2   -1    0    0    0  501 -0.00000000000E+00  0.00000000000E+00  0.19825904382E+01  0.19825920781E+01  0.25500000000E-02 0.  1.
          2   -1    0    0  501    0  0.00000000000E+00 -0.00000000000E+00 -0.10953131408E+04  0.10953131408E+04  0.25500000000E-02 0. -1.
         23    2    1    2    0    0  0.00000000000E+00  0.35527136788E-14 -0.10933305503E+04  0.10972957328E+04  0.93199962684E+02 0.  0.
    9000005    2    3    3    0    0 -0.85136581713E+01  0.24004369146E+02 -0.10032001679E+04  0.10036358271E+04  0.15020132711E+02 0.  0.
         22    1    3    3    0    0  0.85136581713E+01 -0.24004369146E+02 -0.90130382376E+02  0.93659905727E+02  0.00000000000E+00 0.  1.
         22    1    4    4    0    0 -0.11296121974E+01 -0.19013088077E+01 -0.41911592950E+02  0.41969901388E+02  0.00000000000E+00 0.  1.
         22    1    4    4    0    0 -0.73840459739E+01  0.25905677954E+02 -0.96128857500E+03  0.96166592573E+03  0.00000000000E+00 0.  1.
<mgrwt>
<rscale>  0 0.93199963E+02</rscale>
<asrwt>0</asrwt>
<pdfrwt beam="2">  1        2 0.16850923E+00 0.93199963E+02</pdfrwt>
<pdfrwt beam="1">  1       -2 0.30501492E-03 0.93199963E+02</pdfrwt>
<totfact> 0.23615948E+05</totfact>
</mgrwt>
</event>
<event>
 7    1  0.3056193E-009  0.9106557E+02  0.7818608E-02  0.1300292E+00
         -2   -1    0    0    0  501 -0.00000000000E+00  0.00000000000E+00  0.60520824760E+02  0.60520824814E+02  0.25500000000E-02 0.  1.
          2   -1    0    0  501    0  0.00000000000E+00 -0.00000000000E+00 -0.34256544015E+02  0.34256544110E+02  0.25500000000E-02 0. -1.
         23    2    1    2    0    0  0.00000000000E+00  0.00000000000E+00  0.26264280745E+02  0.94777368924E+02  0.91065565485E+02 0.  0.
    9000005    2    3    3    0    0 -0.33353380358E+02 -0.30191571607E+02  0.18615891028E+02  0.49143205815E+02  0.66726532623E+01 0.  0.
         22    1    3    3    0    0  0.33353380358E+02  0.30191571607E+02  0.76483897169E+01  0.45634163109E+02  0.00000000000E+00 0. -1.
         22    1    4    4    0    0 -0.20352668337E+02 -0.14035732012E+02  0.93881393391E+01  0.26445605340E+02  0.00000000000E+00 0.  1.
         22    1    4    4    0    0 -0.13000712021E+02 -0.16155839595E+02  0.92277516891E+01  0.22697600475E+02  0.00000000000E+00 0.  1.
<mgrwt>
<rscale>  0 0.91065565E+02</rscale>
<asrwt>0</asrwt>
<pdfrwt beam="2">  1        2 0.52702376E-02 0.91065565E+02</pdfrwt>
<pdfrwt beam="1">  1       -2 0.93108960E-02 0.91065565E+02</pdfrwt>
<totfact> 0.91950870E+04</totfact>
</mgrwt>
</event>
<event>
 7    1  0.3056193E-009  0.1129201E+03  0.7818608E-02  0.1255256E+00
          2   -1    0    0  501    0  0.00000000000E+00  0.00000000000E+00  0.33282748548E+03  0.33282748549E+03  0.25500000000E-02 0. -1.
         -2   -1    0    0    0  501 -0.00000000000E+00 -0.00000000000E+00 -0.95777500036E+01  0.95777503431E+01  0.25500000000E-02 0.  1.
         23    2    1    2    0    0  0.00000000000E+00  0.00000000000E+00  0.32324973548E+03  0.34240523583E+03  0.11292012239E+03 0.  0.
    9000005    2    3    3    0    0 -0.10122998816E+02 -0.27747153182E+02  0.30703997632E+03  0.30871345781E+03  0.12572682954E+02 0.  0.
         22    1    3    3    0    0  0.10122998816E+02  0.27747153182E+02  0.16209759155E+02  0.33691778027E+02  0.00000000000E+00 0.  1.
         22    1    4    4    0    0 -0.17782244127E+01 -0.16953096426E+02  0.12407167393E+03  0.12523717432E+03  0.00000000000E+00 0.  1.
         22    1    4    4    0    0 -0.83447744038E+01 -0.10794056755E+02  0.18296830239E+03  0.18347628348E+03  0.00000000000E+00 0.  1.
<mgrwt>
<rscale>  0 0.11292012E+03</rscale>
<asrwt>0</asrwt>
<pdfrwt beam="1">  1        2 0.51204232E-01 0.11292012E+03</pdfrwt>
<pdfrwt beam="2">  1       -2 0.14734999E-02 0.11292012E+03</pdfrwt>
<totfact> 0.10490873E+05</totfact>
</mgrwt>
</event>
<event>
 7    1  0.3056193E-009  0.8940857E+02  0.7818608E-02  0.1304290E+00
         -2   -1    0    0    0  501 -0.00000000000E+00  0.00000000000E+00  0.12874538574E+02  0.12874538827E+02  0.25500000000E-02 0.  1.
          2   -1    0    0  501    0  0.00000000000E+00 -0.00000000000E+00 -0.15522677138E+03  0.15522677140E+03  0.25500000000E-02 0. -1.
         23    2    1    2    0    0  0.00000000000E+00 -0.71054273576E-14 -0.14235223280E+03  0.16810131023E+03  0.89408569585E+02 0.  0.
    9000005    2    3    3    0    0  0.18303290978E+02  0.39576266887E+02 -0.71779605065E+02  0.85144772524E+02  0.14001043661E+02 0.  0.
         22    1    3    3    0    0 -0.18303290978E+02 -0.39576266887E+02 -0.70572627740E+02  0.82956537702E+02  0.00000000000E+00 0. -1.
         22    1    4    4    0    0  0.20344421585E+02  0.34429254176E+02 -0.65765833398E+02  0.76970214208E+02  0.00000000000E+00 0.  1.
         22    1    4    4    0    0 -0.20411306066E+01  0.51470127108E+01 -0.60137716670E+01  0.81745583160E+01  0.00000000000E+00 0.  1.
<mgrwt>
<rscale>  0 0.89408570E+02</rscale>
<asrwt>0</asrwt>
<pdfrwt beam="2">  1        2 0.23881040E-01 0.89408570E+02</pdfrwt>
<pdfrwt beam="1">  1       -2 0.19806984E-02 0.89408570E+02</pdfrwt>
<totfact> 0.14915329E+05</totfact>
</mgrwt>
</event>
<event>
 7    1  0.3056193E-009  0.9301691E+02  0.7818608E-02  0.1295706E+00
         -2   -1    0    0    0  501 -0.00000000000E+00  0.00000000000E+00  0.33539436285E+03  0.33539436286E+03  0.25500000000E-02 0.  1.
          2   -1    0    0  501    0  0.00000000000E+00 -0.00000000000E+00 -0.64492333307E+01  0.64492338348E+01  0.25500000000E-02 0. -1.
         23    2    1    2    0    0  0.00000000000E+00 -0.71054273576E-14  0.32894512952E+03  0.34184359669E+03  0.93016914411E+02 0.  0.
    9000005    2    3    3    0    0  0.15708345300E+02 -0.35838363001E+02  0.25664530191E+03  0.25963407506E+03  0.34498647043E+01 0.  0.
         22    1    3    3    0    0 -0.15708345300E+02  0.35838363001E+02  0.72299827609E+02  0.82209521631E+02  0.00000000000E+00 0. -1.
         22    1    4    4    0    0  0.15661948971E+02 -0.35402151060E+02  0.25531922116E+03  0.25823732039E+03  0.00000000000E+00 0.  1.
         22    1    4    4    0    0  0.46396328199E-01 -0.43621194071E+00  0.13260807451E+01  0.13967546739E+01  0.00000000000E+00 0.  1.
<mgrwt>
<rscale>  0 0.93016914E+02</rscale>
<asrwt>0</asrwt>
<pdfrwt beam="2">  1        2 0.99218987E-03 0.93016914E+02</pdfrwt>
<pdfrwt beam="1">  1       -2 0.51599129E-01 0.93016914E+02</pdfrwt>
<totfact> 0.45385816E+04</totfact>
</mgrwt>
</event>
<event>
 7    1  0.3056193E-009  0.7825262E+02  0.7818608E-02  0.1334085E+00
         -2   -1    0    0    0  501 -0.00000000000E+00  0.00000000000E+00  0.58014947839E+01  0.58014953443E+01  0.25500000000E-02 0. -1.
          2   -1    0    0  501    0  0.00000000000E+00 -0.00000000000E+00 -0.26387474823E+03  0.26387474824E+03  0.25500000000E-02 0.  1.
         23    2    1    2    0    0  0.00000000000E+00 -0.35527136788E-14 -0.25807325345E+03  0.26967624359E+03  0.78252617917E+02 0.  0.
    9000005    2    3    3    0    0  0.25953879299E+02 -0.24927524348E+02 -0.94200947913E+02  0.10189925517E+03  0.14651085152E+02 0.  0.
         22    1    3    3    0    0 -0.25953879299E+02  0.24927524348E+02 -0.16387230554E+03  0.16777698842E+03  0.00000000000E+00 0.  1.
         22    1    4    4    0    0  0.10857262095E+01 -0.95222778417E+01 -0.24565162284E+02  0.26368537592E+02  0.00000000000E+00 0. -1.
         22    1    4    4    0    0  0.24868153089E+02 -0.15405246506E+02 -0.69635785628E+02  0.75530717579E+02  0.00000000000E+00 0. -1.
<mgrwt>
<rscale>  0 0.78252618E+02</rscale>
<asrwt>0</asrwt>
<pdfrwt beam="2">  1        2 0.40596106E-01 0.78252618E+02</pdfrwt>
<pdfrwt beam="1">  1       -2 0.89253791E-03 0.78252618E+02</pdfrwt>
<totfact> 0.25684383E+05</totfact>
</mgrwt>
</event>
<event>
 7    1  0.3056193E-009  0.9294435E+02  0.7818608E-02  0.1295874E+00
         -2   -1    0    0    0  501 -0.00000000000E+00  0.00000000000E+00  0.51725854748E+03  0.51725854749E+03  0.25500000000E-02 0.  1.
          2   -1    0    0  501    0  0.00000000000E+00 -0.00000000000E+00 -0.41752096244E+01  0.41752104031E+01  0.25500000000E-02 0. -1.
         23    2    1    2    0    0  0.35527136788E-14  0.00000000000E+00  0.51308333786E+03  0.52143375789E+03  0.92944350456E+02 0.  0.
    9000005    2    3    3    0    0 -0.27533690362E+02  0.36285563465E+02  0.29252842897E+03  0.29622449064E+03  0.10065827290E+02 0.  0.
         22    1    3    3    0    0  0.27533690362E+02 -0.36285563465E+02  0.22055490889E+03  0.22520926725E+03  0.00000000000E+00 0. -1.
         22    1    4    4    0    0 -0.28845689382E+01  0.18577694142E+00  0.15231988131E+02  0.15503828993E+02  0.00000000000E+00 0. -1.
         22    1    4    4    0    0 -0.24649121424E+02  0.36099786524E+02  0.27729644084E+03  0.28072066165E+03  0.00000000000E+00 0. -1.
<mgrwt>
<rscale>  0 0.92944350E+02</rscale>
<asrwt>0</asrwt>
<pdfrwt beam="2">  1        2 0.64233987E-03 0.92944350E+02</pdfrwt>
<pdfrwt beam="1">  1       -2 0.79578254E-01 0.92944350E+02</pdfrwt>
<totfact> 0.33632013E+04</totfact>
</mgrwt>
</event>
<event>
 7    1  0.3056193E-009  0.9113182E+02  0.7818608E-02  0.1300134E+00
          2   -1    0    0  501    0  0.00000000000E+00  0.00000000000E+00  0.13995387653E+04  0.13995387653E+04  0.25500000000E-02 0. -1.
         -2   -1    0    0    0  501 -0.00000000000E+00 -0.00000000000E+00 -0.14835248191E+01  0.14835270106E+01  0.25500000000E-02 0.  1.
         23    2    1    2    0    0  0.00000000000E+00  0.00000000000E+00  0.13980552405E+04  0.14010222923E+04  0.91131817285E+02 0.  0.
    9000005    2    3    3    0    0 -0.11029420777E+02 -0.20553992018E+02  0.12983190564E+04  0.12985946538E+04  0.13099161436E+02 0.  0.
         22    1    3    3    0    0  0.11029420777E+02  0.20553992018E+02  0.99736184095E+02  0.10242763850E+03  0.00000000000E+00 0.  1.
         22    1    4    4    0    0 -0.29465503208E-01 -0.32853810274E+01  0.50063703663E+02  0.50171396444E+02  0.00000000000E+00 0.  1.
         22    1    4    4    0    0 -0.10999955273E+02 -0.17268610990E+02  0.12482553527E+04  0.12484232574E+04  0.00000000000E+00 0.  1.
<mgrwt>
<rscale>  0 0.91131817E+02</rscale>
<asrwt>0</asrwt>
<pdfrwt beam="1">  1        2 0.21531519E+00 0.91131817E+02</pdfrwt>
<pdfrwt beam="2">  1       -2 0.22823313E-03 0.91131817E+02</pdfrwt>
<totfact> 0.24173513E+05</totfact>
</mgrwt>
</event>
<event>
 7    1  0.3056193E-009  0.9155446E+02  0.7818608E-02  0.1299130E+00
          2   -1    0    0  501    0  0.00000000000E+00  0.00000000000E+00  0.17639065131E+02  0.17639065315E+02  0.25500000000E-02 0. -1.
         -2   -1    0    0    0  501 -0.00000000000E+00 -0.00000000000E+00 -0.11880192067E+03  0.11880192070E+03  0.25500000000E-02 0.  1.
         23    2    1    2    0    0  0.00000000000E+00 -0.17763568394E-14 -0.10116285554E+03  0.13644098601E+03  0.91554460968E+02 0.  0.
    9000005    2    3    3    0    0 -0.37876429574E+02  0.12724359367E+02 -0.20185520006E+02  0.46142247879E+02  0.11185641814E+02 0.  0.
         22    1    3    3    0    0  0.37876429574E+02 -0.12724359367E+02 -0.80977335531E+02  0.90298738132E+02  0.00000000000E+00 0.  1.
         22    1    4    4    0    0 -0.10491495141E+01 -0.16496679899E+01 -0.11009653665E+01  0.22437120845E+01  0.00000000000E+00 0.  1.
         22    1    4    4    0    0 -0.36827280060E+02  0.14374027357E+02 -0.19084554640E+02  0.43898535794E+02  0.00000000000E+00 0.  1.
<mgrwt>
<rscale>  0 0.91554461E+02</rscale>
<asrwt>0</asrwt>
<pdfrwt beam="1">  1        2 0.27137024E-02 0.91554461E+02</pdfrwt>
<pdfrwt beam="2">  1       -2 0.18277218E-01 0.91554461E+02</pdfrwt>
<totfact> 0.74880065E+04</totfact>
</mgrwt>
</event>
<event>
 7    1  0.3056193E-009  0.6383254E+02  0.7818608E-02  0.1382418E+00
          2   -1    0    0  501    0  0.00000000000E+00  0.00000000000E+00  0.46814043513E+02  0.46814043583E+02  0.25500000000E-02 0. -1.
         -2   -1    0    0    0  501 -0.00000000000E+00 -0.00000000000E+00 -0.21759461198E+02  0.21759461348E+02  0.25500000000E-02 0.  1.
         23    2    1    2    0    0  0.00000000000E+00  0.00000000000E+00  0.25054582315E+02  0.68573504930E+02  0.63832542511E+02 0.  0.
    9000005    2    3    3    0    0  0.14095866257E+02 -0.26541028418E+02  0.19760799227E+02  0.38058856409E+02  0.12444586373E+02 0.  0.
         22    1    3    3    0    0 -0.14095866257E+02  0.26541028418E+02  0.52937830877E+01  0.30514648522E+02  0.00000000000E+00 0. -1.
         22    1    4    4    0    0  0.15840602074E+02 -0.26239994045E+02  0.19329367687E+02  0.36236534281E+02  0.00000000000E+00 0.  1.
         22    1    4    4    0    0 -0.17447358160E+01 -0.30103437276E+00  0.43143154044E+00  0.18223221272E+01  0.00000000000E+00 0.  1.
<mgrwt>
<rscale>  0 0.63832543E+02</rscale>
<asrwt>0</asrwt>
<pdfrwt beam="1">  1        2 0.72021604E-02 0.63832543E+02</pdfrwt>
<pdfrwt beam="2">  1       -2 0.33476095E-02 0.63832543E+02</pdfrwt>
<totfact> 0.26662448E+05</totfact>
</mgrwt>
</event>
<event>
 7    1  0.3056193E-009  0.9082249E+02  0.7818608E-02  0.1300872E+00
          2   -1    0    0  501    0  0.00000000000E+00  0.00000000000E+00  0.11627345583E+04  0.11627345583E+04  0.25500000000E-02 0. -1.
         -2   -1    0    0    0  501 -0.00000000000E+00 -0.00000000000E+00 -0.17735603258E+01  0.17735621590E+01  0.25500000000E-02 0.  1.
         23    2    1    2    0    0  0.00000000000E+00  0.00000000000E+00  0.11609609979E+04  0.11645081204E+04  0.90822485122E+02 0.  0.
    9000005    2    3    3    0    0 -0.30507251464E+02  0.92209263187E+01  0.99422602649E+03  0.99475456795E+03  0.59616133988E+01 0.  0.
         22    1    3    3    0    0  0.30507251464E+02 -0.92209263187E+01  0.16673497144E+03  0.16975355246E+03  0.00000000000E+00 0.  1.
         22    1    4    4    0    0 -0.18618952520E+02  0.42347770678E+01  0.67082058324E+03  0.67109228399E+03  0.00000000000E+00 0. -1.
         22    1    4    4    0    0 -0.11888298944E+02  0.49861492509E+01  0.32340544325E+03  0.32366228396E+03  0.00000000000E+00 0. -1.
<mgrwt>
<rscale>  0 0.90822485E+02</rscale>
<asrwt>0</asrwt>
<pdfrwt beam="1">  1        2 0.17888223E+00 0.90822485E+02</pdfrwt>
<pdfrwt beam="2">  1       -2 0.27285560E-03 0.90822485E+02</pdfrwt>
<totfact> 0.25199884E+05</totfact>
</mgrwt>
</event>
<event>
 7    1  0.3056193E-009  0.9265229E+02  0.7818608E-02  0.1296553E+00
          2   -1    0    0  501    0  0.00000000000E+00  0.00000000000E+00  0.49974021203E+02  0.49974021268E+02  0.25500000000E-02 0. -1.
         -2   -1    0    0    0  501 -0.00000000000E+00 -0.00000000000E+00 -0.42944545868E+02  0.42944545944E+02  0.25500000000E-02 0.  1.
         23    2    1    2    0    0  0.00000000000E+00  0.00000000000E+00  0.70294753349E+01  0.92918567212E+02  0.92652288743E+02 0.  0.
    9000005    2    3    3    0    0  0.94051672424E+01 -0.20278660123E+02  0.43053716645E+02  0.50522492050E+02  0.14114476921E+02 0.  0.
         22    1    3    3    0    0 -0.94051672424E+01  0.20278660123E+02 -0.36024241310E+02  0.42396075163E+02  0.00000000000E+00 0.  1.
         22    1    4    4    0    0  0.34365129739E+01 -0.49034479826E+01  0.20548704109E+01  0.63305541577E+01  0.00000000000E+00 0.  1.
         22    1    4    4    0    0  0.59686542685E+01 -0.15375212140E+02  0.40998846234E+02  0.44191937892E+02  0.00000000000E+00 0.  1.
<mgrwt>
<rscale>  0 0.92652289E+02</rscale>
<asrwt>0</asrwt>
<pdfrwt beam="1">  1        2 0.76883109E-02 0.92652289E+02</pdfrwt>
<pdfrwt beam="2">  1       -2 0.66068532E-02 0.92652289E+02</pdfrwt>
<totfact> 0.96529049E+04</totfact>
</mgrwt>
</event>
<event>
 7    1  0.3056193E-009  0.9428858E+02  0.7818608E-02  0.1292786E+00
         -2   -1    0    0    0  501 -0.00000000000E+00  0.00000000000E+00  0.41047777998E+01  0.41047785918E+01  0.25500000000E-02 0. -1.
          2   -1    0    0  501    0  0.00000000000E+00 -0.00000000000E+00 -0.54146269762E+03  0.54146269762E+03  0.25500000000E-02 0.  1.
         23    2    1    2    0    0  0.00000000000E+00  0.00000000000E+00 -0.53735791982E+03  0.54556747621E+03  0.94288584214E+02 0.  0.
    9000005    2    3    3    0    0 -0.16581203325E+02 -0.84131269314E+01 -0.51933328707E+03  0.51967144575E+03  0.23730683227E+01 0.  0.
         22    1    3    3    0    0  0.16581203325E+02  0.84131269314E+01 -0.18024632744E+02  0.25896030469E+02  0.00000000000E+00 0. -1.
         22    1    4    4    0    0 -0.50364425959E+01 -0.27467232648E+01 -0.13170003654E+03  0.13182492127E+03  0.00000000000E+00 0. -1.
         22    1    4    4    0    0 -0.11544760729E+02 -0.56664036667E+01 -0.38763325053E+03  0.38784652447E+03  0.00000000000E+00 0. -1.
<mgrwt>
<rscale>  0 0.94288584E+02</rscale>
<asrwt>0</asrwt>
<pdfrwt beam="2">  1        2 0.83301897E-01 0.94288584E+02</pdfrwt>
<pdfrwt beam="1">  1       -2 0.63150477E-03 0.94288584E+02</pdfrwt>
<totfact> 0.20220519E+05</totfact>
</mgrwt>
</event>
<event>
 7    1  0.3056193E-009  0.9063513E+02  0.7818608E-02  0.1301321E+00
         -2   -1    0    0    0  501 -0.00000000000E+00  0.00000000000E+00  0.40064215899E+02  0.40064215980E+02  0.25500000000E-02 0. -1.
          2   -1    0    0  501    0  0.00000000000E+00 -0.00000000000E+00 -0.51259749792E+02  0.51259749855E+02  0.25500000000E-02 0.  1.
         23    2    1    2    0    0  0.00000000000E+00  0.00000000000E+00 -0.11195533894E+02  0.91323965835E+02  0.90635129816E+02 0.  0.
    9000005    2    3    3    0    0  0.16602437864E+02  0.14303089947E+02  0.33613772353E+02  0.41443175431E+02  0.10364929955E+02 0.  0.
         22    1    3    3    0    0 -0.16602437864E+02 -0.14303089947E+02 -0.44809306246E+02  0.49880790404E+02  0.00000000000E+00 0.  1.
         22    1    4    4    0    0  0.15085603910E+01  0.73817872110E+01  0.87831199871E+01  0.11571937331E+02  0.00000000000E+00 0.  1.
         22    1    4    4    0    0  0.15093877473E+02  0.69213027360E+01  0.24830652366E+02  0.29871238100E+02  0.00000000000E+00 0.  1.
<mgrwt>
<rscale>  0 0.90635130E+02</rscale>
<asrwt>0</asrwt>
<pdfrwt beam="2">  1        2 0.78861154E-02 0.90635130E+02</pdfrwt>
<pdfrwt beam="1">  1       -2 0.61637255E-02 0.90635130E+02</pdfrwt>
<totfact> 0.10347721E+05</totfact>
</mgrwt>
</event>
<event>
 7    1  0.3056193E-009  0.9018448E+02  0.7818608E-02  0.1302406E+00
          2   -1    0    0  501    0  0.00000000000E+00  0.00000000000E+00  0.61358796688E+01  0.61358801987E+01  0.25500000000E-02 0.  1.
         -2   -1    0    0    0  501 -0.00000000000E+00 -0.00000000000E+00 -0.33138037132E+03  0.33138037133E+03  0.25500000000E-02 0. -1.
         23    2    1    2    0    0  0.00000000000E+00 -0.35527136788E-14 -0.32524449166E+03  0.33751625153E+03  0.90184481462E+02 0.  0.
    9000005    2    3    3    0    0 -0.21039968161E+02 -0.31774091415E+02 -0.25197890666E+03  0.25493223921E+03  0.66935823860E+01 0.  0.
         22    1    3    3    0    0  0.21039968161E+02  0.31774091415E+02 -0.73265584998E+02  0.82584012319E+02  0.00000000000E+00 0.  1.
         22    1    4    4    0    0 -0.22044437325E+01 -0.83462483987E+00 -0.11332060707E+02  0.11574617517E+02  0.00000000000E+00 0. -1.
         22    1    4    4    0    0 -0.18835524429E+02 -0.30939466575E+02 -0.24064684595E+03  0.24335762170E+03  0.00000000000E+00 0. -1.
<mgrwt>
<rscale>  0 0.90184481E+02</rscale>
<asrwt>0</asrwt>
<pdfrwt beam="1">  1        2 0.94398179E-03 0.90184481E+02</pdfrwt>
<pdfrwt beam="2">  1       -2 0.50981582E-01 0.90184481E+02</pdfrwt>
<totfact> 0.49513884E+04</totfact>
</mgrwt>
</event>
<event>
 7    1  0.3056193E-009  0.8827830E+02  0.7818608E-02  0.1307075E+00
          2   -1    0    0  501    0  0.00000000000E+00  0.00000000000E+00  0.38820659279E+02  0.38820659363E+02  0.25500000000E-02 0. -1.
         -2   -1    0    0    0  501 -0.00000000000E+00 -0.00000000000E+00 -0.50186277768E+02  0.50186277833E+02  0.25500000000E-02 0.  1.
         23    2    1    2    0    0  0.00000000000E+00  0.00000000000E+00 -0.11365618489E+02  0.89006937196E+02  0.88278296230E+02 0.  0.
    9000005    2    3    3    0    0  0.39183473358E+02 -0.13400770823E+02 -0.20277636855E+02  0.46647176639E+02  0.70605445227E+01 0.  0.
         22    1    3    3    0    0 -0.39183473358E+02  0.13400770823E+02  0.89120183665E+01  0.42359760556E+02  0.00000000000E+00 0. -1.
         22    1    4    4    0    0  0.22538076470E+02 -0.53051496988E+01 -0.82835459365E+01  0.24591190243E+02  0.00000000000E+00 0. -1.
         22    1    4    4    0    0  0.16645396888E+02 -0.80956211245E+01 -0.11994090919E+02  0.22055986396E+02  0.00000000000E+00 0. -1.
<mgrwt>
<rscale>  0 0.88278296E+02</rscale>
<asrwt>0</asrwt>
<pdfrwt beam="1">  1        2 0.59724091E-02 0.88278296E+02</pdfrwt>
<pdfrwt beam="2">  1       -2 0.77209658E-02 0.88278296E+02</pdfrwt>
<totfact> 0.10391723E+05</totfact>
</mgrwt>
</event>
<event>
 7    1  0.3056193E-009  0.9235847E+02  0.7818608E-02  0.1297239E+00
         -2   -1    0    0    0  501 -0.00000000000E+00  0.00000000000E+00  0.16975062927E+02  0.16975063119E+02  0.25500000000E-02 0.  1.
          2   -1    0    0  501    0  0.00000000000E+00 -0.00000000000E+00 -0.12562673557E+03  0.12562673559E+03  0.25500000000E-02 0. -1.
         23    2    1    2    0    0  0.00000000000E+00  0.00000000000E+00 -0.10865167264E+03  0.14260179871E+03  0.92358470258E+02 0.  0.
    9000005    2    3    3    0    0 -0.18965825159E+02 -0.19958912098E+02  0.23291617958E+01  0.28256679410E+02  0.59122111365E+01 0.  0.
         22    1    3    3    0    0  0.18965825159E+02  0.19958912098E+02 -0.11098083444E+03  0.11434511930E+03  0.00000000000E+00 0. -1.
         22    1    4    4    0    0 -0.22077338828E+01 -0.16114327118E+01  0.20324023150E+01  0.34060921086E+01  0.00000000000E+00 0. -1.
         22    1    4    4    0    0 -0.16758091276E+02 -0.18347479386E+02  0.29675948079E+00  0.24850587301E+02  0.00000000000E+00 0. -1.
<mgrwt>
<rscale>  0 0.92358470E+02</rscale>
<asrwt>0</asrwt>
<pdfrwt beam="2">  1        2 0.19327190E-01 0.92358470E+02</pdfrwt>
<pdfrwt beam="1">  1       -2 0.26115482E-02 0.92358470E+02</pdfrwt>
<totfact> 0.12723945E+05</totfact>
</mgrwt>
</event>
<event>
 7    1  0.3056193E-009  0.8868048E+02  0.7818608E-02  0.1306079E+00
          2   -1    0    0  501    0  0.00000000000E+00  0.00000000000E+00  0.36596132665E+03  0.36596132666E+03  0.25500000000E-02 0. -1.
         -2   -1    0    0    0  501 -0.00000000000E+00 -0.00000000000E+00 -0.53723077761E+01  0.53723083813E+01  0.25500000000E-02 0.  1.
         23    2    1    2    0    0  0.00000000000E+00  0.00000000000E+00  0.36058901888E+03  0.37133363504E+03  0.88680482519E+02 0.  0.
    9000005    2    3    3    0    0 -0.26630241237E+02  0.23047372335E+02  0.28985007368E+03  0.29231243860E+03  0.13897677062E+02 0.  0.
         22    1    3    3    0    0  0.26630241237E+02 -0.23047372335E+02  0.70738945202E+02  0.79021196449E+02  0.00000000000E+00 0.  1.
         22    1    4    4    0    0 -0.13802292718E+02  0.16720858366E+02  0.12719349410E+03  0.12902819587E+03  0.00000000000E+00 0. -1.
         22    1    4    4    0    0 -0.12827948519E+02  0.63265139694E+01  0.16265657958E+03  0.16328424272E+03  0.00000000000E+00 0. -1.
<mgrwt>
<rscale>  0 0.88680483E+02</rscale>
<asrwt>0</asrwt>
<pdfrwt beam="1">  1        2 0.56301746E-01 0.88680483E+02</pdfrwt>
<pdfrwt beam="2">  1       -2 0.82650888E-03 0.88680483E+02</pdfrwt>
<totfact> 0.20809105E+05</totfact>
</mgrwt>
</event>
<event>
 7    1  0.3056193E-009  0.8550859E+02  0.7818608E-02  0.1314108E+00
          2   -1    0    0  501    0  0.00000000000E+00  0.00000000000E+00  0.49151222541E+02  0.49151222607E+02  0.25500000000E-02 0. -1.
         -2   -1    0    0    0  501 -0.00000000000E+00 -0.00000000000E+00 -0.37189915010E+02  0.37189915097E+02  0.25500000000E-02 0.  1.
         23    2    1    2    0    0  0.00000000000E+00 -0.17763568394E-14  0.11961307531E+02  0.86341137704E+02  0.85508591277E+02 0.  0.
    9000005    2    3    3    0    0 -0.25477850331E+02  0.98747292744E+01 -0.25455070155E+02  0.40009545298E+02  0.14358690142E+02 0.  0.
         22    1    3    3    0    0  0.25477850331E+02 -0.98747292744E+01  0.37416377686E+02  0.46331592406E+02  0.00000000000E+00 0. -1.
         22    1    4    4    0    0 -0.29768417015E+01  0.62943635665E+01 -0.18544467794E+01  0.72055237201E+01  0.00000000000E+00 0. -1.
         22    1    4    4    0    0 -0.22501008630E+02  0.35803657080E+01 -0.23600623375E+02  0.32804021578E+02  0.00000000000E+00 0. -1.
<mgrwt>
<rscale>  0 0.85508591E+02</rscale>
<asrwt>0</asrwt>
<pdfrwt beam="1">  1        2 0.75617265E-02 0.85508591E+02</pdfrwt>
<pdfrwt beam="2">  1       -2 0.57215254E-02 0.85508591E+02</pdfrwt>
<totfact> 0.12070877E+05</totfact>
</mgrwt>
</event>
<event>
 7    1  0.3056193E-009  0.9123275E+02  0.7818608E-02  0.1299894E+00
          2   -1    0    0  501    0  0.00000000000E+00  0.00000000000E+00  0.26628359015E+03  0.26628359016E+03  0.25500000000E-02 0. -1.
         -2   -1    0    0    0  501 -0.00000000000E+00 -0.00000000000E+00 -0.78144268385E+01  0.78144272545E+01  0.25500000000E-02 0.  1.
         23    2    1    2    0    0  0.44408920985E-15  0.71054273576E-14  0.25846916331E+03  0.27409801742E+03  0.91232750528E+02 0.  0.
    9000005    2    3    3    0    0 -0.35688254655E+01 -0.43901972230E+02  0.15871112491E+03  0.16504855201E+03  0.10568049381E+02 0.  0.
         22    1    3    3    0    0  0.35688254655E+01  0.43901972230E+02  0.99758038400E+02  0.10904946541E+03  0.00000000000E+00 0.  1.
         22    1    4    4    0    0  0.37462512652E+01 -0.16544709111E+02  0.57419223653E+02  0.59872606783E+02  0.00000000000E+00 0.  1.
         22    1    4    4    0    0 -0.73150767307E+01 -0.27357263119E+02  0.10129190126E+03  0.10517594522E+03  0.00000000000E+00 0.  1.
<mgrwt>
<rscale>  0 0.91232751E+02</rscale>
<asrwt>0</asrwt>
<pdfrwt beam="1">  1        2 0.40966706E-01 0.91232751E+02</pdfrwt>
<pdfrwt beam="2">  1       -2 0.12022195E-02 0.91232751E+02</pdfrwt>
<totfact> 0.17156381E+05</totfact>
</mgrwt>
</event>
<event>
 7    1  0.3056193E-009  0.9243558E+02  0.7818608E-02  0.1297059E+00
          2   -1    0    0  501    0  0.00000000000E+00  0.00000000000E+00  0.62107162691E+02  0.62107162743E+02  0.25500000000E-02 0. -1.
         -2   -1    0    0    0  501 -0.00000000000E+00 -0.00000000000E+00 -0.34393526029E+02  0.34393526123E+02  0.25500000000E-02 0.  1.
         23    2    1    2    0    0  0.00000000000E+00  0.00000000000E+00  0.27713636662E+02  0.96500688867E+02  0.92435584569E+02 0.  0.
    9000005    2    3    3    0    0 -0.38267146487E+01  0.34439782244E+02  0.45329696309E+02  0.57628231992E+02  0.80925526905E+01 0.  0.
         22    1    3    3    0    0  0.38267146487E+01 -0.34439782244E+02 -0.17616059647E+02  0.38872456875E+02  0.00000000000E+00 0.  1.
         22    1    4    4    0    0 -0.24911373878E+01  0.34029290795E+02  0.42776355479E+02  0.54717593017E+02  0.00000000000E+00 0. -1.
         22    1    4    4    0    0 -0.13355772609E+01  0.41049144895E+00  0.25533408302E+01  0.29106389753E+01  0.00000000000E+00 0. -1.
<mgrwt>
<rscale>  0 0.92435585E+02</rscale>
<asrwt>0</asrwt>
<pdfrwt beam="1">  1        2 0.95549481E-02 0.92435585E+02</pdfrwt>
<pdfrwt beam="2">  1       -2 0.52913117E-02 0.92435585E+02</pdfrwt>
<totfact> 0.10299697E+05</totfact>
</mgrwt>
</event>
<event>
 7    1  0.3056193E-009  0.9174471E+02  0.7818608E-02  0.1298681E+00
          2   -1    0    0  501    0  0.00000000000E+00  0.00000000000E+00  0.48319461700E+03  0.48319461701E+03  0.25500000000E-02 0.  1.
         -2   -1    0    0    0  501 -0.00000000000E+00 -0.00000000000E+00 -0.43549181160E+01  0.43549188625E+01  0.25500000000E-02 0. -1.
         23    2    1    2    0    0  0.00000000000E+00 -0.35527136788E-14  0.47883969889E+03  0.48754953587E+03  0.91744714829E+02 0.  0.
    9000005    2    3    3    0    0  0.37492601074E+02  0.23528489065E+02  0.29707147387E+03  0.30046941251E+03  0.84334056793E+01 0.  0.
         22    1    3    3    0    0 -0.37492601074E+02 -0.23528489065E+02  0.18176822501E+03  0.18708012336E+03  0.00000000000E+00 0. -1.
         22    1    4    4    0    0  0.12314980814E+02  0.33944329717E+01  0.78207214402E+02  0.79243607390E+02  0.00000000000E+00 0. -1.
         22    1    4    4    0    0  0.25177620260E+02  0.20134056093E+02  0.21886425947E+03  0.22122580512E+03  0.00000000000E+00 0. -1.
<mgrwt>
<rscale>  0 0.91744715E+02</rscale>
<asrwt>0</asrwt>
<pdfrwt beam="1">  1        2 0.74337655E-01 0.91744715E+02</pdfrwt>
<pdfrwt beam="2">  1       -2 0.66998727E-03 0.91744715E+02</pdfrwt>
<totfact> 0.20961556E+05</totfact>
</mgrwt>
</event>
<event>
 7    1  0.3056193E-009  0.9140800E+02  0.7818608E-02  0.1299477E+00
         -2   -1    0    0    0  501 -0.00000000000E+00  0.00000000000E+00  0.77812473655E+02  0.77812473697E+02  0.25500000000E-02 0.  1.
          2   -1    0    0  501    0  0.00000000000E+00 -0.00000000000E+00 -0.26844738367E+02  0.26844738489E+02  0.25500000000E-02 0. -1.
         23    2    1    2    0    0 -0.35527136788E-14  0.17763568394E-14  0.50967735288E+02  0.10465721219E+03  0.91407997583E+02 0.  0.
    9000005    2    3    3    0    0  0.29740295594E+02 -0.15130034229E+02 -0.82828677585E+01  0.36656939545E+02  0.12717004393E+02 0.  0.
         22    1    3    3    0    0 -0.29740295594E+02  0.15130034229E+02  0.59250603046E+02  0.68000272640E+02  0.00000000000E+00 0.  1.
         22    1    4    4    0    0  0.13381747581E+02 -0.31448100933E+01 -0.88867103608E+01  0.16368708559E+02  0.00000000000E+00 0.  1.
         22    1    4    4    0    0  0.16358548013E+02 -0.11985224136E+02  0.60384260225E+00  0.20288230987E+02  0.00000000000E+00 0.  1.
<mgrwt>
<rscale>  0 0.91407998E+02</rscale>
<asrwt>0</asrwt>
<pdfrwt beam="2">  1        2 0.41299597E-02 0.91407998E+02</pdfrwt>
<pdfrwt beam="1">  1       -2 0.11971150E-01 0.91407998E+02</pdfrwt>
<totfact> 0.85198953E+04</totfact>
</mgrwt>
</event>
<event>
 7    1  0.3056193E-009  0.9304799E+02  0.7818608E-02  0.1295634E+00
         -2   -1    0    0    0  501 -0.00000000000E+00  0.00000000000E+00  0.93410380258E+01  0.93410383739E+01  0.25500000000E-02 0. -1.
          2   -1    0    0  501    0  0.00000000000E+00 -0.00000000000E+00 -0.23171749528E+03  0.23171749530E+03  0.25500000000E-02 0.  1.
         23    2    1    2    0    0  0.00000000000E+00  0.00000000000E+00 -0.22237645726E+03  0.24105853367E+03  0.93047987154E+02 0.  0.
    9000005    2    3    3    0    0 -0.30422009219E+02 -0.59307037961E+01 -0.19995984890E+03  0.20280704713E+03  0.13641308628E+02 0.  0.
         22    1    3    3    0    0  0.30422009219E+02  0.59307037961E+01 -0.22416608360E+02  0.38251486543E+02  0.00000000000E+00 0. -1.
         22    1    4    4    0    0 -0.30622520049E+02 -0.67521318188E+01 -0.17204666086E+03  0.17488105538E+03  0.00000000000E+00 0. -1.
         22    1    4    4    0    0  0.20051083035E+00  0.82142802276E+00 -0.27913188038E+02  0.27925991747E+02  0.00000000000E+00 0. -1.
<mgrwt>
<rscale>  0 0.93047987E+02</rscale>
<asrwt>0</asrwt>
<pdfrwt beam="2">  1        2 0.35648841E-01 0.93047987E+02</pdfrwt>
<pdfrwt beam="1">  1       -2 0.14370830E-02 0.93047987E+02</pdfrwt>
<totfact> 0.15454721E+05</totfact>
</mgrwt>
</event>
<event>
 7    1  0.3056193E-009  0.9122465E+02  0.7818608E-02  0.1299913E+00
          2   -1    0    0  501    0  0.00000000000E+00  0.00000000000E+00  0.21496641007E+03  0.21496641009E+03  0.25500000000E-02 0. -1.
         -2   -1    0    0    0  501 -0.00000000000E+00 -0.00000000000E+00 -0.96781822694E+01  0.96781826054E+01  0.25500000000E-02 0.  1.
         23    2    1    2    0    0  0.35527136788E-14  0.00000000000E+00  0.20528822780E+03  0.22464459269E+03  0.91224648816E+02 0.  0.
    9000005    2    3    3    0    0  0.30997467687E+02  0.18058561296E+02  0.17183108422E+03  0.17559018315E+03  0.43630578899E+01 0.  0.
         22    1    3    3    0    0 -0.30997467687E+02 -0.18058561296E+02  0.33457143578E+02  0.49054409542E+02  0.00000000000E+00 0.  1.
         22    1    4    4    0    0  0.17333624332E+02  0.90138106706E+01  0.10288936941E+03  0.10472786474E+03  0.00000000000E+00 0. -1.
         22    1    4    4    0    0  0.13663843354E+02  0.90447506256E+01  0.68941714814E+02  0.70862318411E+02  0.00000000000E+00 0. -1.
<mgrwt>
<rscale>  0 0.91224649E+02</rscale>
<asrwt>0</asrwt>
<pdfrwt beam="1">  1        2 0.33071753E-01 0.91224649E+02</pdfrwt>
<pdfrwt beam="2">  1       -2 0.14889513E-02 0.91224649E+02</pdfrwt>
<totfact> 0.15856673E+05</totfact>
</mgrwt>
</event>
<event>
 7    1  0.3056193E-009  0.9251066E+02  0.7818608E-02  0.1296883E+00
          2   -1    0    0  501    0  0.00000000000E+00  0.00000000000E+00  0.51194725709E+03  0.51194725710E+03  0.25500000000E-02 0. -1.
         -2   -1    0    0    0  501 -0.00000000000E+00 -0.00000000000E+00 -0.41792496560E+01  0.41792504339E+01  0.25500000000E-02 0.  1.
         23    2    1    2    0    0  0.00000000000E+00  0.00000000000E+00  0.50776800744E+03  0.51612650753E+03  0.92510661018E+02 0.  0.
    9000005    2    3    3    0    0 -0.20827791056E+02 -0.33280284802E+02  0.38404894504E+03  0.38632750662E+03  0.14627916832E+02 0.  0.
         22    1    3    3    0    0  0.20827791056E+02  0.33280284802E+02  0.12371906240E+03  0.12979900091E+03  0.00000000000E+00 0.  1.
         22    1    4    4    0    0 -0.13928023184E+02 -0.10733123690E+02  0.20065167405E+03  0.20142066447E+03  0.00000000000E+00 0. -1.
         22    1    4    4    0    0 -0.68997678712E+01 -0.22547161112E+02  0.18339727099E+03  0.18490684215E+03  0.00000000000E+00 0. -1.
<mgrwt>
<rscale>  0 0.92510661E+02</rscale>
<asrwt>0</asrwt>
<pdfrwt beam="1">  1        2 0.78761101E-01 0.92510661E+02</pdfrwt>
<pdfrwt beam="2">  1       -2 0.64296167E-03 0.92510661E+02</pdfrwt>
<totfact> 0.20895018E+05</totfact>
</mgrwt>
</event>
<event>
 7    1  0.3056193E-009  0.8743732E+02  0.7818608E-02  0.1309179E+00
         -2   -1    0    0    0  501 -0.00000000000E+00  0.00000000000E+00  0.78382532062E+02  0.78382532103E+02  0.25500000000E-02 0. -1.
          2   -1    0    0  501    0  0.00000000000E+00 -0.00000000000E+00 -0.24384529646E+02  0.24384529779E+02  0.25500000000E-02 0.  1.
         23    2    1    2    0    0  0.44408920985E-15  0.00000000000E+00  0.53998002416E+02  0.10276706188E+03  0.87437318938E+02 0.  0.
    9000005    2    3    3    0    0 -0.25788861570E+01 -0.42361279923E+02  0.31412192523E+02  0.54691626376E+02  0.14259013502E+02 0.  0.
         22    1    3    3    0    0  0.25788861570E+01  0.42361279923E+02  0.22585809893E+02  0.48075435506E+02  0.00000000000E+00 0.  1.
         22    1    4    4    0    0 -0.61424634750E+01 -0.81521890520E+01  0.92543994578E+01  0.13777951706E+02  0.00000000000E+00 0. -1.
         22    1    4    4    0    0  0.35635773180E+01 -0.34209090872E+02  0.22157793065E+02  0.40913674671E+02  0.00000000000E+00 0. -1.
<mgrwt>
<rscale>  0 0.87437319E+02</rscale>
<asrwt>0</asrwt>
<pdfrwt beam="2">  1        2 0.37514661E-02 0.87437319E+02</pdfrwt>
<pdfrwt beam="1">  1       -2 0.12058851E-01 0.87437319E+02</pdfrwt>
<totfact> 0.94817608E+04</totfact>
</mgrwt>
</event>
<event>
 7    1  0.3056193E-009  0.8737377E+02  0.7818608E-02  0.1309339E+00
         -2   -1    0    0    0  501 -0.00000000000E+00  0.00000000000E+00  0.15095588294E+02  0.15095588510E+02  0.25500000000E-02 0.  1.
          2   -1    0    0  501    0  0.00000000000E+00 -0.00000000000E+00 -0.12643057064E+03  0.12643057067E+03  0.25500000000E-02 0. -1.
         23    2    1    2    0    0  0.00000000000E+00  0.00000000000E+00 -0.11133498235E+03  0.14152615918E+03  0.87373768587E+02 0.  0.
    9000005    2    3    3    0    0 -0.12885569069E+02  0.40841515440E+02 -0.61461547399E+02  0.75788599234E+02  0.11503160065E+02 0.  0.
         22    1    3    3    0    0  0.12885569069E+02 -0.40841515440E+02 -0.49873434948E+02  0.65737559942E+02  0.00000000000E+00 0. -1.
         22    1    4    4    0    0 -0.10305757291E+02  0.36009267668E+02 -0.58756588539E+02  0.69679356255E+02  0.00000000000E+00 0.  1.
         22    1    4    4    0    0 -0.25798117788E+01  0.48322477715E+01 -0.27049588591E+01  0.61092429784E+01  0.00000000000E+00 0.  1.
<mgrwt>
<rscale>  0 0.87373769E+02</rscale>
<asrwt>0</asrwt>
<pdfrwt beam="2">  1        2 0.19450856E-01 0.87373769E+02</pdfrwt>
<pdfrwt beam="1">  1       -2 0.23223983E-02 0.87373769E+02</pdfrwt>
<totfact> 0.14829581E+05</totfact>
</mgrwt>
</event>
<event>
 7    1  0.3056193E-009  0.9109886E+02  0.7818608E-02  0.1300212E+00
          2   -1    0    0  501    0  0.00000000000E+00  0.00000000000E+00  0.96456041084E+03  0.96456041085E+03  0.25500000000E-02 0. -1.
         -2   -1    0    0    0  501 -0.00000000000E+00 -0.00000000000E+00 -0.21509795473E+01  0.21509810588E+01  0.25500000000E-02 0.  1.
         23    2    1    2    0    0  0.00000000000E+00 -0.88817841970E-15  0.96240943130E+03  0.96671139191E+03  0.91098857250E+02 0.  0.
    9000005    2    3    3    0    0  0.22537873406E+02 -0.62857788721E+01  0.89372996995E+03  0.89415565358E+03  0.14615296154E+02 0.  0.
         22    1    3    3    0    0 -0.22537873406E+02  0.62857788721E+01  0.68679461342E+02  0.72555738326E+02  0.00000000000E+00 0.  1.
         22    1    4    4    0    0  0.32030749548E+01 -0.50212464336E+01  0.40194945535E+03  0.40199357863E+03  0.00000000000E+00 0. -1.
         22    1    4    4    0    0  0.19334798451E+02 -0.12645324385E+01  0.49178051461E+03  0.49216207495E+03  0.00000000000E+00 0. -1.
<mgrwt>
<rscale>  0 0.91098857E+02</rscale>
<asrwt>0</asrwt>
<pdfrwt beam="1">  1        2 0.14839427E+00 0.91098857E+02</pdfrwt>
<pdfrwt beam="2">  1       -2 0.33091924E-03 0.91098857E+02</pdfrwt>
<totfact> 0.25007089E+05</totfact>
</mgrwt>
</event>
<event>
 7    1  0.3056193E-009  0.9113162E+02  0.7818608E-02  0.1300134E+00
          2   -1    0    0  501    0  0.00000000000E+00  0.00000000000E+00  0.90373582419E+03  0.90373582420E+03  0.25500000000E-02 0. -1.
         -2   -1    0    0    0  501 -0.00000000000E+00 -0.00000000000E+00 -0.22973997715E+01  0.22974011867E+01  0.25500000000E-02 0.  1.
         23    2    1    2    0    0 -0.35527136788E-14  0.00000000000E+00  0.90143842442E+03  0.90603322539E+03  0.91131621708E+02 0.  0.
    9000005    2    3    3    0    0  0.28911791143E+02  0.28486925885E+02  0.65646025251E+03  0.65771548271E+03  0.14820448941E+01 0.  0.
         22    1    3    3    0    0 -0.28911791143E+02 -0.28486925885E+02  0.24497817191E+03  0.24831774267E+03  0.00000000000E+00 0.  1.
         22    1    4    4    0    0  0.20429225903E+02  0.20758135999E+02  0.46280181684E+03  0.46371734403E+03  0.00000000000E+00 0.  1.
         22    1    4    4    0    0  0.84825652400E+01  0.77287898855E+01  0.19365843567E+03  0.19399813868E+03  0.00000000000E+00 0.  1.
<mgrwt>
<rscale>  0 0.91131622E+02</rscale>
<asrwt>0</asrwt>
<pdfrwt beam="1">  1        2 0.13903639E+00 0.91131622E+02</pdfrwt>
<pdfrwt beam="2">  1       -2 0.35344596E-03 0.91131622E+02</pdfrwt>
<totfact> 0.24838015E+05</totfact>
</mgrwt>
</event>
<event>
 7    1  0.3056193E-009  0.8829072E+02  0.7818608E-02  0.1307045E+00
         -2   -1    0    0    0  501 -0.00000000000E+00  0.00000000000E+00  0.51590179874E+01  0.51590186176E+01  0.25500000000E-02 0.  1.
          2   -1    0    0  501    0  0.00000000000E+00 -0.00000000000E+00 -0.37774873167E+03  0.37774873168E+03  0.25500000000E-02 0. -1.
         23    2    1    2    0    0  0.44408920985E-15  0.00000000000E+00 -0.37258971369E+03  0.38290775030E+03  0.88290715791E+02 0.  0.
    9000005    2    3    3    0    0 -0.39173820226E+01  0.13932383790E+02 -0.36713296075E+03  0.36744058014E+03  0.40634800610E+01 0.  0.
         22    1    3    3    0    0  0.39173820226E+01 -0.13932383790E+02 -0.54567529402E+01  0.15467170156E+02  0.00000000000E+00 0.  1.
         22    1    4    4    0    0  0.63796263790E+00  0.29275034986E+01 -0.56535572160E+02  0.56614911397E+02  0.00000000000E+00 0.  1.
         22    1    4    4    0    0 -0.45553446605E+01  0.11004880292E+02 -0.31059738859E+03  0.31082566875E+03  0.00000000000E+00 0.  1.
<mgrwt>
<rscale>  0 0.88290716E+02</rscale>
<asrwt>0</asrwt>
<pdfrwt beam="2">  1        2 0.58115168E-01 0.88290716E+02</pdfrwt>
<pdfrwt beam="1">  1       -2 0.79369542E-03 0.88290716E+02</pdfrwt>
<totfact> 0.21296033E+05</totfact>
</mgrwt>
</event>
<event>
 6    1  0.3056193E-009  0.1522422E+03  0.7818608E-02  0.1197745E+00
          2   -1    0    0  501    0  0.00000000000E+00  0.00000000000E+00  0.13197284802E+03  0.13197284805E+03  0.25500000000E-02 0. -1.
         -2   -1    0    0    0  501 -0.00000000000E+00 -0.00000000000E+00 -0.43906155355E+02  0.43906155429E+02  0.25500000000E-02 0.  1.
    9000005    2    1    2    0    0  0.60712178916E+02  0.40609912124E+00  0.96649974470E+02  0.11456174398E+03  0.98509915176E+01 0.  0.
         22    1    1    2    0    0 -0.60712178916E+02 -0.40609912124E+00 -0.85832818036E+01  0.61317259493E+02  0.00000000000E+00 0.  1.
         22    1    3    3    0    0  0.52383536193E+00  0.49594616297E+00  0.22292487479E-01  0.72170841617E+00  0.00000000000E+00 0. -1.
         22    1    3    3    0    0  0.60188343554E+02 -0.89847041723E-01  0.96627681983E+02  0.11384003557E+03  0.00000000000E+00 0. -1.
<mgrwt>
<rscale>  0 0.15224218E+03</rscale>
<asrwt>0</asrwt>
<pdfrwt beam="1">  1        2 0.20303515E-01 0.15224218E+03</pdfrwt>
<pdfrwt beam="2">  1       -2 0.67547931E-02 0.15224218E+03</pdfrwt>
<totfact> 0.31326589E+04</totfact>
</mgrwt>
</event>
<event>
 7    1  0.3056193E-009  0.9050468E+02  0.7818608E-02  0.1301634E+00
         -2   -1    0    0    0  501 -0.00000000000E+00  0.00000000000E+00  0.70986313877E+02  0.70986313922E+02  0.25500000000E-02 0.  1.
          2   -1    0    0  501    0  0.00000000000E+00 -0.00000000000E+00 -0.28847449633E+02  0.28847449746E+02  0.25500000000E-02 0. -1.
         23    2    1    2    0    0  0.00000000000E+00  0.00000000000E+00  0.42138864243E+02  0.99833763669E+02  0.90504676611E+02 0.  0.
    9000005    2    3    3    0    0 -0.86775997341E+01 -0.31656983179E+02 -0.12146907116E+02  0.36395523677E+02  0.99810555621E+01 0.  0.
         22    1    3    3    0    0  0.86775997341E+01  0.31656983179E+02  0.54285771359E+02  0.63438239991E+02  0.00000000000E+00 0.  1.
         22    1    4    4    0    0 -0.82702043293E+00 -0.99672475158E+00  0.14542562123E+01  0.19473787916E+01  0.00000000000E+00 0.  1.
         22    1    4    4    0    0 -0.78505793011E+01 -0.30660258427E+02 -0.13601163328E+02  0.34448144886E+02  0.00000000000E+00 0.  1.
<mgrwt>
<rscale>  0 0.90504677E+02</rscale>
<asrwt>0</asrwt>
<pdfrwt beam="2">  1        2 0.44380693E-02 0.90504677E+02</pdfrwt>
<pdfrwt beam="1">  1       -2 0.10920971E-01 0.90504677E+02</pdfrwt>
<totfact> 0.89489818E+04</totfact>
</mgrwt>
</event>
<event>
 7    1  0.3593034E-009  0.8993969E+02  0.7818608E-02  0.1302998E+00
         -2   -1    0    0    0  501 -0.00000000000E+00  0.00000000000E+00  0.41319248351E+01  0.41319256219E+01  0.25500000000E-02 0.  1.
          2   -1    0    0  501    0  0.00000000000E+00 -0.00000000000E+00 -0.48942968139E+03  0.48942968139E+03  0.25500000000E-02 0. -1.
         23    2    1    2    0    0 -0.44408920985E-15  0.00000000000E+00 -0.48529775655E+03  0.49356160702E+03  0.89939687599E+02 0.  0.
    9000005    2    3    3    0    0  0.31534537876E+01  0.12782974982E+02 -0.47832221463E+03  0.47866171087E+03  0.12310309456E+02 0.  0.
         22    1    3    3    0    0 -0.31534537876E+01 -0.12782974982E+02 -0.69755419203E+01  0.14899896149E+02  0.00000000000E+00 0.  1.
         22    1    4    4    0    0 -0.24405810106E+01 -0.70321948825E+00 -0.31956175772E+02  0.32056951248E+02  0.00000000000E+00 0.  1.
         22    1    4    4    0    0  0.55940347982E+01  0.13486194470E+02 -0.44636603886E+03  0.44660475962E+03  0.00000000000E+00 0.  1.
<mgrwt>
<rscale>  0 0.89939688E+02</rscale>
<asrwt>0</asrwt>
<pdfrwt beam="2">  1        2 0.75296828E-01 0.89939688E+02</pdfrwt>
<pdfrwt beam="1">  1       -2 0.63568119E-03 0.89939688E+02</pdfrwt>
<totfact> 0.22186922E+05</totfact>
</mgrwt>
</event>
<event>
 7    1  0.3056193E-009  0.9092867E+02  0.7818608E-02  0.1300618E+00
          2   -1    0    0  501    0  0.00000000000E+00  0.00000000000E+00  0.39167974625E+02  0.39167974708E+02  0.25500000000E-02 0. -1.
         -2   -1    0    0    0  501 -0.00000000000E+00 -0.00000000000E+00 -0.52772847108E+02  0.52772847169E+02  0.25500000000E-02 0.  1.
         23    2    1    2    0    0  0.00000000000E+00  0.00000000000E+00 -0.13604872482E+02  0.91940821878E+02  0.90928665295E+02 0.  0.
    9000005    2    3    3    0    0 -0.20445502576E+02 -0.44735441607E+01 -0.47145808690E+02  0.52405703632E+02  0.92519902273E+01 0.  0.
         22    1    3    3    0    0  0.20445502576E+02  0.44735441607E+01  0.33540936208E+02  0.39535118245E+02  0.00000000000E+00 0. -1.
         22    1    4    4    0    0 -0.15926942222E+02 -0.11282038101E+01 -0.41375019285E+02  0.44348985933E+02  0.00000000000E+00 0. -1.
         22    1    4    4    0    0 -0.45185603539E+01 -0.33453403507E+01 -0.57707894050E+01  0.80567176996E+01  0.00000000000E+00 0. -1.
<mgrwt>
<rscale>  0 0.90928665E+02</rscale>
<asrwt>0</asrwt>
<pdfrwt beam="1">  1        2 0.60258422E-02 0.90928665E+02</pdfrwt>
<pdfrwt beam="2">  1       -2 0.81188996E-02 0.90928665E+02</pdfrwt>
<totfact> 0.95623815E+04</totfact>
</mgrwt>
</event>
<event>
 7    1  0.3056193E-009  0.8958098E+02  0.7818608E-02  0.1303870E+00
          2   -1    0    0  501    0  0.00000000000E+00  0.00000000000E+00  0.18340634157E+03  0.18340634158E+03  0.25500000000E-02 0. -1.
         -2   -1    0    0    0  501 -0.00000000000E+00 -0.00000000000E+00 -0.10938486228E+02  0.10938486526E+02  0.25500000000E-02 0.  1.
         23    2    1    2    0    0  0.00000000000E+00  0.00000000000E+00  0.17246785534E+03  0.19434482811E+03  0.89580975034E+02 0.  0.
    9000005    2    3    3    0    0 -0.43760234363E+02 -0.49896642784E+01  0.94418784529E+02  0.10472612295E+03  0.10620691792E+02 0.  0.
         22    1    3    3    0    0  0.43760234363E+02  0.49896642784E+01  0.78049070808E+02  0.89618705163E+02  0.00000000000E+00 0.  1.
         22    1    4    4    0    0 -0.23679989673E+02 -0.66822047999E+01  0.59888513938E+02  0.64745871479E+02  0.00000000000E+00 0. -1.
         22    1    4    4    0    0 -0.20080244690E+02  0.16925405214E+01  0.34530270591E+02  0.39980251466E+02  0.00000000000E+00 0. -1.
<mgrwt>
<rscale>  0 0.89580975E+02</rscale>
<asrwt>0</asrwt>
<pdfrwt beam="1">  1        2 0.28216360E-01 0.89580975E+02</pdfrwt>
<pdfrwt beam="2">  1       -2 0.16828441E-02 0.89580975E+02</pdfrwt>
<totfact> 0.15724756E+05</totfact>
</mgrwt>
</event>
<event>
 7    1  0.3056193E-009  0.9108976E+02  0.7818608E-02  0.1300234E+00
          2   -1    0    0  501    0  0.00000000000E+00  0.00000000000E+00  0.14950216083E+03  0.14950216085E+03  0.25500000000E-02 0. -1.
         -2   -1    0    0    0  501 -0.00000000000E+00 -0.00000000000E+00 -0.13874958265E+02  0.13874958499E+02  0.25500000000E-02 0.  1.
         23    2    1    2    0    0  0.71054273576E-14 -0.88817841970E-15  0.13562720256E+03  0.16337711935E+03  0.91089763705E+02 0.  0.
    9000005    2    3    3    0    0 -0.35665182112E+02  0.45187396719E+01  0.18434906535E+02  0.40794663543E+02  0.56510681557E+01 0.  0.
         22    1    3    3    0    0  0.35665182112E+02 -0.45187396719E+01  0.11719229603E+03  0.12258245581E+03  0.00000000000E+00 0. -1.
         22    1    4    4    0    0 -0.86740553581E+01  0.25077305178E+01  0.69431871104E+01  0.11390162244E+02  0.00000000000E+00 0.  1.
         22    1    4    4    0    0 -0.26991126754E+02  0.20110091541E+01  0.11491719425E+02  0.29404501298E+02  0.00000000000E+00 0.  1.
<mgrwt>
<rscale>  0 0.91089764E+02</rscale>
<asrwt>0</asrwt>
<pdfrwt beam="1">  1        2 0.23000332E-01 0.91089764E+02</pdfrwt>
<pdfrwt beam="2">  1       -2 0.21346090E-02 0.91089764E+02</pdfrwt>
<totfact> 0.14001468E+05</totfact>
</mgrwt>
</event>
<event>
 7    1  0.3056193E-009  0.8986703E+02  0.7818608E-02  0.1303174E+00
          2   -1    0    0  501    0  0.00000000000E+00  0.00000000000E+00  0.24037346284E+03  0.24037346286E+03  0.25500000000E-02 0. -1.
         -2   -1    0    0    0  501 -0.00000000000E+00 -0.00000000000E+00 -0.83995163579E+01  0.83995167450E+01  0.25500000000E-02 0.  1.
         23    2    1    2    0    0 -0.35527136788E-14  0.35527136788E-14  0.23197394649E+03  0.24877297960E+03  0.89867032509E+02 0.  0.
    9000005    2    3    3    0    0 -0.30875860311E+02  0.16848934266E+02  0.19241821250E+03  0.19584036747E+03  0.95642926334E+01 0.  0.
         22    1    3    3    0    0  0.30875860311E+02 -0.16848934266E+02  0.39555733985E+02  0.52932612131E+02  0.00000000000E+00 0.  1.
         22    1    4    4    0    0 -0.65774333470E+01  0.82700795491E+01  0.49121986566E+02  0.50245660602E+02  0.00000000000E+00 0. -1.
         22    1    4    4    0    0 -0.24298426964E+02  0.85788547173E+01  0.14329622594E+03  0.14559470687E+03  0.00000000000E+00 0. -1.
<mgrwt>
<rscale>  0 0.89867033E+02</rscale>
<asrwt>0</asrwt>
<pdfrwt beam="1">  1        2 0.36980533E-01 0.89867033E+02</pdfrwt>
<pdfrwt beam="2">  1       -2 0.12922333E-02 0.89867033E+02</pdfrwt>
<totfact> 0.17197503E+05</totfact>
</mgrwt>
</event>
<event>
 7    1  0.3056193E-009  0.9115248E+02  0.7818608E-02  0.1300085E+00
          2   -1    0    0  501    0  0.00000000000E+00  0.00000000000E+00  0.49462871477E+03  0.49462871478E+03  0.25500000000E-02 0. -1.
         -2   -1    0    0    0  501 -0.00000000000E+00 -0.00000000000E+00 -0.41995003181E+01  0.41995010923E+01  0.25500000000E-02 0.  1.
         23    2    1    2    0    0  0.00000000000E+00  0.00000000000E+00  0.49042921445E+03  0.49882821587E+03  0.91152479720E+02 0.  0.
    9000005    2    3    3    0    0  0.40067391317E+02  0.19619533768E+02  0.23918661533E+03  0.24365540077E+03  0.12938138155E+02 0.  0.
         22    1    3    3    0    0 -0.40067391317E+02 -0.19619533768E+02  0.25124259912E+03  0.25517281510E+03  0.00000000000E+00 0. -1.
         22    1    4    4    0    0  0.36045192489E+02  0.18431052218E+02  0.23026931540E+03  0.23380102053E+03  0.00000000000E+00 0.  1.
         22    1    4    4    0    0  0.40221988286E+01  0.11884815499E+01  0.89172999318E+01  0.98543802385E+01  0.00000000000E+00 0.  1.
<mgrwt>
<rscale>  0 0.91152480E+02</rscale>
<asrwt>0</asrwt>
<pdfrwt beam="1">  1        2 0.76096751E-01 0.91152480E+02</pdfrwt>
<pdfrwt beam="2">  1       -2 0.64607681E-03 0.91152480E+02</pdfrwt>
<totfact> 0.21489155E+05</totfact>
</mgrwt>
</event>
<event>
 7    1  0.3056193E-009  0.9140919E+02  0.7818608E-02  0.1299475E+00
          2   -1    0    0  501    0  0.00000000000E+00  0.00000000000E+00  0.66078310039E+02  0.66078310088E+02  0.25500000000E-02 0. -1.
         -2   -1    0    0    0  501 -0.00000000000E+00 -0.00000000000E+00 -0.31612645653E+02  0.31612645756E+02  0.25500000000E-02 0.  1.
         23    2    1    2    0    0  0.00000000000E+00 -0.17763568394E-14  0.34465664386E+02  0.97690955845E+02  0.91409194463E+02 0.  0.
    9000005    2    3    3    0    0  0.20007548752E+02  0.82659078252E+01  0.59198681255E+02  0.64822287440E+02  0.15126726259E+02 0.  0.
         22    1    3    3    0    0 -0.20007548752E+02 -0.82659078252E+01 -0.24733016869E+02  0.32868668405E+02  0.00000000000E+00 0.  1.
         22    1    4    4    0    0  0.83807158358E+00  0.48040048685E+01  0.24944199648E+02  0.25416410502E+02  0.00000000000E+00 0. -1.
         22    1    4    4    0    0  0.19169477169E+02  0.34619029567E+01  0.34254481607E+02  0.39405876937E+02  0.00000000000E+00 0. -1.
<mgrwt>
<rscale>  0 0.91409194E+02</rscale>
<asrwt>0</asrwt>
<pdfrwt beam="1">  1        2 0.10165894E-01 0.91409194E+02</pdfrwt>
<pdfrwt beam="2">  1       -2 0.48634840E-02 0.91409194E+02</pdfrwt>
<totfact> 0.10810217E+05</totfact>
</mgrwt>
</event>
<event>
 7    1  0.3056193E-009  0.9391009E+02  0.7818608E-02  0.1293650E+00
         -2   -1    0    0    0  501 -0.00000000000E+00  0.00000000000E+00  0.17732184080E+02  0.17732184264E+02  0.25500000000E-02 0. -1.
          2   -1    0    0  501    0  0.00000000000E+00 -0.00000000000E+00 -0.12433754178E+03  0.12433754181E+03  0.25500000000E-02 0.  1.
         23    2    1    2    0    0  0.00000000000E+00 -0.35527136788E-14 -0.10660535770E+03  0.14206972607E+03  0.93910088783E+02 0.  0.
    9000005    2    3    3    0    0 -0.27161513350E+02 -0.26594253909E+02 -0.12833985597E+02  0.40886365904E+02  0.78728382494E+01 0.  0.
         22    1    3    3    0    0  0.27161513350E+02  0.26594253909E+02 -0.93771372102E+02  0.10118336016E+03  0.00000000000E+00 0.  1.
         22    1    4    4    0    0 -0.18154381032E+02 -0.16063953459E+02 -0.11882470985E+02  0.26996764030E+02  0.00000000000E+00 0. -1.
         22    1    4    4    0    0 -0.90071323183E+01 -0.10530300450E+02 -0.95151461187E+00  0.13889601874E+02  0.00000000000E+00 0. -1.
<mgrwt>
<rscale>  0 0.93910089E+02</rscale>
<asrwt>0</asrwt>
<pdfrwt beam="2">  1        2 0.19128852E-01 0.93910089E+02</pdfrwt>
<pdfrwt beam="1">  1       -2 0.27280284E-02 0.93910089E+02</pdfrwt>
<totfact> 0.12115227E+05</totfact>
</mgrwt>
</event>
<event>
 7    1  0.3056193E-009  0.8291122E+02  0.7818608E-02  0.1320987E+00
         -2   -1    0    0    0  501 -0.00000000000E+00  0.00000000000E+00  0.44257346628E+02  0.44257346701E+02  0.25500000000E-02 0. -1.
          2   -1    0    0  501    0  0.00000000000E+00 -0.00000000000E+00 -0.38831240289E+02  0.38831240373E+02  0.25500000000E-02 0.  1.
         23    2    1    2    0    0  0.00000000000E+00  0.00000000000E+00  0.54261063384E+01  0.83088587074E+02  0.82911221629E+02 0.  0.
    9000005    2    3    3    0    0 -0.25007758046E+02 -0.22314362551E+02  0.24668388415E+02  0.44441670534E+02  0.15595318345E+02 0.  0.
         22    1    3    3    0    0  0.25007758046E+02  0.22314362551E+02 -0.19242282077E+02  0.38646916540E+02  0.00000000000E+00 0.  1.
         22    1    4    4    0    0 -0.16004097556E+02 -0.13316493376E+02  0.23889850669E+02  0.31688879744E+02  0.00000000000E+00 0. -1.
         22    1    4    4    0    0 -0.90036604901E+01 -0.89978691750E+01  0.77853774593E+00  0.12752790790E+02  0.00000000000E+00 0. -1.
<mgrwt>
<rscale>  0 0.82911222E+02</rscale>
<asrwt>0</asrwt>
<pdfrwt beam="2">  1        2 0.59740370E-02 0.82911222E+02</pdfrwt>
<pdfrwt beam="1">  1       -2 0.68088225E-02 0.82911222E+02</pdfrwt>
<totfact> 0.12436029E+05</totfact>
</mgrwt>
</event>
<event>
 7    1  0.3056193E-009  0.8925305E+02  0.7818608E-02  0.1304671E+00
         -2   -1    0    0    0  501 -0.00000000000E+00  0.00000000000E+00  0.10909426128E+03  0.10909426131E+03  0.25500000000E-02 0.  1.
          2   -1    0    0  501    0  0.00000000000E+00 -0.00000000000E+00 -0.18255100600E+02  0.18255100778E+02  0.25500000000E-02 0. -1.
         23    2    1    2    0    0 -0.44408920985E-15  0.00000000000E+00  0.90839160681E+02  0.12734936209E+03  0.89253049870E+02 0.  0.
    9000005    2    3    3    0    0 -0.24917134261E+01  0.12229227213E+02  0.10619553215E+03  0.10756096198E+03  0.11666484509E+02 0.  0.
         22    1    3    3    0    0  0.24917134261E+01 -0.12229227213E+02 -0.15356371467E+02  0.19788400104E+02  0.00000000000E+00 0. -1.
         22    1    4    4    0    0  0.42392790797E+01  0.78031003989E+01  0.62693929789E+02  0.63319733854E+02  0.00000000000E+00 0.  1.
         22    1    4    4    0    0 -0.67309925058E+01  0.44261268141E+01  0.43501602359E+02  0.44241228130E+02  0.00000000000E+00 0.  1.
<mgrwt>
<rscale>  0 0.89253050E+02</rscale>
<asrwt>0</asrwt>
<pdfrwt beam="2">  1        2 0.28084770E-02 0.89253050E+02</pdfrwt>
<pdfrwt beam="1">  1       -2 0.16783733E-01 0.89253050E+02</pdfrwt>
<totfact> 0.81974629E+04</totfact>
</mgrwt>
</event>
<event>
 7    1  0.3056193E-009  0.9026594E+02  0.7818608E-02  0.1302209E+00
         -2   -1    0    0    0  501 -0.00000000000E+00  0.00000000000E+00  0.18744197753E+02  0.18744197926E+02  0.25500000000E-02 0.  1.
          2   -1    0    0  501    0  0.00000000000E+00 -0.00000000000E+00 -0.10867281978E+03  0.10867281981E+03  0.25500000000E-02 0. -1.
         23    2    1    2    0    0 -0.17763568394E-14 -0.88817841970E-15 -0.89928622027E+02  0.12741701773E+03  0.90265936814E+02 0.  0.
    9000005    2    3    3    0    0 -0.13005865030E+02 -0.33494743759E+01 -0.10531102510E+03  0.10699668894E+03  0.13323210317E+02 0.  0.
         22    1    3    3    0    0  0.13005865030E+02  0.33494743759E+01  0.15382403072E+02  0.20420328794E+02  0.00000000000E+00 0.  1.
         22    1    4    4    0    0 -0.74374808317E+01 -0.66771592123E+01 -0.35358660211E+02  0.36744189040E+02  0.00000000000E+00 0. -1.
         22    1    4    4    0    0 -0.55683841984E+01  0.33276848364E+01 -0.69952364888E+02  0.70252499901E+02  0.00000000000E+00 0. -1.
<mgrwt>
<rscale>  0 0.90265937E+02</rscale>
<asrwt>0</asrwt>
<pdfrwt beam="2">  1        2 0.16718895E-01 0.90265937E+02</pdfrwt>
<pdfrwt beam="1">  1       -2 0.28837228E-02 0.90265937E+02</pdfrwt>
<totfact> 0.12937121E+05</totfact>
</mgrwt>
</event>
<event>
 7    1  0.3056193E-009  0.9191663E+02  0.7818608E-02  0.1298276E+00
          2   -1    0    0  501    0  0.00000000000E+00  0.00000000000E+00  0.63212571661E+03  0.63212571661E+03  0.25500000000E-02 0. -1.
         -2   -1    0    0    0  501 -0.00000000000E+00 -0.00000000000E+00 -0.33413707918E+01  0.33413717649E+01  0.25500000000E-02 0.  1.
         23    2    1    2    0    0  0.00000000000E+00  0.00000000000E+00  0.62878434581E+03  0.63546708838E+03  0.91916629987E+02 0.  0.
    9000005    2    3    3    0    0  0.39965088277E+02 -0.18638667758E+02  0.38094469465E+03  0.38373488760E+03  0.13747558510E+02 0.  0.
         22    1    3    3    0    0 -0.39965088277E+02  0.18638667758E+02  0.24783965117E+03  0.25173220078E+03  0.00000000000E+00 0.  1.
         22    1    4    4    0    0  0.28504058129E+01 -0.58514138819E+01  0.75028939882E+02  0.75310727506E+02  0.00000000000E+00 0.  1.
         22    1    4    4    0    0  0.37114682464E+02 -0.12787253876E+02  0.30591575476E+03  0.30842416009E+03  0.00000000000E+00 0.  1.
<mgrwt>
<rscale>  0 0.91916630E+02</rscale>
<asrwt>0</asrwt>
<pdfrwt beam="1">  1        2 0.97250136E-01 0.91916630E+02</pdfrwt>
<pdfrwt beam="2">  1       -2 0.51405699E-03 0.91916630E+02</pdfrwt>
<totfact> 0.22626810E+05</totfact>
</mgrwt>
</event>
<event>
 7    1  0.3056193E-009  0.9137564E+02  0.7818608E-02  0.1299554E+00
          2   -1    0    0  501    0  0.00000000000E+00  0.00000000000E+00  0.16506566338E+03  0.16506566340E+03  0.25500000000E-02 0. -1.
         -2   -1    0    0    0  501 -0.00000000000E+00 -0.00000000000E+00 -0.12645737067E+02  0.12645737324E+02  0.25500000000E-02 0.  1.
         23    2    1    2    0    0  0.88817841970E-15  0.71054273576E-14  0.15241992631E+03  0.17771140072E+03  0.91375642321E+02 0.  0.
    9000005    2    3    3    0    0  0.36827666451E+01 -0.43881425858E+02  0.61428384704E+02  0.76624294969E+02  0.12597373795E+02 0.  0.
         22    1    3    3    0    0 -0.36827666451E+01  0.43881425858E+02  0.90991541609E+02  0.10108710575E+03  0.00000000000E+00 0. -1.
         22    1    4    4    0    0 -0.45528474460E+01 -0.14995305029E+02  0.18774438953E+02  0.24455411482E+02  0.00000000000E+00 0. -1.
         22    1    4    4    0    0  0.82356140910E+01 -0.28886120830E+02  0.42653945751E+02  0.52168883486E+02  0.00000000000E+00 0. -1.
<mgrwt>
<rscale>  0 0.91375642E+02</rscale>
<asrwt>0</asrwt>
<pdfrwt beam="1">  1        2 0.25394718E-01 0.91375642E+02</pdfrwt>
<pdfrwt beam="2">  1       -2 0.19454980E-02 0.91375642E+02</pdfrwt>
<totfact> 0.14363748E+05</totfact>
</mgrwt>
</event>
<event>
 7    1  0.3056193E-009  0.9094302E+02  0.7818608E-02  0.1300584E+00
         -2   -1    0    0    0  501 -0.00000000000E+00  0.00000000000E+00  0.14503125580E+01  0.14503147997E+01  0.25500000000E-02 0. -1.
          2   -1    0    0  501    0  0.00000000000E+00 -0.00000000000E+00 -0.14256626324E+04  0.14256626324E+04  0.25500000000E-02 0.  1.
         23    2    1    2    0    0  0.00000000000E+00  0.00000000000E+00 -0.14242123198E+04  0.14271129472E+04  0.90943015574E+02 0.  0.
    9000005    2    3    3    0    0 -0.10227190089E+02  0.19112288661E+02 -0.13389649129E+04  0.13391527552E+04  0.57609595578E+01 0.  0.
         22    1    3    3    0    0  0.10227190089E+02 -0.19112288661E+02 -0.85247406870E+02  0.87960191980E+02  0.00000000000E+00 0. -1.
         22    1    4    4    0    0 -0.73424653467E+01  0.14251996705E+02 -0.81732435864E+03  0.81748158293E+03  0.00000000000E+00 0.  1.
         22    1    4    4    0    0 -0.28847247425E+01  0.48602919570E+01 -0.52164055430E+03  0.52167117226E+03  0.00000000000E+00 0.  1.
<mgrwt>
<rscale>  0 0.90943016E+02</rscale>
<asrwt>0</asrwt>
<pdfrwt beam="2">  1        2 0.21933159E+00 0.90943016E+02</pdfrwt>
<pdfrwt beam="1">  1       -2 0.22312632E-03 0.90943016E+02</pdfrwt>
<totfact> 0.24173658E+05</totfact>
</mgrwt>
</event>
<event>
 7    1  0.3056193E-009  0.9181439E+02  0.7818608E-02  0.1298516E+00
         -2   -1    0    0    0  501 -0.00000000000E+00  0.00000000000E+00  0.11426430247E+02  0.11426430532E+02  0.25500000000E-02 0.  1.
          2   -1    0    0  501    0  0.00000000000E+00 -0.00000000000E+00 -0.18443822204E+03  0.18443822206E+03  0.25500000000E-02 0. -1.
         23    2    1    2    0    0  0.00000000000E+00  0.00000000000E+00 -0.17301179179E+03  0.19586465259E+03  0.91814389039E+02 0.  0.
    9000005    2    3    3    0    0  0.17231279762E+02 -0.50388122125E+01 -0.17624220607E+03  0.17762342985E+03  0.12901976599E+02 0.  0.
         22    1    3    3    0    0 -0.17231279762E+02  0.50388122125E+01  0.32304142752E+01  0.18241222743E+02  0.00000000000E+00 0.  1.
         22    1    4    4    0    0  0.46108453485E+01 -0.60672539461E+01 -0.35278346792E+02  0.36092010440E+02  0.00000000000E+00 0. -1.
         22    1    4    4    0    0  0.12620434414E+02  0.10284417336E+01 -0.14096385927E+03  0.14153141941E+03  0.00000000000E+00 0. -1.
<mgrwt>
<rscale>  0 0.91814389E+02</rscale>
<asrwt>0</asrwt>
<pdfrwt beam="2">  1        2 0.28375109E-01 0.91814389E+02</pdfrwt>
<pdfrwt beam="1">  1       -2 0.17579125E-02 0.91814389E+02</pdfrwt>
<totfact> 0.14744180E+05</totfact>
</mgrwt>
</event>
<event>
 7    1  0.3056193E-009  0.9457929E+02  0.7818608E-02  0.1292126E+00
          2   -1    0    0  501    0  0.00000000000E+00  0.00000000000E+00  0.30955344863E+02  0.30955344968E+02  0.25500000000E-02 0.  1.
         -2   -1    0    0    0  501 -0.00000000000E+00 -0.00000000000E+00 -0.72243115357E+02  0.72243115402E+02  0.25500000000E-02 0. -1.
         23    2    1    2    0    0  0.00000000000E+00  0.00000000000E+00 -0.41287770495E+02  0.10319846037E+03  0.94579290706E+02 0.  0.
    9000005    2    3    3    0    0  0.22977748480E+02  0.36350267110E+02 -0.41592348274E+02  0.60193674453E+02  0.66359750643E+01 0.  0.
         22    1    3    3    0    0 -0.22977748480E+02 -0.36350267110E+02  0.30457777959E+00  0.43004785917E+02  0.00000000000E+00 0.  1.
         22    1    4    4    0    0  0.17127080729E+02  0.31685687620E+02 -0.33901087405E+02  0.49463152159E+02  0.00000000000E+00 0. -1.
         22    1    4    4    0    0  0.58506677510E+01  0.46645794892E+01 -0.76912608691E+01  0.10730522294E+02  0.00000000000E+00 0. -1.
<mgrwt>
<rscale>  0 0.94579291E+02</rscale>
<asrwt>0</asrwt>
<pdfrwt beam="1">  1        2 0.47623608E-02 0.94579291E+02</pdfrwt>
<pdfrwt beam="2">  1       -2 0.11114325E-01 0.94579291E+02</pdfrwt>
<totfact> 0.79994385E+04</totfact>
</mgrwt>
</event>
<event>
 7    1  0.3056193E-009  0.9170468E+02  0.7818608E-02  0.1298775E+00
         -2   -1    0    0    0  501 -0.00000000000E+00  0.00000000000E+00  0.10655541763E+03  0.10655541766E+03  0.25500000000E-02 0. -1.
          2   -1    0    0  501    0  0.00000000000E+00 -0.00000000000E+00 -0.19730925848E+02  0.19730926013E+02  0.25500000000E-02 0.  1.
         23    2    1    2    0    0  0.00000000000E+00  0.17763568394E-14  0.86824491778E+02  0.12628634367E+03  0.91704679405E+02 0.  0.
    9000005    2    3    3    0    0  0.12961557902E+02 -0.11317458475E+02 -0.14986337778E+02  0.23031649517E+02  0.31272527691E+01 0.  0.
         22    1    3    3    0    0 -0.12961557902E+02  0.11317458475E+02  0.10181082956E+03  0.10325469415E+03  0.00000000000E+00 0. -1.
         22    1    4    4    0    0  0.11380325769E+01 -0.14477752407E+01 -0.29807024514E+01  0.35036778387E+01  0.00000000000E+00 0. -1.
         22    1    4    4    0    0  0.11823525325E+02 -0.98696832342E+01 -0.12005635327E+02  0.19527971678E+02  0.00000000000E+00 0. -1.
<mgrwt>
<rscale>  0 0.91704679E+02</rscale>
<asrwt>0</asrwt>
<pdfrwt beam="2">  1        2 0.30355272E-02 0.91704679E+02</pdfrwt>
<pdfrwt beam="1">  1       -2 0.16393141E-01 0.91704679E+02</pdfrwt>
<totfact> 0.77168167E+04</totfact>
</mgrwt>
</event>
<event>
 7    1  0.3056193E-009  0.9021464E+02  0.7818608E-02  0.1302333E+00
         -2   -1    0    0    0  501 -0.00000000000E+00  0.00000000000E+00  0.78116440455E+02  0.78116440496E+02  0.25500000000E-02 0.  1.
          2   -1    0    0  501    0  0.00000000000E+00 -0.00000000000E+00 -0.26046633159E+02  0.26046633284E+02  0.25500000000E-02 0. -1.
         23    2    1    2    0    0  0.00000000000E+00  0.35527136788E-14  0.52069807296E+02  0.10416307378E+03  0.90214639098E+02 0.  0.
    9000005    2    3    3    0    0  0.77409216795E+00  0.29327278313E+02 -0.13435484804E+02  0.32388205163E+02  0.27919723878E+01 0.  0.
         22    1    3    3    0    0 -0.77409216795E+00 -0.29327278313E+02  0.65505292100E+02  0.71774868617E+02  0.00000000000E+00 0.  1.
         22    1    4    4    0    0  0.11536971559E+01  0.20644304674E+02 -0.82089156685E+01  0.22246452055E+02  0.00000000000E+00 0.  1.
         22    1    4    4    0    0 -0.37960498798E+00  0.86829736393E+01 -0.52265691358E+01  0.10141753108E+02  0.00000000000E+00 0.  1.
<mgrwt>
<rscale>  0 0.90214639E+02</rscale>
<asrwt>0</asrwt>
<pdfrwt beam="2">  1        2 0.40071744E-02 0.90214639E+02</pdfrwt>
<pdfrwt beam="1">  1       -2 0.12017914E-01 0.90214639E+02</pdfrwt>
<totfact> 0.87895420E+04</totfact>
</mgrwt>
</event>
<event>
 7    1  0.3056193E-009  0.9216040E+02  0.7818608E-02  0.1297703E+00
          2   -1    0    0  501    0  0.00000000000E+00  0.00000000000E+00  0.12867741084E+03  0.12867741086E+03  0.25500000000E-02 0. -1.
         -2   -1    0    0    0  501 -0.00000000000E+00 -0.00000000000E+00 -0.16501614088E+02  0.16501614285E+02  0.25500000000E-02 0.  1.
         23    2    1    2    0    0  0.00000000000E+00  0.00000000000E+00  0.11217579675E+03  0.14517902515E+03  0.92160403463E+02 0.  0.
    9000005    2    3    3    0    0  0.15749627044E+02  0.41433255697E+02  0.40702934487E+02  0.61077090154E+02  0.10436313342E+02 0.  0.
         22    1    3    3    0    0 -0.15749627044E+02 -0.41433255697E+02  0.71472862262E+02  0.84101934993E+02  0.00000000000E+00 0.  1.
         22    1    4    4    0    0  0.28615296127E+01  0.18293352477E+02  0.21426022325E+02  0.28318007155E+02  0.00000000000E+00 0. -1.
         22    1    4    4    0    0  0.12888097432E+02  0.23139903220E+02  0.19276912162E+02  0.32759082999E+02  0.00000000000E+00 0. -1.
<mgrwt>
<rscale>  0 0.92160403E+02</rscale>
<asrwt>0</asrwt>
<pdfrwt beam="1">  1        2 0.19796525E-01 0.92160403E+02</pdfrwt>
<pdfrwt beam="2">  1       -2 0.25387099E-02 0.92160403E+02</pdfrwt>
<totfact> 0.12899773E+05</totfact>
</mgrwt>
</event>
<event>
 7    1  0.3056193E-009  0.9202625E+02  0.7818608E-02  0.1298018E+00
          2   -1    0    0  501    0  0.00000000000E+00  0.00000000000E+00  0.22091225678E+02  0.22091225825E+02  0.25500000000E-02 0. -1.
         -2   -1    0    0    0  501 -0.00000000000E+00 -0.00000000000E+00 -0.95839305155E+02  0.95839305189E+02  0.25500000000E-02 0.  1.
         23    2    1    2    0    0  0.00000000000E+00  0.00000000000E+00 -0.73748079478E+02  0.11793053101E+03  0.92026251247E+02 0.  0.
    9000005    2    3    3    0    0  0.26456953857E+02 -0.95884612239E+01 -0.82804376234E+02  0.88368299924E+02  0.12668177139E+02 0.  0.
         22    1    3    3    0    0 -0.26456953857E+02  0.95884612239E+01  0.90562967562E+01  0.29562231089E+02  0.00000000000E+00 0. -1.
         22    1    4    4    0    0  0.46701192567E+01 -0.61454467925E+01 -0.33125742508E+02  0.34013105517E+02  0.00000000000E+00 0. -1.
         22    1    4    4    0    0  0.21786834601E+02 -0.34430144314E+01 -0.49678633725E+02  0.54355194408E+02  0.00000000000E+00 0. -1.
<mgrwt>
<rscale>  0 0.92026251E+02</rscale>
<asrwt>0</asrwt>
<pdfrwt beam="1">  1        2 0.33986502E-02 0.92026251E+02</pdfrwt>
<pdfrwt beam="2">  1       -2 0.14744508E-01 0.92026251E+02</pdfrwt>
<totfact> 0.78975243E+04</totfact>
</mgrwt>
</event>
<event>
 7    1  0.3056193E-009  0.8688388E+02  0.7818608E-02  0.1310578E+00
          2   -1    0    0  501    0  0.00000000000E+00  0.00000000000E+00  0.18597472848E+01  0.18597490330E+01  0.25500000000E-02 0. -1.
         -2   -1    0    0    0  501 -0.00000000000E+00 -0.00000000000E+00 -0.10147621268E+04  0.10147621268E+04  0.25500000000E-02 0.  1.
         23    2    1    2    0    0  0.00000000000E+00  0.44408920985E-15 -0.10129023795E+04  0.10166218758E+04  0.86883876530E+02 0.  0.
    9000005    2    3    3    0    0  0.16650433536E+02 -0.39743521261E+01 -0.97341959693E+03  0.97358790632E+03  0.58878878779E+01 0.  0.
         22    1    3    3    0    0 -0.16650433536E+02  0.39743521261E+01 -0.39482782542E+02  0.43033969478E+02  0.00000000000E+00 0. -1.
         22    1    4    4    0    0  0.41555993048E+01  0.64996915339E+00 -0.14435447385E+03  0.14441573871E+03  0.00000000000E+00 0. -1.
         22    1    4    4    0    0  0.12494834232E+02 -0.46243212795E+01 -0.82906512308E+03  0.82917216761E+03  0.00000000000E+00 0. -1.
<mgrwt>
<rscale>  0 0.86883877E+02</rscale>
<asrwt>0</asrwt>
<pdfrwt beam="1">  1        2 0.28611591E-03 0.86883877E+02</pdfrwt>
<pdfrwt beam="2">  1       -2 0.15611681E+00 0.86883877E+02</pdfrwt>
<totfact> 0.20815340E+04</totfact>
</mgrwt>
</event>
<event>
 7    1  0.3056193E-009  0.9409676E+02  0.7818608E-02  0.1293223E+00
          2   -1    0    0  501    0  0.00000000000E+00  0.00000000000E+00  0.82339534142E+02  0.82339534181E+02  0.25500000000E-02 0. -1.
         -2   -1    0    0    0  501 -0.00000000000E+00 -0.00000000000E+00 -0.26883200861E+02  0.26883200982E+02  0.25500000000E-02 0.  1.
         23    2    1    2    0    0  0.17763568394E-14 -0.17763568394E-14  0.55456333280E+02  0.10922273516E+03  0.94096763896E+02 0.  0.
    9000005    2    3    3    0    0  0.12989357169E+02 -0.14622487645E+02 -0.19692430688E+02  0.31570450776E+02  0.15045297976E+02 0.  0.
         22    1    3    3    0    0 -0.12989357169E+02  0.14622487645E+02  0.75148763969E+02  0.77652284388E+02  0.00000000000E+00 0. -1.
         22    1    4    4    0    0  0.76617450012E+01 -0.13970319905E+02 -0.62842487367E+01  0.17127870763E+02  0.00000000000E+00 0.  1.
         22    1    4    4    0    0  0.53276121676E+01 -0.65216774025E+00 -0.13408181952E+02  0.14442580012E+02  0.00000000000E+00 0.  1.
<mgrwt>
<rscale>  0 0.94096764E+02</rscale>
<asrwt>0</asrwt>
<pdfrwt beam="1">  1        2 0.12667621E-01 0.94096764E+02</pdfrwt>
<pdfrwt beam="2">  1       -2 0.41358770E-02 0.94096764E+02</pdfrwt>
<totfact> 0.10607669E+05</totfact>
</mgrwt>
</event>
<event>
 7    1  0.3056193E-009  0.9295763E+02  0.7818608E-02  0.1295843E+00
         -2   -1    0    0    0  501 -0.00000000000E+00  0.00000000000E+00  0.36154304795E+01  0.36154313788E+01  0.25500000000E-02 0.  1.
          2   -1    0    0  501    0  0.00000000000E+00 -0.00000000000E+00 -0.59751670728E+03  0.59751670728E+03  0.25500000000E-02 0. -1.
         23    2    1    2    0    0  0.00000000000E+00  0.00000000000E+00 -0.59390127680E+03  0.60113213866E+03  0.92957633090E+02 0.  0.
    9000005    2    3    3    0    0  0.16262367992E+02  0.21883276509E+02 -0.53835990914E+03  0.53925980296E+03  0.15046624846E+02 0.  0.
         22    1    3    3    0    0 -0.16262367992E+02 -0.21883276509E+02 -0.55541367659E+02  0.61872335700E+02  0.00000000000E+00 0.  1.
         22    1    4    4    0    0  0.46550145268E+01  0.42821969286E+01 -0.26959180323E+03  0.26966599107E+03  0.00000000000E+00 0. -1.
         22    1    4    4    0    0  0.11607353465E+02  0.17601079581E+02 -0.26876810590E+03  0.26959381189E+03  0.00000000000E+00 0. -1.
<mgrwt>
<rscale>  0 0.92957633E+02</rscale>
<asrwt>0</asrwt>
<pdfrwt beam="2">  1        2 0.91925569E-01 0.92957633E+02</pdfrwt>
<pdfrwt beam="1">  1       -2 0.55622062E-03 0.92957633E+02</pdfrwt>
<totfact> 0.21623132E+05</totfact>
</mgrwt>
</event>
<event>
 7    1  0.3056193E-009  0.8385631E+02  0.7818608E-02  0.1318451E+00
         -2   -1    0    0    0  501 -0.00000000000E+00  0.00000000000E+00  0.16740739458E+03  0.16740739459E+03  0.25500000000E-02 0. -1.
          2   -1    0    0  501    0  0.00000000000E+00 -0.00000000000E+00 -0.10501149295E+02  0.10501149605E+02  0.25500000000E-02 0.  1.
         23    2    1    2    0    0  0.00000000000E+00  0.00000000000E+00  0.15690624528E+03  0.17790854420E+03  0.83856307403E+02 0.  0.
    9000005    2    3    3    0    0  0.16653133531E+02  0.30740550305E+02  0.29577142104E+02  0.45866850765E+02  0.25792197667E+01 0.  0.
         22    1    3    3    0    0 -0.16653133531E+02 -0.30740550305E+02  0.12732910318E+03  0.13204169343E+03  0.00000000000E+00 0. -1.
         22    1    4    4    0    0  0.16016445074E+02  0.29055861953E+02  0.28676154926E+02  0.43853067031E+02  0.00000000000E+00 0.  1.
         22    1    4    4    0    0  0.63668845759E+00  0.16846883513E+01  0.90098717737E+00  0.20137837339E+01  0.00000000000E+00 0.  1.
<mgrwt>
<rscale>  0 0.83856307E+02</rscale>
<asrwt>0</asrwt>
<pdfrwt beam="2">  1        2 0.16155617E-02 0.83856307E+02</pdfrwt>
<pdfrwt beam="1">  1       -2 0.25754980E-01 0.83856307E+02</pdfrwt>
<totfact> 0.82888811E+04</totfact>
</mgrwt>
</event>
<event>
 7    1  0.3989748E-009  0.1237083E+03  0.7818608E-02  0.1237102E+00
          2   -1    0    0  501    0  0.00000000000E+00  0.00000000000E+00  0.30290287134E+03  0.30290287135E+03  0.25500000000E-02 0. -1.
         -2   -1    0    0    0  501 -0.00000000000E+00 -0.00000000000E+00 -0.12630893327E+02  0.12630893584E+02  0.25500000000E-02 0.  1.
         23    2    1    2    0    0  0.71054273576E-14  0.00000000000E+00  0.29027197802E+03  0.31553376494E+03  0.12370826809E+03 0.  0.
    9000005    2    3    3    0    0 -0.54011676323E+02  0.20902091386E+02  0.19681101883E+03  0.20558327838E+03  0.13257021189E+02 0.  0.
         22    1    3    3    0    0  0.54011676323E+02 -0.20902091386E+02  0.93460959184E+02  0.10995048656E+03  0.00000000000E+00 0.  1.
         22    1    4    4    0    0 -0.34641766637E+02  0.14769989598E+02  0.10494475116E+03  0.11149710931E+03  0.00000000000E+00 0.  1.
         22    1    4    4    0    0 -0.19369909686E+02  0.61321017880E+01  0.91866267677E+02  0.94086169071E+02  0.00000000000E+00 0.  1.
<mgrwt>
<rscale>  0 0.12370827E+03</rscale>
<asrwt>0</asrwt>
<pdfrwt beam="1">  1        2 0.46600436E-01 0.12370827E+03</pdfrwt>
<pdfrwt beam="2">  1       -2 0.19432146E-02 0.12370827E+03</pdfrwt>
<totfact> 0.78740625E+04</totfact>
</mgrwt>
</event>
<event>
 7    1  0.3056193E-009  0.9051474E+02  0.7818608E-02  0.1301610E+00
          2   -1    0    0  501    0  0.00000000000E+00  0.00000000000E+00  0.95704573488E+01  0.95704576885E+01  0.25500000000E-02 0. -1.
         -2   -1    0    0    0  501 -0.00000000000E+00 -0.00000000000E+00 -0.21401583230E+03  0.21401583231E+03  0.25500000000E-02 0.  1.
         23    2    1    2    0    0  0.00000000000E+00  0.00000000000E+00 -0.20444537495E+03  0.22358629000E+03  0.90514737687E+02 0.  0.
    9000005    2    3    3    0    0  0.36399341496E+02  0.19965811699E+02 -0.61280558601E+02  0.74523516855E+02  0.86545943792E+01 0.  0.
         22    1    3    3    0    0 -0.36399341496E+02 -0.19965811699E+02 -0.14316481635E+03  0.14906277315E+03  0.00000000000E+00 0.  1.
         22    1    4    4    0    0  0.17583744181E+02  0.13610663816E+02 -0.27837948046E+02  0.35628493939E+02  0.00000000000E+00 0. -1.
         22    1    4    4    0    0  0.18815597315E+02  0.63551478829E+01 -0.33442610555E+02  0.38895022916E+02  0.00000000000E+00 0. -1.
<mgrwt>
<rscale>  0 0.90514738E+02</rscale>
<asrwt>0</asrwt>
<pdfrwt beam="1">  1        2 0.14723783E-02 0.90514738E+02</pdfrwt>
<pdfrwt beam="2">  1       -2 0.32925509E-01 0.90514738E+02</pdfrwt>
<totfact> 0.61617450E+04</totfact>
</mgrwt>
</event>
<event>
 7    1  0.3056193E-009  0.1000084E+03  0.7818608E-02  0.1280278E+00
          2   -1    0    0  501    0  0.00000000000E+00  0.00000000000E+00  0.14940804895E+03  0.14940804897E+03  0.25500000000E-02 0.  1.
         -2   -1    0    0    0  501 -0.00000000000E+00 -0.00000000000E+00 -0.16735499444E+02  0.16735499638E+02  0.25500000000E-02 0. -1.
         23    2    1    2    0    0  0.00000000000E+00  0.00000000000E+00  0.13267254951E+03  0.16614354861E+03  0.10000836641E+03 0.  0.
    9000005    2    3    3    0    0  0.48620817250E+02  0.98008668154E+01  0.74539253187E+02  0.89726789968E+02  0.58953975172E+01 0.  0.
         22    1    3    3    0    0 -0.48620817250E+02 -0.98008668154E+01  0.58133296319E+02  0.76416758641E+02  0.00000000000E+00 0. -1.
         22    1    4    4    0    0  0.17500605072E+01 -0.57721542288E+00  0.39715215994E+01  0.43782271798E+01  0.00000000000E+00 0.  1.
         22    1    4    4    0    0  0.46870756742E+02  0.10378082238E+02  0.70567731587E+02  0.85348562788E+02  0.00000000000E+00 0.  1.
<mgrwt>
<rscale>  0 0.10000837E+03</rscale>
<asrwt>0</asrwt>
<pdfrwt beam="1">  1        2 0.22985853E-01 0.10000837E+03</pdfrwt>
<pdfrwt beam="2">  1       -2 0.25746923E-02 0.10000837E+03</pdfrwt>
<totfact> 0.10845072E+05</totfact>
</mgrwt>
</event>
<event>
 7    1  0.3056193E-009  0.9293008E+02  0.7818608E-02  0.1295907E+00
          2   -1    0    0  501    0  0.00000000000E+00  0.00000000000E+00  0.50970476980E+03  0.50970476980E+03  0.25500000000E-02 0. -1.
         -2   -1    0    0    0  501 -0.00000000000E+00 -0.00000000000E+00 -0.42357844177E+01  0.42357851853E+01  0.25500000000E-02 0.  1.
         23    2    1    2    0    0 -0.35527136788E-14  0.00000000000E+00  0.50546898538E+03  0.51394055499E+03  0.92930075227E+02 0.  0.
    9000005    2    3    3    0    0 -0.24241226046E+02 -0.37327691520E+02  0.31994311944E+03  0.32315051193E+03  0.90365975416E+01 0.  0.
         22    1    3    3    0    0  0.24241226046E+02  0.37327691520E+02  0.18552586594E+03  0.19079004306E+03  0.00000000000E+00 0.  1.
         22    1    4    4    0    0 -0.12546352346E+02 -0.12522948384E+02  0.10894730244E+03  0.11038002493E+03  0.00000000000E+00 0. -1.
         22    1    4    4    0    0 -0.11694873700E+02 -0.24804743136E+02  0.21099581699E+03  0.21277048701E+03  0.00000000000E+00 0. -1.
<mgrwt>
<rscale>  0 0.92930075E+02</rscale>
<asrwt>0</asrwt>
<pdfrwt beam="1">  1        2 0.78416103E-01 0.92930075E+02</pdfrwt>
<pdfrwt beam="2">  1       -2 0.65165933E-03 0.92930075E+02</pdfrwt>
<totfact> 0.20616796E+05</totfact>
</mgrwt>
</event>
<event>
 7    1  0.3056193E-009  0.8958986E+02  0.7818608E-02  0.1303848E+00
          2   -1    0    0  501    0  0.00000000000E+00  0.00000000000E+00  0.19445826440E+03  0.19445826442E+03  0.25500000000E-02 0. -1.
         -2   -1    0    0    0  501 -0.00000000000E+00 -0.00000000000E+00 -0.10318850576E+02  0.10318850891E+02  0.25500000000E-02 0.  1.
         23    2    1    2    0    0  0.71054273576E-14  0.00000000000E+00  0.18413941383E+03  0.20477711531E+03  0.89589861202E+02 0.  0.
    9000005    2    3    3    0    0  0.30882844072E+02 -0.22116775410E+02  0.14401478640E+03  0.14952417386E+03  0.13202956292E+02 0.  0.
         22    1    3    3    0    0 -0.30882844072E+02  0.22116775410E+02  0.40124627425E+02  0.55252941447E+02  0.00000000000E+00 0.  1.
         22    1    4    4    0    0  0.24585554896E+02 -0.99655662723E+01  0.94831586563E+02  0.98472289659E+02  0.00000000000E+00 0. -1.
         22    1    4    4    0    0  0.62972891754E+01 -0.12151209137E+02  0.49183199840E+02  0.51051884205E+02  0.00000000000E+00 0. -1.
<mgrwt>
<rscale>  0 0.89589861E+02</rscale>
<asrwt>0</asrwt>
<pdfrwt beam="1">  1        2 0.29916655E-01 0.89589861E+02</pdfrwt>
<pdfrwt beam="2">  1       -2 0.15875155E-02 0.89589861E+02</pdfrwt>
<totfact> 0.16052421E+05</totfact>
</mgrwt>
</event>
<event>
 7    1  0.3056193E-009  0.9134162E+02  0.7818608E-02  0.1299635E+00
          2   -1    0    0  501    0  0.00000000000E+00  0.00000000000E+00  0.10295559259E+03  0.10295559262E+03  0.25500000000E-02 0. -1.
         -2   -1    0    0    0  501 -0.00000000000E+00 -0.00000000000E+00 -0.20259441251E+02  0.20259441411E+02  0.25500000000E-02 0.  1.
         23    2    1    2    0    0 -0.71054273576E-14  0.00000000000E+00  0.82696151342E+02  0.12321503404E+03  0.91341617927E+02 0.  0.
    9000005    2    3    3    0    0 -0.38056901380E+02  0.19326424823E+02  0.23383786761E+02  0.50141132872E+02  0.12062059662E+02 0.  0.
         22    1    3    3    0    0  0.38056901380E+02 -0.19326424823E+02  0.59312364581E+02  0.73073901163E+02  0.00000000000E+00 0. -1.
         22    1    4    4    0    0 -0.17489014730E+01  0.11008607404E+01  0.52691022941E+01  0.56598577471E+01  0.00000000000E+00 0. -1.
         22    1    4    4    0    0 -0.36307999907E+02  0.18225564082E+02  0.18114684467E+02  0.44481275125E+02  0.00000000000E+00 0. -1.
<mgrwt>
<rscale>  0 0.91341618E+02</rscale>
<asrwt>0</asrwt>
<pdfrwt beam="1">  1        2 0.15839322E-01 0.91341618E+02</pdfrwt>
<pdfrwt beam="2">  1       -2 0.31168371E-02 0.91341618E+02</pdfrwt>
<totfact> 0.12315991E+05</totfact>
</mgrwt>
</event>
<event>
 7    1  0.3056193E-009  0.9629171E+02  0.7818608E-02  0.1288293E+00
          2   -1    0    0  501    0  0.00000000000E+00  0.00000000000E+00  0.15556034542E+04  0.15556034542E+04  0.25500000000E-02 0. -1.
         -2   -1    0    0    0  501 -0.00000000000E+00 -0.00000000000E+00 -0.14901109626E+01  0.14901131445E+01  0.25500000000E-02 0.  1.
         23    2    1    2    0    0  0.00000000000E+00  0.00000000000E+00  0.15541133432E+04  0.15570935673E+04  0.96291712225E+02 0.  0.
    9000005    2    3    3    0    0  0.18952908442E+02  0.14302001504E+02  0.14543255322E+04  0.14545198514E+04  0.12183253686E+01 0.  0.
         22    1    3    3    0    0 -0.18952908442E+02 -0.14302001504E+02  0.99787810946E+02  0.10257371593E+03  0.00000000000E+00 0.  1.
         22    1    4    4    0    0  0.15229088048E+02  0.11934918215E+02  0.11644350322E+04  0.11645957718E+04  0.00000000000E+00 0.  1.
         22    1    4    4    0    0  0.37238203940E+01  0.23670832894E+01  0.28989050004E+03  0.28992407961E+03  0.00000000000E+00 0.  1.
<mgrwt>
<rscale>  0 0.96291712E+02</rscale>
<asrwt>0</asrwt>
<pdfrwt beam="1">  1        2 0.23932435E+00 0.96291712E+02</pdfrwt>
<pdfrwt beam="2">  1       -2 0.22924730E-03 0.96291712E+02</pdfrwt>
<totfact> 0.20128496E+05</totfact>
</mgrwt>
</event>
<event>
 7    1  0.3056193E-009  0.9601961E+02  0.7818608E-02  0.1288896E+00
         -2   -1    0    0    0  501 -0.00000000000E+00  0.00000000000E+00  0.90116968742E+00  0.90117329522E+00  0.25500000000E-02 0.  1.
          2   -1    0    0  501    0  0.00000000000E+00 -0.00000000000E+00 -0.25577168645E+04  0.25577168645E+04  0.25500000000E-02 0. -1.
         23    2    1    2    0    0  0.00000000000E+00  0.00000000000E+00 -0.25568156949E+04  0.25586180378E+04  0.96019613089E+02 0.  0.
    9000005    2    3    3    0    0  0.97432587805E+01 -0.28959549617E+01 -0.25281277865E+04  0.25281826352E+04  0.13191455936E+02 0.  0.
         22    1    3    3    0    0 -0.97432587805E+01  0.28959549617E+01 -0.28687908366E+02  0.30435402629E+02  0.00000000000E+00 0.  1.
         22    1    4    4    0    0  0.11683172670E+02 -0.79831592177E-01 -0.22953250010E+04  0.22953547358E+04  0.00000000000E+00 0.  1.
         22    1    4    4    0    0 -0.19399138895E+01 -0.28161233695E+01 -0.23280278550E+03  0.23282789943E+03  0.00000000000E+00 0.  1.
<mgrwt>
<rscale>  0 0.96019613E+02</rscale>
<asrwt>0</asrwt>
<pdfrwt beam="2">  1        2 0.39348909E+00 0.96019613E+02</pdfrwt>
<pdfrwt beam="1">  1       -2 0.13864382E-03 0.96019613E+02</pdfrwt>
<totfact> 0.12454702E+05</totfact>
</mgrwt>
</event>
<event>
 7    1  0.3056193E-009  0.9291419E+02  0.7818608E-02  0.1295944E+00
          2   -1    0    0  501    0  0.00000000000E+00  0.00000000000E+00  0.46245866985E+03  0.46245866986E+03  0.25500000000E-02 0. -1.
         -2   -1    0    0    0  501 -0.00000000000E+00 -0.00000000000E+00 -0.46669285338E+01  0.46669292304E+01  0.25500000000E-02 0.  1.
         23    2    1    2    0    0 -0.17763568394E-14  0.00000000000E+00  0.45779174132E+03  0.46712559909E+03  0.92914191088E+02 0.  0.
    9000005    2    3    3    0    0  0.12263575029E+02  0.46254819789E+01  0.45290985810E+03  0.45313906486E+03  0.59901736333E+01 0.  0.
         22    1    3    3    0    0 -0.12263575029E+02 -0.46254819789E+01  0.48818832163E+01  0.13986534230E+02  0.00000000000E+00 0.  1.
         22    1    4    4    0    0  0.65925952015E+01  0.25791141034E+01  0.33535495820E+03  0.33542966793E+03  0.00000000000E+00 0. -1.
         22    1    4    4    0    0  0.56709798271E+01  0.20463678755E+01  0.11755489990E+03  0.11770939693E+03  0.00000000000E+00 0. -1.
<mgrwt>
<rscale>  0 0.92914191E+02</rscale>
<asrwt>0</asrwt>
<pdfrwt beam="1">  1        2 0.71147509E-01 0.92914191E+02</pdfrwt>
<pdfrwt beam="2">  1       -2 0.71798885E-03 0.92914191E+02</pdfrwt>
<totfact> 0.19972762E+05</totfact>
</mgrwt>
</event>
<event>
 7    1  0.3056193E-009  0.9181288E+02  0.7818608E-02  0.1298520E+00
          2   -1    0    0  501    0  0.00000000000E+00  0.00000000000E+00  0.12231643111E+02  0.12231643377E+02  0.25500000000E-02 0. -1.
         -2   -1    0    0    0  501 -0.00000000000E+00 -0.00000000000E+00 -0.17229093843E+03  0.17229093845E+03  0.25500000000E-02 0.  1.
         23    2    1    2    0    0  0.00000000000E+00  0.22204460493E-15 -0.16005929532E+03  0.18452258183E+03  0.91812881371E+02 0.  0.
    9000005    2    3    3    0    0  0.36536267832E+02  0.17911229745E+01 -0.25783697699E+02  0.45353464905E+02  0.73505593794E+01 0.  0.
         22    1    3    3    0    0 -0.36536267832E+02 -0.17911229745E+01 -0.13427559762E+03  0.13916911692E+03  0.00000000000E+00 0.  1.
         22    1    4    4    0    0  0.18345449755E+02 -0.21933876151E+01 -0.15262229103E+02  0.23964601252E+02  0.00000000000E+00 0.  1.
         22    1    4    4    0    0  0.18190818077E+02  0.39845105896E+01 -0.10521468596E+02  0.21388863653E+02  0.00000000000E+00 0.  1.
<mgrwt>
<rscale>  0 0.91812881E+02</rscale>
<asrwt>0</asrwt>
<pdfrwt beam="1">  1        2 0.18817914E-02 0.91812881E+02</pdfrwt>
<pdfrwt beam="2">  1       -2 0.26506296E-01 0.91812881E+02</pdfrwt>
<totfact> 0.65121575E+04</totfact>
</mgrwt>
</event>
<event>
 7    1  0.3056193E-009  0.9127917E+02  0.7818608E-02  0.1299783E+00
         -2   -1    0    0    0  501 -0.00000000000E+00  0.00000000000E+00  0.10334013366E+03  0.10334013369E+03  0.25500000000E-02 0.  1.
          2   -1    0    0  501    0  0.00000000000E+00 -0.00000000000E+00 -0.20156463925E+02  0.20156464086E+02  0.25500000000E-02 0. -1.
         23    2    1    2    0    0 -0.88817841970E-15  0.00000000000E+00  0.83183669732E+02  0.12349659777E+03  0.91279169321E+02 0.  0.
    9000005    2    3    3    0    0 -0.65869011369E+01 -0.34356680739E+02  0.79686235575E+02  0.88339794398E+02  0.15174134450E+02 0.  0.
         22    1    3    3    0    0  0.65869011369E+01  0.34356680739E+02  0.34974341573E+01  0.35156803377E+02  0.00000000000E+00 0. -1.
         22    1    4    4    0    0 -0.81818019131E+01 -0.26212439869E+02  0.71879439597E+02  0.76946005245E+02  0.00000000000E+00 0.  1.
         22    1    4    4    0    0  0.15949007762E+01 -0.81442408693E+01  0.78067959778E+01  0.11393789153E+02  0.00000000000E+00 0.  1.
<mgrwt>
<rscale>  0 0.91279169E+02</rscale>
<asrwt>0</asrwt>
<pdfrwt beam="2">  1        2 0.31009945E-02 0.91279169E+02</pdfrwt>
<pdfrwt beam="1">  1       -2 0.15898482E-01 0.91279169E+02</pdfrwt>
<totfact> 0.78801743E+04</totfact>
</mgrwt>
</event>
<event>
 7    1  0.3056193E-009  0.8814260E+02  0.7818608E-02  0.1307413E+00
          2   -1    0    0  501    0  0.00000000000E+00  0.00000000000E+00  0.14018875866E+02  0.14018876098E+02  0.25500000000E-02 0. -1.
         -2   -1    0    0    0  501 -0.00000000000E+00 -0.00000000000E+00 -0.13854744117E+03  0.13854744119E+03  0.25500000000E-02 0.  1.
         23    2    1    2    0    0  0.00000000000E+00  0.00000000000E+00 -0.12452856530E+03  0.15256631729E+03  0.88142598073E+02 0.  0.
    9000005    2    3    3    0    0 -0.87131065967E+01  0.38831304100E+02 -0.32052030946E+02  0.51890114484E+02  0.90256794064E+01 0.  0.
         22    1    3    3    0    0  0.87131065967E+01 -0.38831304100E+02 -0.92476534359E+02  0.10067620281E+03  0.00000000000E+00 0.  1.
         22    1    4    4    0    0 -0.11030166208E+01  0.13725509786E+02 -0.16107103645E+02  0.21190683151E+02  0.00000000000E+00 0. -1.
         22    1    4    4    0    0 -0.76100899760E+01  0.25105794314E+02 -0.15944927301E+02  0.30699431334E+02  0.00000000000E+00 0. -1.
<mgrwt>
<rscale>  0 0.88142598E+02</rscale>
<asrwt>0</asrwt>
<pdfrwt beam="1">  1        2 0.21567503E-02 0.88142598E+02</pdfrwt>
<pdfrwt beam="2">  1       -2 0.21314990E-01 0.88142598E+02</pdfrwt>
<totfact> 0.78264390E+04</totfact>
</mgrwt>
</event>
<event>
 7    1  0.3056193E-009  0.9133841E+02  0.7818608E-02  0.1299643E+00
         -2   -1    0    0    0  501 -0.00000000000E+00  0.00000000000E+00  0.15986827501E+02  0.15986827705E+02  0.25500000000E-02 0. -1.
          2   -1    0    0  501    0  0.00000000000E+00 -0.00000000000E+00 -0.13046217980E+03  0.13046217983E+03  0.25500000000E-02 0.  1.
         23    2    1    2    0    0  0.00000000000E+00  0.00000000000E+00 -0.11447535230E+03  0.14644900753E+03  0.91338412088E+02 0.  0.
    9000005    2    3    3    0    0  0.31306708048E+02  0.31226244128E+02 -0.51043752055E+02  0.69126590337E+02  0.14759152299E+02 0.  0.
         22    1    3    3    0    0 -0.31306708048E+02 -0.31226244128E+02 -0.63431600248E+02  0.77322417197E+02  0.00000000000E+00 0. -1.
         22    1    4    4    0    0  0.11222236661E+02  0.19969902980E+02 -0.19556139258E+02  0.30119399121E+02  0.00000000000E+00 0.  1.
         22    1    4    4    0    0  0.20084471386E+02  0.11256341148E+02 -0.31487612797E+02  0.39007191216E+02  0.00000000000E+00 0.  1.
<mgrwt>
<rscale>  0 0.91338412E+02</rscale>
<asrwt>0</asrwt>
<pdfrwt beam="2">  1        2 0.20071104E-01 0.91338412E+02</pdfrwt>
<pdfrwt beam="1">  1       -2 0.24595120E-02 0.91338412E+02</pdfrwt>
<totfact> 0.13279281E+05</totfact>
</mgrwt>
</event>
<event>
 7    1  0.3056193E-009  0.9141093E+02  0.7818608E-02  0.1299470E+00
         -2   -1    0    0    0  501 -0.00000000000E+00  0.00000000000E+00  0.20189043828E+03  0.20189043830E+03  0.25500000000E-02 0.  1.
          2   -1    0    0  501    0  0.00000000000E+00 -0.00000000000E+00 -0.10347144838E+02  0.10347145152E+02  0.25500000000E-02 0. -1.
         23    2    1    2    0    0  0.00000000000E+00  0.00000000000E+00  0.19154329344E+03  0.21223758345E+03  0.91410932418E+02 0.  0.
    9000005    2    3    3    0    0  0.16280791395E+02  0.39108657920E+02  0.67016379278E+02  0.80702403197E+02  0.15070882439E+02 0.  0.
         22    1    3    3    0    0 -0.16280791395E+02 -0.39108657920E+02  0.12452691417E+03  0.13153518025E+03  0.00000000000E+00 0.  1.
         22    1    4    4    0    0 -0.14291262147E+01  0.14879852650E+02  0.21806906239E+02  0.26438486650E+02  0.00000000000E+00 0. -1.
         22    1    4    4    0    0  0.17709917610E+02  0.24228805270E+02  0.45209473039E+02  0.54263916547E+02  0.00000000000E+00 0. -1.
<mgrwt>
<rscale>  0 0.91410932E+02</rscale>
<asrwt>0</asrwt>
<pdfrwt beam="2">  1        2 0.15918686E-02 0.91410932E+02</pdfrwt>
<pdfrwt beam="1">  1       -2 0.31060064E-01 0.91410932E+02</pdfrwt>
<totfact> 0.61659599E+04</totfact>
</mgrwt>
</event>
<event>
 7    1  0.3056193E-009  0.9136978E+02  0.7818608E-02  0.1299568E+00
          2   -1    0    0  501    0  0.00000000000E+00  0.00000000000E+00  0.32929188430E+03  0.32929188431E+03  0.25500000000E-02 0. -1.
         -2   -1    0    0    0  501 -0.00000000000E+00 -0.00000000000E+00 -0.63381739398E+01  0.63381744527E+01  0.25500000000E-02 0.  1.
         23    2    1    2    0    0  0.00000000000E+00 -0.35527136788E-14  0.32295371036E+03  0.33563005876E+03  0.91369783350E+02 0.  0.
    9000005    2    3    3    0    0 -0.80766737017E+01 -0.26186660077E+02  0.29527464616E+03  0.29668003413E+03  0.89973418466E+01 0.  0.
         22    1    3    3    0    0  0.80766737017E+01  0.26186660077E+02  0.27679064197E+02  0.38950024633E+02  0.00000000000E+00 0.  1.
         22    1    4    4    0    0  0.72558985735E+00 -0.63561086409E+00  0.33547075070E+02  0.33560940505E+02  0.00000000000E+00 0.  1.
         22    1    4    4    0    0 -0.88022635590E+01 -0.25551049213E+02  0.26172757109E+03  0.26311909362E+03  0.00000000000E+00 0.  1.
<mgrwt>
<rscale>  0 0.91369783E+02</rscale>
<asrwt>0</asrwt>
<pdfrwt beam="1">  1        2 0.50660300E-01 0.91369783E+02</pdfrwt>
<pdfrwt beam="2">  1       -2 0.97510354E-03 0.91369783E+02</pdfrwt>
<totfact> 0.18493394E+05</totfact>
</mgrwt>
</event>
<event>
 7    1  0.3056193E-009  0.9314987E+02  0.7818608E-02  0.1295398E+00
          2   -1    0    0  501    0  0.00000000000E+00  0.00000000000E+00  0.43937669051E+02  0.43937669125E+02  0.25500000000E-02 0. -1.
         -2   -1    0    0    0  501 -0.00000000000E+00 -0.00000000000E+00 -0.49370498877E+02  0.49370498943E+02  0.25500000000E-02 0.  1.
         23    2    1    2    0    0  0.00000000000E+00 -0.35527136788E-14 -0.54328298255E+01  0.93308168068E+02  0.93149871649E+02 0.  0.
    9000005    2    3    3    0    0 -0.20351985998E+02  0.24609284469E+02  0.30213476325E+02  0.45449215318E+02  0.11530689713E+02 0.  0.
         22    1    3    3    0    0  0.20351985998E+02 -0.24609284469E+02 -0.35646306151E+02  0.47858952750E+02  0.00000000000E+00 0.  1.
         22    1    4    4    0    0 -0.60634920698E+00 -0.12387542139E+01  0.79468858861E+00  0.15917604455E+01  0.00000000000E+00 0.  1.
         22    1    4    4    0    0 -0.19745636791E+02  0.25848038683E+02  0.29418787737E+02  0.43857454873E+02  0.00000000000E+00 0.  1.
<mgrwt>
<rscale>  0 0.93149872E+02</rscale>
<asrwt>0</asrwt>
<pdfrwt beam="1">  1        2 0.67596414E-02 0.93149872E+02</pdfrwt>
<pdfrwt beam="2">  1       -2 0.75954613E-02 0.93149872E+02</pdfrwt>
<totfact> 0.91879163E+04</totfact>
</mgrwt>
</event>
<event>
 7    1  0.3056193E-009  0.8874261E+02  0.7818608E-02  0.1305926E+00
          2   -1    0    0  501    0  0.00000000000E+00  0.00000000000E+00  0.11702960820E+03  0.11702960823E+03  0.25500000000E-02 0. -1.
         -2   -1    0    0    0  501 -0.00000000000E+00 -0.00000000000E+00 -0.16823202784E+02  0.16823202977E+02  0.25500000000E-02 0.  1.
         23    2    1    2    0    0 -0.35527136788E-14  0.71054273576E-14  0.10020640542E+03  0.13385281121E+03  0.88742613107E+02 0.  0.
    9000005    2    3    3    0    0  0.22120872618E+02 -0.34289986648E+02  0.72911044129E+02  0.84759299032E+02  0.14247183116E+02 0.  0.
         22    1    3    3    0    0 -0.22120872618E+02  0.34289986648E+02  0.27295361288E+02  0.49093512173E+02  0.00000000000E+00 0.  1.
         22    1    4    4    0    0  0.17109931484E+02 -0.28209977513E+02  0.45269375256E+02  0.56016684325E+02  0.00000000000E+00 0. -1.
         22    1    4    4    0    0  0.50109411332E+01 -0.60800091351E+01  0.27641668873E+02  0.28742614707E+02  0.00000000000E+00 0. -1.
<mgrwt>
<rscale>  0 0.88742613E+02</rscale>
<asrwt>0</asrwt>
<pdfrwt beam="1">  1        2 0.18004554E-01 0.88742613E+02</pdfrwt>
<pdfrwt beam="2">  1       -2 0.25881852E-02 0.88742613E+02</pdfrwt>
<totfact> 0.13870409E+05</totfact>
</mgrwt>
</event>
<event>
 7    1  0.3056193E-009  0.9244007E+02  0.7818608E-02  0.1297048E+00
          2   -1    0    0  501    0  0.00000000000E+00  0.00000000000E+00  0.66540591132E+02  0.66540591181E+02  0.25500000000E-02 0. -1.
         -2   -1    0    0    0  501 -0.00000000000E+00 -0.00000000000E+00 -0.32105090609E+02  0.32105090711E+02  0.25500000000E-02 0.  1.
         23    2    1    2    0    0  0.00000000000E+00  0.00000000000E+00  0.34435500523E+02  0.98645681892E+02  0.92440071720E+02 0.  0.
    9000005    2    3    3    0    0 -0.20033046382E+02  0.36163623787E+02 -0.24060975694E+01  0.43270290401E+02  0.12545839672E+02 0.  0.
         22    1    3    3    0    0  0.20033046382E+02 -0.36163623787E+02  0.36841598093E+02  0.55375391491E+02  0.00000000000E+00 0. -1.
         22    1    4    4    0    0 -0.21002208363E+02  0.28348383697E+02 -0.11804754747E+01  0.35300384370E+02  0.00000000000E+00 0.  1.
         22    1    4    4    0    0  0.96916198071E+00  0.78152400904E+01 -0.12256220947E+01  0.79699060305E+01  0.00000000000E+00 0.  1.
<mgrwt>
<rscale>  0 0.92440072E+02</rscale>
<asrwt>0</asrwt>
<pdfrwt beam="1">  1        2 0.10237014E-01 0.92440072E+02</pdfrwt>
<pdfrwt beam="2">  1       -2 0.49392448E-02 0.92440072E+02</pdfrwt>
<totfact> 0.10494726E+05</totfact>
</mgrwt>
</event>
<event>
 7    1  0.3056193E-009  0.9067526E+02  0.7818608E-02  0.1301225E+00
          2   -1    0    0  501    0  0.00000000000E+00  0.00000000000E+00  0.11588676456E+03  0.11588676459E+03  0.25500000000E-02 0.  1.
         -2   -1    0    0    0  501 -0.00000000000E+00 -0.00000000000E+00 -0.17737148450E+02  0.17737148634E+02  0.25500000000E-02 0. -1.
         23    2    1    2    0    0  0.00000000000E+00  0.00000000000E+00  0.98149616114E+02  0.13362391323E+03  0.90675261469E+02 0.  0.
    9000005    2    3    3    0    0  0.21197490105E+01  0.32552308532E+02  0.95091847453E+02  0.10085966326E+03  0.81281052068E+01 0.  0.
         22    1    3    3    0    0 -0.21197490105E+01 -0.32552308532E+02  0.30577686611E+01  0.32764249966E+02  0.00000000000E+00 0. -1.
         22    1    4    4    0    0 -0.31740658609E+00  0.66822669437E+01  0.11305399736E+02  0.13136418904E+02  0.00000000000E+00 0.  1.
         22    1    4    4    0    0  0.24371555966E+01  0.25870041589E+02  0.83786447717E+02  0.87723244356E+02  0.00000000000E+00 0.  1.
<mgrwt>
<rscale>  0 0.90675261E+02</rscale>
<asrwt>0</asrwt>
<pdfrwt beam="1">  1        2 0.17828733E-01 0.90675261E+02</pdfrwt>
<pdfrwt beam="2">  1       -2 0.27287921E-02 0.90675261E+02</pdfrwt>
<totfact> 0.13038118E+05</totfact>
</mgrwt>
</event>
<event>
 7    1  0.3056193E-009  0.9242501E+02  0.7818608E-02  0.1297083E+00
          2   -1    0    0  501    0  0.00000000000E+00  0.00000000000E+00  0.49325427172E+02  0.49325427238E+02  0.25500000000E-02 0. -1.
         -2   -1    0    0    0  501 -0.00000000000E+00 -0.00000000000E+00 -0.43296038250E+02  0.43296038325E+02  0.25500000000E-02 0.  1.
         23    2    1    2    0    0  0.00000000000E+00  0.35527136788E-14  0.60293889220E+01  0.92621465563E+02  0.92425009344E+02 0.  0.
    9000005    2    3    3    0    0 -0.20266190110E+02  0.18079805331E+02 -0.33005825721E+02  0.45067855767E+02  0.14287381481E+02 0.  0.
         22    1    3    3    0    0  0.20266190110E+02 -0.18079805331E+02  0.39035214643E+02  0.47553609795E+02  0.00000000000E+00 0. -1.
         22    1    4    4    0    0 -0.21505331661E+02  0.12304327370E+02 -0.26941088603E+02  0.36601885430E+02  0.00000000000E+00 0.  1.
         22    1    4    4    0    0  0.12391415506E+01  0.57754779611E+01 -0.60647371172E+01  0.84659703379E+01  0.00000000000E+00 0.  1.
<mgrwt>
<rscale>  0 0.92425009E+02</rscale>
<asrwt>0</asrwt>
<pdfrwt beam="1">  1        2 0.75885273E-02 0.92425009E+02</pdfrwt>
<pdfrwt beam="2">  1       -2 0.66609289E-02 0.92425009E+02</pdfrwt>
<totfact> 0.96875804E+04</totfact>
</mgrwt>
</event>
<event>
 7    1  0.3056193E-009  0.9281722E+02  0.7818608E-02  0.1296169E+00
          2   -1    0    0  501    0  0.00000000000E+00  0.00000000000E+00  0.20299231902E+02  0.20299232062E+02  0.25500000000E-02 0. -1.
         -2   -1    0    0    0  501 -0.00000000000E+00 -0.00000000000E+00 -0.10610051407E+03  0.10610051410E+03  0.25500000000E-02 0.  1.
         23    2    1    2    0    0 -0.71054273576E-14  0.00000000000E+00 -0.85801282170E+02  0.12639974616E+03  0.92817217199E+02 0.  0.
    9000005    2    3    3    0    0 -0.34399740987E+02 -0.10550143248E+02 -0.81133256176E+02  0.90116993110E+02  0.15614720200E+02 0.  0.
         22    1    3    3    0    0  0.34399740987E+02  0.10550143248E+02 -0.46680259938E+01  0.36282753055E+02  0.00000000000E+00 0. -1.
         22    1    4    4    0    0  0.91528574194E+00 -0.21658490985E+01 -0.21212768628E+01  0.31667753055E+01  0.00000000000E+00 0.  1.
         22    1    4    4    0    0 -0.35315026729E+02 -0.83842941493E+01 -0.79011979313E+02  0.86950217805E+02  0.00000000000E+00 0.  1.
<mgrwt>
<rscale>  0 0.92817217E+02</rscale>
<asrwt>0</asrwt>
<pdfrwt beam="1">  1        2 0.31229588E-02 0.92817217E+02</pdfrwt>
<pdfrwt beam="2">  1       -2 0.16323156E-01 0.92817217E+02</pdfrwt>
<totfact> 0.74976916E+04</totfact>
</mgrwt>
</event>
<event>
 7    1  0.3056193E-009  0.9108537E+02  0.7818608E-02  0.1300244E+00
         -2   -1    0    0    0  501 -0.00000000000E+00  0.00000000000E+00  0.17918043528E+03  0.17918043529E+03  0.25500000000E-02 0.  1.
          2   -1    0    0  501    0  0.00000000000E+00 -0.00000000000E+00 -0.11575684439E+02  0.11575684720E+02  0.25500000000E-02 0. -1.
         23    2    1    2    0    0  0.00000000000E+00  0.88817841970E-15  0.16760475084E+03  0.19075612001E+03  0.91085371053E+02 0.  0.
    9000005    2    3    3    0    0  0.15283395658E+02 -0.74797066987E+01  0.17204894623E+03  0.17316978817E+03  0.98695208179E+01 0.  0.
         22    1    3    3    0    0 -0.15283395658E+02  0.74797066987E+01 -0.44441953906E+01  0.17586331846E+02  0.00000000000E+00 0. -1.
         22    1    4    4    0    0  0.80611341934E+01 -0.85241779937E+01  0.12614773393E+03  0.12669212395E+03  0.00000000000E+00 0.  1.
         22    1    4    4    0    0  0.72222614644E+01  0.10444712950E+01  0.45901212300E+02  0.46477664222E+02  0.00000000000E+00 0.  1.
<mgrwt>
<rscale>  0 0.91085371E+02</rscale>
<asrwt>0</asrwt>
<pdfrwt beam="2">  1        2 0.17808745E-02 0.91085371E+02</pdfrwt>
<pdfrwt beam="1">  1       -2 0.27566221E-01 0.91085371E+02</pdfrwt>
<totfact> 0.65421276E+04</totfact>
</mgrwt>
</event>
<event>
 7    1  0.3056193E-009  0.9439020E+02  0.7818608E-02  0.1292555E+00
          2   -1    0    0  501    0  0.00000000000E+00  0.00000000000E+00  0.11054343513E+03  0.11054343516E+03  0.25500000000E-02 0. -1.
         -2   -1    0    0    0  501 -0.00000000000E+00 -0.00000000000E+00 -0.20149343103E+02  0.20149343265E+02  0.25500000000E-02 0.  1.
         23    2    1    2    0    0  0.00000000000E+00  0.00000000000E+00  0.90394092027E+02  0.13069277842E+03  0.94390203194E+02 0.  0.
    9000005    2    3    3    0    0  0.33345626853E+02  0.21431208940E+02  0.80169767306E+02  0.89756677451E+02  0.76053935047E+01 0.  0.
         22    1    3    3    0    0 -0.33345626853E+02 -0.21431208940E+02  0.10224324721E+02  0.40936100973E+02  0.00000000000E+00 0. -1.
         22    1    4    4    0    0  0.29942852385E+02  0.20976319341E+02  0.69221776193E+02  0.78283042106E+02  0.00000000000E+00 0.  1.
         22    1    4    4    0    0  0.34027744683E+01  0.45488959838E+00  0.10947991113E+02  0.11473635345E+02  0.00000000000E+00 0.  1.
<mgrwt>
<rscale>  0 0.94390203E+02</rscale>
<asrwt>0</asrwt>
<pdfrwt beam="1">  1        2 0.17006682E-01 0.94390203E+02</pdfrwt>
<pdfrwt beam="2">  1       -2 0.30998990E-02 0.94390203E+02</pdfrwt>
<totfact> 0.11503094E+05</totfact>
</mgrwt>
</event>
<event>
 7    1  0.3056193E-009  0.9426690E+02  0.7818608E-02  0.1292836E+00
          2   -1    0    0  501    0  0.00000000000E+00  0.00000000000E+00  0.84578651025E+03  0.84578651025E+03  0.25500000000E-02 0. -1.
         -2   -1    0    0    0  501 -0.00000000000E+00 -0.00000000000E+00 -0.26266219503E+01  0.26266231881E+01  0.25500000000E-02 0.  1.
         23    2    1    2    0    0 -0.71054273576E-14  0.00000000000E+00  0.84315988830E+03  0.84841313344E+03  0.94266896412E+02 0.  0.
    9000005    2    3    3    0    0 -0.36738116350E+02 -0.75468084580E+01  0.67285552246E+03  0.67402786876E+03  0.13128985574E+02 0.  0.
         22    1    3    3    0    0  0.36738116350E+02  0.75468084580E+01  0.17030436584E+03  0.17438526467E+03  0.00000000000E+00 0.  1.
         22    1    4    4    0    0 -0.15578979092E+02  0.29434078620E+01  0.23301209483E+03  0.23355086079E+03  0.00000000000E+00 0.  1.
         22    1    4    4    0    0 -0.21159137258E+02 -0.10490216320E+02  0.43984342762E+03  0.44047700797E+03  0.00000000000E+00 0.  1.
<mgrwt>
<rscale>  0 0.94266896E+02</rscale>
<asrwt>0</asrwt>
<pdfrwt beam="1">  1        2 0.13012099E+00 0.94266896E+02</pdfrwt>
<pdfrwt beam="2">  1       -2 0.40409583E-03 0.94266896E+02</pdfrwt>
<totfact> 0.22523372E+05</totfact>
</mgrwt>
</event>
<event>
 7    1  0.3056193E-009  0.9211174E+02  0.7818608E-02  0.1297817E+00
          2   -1    0    0  501    0  0.00000000000E+00  0.00000000000E+00  0.15876339051E+03  0.15876339054E+03  0.25500000000E-02 0. -1.
         -2   -1    0    0    0  501 -0.00000000000E+00 -0.00000000000E+00 -0.13360405423E+02  0.13360405667E+02  0.25500000000E-02 0.  1.
         23    2    1    2    0    0 -0.71054273576E-14  0.24980018054E-15  0.14540298509E+03  0.17212379620E+03  0.92111742713E+02 0.  0.
    9000005    2    3    3    0    0  0.38085238461E+02  0.16715617100E+00  0.30270812055E+02  0.50855784765E+02  0.14814703906E+02 0.  0.
         22    1    3    3    0    0 -0.38085238461E+02 -0.16715617100E+00  0.11513217304E+03  0.12126801144E+03  0.00000000000E+00 0. -1.
         22    1    4    4    0    0  0.21428653923E+02  0.74483959133E+01  0.16956806785E+02  0.28323119655E+02  0.00000000000E+00 0. -1.
         22    1    4    4    0    0  0.16656584538E+02 -0.72812397423E+01  0.13314005270E+02  0.22532665111E+02  0.00000000000E+00 0. -1.
<mgrwt>
<rscale>  0 0.92111743E+02</rscale>
<asrwt>0</asrwt>
<pdfrwt beam="1">  1        2 0.24425136E-01 0.92111743E+02</pdfrwt>
<pdfrwt beam="2">  1       -2 0.20554471E-02 0.92111743E+02</pdfrwt>
<totfact> 0.13866227E+05</totfact>
</mgrwt>
</event>
<event>
 7    1  0.3056193E-009  0.8847795E+02  0.7818608E-02  0.1306580E+00
         -2   -1    0    0    0  501 -0.00000000000E+00  0.00000000000E+00  0.11669997109E+03  0.11669997111E+03  0.25500000000E-02 0.  1.
          2   -1    0    0  501    0  0.00000000000E+00 -0.00000000000E+00 -0.16770241486E+02  0.16770241680E+02  0.25500000000E-02 0. -1.
         23    2    1    2    0    0  0.71054273576E-14 -0.88817841970E-15  0.99929729599E+02  0.13347021279E+03  0.88477945530E+02 0.  0.
    9000005    2    3    3    0    0  0.43248490363E+02 -0.47168106988E+01  0.58204595841E+02  0.73190307277E+02  0.87387573772E+01 0.  0.
         22    1    3    3    0    0 -0.43248490363E+02  0.47168106988E+01  0.41725133758E+02  0.60279905515E+02  0.00000000000E+00 0. -1.
         22    1    4    4    0    0  0.32801019694E+02  0.14771965434E+00  0.41546318766E+02  0.52934160209E+02  0.00000000000E+00 0.  1.
         22    1    4    4    0    0  0.10447470669E+02 -0.48645303531E+01  0.16658277075E+02  0.20256147068E+02  0.00000000000E+00 0.  1.
<mgrwt>
<rscale>  0 0.88477946E+02</rscale>
<asrwt>0</asrwt>
<pdfrwt beam="2">  1        2 0.25800372E-02 0.88477946E+02</pdfrwt>
<pdfrwt beam="1">  1       -2 0.17953842E-01 0.88477946E+02</pdfrwt>
<totfact> 0.82042726E+04</totfact>
</mgrwt>
</event>
<event>
 7    1  0.3056193E-009  0.9671121E+02  0.7818608E-02  0.1287368E+00
         -2   -1    0    0    0  501 -0.00000000000E+00  0.00000000000E+00  0.16121869549E+03  0.16121869551E+03  0.25500000000E-02 0. -1.
          2   -1    0    0  501    0  0.00000000000E+00 -0.00000000000E+00 -0.14503680345E+02  0.14503680569E+02  0.25500000000E-02 0.  1.
         23    2    1    2    0    0  0.00000000000E+00  0.00000000000E+00  0.14671501514E+03  0.17572237608E+03  0.96711208171E+02 0.  0.
    9000005    2    3    3    0    0  0.29662405421E+02 -0.35442416724E+02  0.58972797348E+02  0.76552219366E+02  0.15698033768E+02 0.  0.
         22    1    3    3    0    0 -0.29662405421E+02  0.35442416724E+02  0.87742217794E+02  0.99170156711E+02  0.00000000000E+00 0.  1.
         22    1    4    4    0    0  0.21465108634E+02 -0.33478417960E+02  0.43547742308E+02  0.58974241986E+02  0.00000000000E+00 0. -1.
         22    1    4    4    0    0  0.81972967869E+01 -0.19639987643E+01  0.15425055040E+02  0.17577977380E+02  0.00000000000E+00 0. -1.
<mgrwt>
<rscale>  0 0.96711208E+02</rscale>
<asrwt>0</asrwt>
<pdfrwt beam="2">  1        2 0.22313354E-02 0.96711208E+02</pdfrwt>
<pdfrwt beam="1">  1       -2 0.24802877E-01 0.96711208E+02</pdfrwt>
<totfact> 0.58552773E+04</totfact>
</mgrwt>
</event>
<event>
 7    1  0.3056193E-009  0.9182483E+02  0.7818608E-02  0.1298492E+00
         -2   -1    0    0    0  501 -0.00000000000E+00  0.00000000000E+00  0.56426396144E+02  0.56426396202E+02  0.25500000000E-02 0.  1.
          2   -1    0    0  501    0  0.00000000000E+00 -0.00000000000E+00 -0.37357515080E+02  0.37357515167E+02  0.25500000000E-02 0. -1.
         23    2    1    2    0    0  0.71054273576E-14  0.00000000000E+00  0.19068881065E+02  0.93783911369E+02  0.91824832189E+02 0.  0.
    9000005    2    3    3    0    0  0.40730515014E+02 -0.11845314063E+02  0.24063529444E+02  0.51072872620E+02  0.15168999632E+02 0.  0.
         22    1    3    3    0    0 -0.40730515014E+02  0.11845314063E+02 -0.49946483791E+01  0.42711038748E+02  0.00000000000E+00 0. -1.
         22    1    4    4    0    0  0.23618276705E+02  0.77368173382E+00  0.14781794852E+02  0.27873339179E+02  0.00000000000E+00 0. -1.
         22    1    4    4    0    0  0.17112238309E+02 -0.12618995796E+02  0.92817345921E+01  0.23199533442E+02  0.00000000000E+00 0. -1.
<mgrwt>
<rscale>  0 0.91824832E+02</rscale>
<asrwt>0</asrwt>
<pdfrwt beam="2">  1        2 0.57473100E-02 0.91824832E+02</pdfrwt>
<pdfrwt beam="1">  1       -2 0.86809840E-02 0.91824832E+02</pdfrwt>
<totfact> 0.91798032E+04</totfact>
</mgrwt>
</event>
<event>
 7    1  0.3056193E-009  0.8566051E+02  0.7818608E-02  0.1313714E+00
          2   -1    0    0  501    0  0.00000000000E+00  0.00000000000E+00  0.53747881428E+03  0.53747881428E+03  0.25500000000E-02 0.  1.
         -2   -1    0    0    0  501 -0.00000000000E+00 -0.00000000000E+00 -0.34130280539E+01  0.34130290065E+01  0.25500000000E-02 0. -1.
         23    2    1    2    0    0  0.00000000000E+00  0.00000000000E+00  0.53406578622E+03  0.54089184329E+03  0.85660505036E+02 0.  0.
    9000005    2    3    3    0    0  0.17611768679E+02 -0.33356656907E+02  0.38748532885E+03  0.38953573525E+03  0.13052509707E+02 0.  0.
         22    1    3    3    0    0 -0.17611768679E+02  0.33356656907E+02  0.14658045738E+03  0.15135610804E+03  0.00000000000E+00 0.  1.
         22    1    4    4    0    0  0.16616231951E+02 -0.18410825549E+02  0.22569832497E+03  0.22705680249E+03  0.00000000000E+00 0. -1.
         22    1    4    4    0    0  0.99553672893E+00 -0.14945831358E+02  0.16178700387E+03  0.16247893276E+03  0.00000000000E+00 0. -1.
<mgrwt>
<rscale>  0 0.85660505E+02</rscale>
<asrwt>0</asrwt>
<pdfrwt beam="1">  1        2 0.82688962E-01 0.85660505E+02</pdfrwt>
<pdfrwt beam="2">  1       -2 0.52508186E-03 0.85660505E+02</pdfrwt>
<totfact> 0.25991775E+05</totfact>
</mgrwt>
</event>
<event>
 7    1  0.3056193E-009  0.9037910E+02  0.7818608E-02  0.1301936E+00
          2   -1    0    0  501    0  0.00000000000E+00  0.00000000000E+00  0.57295733333E+03  0.57295733333E+03  0.25500000000E-02 0. -1.
         -2   -1    0    0    0  501 -0.00000000000E+00 -0.00000000000E+00 -0.35641313035E+01  0.35641322157E+01  0.25500000000E-02 0.  1.
         23    2    1    2    0    0  0.00000000000E+00 -0.11102230246E-15  0.56939320202E+03  0.57652146555E+03  0.90379100059E+02 0.  0.
    9000005    2    3    3    0    0  0.39467687305E+02 -0.77268697963E+00  0.42380386821E+03  0.42567535355E+03  0.56118195982E+01 0.  0.
         22    1    3    3    0    0 -0.39467687305E+02  0.77268697963E+00  0.14558933381E+03  0.15084611200E+03  0.00000000000E+00 0.  1.
         22    1    4    4    0    0  0.20254349663E+02 -0.31224289694E+01  0.21086871359E+03  0.21186222554E+03  0.00000000000E+00 0.  1.
         22    1    4    4    0    0  0.19213337642E+02  0.23497419898E+01  0.21293515463E+03  0.21381312801E+03  0.00000000000E+00 0.  1.
<mgrwt>
<rscale>  0 0.90379100E+02</rscale>
<asrwt>0</asrwt>
<pdfrwt beam="1">  1        2 0.88147224E-01 0.90379100E+02</pdfrwt>
<pdfrwt beam="2">  1       -2 0.54832833E-03 0.90379100E+02</pdfrwt>
<totfact> 0.23010382E+05</totfact>
</mgrwt>
</event>
<event>
 7    1  0.3056193E-009  0.1173371E+03  0.7818608E-02  0.1247556E+00
          2   -1    0    0  501    0  0.00000000000E+00  0.00000000000E+00  0.75623581371E+02  0.75623581414E+02  0.25500000000E-02 0. -1.
         -2   -1    0    0    0  501 -0.00000000000E+00 -0.00000000000E+00 -0.45514912626E+02  0.45514912698E+02  0.25500000000E-02 0.  1.
         23    2    1    2    0    0 -0.71054273576E-14  0.00000000000E+00  0.30108668744E+02  0.12113849411E+03  0.11733713318E+03 0.  0.
    9000005    2    3    3    0    0  0.54219812364E+02  0.11285377142E+02 -0.47537333794E+01  0.55697414720E+02  0.35293392356E+01 0.  0.
         22    1    3    3    0    0 -0.54219812364E+02 -0.11285377142E+02  0.34862402124E+02  0.65441079391E+02  0.00000000000E+00 0. -1.
         22    1    4    4    0    0  0.51975512042E+02  0.10738670535E+02 -0.38355659064E+01  0.53211694793E+02  0.00000000000E+00 0. -1.
         22    1    4    4    0    0  0.22443003224E+01  0.54670660649E+00 -0.91816747297E+00  0.24857199277E+01  0.00000000000E+00 0. -1.
<mgrwt>
<rscale>  0 0.11733713E+03</rscale>
<asrwt>0</asrwt>
<pdfrwt beam="1">  1        2 0.11634397E-01 0.11733713E+03</pdfrwt>
<pdfrwt beam="2">  1       -2 0.70022944E-02 0.11733713E+03</pdfrwt>
<totfact> 0.55067213E+04</totfact>
</mgrwt>
</event>
<event>
 7    1  0.3056193E-009  0.1032115E+03  0.7818608E-02  0.1273684E+00
          2   -1    0    0  501    0  0.00000000000E+00  0.00000000000E+00  0.72979134149E+01  0.72979138604E+01  0.25500000000E-02 0. -1.
         -2   -1    0    0    0  501 -0.00000000000E+00 -0.00000000000E+00 -0.36491975228E+03  0.36491975229E+03  0.25500000000E-02 0.  1.
         23    2    1    2    0    0  0.00000000000E+00  0.17763568394E-14 -0.35762183887E+03  0.37221766615E+03  0.10321148851E+03 0.  0.
    9000005    2    3    3    0    0 -0.14979873774E+02 -0.14475757704E+02 -0.34873449396E+03  0.34956972852E+03  0.12218986930E+02 0.  0.
         22    1    3    3    0    0  0.14979873774E+02  0.14475757704E+02 -0.88873449072E+01  0.22647937630E+02  0.00000000000E+00 0. -1.
         22    1    4    4    0    0 -0.10749968038E+02 -0.98070271159E+01 -0.30868329570E+03  0.30902607760E+03  0.00000000000E+00 0. -1.
         22    1    4    4    0    0 -0.42299057360E+01 -0.46687305879E+01 -0.40051198261E+02  0.40543650921E+02  0.00000000000E+00 0. -1.
<mgrwt>
<rscale>  0 0.10321149E+03</rscale>
<asrwt>0</asrwt>
<pdfrwt beam="1">  1        2 0.11227562E-02 0.10321149E+03</pdfrwt>
<pdfrwt beam="2">  1       -2 0.56141486E-01 0.10321149E+03</pdfrwt>
<totfact> 0.32887104E+04</totfact>
</mgrwt>
</event>
<event>
 7    1  0.3056193E-009  0.9111574E+02  0.7818608E-02  0.1300172E+00
         -2   -1    0    0    0  501 -0.00000000000E+00  0.00000000000E+00  0.17326454281E+02  0.17326454468E+02  0.25500000000E-02 0.  1.
          2   -1    0    0  501    0  0.00000000000E+00 -0.00000000000E+00 -0.11978906024E+03  0.11978906027E+03  0.25500000000E-02 0. -1.
         23    2    1    2    0    0  0.00000000000E+00  0.35527136788E-14 -0.10246260596E+03  0.13711551474E+03  0.91115743762E+02 0.  0.
    9000005    2    3    3    0    0 -0.34542844582E+02 -0.20152585839E+02 -0.20388453626E+02  0.45816548098E+02  0.91723612319E+01 0.  0.
         22    1    3    3    0    0  0.34542844582E+02  0.20152585839E+02 -0.82074152335E+02  0.91298966639E+02  0.00000000000E+00 0. -1.
         22    1    4    4    0    0 -0.32640653031E+02 -0.16833216119E+02 -0.20357933990E+02  0.41990652193E+02  0.00000000000E+00 0. -1.
         22    1    4    4    0    0 -0.19021915510E+01 -0.33193697198E+01 -0.30519635862E-01  0.38258959058E+01  0.00000000000E+00 0. -1.
<mgrwt>
<rscale>  0 0.91115744E+02</rscale>
<asrwt>0</asrwt>
<pdfrwt beam="2">  1        2 0.18429086E-01 0.91115744E+02</pdfrwt>
<pdfrwt beam="1">  1       -2 0.26656084E-02 0.91115744E+02</pdfrwt>
<totfact> 0.13002930E+05</totfact>
</mgrwt>
</event>
<event>
 7    1  0.3056193E-009  0.9392695E+02  0.7818608E-02  0.1293611E+00
          2   -1    0    0  501    0  0.00000000000E+00  0.00000000000E+00  0.18636260840E+03  0.18636260842E+03  0.25500000000E-02 0. -1.
         -2   -1    0    0    0  501 -0.00000000000E+00 -0.00000000000E+00 -0.11834821291E+02  0.11834821566E+02  0.25500000000E-02 0.  1.
         23    2    1    2    0    0  0.00000000000E+00  0.00000000000E+00  0.17452778711E+03  0.19819742998E+03  0.93926954486E+02 0.  0.
    9000005    2    3    3    0    0  0.44366516287E+02 -0.89492518935E+01  0.11168968785E+03  0.12075646153E+03  0.76850342728E+01 0.  0.
         22    1    3    3    0    0 -0.44366516287E+02  0.89492518935E+01  0.62838099259E+02  0.77440968456E+02  0.00000000000E+00 0. -1.
         22    1    4    4    0    0  0.24197903681E+02 -0.46206088719E+01  0.70697339850E+02  0.74866564171E+02  0.00000000000E+00 0.  1.
         22    1    4    4    0    0  0.20168612606E+02 -0.43286430215E+01  0.40992348001E+02  0.45889897357E+02  0.00000000000E+00 0.  1.
<mgrwt>
<rscale>  0 0.93926954E+02</rscale>
<asrwt>0</asrwt>
<pdfrwt beam="1">  1        2 0.28671168E-01 0.93926954E+02</pdfrwt>
<pdfrwt beam="2">  1       -2 0.18207419E-02 0.93926954E+02</pdfrwt>
<totfact> 0.13915733E+05</totfact>
</mgrwt>
</event>
<event>
 7    1  0.3056193E-009  0.9352078E+02  0.7818608E-02  0.1294543E+00
          2   -1    0    0  501    0  0.00000000000E+00  0.00000000000E+00  0.11597789279E+03  0.11597789282E+03  0.25500000000E-02 0.  1.
         -2   -1    0    0    0  501 -0.00000000000E+00 -0.00000000000E+00 -0.18853026177E+02  0.18853026349E+02  0.25500000000E-02 0. -1.
         23    2    1    2    0    0  0.00000000000E+00  0.17763568394E-14  0.97124866612E+02  0.13483091917E+03  0.93520784047E+02 0.  0.
    9000005    2    3    3    0    0  0.11282788259E+02 -0.15171587391E+02 -0.10893713032E+02  0.25170115215E+02  0.12545251750E+02 0.  0.
         22    1    3    3    0    0 -0.11282788259E+02  0.15171587391E+02  0.10801857964E+03  0.10966080395E+03  0.00000000000E+00 0.  1.
         22    1    4    4    0    0  0.86367082691E+01 -0.19191506912E+01 -0.64331197064E+01  0.10938962394E+02  0.00000000000E+00 0.  1.
         22    1    4    4    0    0  0.26460799895E+01 -0.13252436700E+02 -0.44605933254E+01  0.14231152821E+02  0.00000000000E+00 0.  1.
<mgrwt>
<rscale>  0 0.93520784E+02</rscale>
<asrwt>0</asrwt>
<pdfrwt beam="1">  1        2 0.17842753E-01 0.93520784E+02</pdfrwt>
<pdfrwt beam="2">  1       -2 0.29004655E-02 0.93520784E+02</pdfrwt>
<totfact> 0.11981650E+05</totfact>
</mgrwt>
</event>
<event>
 7    1  0.3056193E-009  0.9051529E+02  0.7818608E-02  0.1301609E+00
          2   -1    0    0  501    0  0.00000000000E+00  0.00000000000E+00  0.67447629357E+02  0.67447629405E+02  0.25500000000E-02 0. -1.
         -2   -1    0    0    0  501 -0.00000000000E+00 -0.00000000000E+00 -0.30368068200E+02  0.30368068307E+02  0.25500000000E-02 0.  1.
         23    2    1    2    0    0  0.00000000000E+00  0.88817841970E-15  0.37079561157E+02  0.97815697712E+02  0.90515285246E+02 0.  0.
    9000005    2    3    3    0    0  0.26699299956E+02  0.64004012168E+01 -0.20278818724E+02  0.34224806096E+02  0.25078097175E+01 0.  0.
         22    1    3    3    0    0 -0.26699299956E+02 -0.64004012168E+01  0.57358379881E+02  0.63590891616E+02  0.00000000000E+00 0.  1.
         22    1    4    4    0    0  0.24780106548E+02  0.53181602639E+01 -0.18268400870E+02  0.31242134681E+02  0.00000000000E+00 0. -1.
         22    1    4    4    0    0  0.19191934087E+01  0.10822409529E+01 -0.20104178540E+01  0.29826714147E+01  0.00000000000E+00 0. -1.
<mgrwt>
<rscale>  0 0.90515285E+02</rscale>
<asrwt>0</asrwt>
<pdfrwt beam="1">  1        2 0.10376558E-01 0.90515285E+02</pdfrwt>
<pdfrwt beam="2">  1       -2 0.46720105E-02 0.90515285E+02</pdfrwt>
<totfact> 0.11174696E+05</totfact>
</mgrwt>
</event>
<event>
 7    1  0.3056193E-009  0.9869087E+02  0.7818608E-02  0.1283073E+00
          2   -1    0    0  501    0  0.00000000000E+00  0.00000000000E+00  0.51056656258E+03  0.51056656259E+03  0.25500000000E-02 0.  1.
         -2   -1    0    0    0  501 -0.00000000000E+00 -0.00000000000E+00 -0.47691561705E+01  0.47691568522E+01  0.25500000000E-02 0. -1.
         23    2    1    2    0    0  0.35527136788E-14  0.00000000000E+00  0.50579740641E+03  0.51533571944E+03  0.98690867859E+02 0.  0.
    9000005    2    3    3    0    0 -0.30586440811E+02  0.15069888016E+02  0.43671895880E+03  0.43830024832E+03  0.14866970653E+02 0.  0.
         22    1    3    3    0    0  0.30586440811E+02 -0.15069888016E+02  0.69078447615E+02  0.77035471124E+02  0.00000000000E+00 0. -1.
         22    1    4    4    0    0 -0.29553178368E+02  0.12634119616E+02  0.33298264798E+03  0.33453020071E+03  0.00000000000E+00 0. -1.
         22    1    4    4    0    0 -0.10332624434E+01  0.24357683998E+01  0.10373631082E+03  0.10377004761E+03  0.00000000000E+00 0. -1.
<mgrwt>
<rscale>  0 0.98690868E+02</rscale>
<asrwt>0</asrwt>
<pdfrwt beam="1">  1        2 0.78548647E-01 0.98690868E+02</pdfrwt>
<pdfrwt beam="2">  1       -2 0.73371690E-03 0.98690868E+02</pdfrwt>
<totfact> 0.17578033E+05</totfact>
</mgrwt>
</event>
<event>
 7    1  0.3056193E-009  0.8869407E+02  0.7818608E-02  0.1306045E+00
         -2   -1    0    0    0  501 -0.00000000000E+00  0.00000000000E+00  0.17363550386E+02  0.17363550574E+02  0.25500000000E-02 0.  1.
          2   -1    0    0  501    0  0.00000000000E+00 -0.00000000000E+00 -0.11326368002E+03  0.11326368004E+03  0.25500000000E-02 0. -1.
         23    2    1    2    0    0  0.00000000000E+00 -0.88817841970E-15 -0.95900129629E+02  0.13062723062E+03  0.88694072609E+02 0.  0.
    9000005    2    3    3    0    0  0.37797714687E+02  0.68977806172E+01 -0.78946414688E+02  0.88631099089E+02  0.12111511905E+02 0.  0.
         22    1    3    3    0    0 -0.37797714687E+02 -0.68977806172E+01 -0.16953714941E+02  0.41996131528E+02  0.00000000000E+00 0.  1.
         22    1    4    4    0    0  0.23089055474E+01 -0.26653318584E+01 -0.65389788395E+01  0.74292181962E+01  0.00000000000E+00 0. -1.
         22    1    4    4    0    0  0.35488809140E+02  0.95631124756E+01 -0.72407435849E+02  0.81201880893E+02  0.00000000000E+00 0. -1.
<mgrwt>
<rscale>  0 0.88694073E+02</rscale>
<asrwt>0</asrwt>
<pdfrwt beam="2">  1        2 0.17425181E-01 0.88694073E+02</pdfrwt>
<pdfrwt beam="1">  1       -2 0.26713155E-02 0.88694073E+02</pdfrwt>
<totfact> 0.13749203E+05</totfact>
</mgrwt>
</event>
<event>
 7    1  0.3056193E-009  0.9186169E+02  0.7818608E-02  0.1298405E+00
          2   -1    0    0  501    0  0.00000000000E+00  0.00000000000E+00  0.11470334462E+03  0.11470334464E+03  0.25500000000E-02 0. -1.
         -2   -1    0    0    0  501 -0.00000000000E+00 -0.00000000000E+00 -0.18392160706E+02  0.18392160882E+02  0.25500000000E-02 0.  1.
         23    2    1    2    0    0  0.00000000000E+00  0.00000000000E+00  0.96311183911E+02  0.13309550553E+03  0.91861686493E+02 0.  0.
    9000005    2    3    3    0    0 -0.64860659387E+01 -0.35766877460E+02  0.87461867221E+02  0.95683622650E+02  0.13580826592E+02 0.  0.
         22    1    3    3    0    0  0.64860659387E+01  0.35766877460E+02  0.88493166894E+01  0.37411882878E+02  0.00000000000E+00 0.  1.
         22    1    4    4    0    0 -0.89824503265E+01 -0.15078208485E+02  0.33115310667E+02  0.37478801816E+02  0.00000000000E+00 0.  1.
         22    1    4    4    0    0  0.24963843878E+01 -0.20688668975E+02  0.54346556554E+02  0.58204820834E+02  0.00000000000E+00 0.  1.
<mgrwt>
<rscale>  0 0.91861686E+02</rscale>
<asrwt>0</asrwt>
<pdfrwt beam="1">  1        2 0.17646668E-01 0.91861686E+02</pdfrwt>
<pdfrwt beam="2">  1       -2 0.28295632E-02 0.91861686E+02</pdfrwt>
<totfact> 0.12541183E+05</totfact>
</mgrwt>
</event>
<event>
 7    1  0.3056193E-009  0.9027138E+02  0.7818608E-02  0.1302196E+00
         -2   -1    0    0    0  501 -0.00000000000E+00  0.00000000000E+00  0.28305382197E+02  0.28305382312E+02  0.25500000000E-02 0.  1.
          2   -1    0    0  501    0  0.00000000000E+00 -0.00000000000E+00 -0.71973261761E+02  0.71973261806E+02  0.25500000000E-02 0. -1.
         23    2    1    2    0    0  0.00000000000E+00  0.00000000000E+00 -0.43667879564E+02  0.10027864412E+03  0.90271383952E+02 0.  0.
    9000005    2    3    3    0    0 -0.27869253471E+02 -0.15740555100E+02 -0.56802222079E+02  0.65681370856E+02  0.79429012696E+01 0.  0.
         22    1    3    3    0    0  0.27869253471E+02  0.15740555100E+02  0.13134342514E+02  0.34597273262E+02  0.00000000000E+00 0.  1.
         22    1    4    4    0    0 -0.54803357359E+01  0.19256924159E+00 -0.87356284231E+01  0.10314182791E+02  0.00000000000E+00 0. -1.
         22    1    4    4    0    0 -0.22388917735E+02 -0.15933124342E+02 -0.48066593656E+02  0.55367188066E+02  0.00000000000E+00 0. -1.
<mgrwt>
<rscale>  0 0.90271384E+02</rscale>
<asrwt>0</asrwt>
<pdfrwt beam="2">  1        2 0.11072809E-01 0.90271384E+02</pdfrwt>
<pdfrwt beam="1">  1       -2 0.43546742E-02 0.90271384E+02</pdfrwt>
<totfact> 0.11462478E+05</totfact>
</mgrwt>
</event>
<event>
 7    1  0.3056193E-009  0.8973023E+02  0.7818608E-02  0.1303506E+00
          2   -1    0    0  501    0  0.00000000000E+00  0.00000000000E+00  0.13867726948E+02  0.13867727182E+02  0.25500000000E-02 0. -1.
         -2   -1    0    0    0  501 -0.00000000000E+00 -0.00000000000E+00 -0.14514841180E+03  0.14514841182E+03  0.25500000000E-02 0.  1.
         23    2    1    2    0    0  0.00000000000E+00  0.00000000000E+00 -0.13128068485E+03  0.15901613900E+03  0.89730230405E+02 0.  0.
    9000005    2    3    3    0    0  0.21033255148E+01  0.30629178835E+02 -0.12276027558E+03  0.12715443866E+03  0.12473789976E+02 0.  0.
         22    1    3    3    0    0 -0.21033255148E+01 -0.30629178835E+02 -0.85204092643E+01  0.31861700336E+02  0.00000000000E+00 0. -1.
         22    1    4    4    0    0 -0.27600920657E+01  0.82204073868E+01 -0.53467946973E+02  0.54166544650E+02  0.00000000000E+00 0. -1.
         22    1    4    4    0    0  0.48634175805E+01  0.22408771448E+02 -0.69292328612E+02  0.72987894015E+02  0.00000000000E+00 0. -1.
<mgrwt>
<rscale>  0 0.89730230E+02</rscale>
<asrwt>0</asrwt>
<pdfrwt beam="1">  1        2 0.21334966E-02 0.89730230E+02</pdfrwt>
<pdfrwt beam="2">  1       -2 0.22330524E-01 0.89730230E+02</pdfrwt>
<totfact> 0.73604974E+04</totfact>
</mgrwt>
</event>
<event>
 7    1  0.3056193E-009  0.5987407E+02  0.7818608E-02  0.1398361E+00
         -2   -1    0    0    0  501 -0.00000000000E+00  0.00000000000E+00  0.30528430051E+02  0.30528430158E+02  0.25500000000E-02 0.  1.
          2   -1    0    0  501    0  0.00000000000E+00 -0.00000000000E+00 -0.29357099672E+02  0.29357099783E+02  0.25500000000E-02 0. -1.
         23    2    1    2    0    0  0.00000000000E+00  0.00000000000E+00  0.11713303790E+01  0.59885529941E+02  0.59874073533E+02 0.  0.
    9000005    2    3    3    0    0 -0.10755992186E+02  0.22879479662E+02  0.16179176145E+02  0.30484894028E+02  0.53292650212E+01 0.  0.
         22    1    3    3    0    0  0.10755992186E+02 -0.22879479662E+02 -0.15007845766E+02  0.29400635912E+02  0.00000000000E+00 0. -1.
         22    1    4    4    0    0 -0.36678972723E+01  0.12910394124E+02  0.10272455502E+02  0.16901333938E+02  0.00000000000E+00 0. -1.
         22    1    4    4    0    0 -0.70880949140E+01  0.99690855378E+01  0.59067206426E+01  0.13583560090E+02  0.00000000000E+00 0. -1.
<mgrwt>
<rscale>  0 0.59874074E+02</rscale>
<asrwt>0</asrwt>
<pdfrwt beam="2">  1        2 0.45164769E-02 0.59874074E+02</pdfrwt>
<pdfrwt beam="1">  1       -2 0.46966815E-02 0.59874074E+02</pdfrwt>
<totfact> 0.28945514E+05</totfact>
</mgrwt>
</event>
<event>
 7    1  0.3056193E-009  0.9434403E+02  0.7818608E-02  0.1292660E+00
          2   -1    0    0  501    0  0.00000000000E+00  0.00000000000E+00  0.56724549890E+01  0.56724555622E+01  0.25500000000E-02 0. -1.
         -2   -1    0    0    0  501 -0.00000000000E+00 -0.00000000000E+00 -0.39228146164E+03  0.39228146164E+03  0.25500000000E-02 0.  1.
         23    2    1    2    0    0  0.00000000000E+00  0.00000000000E+00 -0.38660900665E+03  0.39795391721E+03  0.94344031075E+02 0.  0.
    9000005    2    3    3    0    0 -0.97526818002E+01  0.45737938324E+02 -0.16871938065E+03  0.17510203159E+03  0.27236476655E+01 0.  0.
         22    1    3    3    0    0  0.97526818002E+01 -0.45737938324E+02 -0.21788962600E+03  0.22285188562E+03  0.00000000000E+00 0.  1.
         22    1    4    4    0    0 -0.73433774020E+01  0.29961787923E+02 -0.10781807842E+03  0.11214442457E+03  0.00000000000E+00 0. -1.
         22    1    4    4    0    0 -0.24093043983E+01  0.15776150401E+02 -0.60901302225E+02  0.62957607022E+02  0.00000000000E+00 0. -1.
<mgrwt>
<rscale>  0 0.94344031E+02</rscale>
<asrwt>0</asrwt>
<pdfrwt beam="1">  1        2 0.87268573E-03 0.94344031E+02</pdfrwt>
<pdfrwt beam="2">  1       -2 0.60350973E-01 0.94344031E+02</pdfrwt>
<totfact> 0.39596328E+04</totfact>
</mgrwt>
</event>
<event>
 7    1  0.3056193E-009  0.9142329E+02  0.7818608E-02  0.1299441E+00
          2   -1    0    0  501    0  0.00000000000E+00  0.00000000000E+00  0.54099632149E+03  0.54099632149E+03  0.25500000000E-02 0.  1.
         -2   -1    0    0    0  501 -0.00000000000E+00 -0.00000000000E+00 -0.38624185090E+01  0.38624193507E+01  0.25500000000E-02 0. -1.
         23    2    1    2    0    0  0.00000000000E+00  0.17763568394E-14  0.53713390298E+03  0.54485874085E+03  0.91423288857E+02 0.  0.
    9000005    2    3    3    0    0  0.31101103832E+02  0.10551077816E+02  0.45586320816E+03  0.45720299523E+03  0.12029563256E+02 0.  0.
         22    1    3    3    0    0 -0.31101103832E+02 -0.10551077816E+02  0.81270694819E+02  0.87655745613E+02  0.00000000000E+00 0. -1.
         22    1    4    4    0    0  0.13946556261E+02  0.88894324638E+01  0.28296364119E+03  0.28344655700E+03  0.00000000000E+00 0. -1.
         22    1    4    4    0    0  0.17154547570E+02  0.16616453524E+01  0.17289956697E+03  0.17375643823E+03  0.00000000000E+00 0. -1.
<mgrwt>
<rscale>  0 0.91423289E+02</rscale>
<asrwt>0</asrwt>
<pdfrwt beam="1">  1        2 0.83230257E-01 0.91423289E+02</pdfrwt>
<pdfrwt beam="2">  1       -2 0.59421791E-03 0.91423289E+02</pdfrwt>
<totfact> 0.21937756E+05</totfact>
</mgrwt>
</event>
<event>
 7    1  0.3056193E-009  0.9057990E+02  0.7818608E-02  0.1301453E+00
          2   -1    0    0  501    0  0.00000000000E+00  0.00000000000E+00  0.18050153755E+04  0.18050153755E+04  0.25500000000E-02 0. -1.
         -2   -1    0    0    0  501 -0.00000000000E+00 -0.00000000000E+00 -0.11363765185E+01  0.11363793796E+01  0.25500000000E-02 0.  1.
         23    2    1    2    0    0  0.00000000000E+00  0.00000000000E+00  0.18038789990E+04  0.18061517549E+04  0.90579902266E+02 0.  0.
    9000005    2    3    3    0    0 -0.41414901433E+01  0.14335974816E+02  0.17545513798E+04  0.17546164648E+04  0.23920518274E+01 0.  0.
         22    1    3    3    0    0  0.41414901433E+01 -0.14335974816E+02  0.49327619201E+02  0.51535290147E+02  0.00000000000E+00 0.  1.
         22    1    4    4    0    0 -0.30301313550E+01  0.12823212007E+02  0.14790817631E+04  0.14791404526E+04  0.00000000000E+00 0.  1.
         22    1    4    4    0    0 -0.11113587884E+01  0.15127628082E+01  0.27546961665E+03  0.27547601215E+03  0.00000000000E+00 0.  1.
<mgrwt>
<rscale>  0 0.90579902E+02</rscale>
<asrwt>0</asrwt>
<pdfrwt beam="1">  1        2 0.27769232E+00 0.90579902E+02</pdfrwt>
<pdfrwt beam="2">  1       -2 0.17482886E-03 0.90579902E+02</pdfrwt>
<totfact> 0.21765701E+05</totfact>
</mgrwt>
</event>
<event>
 7    1  0.3056193E-009  0.9038995E+02  0.7818608E-02  0.1301910E+00
          2   -1    0    0  501    0  0.00000000000E+00  0.00000000000E+00  0.37331639807E+03  0.37331639808E+03  0.25500000000E-02 0. -1.
         -2   -1    0    0    0  501 -0.00000000000E+00 -0.00000000000E+00 -0.54714592071E+01  0.54714598013E+01  0.25500000000E-02 0.  1.
         23    2    1    2    0    0  0.00000000000E+00  0.00000000000E+00  0.36784493886E+03  0.37878785788E+03  0.90389945404E+02 0.  0.
    9000005    2    3    3    0    0 -0.29553416950E+02 -0.32008351822E+02  0.14558427707E+03  0.15229781214E+03  0.10094692275E+02 0.  0.
         22    1    3    3    0    0  0.29553416950E+02  0.32008351822E+02  0.22226066179E+03  0.22649004574E+03  0.00000000000E+00 0. -1.
         22    1    4    4    0    0 -0.12669953104E+02 -0.73264817052E+01  0.41625893283E+02  0.44123916842E+02  0.00000000000E+00 0. -1.
         22    1    4    4    0    0 -0.16883463846E+02 -0.24681870116E+02  0.10395838379E+03  0.10817389529E+03  0.00000000000E+00 0. -1.
<mgrwt>
<rscale>  0 0.90389945E+02</rscale>
<asrwt>0</asrwt>
<pdfrwt beam="1">  1        2 0.57433294E-01 0.90389945E+02</pdfrwt>
<pdfrwt beam="2">  1       -2 0.84176298E-03 0.90389945E+02</pdfrwt>
<totfact> 0.19924820E+05</totfact>
</mgrwt>
</event>
<event>
 7    1  0.3056193E-009  0.9054067E+02  0.7818608E-02  0.1301548E+00
          2   -1    0    0  501    0  0.00000000000E+00  0.00000000000E+00  0.25123775319E+04  0.25123775319E+04  0.25500000000E-02 0. -1.
         -2   -1    0    0    0  501 -0.00000000000E+00 -0.00000000000E+00 -0.81572065868E+00  0.81572464441E+00  0.25500000000E-02 0.  1.
         23    2    1    2    0    0 -0.35527136788E-14  0.00000000000E+00  0.25115618113E+04  0.25131932566E+04  0.90540670757E+02 0.  0.
    9000005    2    3    3    0    0 -0.18023654693E+02 -0.18917751259E+01  0.24044445485E+04  0.24045537660E+04  0.14028383748E+02 0.  0.
         22    1    3    3    0    0  0.18023654693E+02  0.18917751259E+01  0.10711726277E+03  0.10863949063E+03  0.00000000000E+00 0.  1.
         22    1    4    4    0    0 -0.12814962036E+01  0.13264878276E+01  0.35507243431E+02  0.35555114099E+02  0.00000000000E+00 0. -1.
         22    1    4    4    0    0 -0.16742158489E+02 -0.32182629536E+01  0.23689373051E+04  0.23689986519E+04  0.00000000000E+00 0. -1.
<mgrwt>
<rscale>  0 0.90540671E+02</rscale>
<asrwt>0</asrwt>
<pdfrwt beam="1">  1        2 0.38652062E+00 0.90540671E+02</pdfrwt>
<pdfrwt beam="2">  1       -2 0.12549547E-03 0.90540671E+02</pdfrwt>
<totfact> 0.15010553E+05</totfact>
</mgrwt>
</event>
<event>
 7    1  0.3056193E-009  0.9367595E+02  0.7818608E-02  0.1294186E+00
         -2   -1    0    0    0  501 -0.00000000000E+00  0.00000000000E+00  0.49959133320E+01  0.49959139828E+01  0.25500000000E-02 0.  1.
          2   -1    0    0  501    0  0.00000000000E+00 -0.00000000000E+00 -0.43911806096E+03  0.43911806097E+03  0.25500000000E-02 0. -1.
         23    2    1    2    0    0  0.71054273576E-14  0.17763568394E-14 -0.43412214763E+03  0.44411397495E+03  0.93675950408E+02 0.  0.
    9000005    2    3    3    0    0  0.32852369466E+02  0.11435870600E+02 -0.36478048708E+03  0.36653612242E+03  0.85946475890E+01 0.  0.
         22    1    3    3    0    0 -0.32852369466E+02 -0.11435870600E+02 -0.69341660549E+02  0.77577852533E+02  0.00000000000E+00 0.  1.
         22    1    4    4    0    0  0.24132173101E+01  0.12645402382E+01 -0.12327802482E+02  0.12625268070E+02  0.00000000000E+00 0. -1.
         22    1    4    4    0    0  0.30439152156E+02  0.10171330362E+02 -0.35245268460E+03  0.35391085435E+03  0.00000000000E+00 0. -1.
<mgrwt>
<rscale>  0 0.93675950E+02</rscale>
<asrwt>0</asrwt>
<pdfrwt beam="2">  1        2 0.67556594E-01 0.93675950E+02</pdfrwt>
<pdfrwt beam="1">  1       -2 0.76860245E-03 0.93675950E+02</pdfrwt>
<totfact> 0.19199518E+05</totfact>
</mgrwt>
</event>
<event>
 7    1  0.3056193E-009  0.9137782E+02  0.7818608E-02  0.1299549E+00
         -2   -1    0    0    0  501 -0.00000000000E+00  0.00000000000E+00  0.12005860862E+02  0.12005861133E+02  0.25500000000E-02 0.  1.
          2   -1    0    0  501    0  0.00000000000E+00 -0.00000000000E+00 -0.17387144016E+03  0.17387144018E+03  0.25500000000E-02 0. -1.
         23    2    1    2    0    0 -0.17763568394E-14 -0.71054273576E-14 -0.16186557930E+03  0.18587730131E+03  0.91377816681E+02 0.  0.
    9000005    2    3    3    0    0  0.78481878433E+01  0.38928299398E+02 -0.35936491575E+02  0.53835104718E+02  0.54571537284E+01 0.  0.
         22    1    3    3    0    0 -0.78481878433E+01 -0.38928299398E+02 -0.12592908772E+03  0.13204219659E+03  0.00000000000E+00 0. -1.
         22    1    4    4    0    0  0.26424590641E+00  0.20737799525E+01 -0.50247846524E+00  0.21500869281E+01  0.00000000000E+00 0.  1.
         22    1    4    4    0    0  0.75839419369E+01  0.36854519446E+02 -0.35434013110E+02  0.51685017790E+02  0.00000000000E+00 0.  1.
<mgrwt>
<rscale>  0 0.91377817E+02</rscale>
<asrwt>0</asrwt>
<pdfrwt beam="2">  1        2 0.26749451E-01 0.91377817E+02</pdfrwt>
<pdfrwt beam="1">  1       -2 0.18470557E-02 0.91377817E+02</pdfrwt>
<totfact> 0.14626137E+05</totfact>
</mgrwt>
</event>
<event>
 7    1  0.3056193E-009  0.6865244E+02  0.7818608E-02  0.1364736E+00
         -2   -1    0    0    0  501 -0.00000000000E+00  0.00000000000E+00  0.69536623319E+01  0.69536627994E+01  0.25500000000E-02 0.  1.
          2   -1    0    0  501    0  0.00000000000E+00 -0.00000000000E+00 -0.16944875176E+03  0.16944875178E+03  0.25500000000E-02 0. -1.
         23    2    1    2    0    0  0.00000000000E+00  0.00000000000E+00 -0.16249508943E+03  0.17640241458E+03  0.68652441916E+02 0.  0.
    9000005    2    3    3    0    0 -0.12118098633E+02 -0.25821260370E+02 -0.12962974213E+03  0.13288555745E+03  0.64121394224E+01 0.  0.
         22    1    3    3    0    0  0.12118098633E+02  0.25821260370E+02 -0.32865347301E+02  0.43516857133E+02  0.00000000000E+00 0.  1.
         22    1    4    4    0    0 -0.11442456246E+02 -0.18862213761E+02 -0.10435886057E+03  0.10666529282E+03  0.00000000000E+00 0.  1.
         22    1    4    4    0    0 -0.67564238756E+00 -0.69590466083E+01 -0.25270881559E+02  0.26220264627E+02  0.00000000000E+00 0.  1.
<mgrwt>
<rscale>  0 0.68652442E+02</rscale>
<asrwt>0</asrwt>
<pdfrwt beam="2">  1        2 0.26069036E-01 0.68652442E+02</pdfrwt>
<pdfrwt beam="1">  1       -2 0.10697944E-02 0.68652442E+02</pdfrwt>
<totfact> 0.30981561E+05</totfact>
</mgrwt>
</event>
<event>
 7    1  0.3056193E-009  0.9629277E+02  0.7818608E-02  0.1288291E+00
          2   -1    0    0  501    0  0.00000000000E+00  0.00000000000E+00  0.94305107892E+02  0.94305107926E+02  0.25500000000E-02 0. -1.
         -2   -1    0    0    0  501 -0.00000000000E+00 -0.00000000000E+00 -0.24580578944E+02  0.24580579076E+02  0.25500000000E-02 0.  1.
         23    2    1    2    0    0 -0.35527136788E-14  0.00000000000E+00  0.69724528948E+02  0.11888568700E+03  0.96292765237E+02 0.  0.
    9000005    2    3    3    0    0  0.19710102341E+02  0.37705108390E+02  0.60816288377E+02  0.75417076683E+02  0.13377263937E+02 0.  0.
         22    1    3    3    0    0 -0.19710102341E+02 -0.37705108390E+02  0.89082405706E+01  0.43468610319E+02  0.00000000000E+00 0.  1.
         22    1    4    4    0    0 -0.27805564061E-01  0.12880996739E+02  0.17123688790E+02  0.21427588943E+02  0.00000000000E+00 0.  1.
         22    1    4    4    0    0  0.19737907905E+02  0.24824111651E+02  0.43692599587E+02  0.53989487740E+02  0.00000000000E+00 0.  1.
<mgrwt>
<rscale>  0 0.96292765E+02</rscale>
<asrwt>0</asrwt>
<pdfrwt beam="1">  1        2 0.14508478E-01 0.96292765E+02</pdfrwt>
<pdfrwt beam="2">  1       -2 0.37816275E-02 0.96292765E+02</pdfrwt>
<totfact> 0.10359083E+05</totfact>
</mgrwt>
</event>
<event>
 7    1  0.3056193E-009  0.9058253E+02  0.7818608E-02  0.1301447E+00
          2   -1    0    0  501    0  0.00000000000E+00  0.00000000000E+00  0.16888337768E+02  0.16888337960E+02  0.25500000000E-02 0. -1.
         -2   -1    0    0    0  501 -0.00000000000E+00 -0.00000000000E+00 -0.12146243013E+03  0.12146243016E+03  0.25500000000E-02 0.  1.
         23    2    1    2    0    0  0.00000000000E+00 -0.71054273576E-14 -0.10457409236E+03  0.13835076812E+03  0.90582527262E+02 0.  0.
    9000005    2    3    3    0    0  0.12290715982E+02 -0.38695447526E+02 -0.21903894060E+02  0.46248862350E+02  0.32828851677E+01 0.  0.
         22    1    3    3    0    0 -0.12290715982E+02  0.38695447526E+02 -0.82670198304E+02  0.92101905769E+02  0.00000000000E+00 0.  1.
         22    1    4    4    0    0  0.37003779058E+01 -0.15366168168E+02 -0.98134763991E+01  0.18604199522E+02  0.00000000000E+00 0. -1.
         22    1    4    4    0    0  0.85903380761E+01 -0.23329279359E+02 -0.12090417661E+02  0.27644662828E+02  0.00000000000E+00 0. -1.
<mgrwt>
<rscale>  0 0.90582527E+02</rscale>
<asrwt>0</asrwt>
<pdfrwt beam="1">  1        2 0.25982059E-02 0.90582527E+02</pdfrwt>
<pdfrwt beam="2">  1       -2 0.18686527E-01 0.90582527E+02</pdfrwt>
<totfact> 0.76364066E+04</totfact>
</mgrwt>
</event>
<event>
 7    1  0.3056193E-009  0.9203082E+02  0.7818608E-02  0.1298007E+00
          2   -1    0    0  501    0  0.00000000000E+00  0.00000000000E+00  0.31158885917E+03  0.31158885918E+03  0.25500000000E-02 0. -1.
         -2   -1    0    0    0  501 -0.00000000000E+00 -0.00000000000E+00 -0.67955511705E+01  0.67955516489E+01  0.25500000000E-02 0.  1.
         23    2    1    2    0    0  0.00000000000E+00  0.00000000000E+00  0.30479330800E+03  0.31838441083E+03  0.92030823412E+02 0.  0.
    9000005    2    3    3    0    0  0.12998889804E+02 -0.43120423303E+02  0.13489051873E+03  0.14261382216E+03  0.10719523492E+02 0.  0.
         22    1    3    3    0    0 -0.12998889804E+02  0.43120423303E+02  0.16990278927E+03  0.17577058867E+03  0.00000000000E+00 0. -1.
         22    1    4    4    0    0  0.62705477455E+01 -0.35523750105E+02  0.10850160403E+03  0.11434095796E+03  0.00000000000E+00 0.  1.
         22    1    4    4    0    0  0.67283420585E+01 -0.75966731988E+01  0.26388914701E+02  0.28272864192E+02  0.00000000000E+00 0.  1.
<mgrwt>
<rscale>  0 0.92030823E+02</rscale>
<asrwt>0</asrwt>
<pdfrwt beam="1">  1        2 0.47936743E-01 0.92030823E+02</pdfrwt>
<pdfrwt beam="2">  1       -2 0.10454695E-02 0.92030823E+02</pdfrwt>
<totfact> 0.17773224E+05</totfact>
</mgrwt>
</event>
<event>
 7    1  0.3056193E-009  0.9295522E+02  0.7818608E-02  0.1295849E+00
          2   -1    0    0  501    0  0.00000000000E+00  0.00000000000E+00  0.17013694322E+04  0.17013694322E+04  0.25500000000E-02 0. -1.
         -2   -1    0    0    0  501 -0.00000000000E+00 -0.00000000000E+00 -0.12696630578E+01  0.12696656185E+01  0.25500000000E-02 0.  1.
         23    2    1    2    0    0  0.00000000000E+00 -0.17763568394E-14  0.17000997691E+04  0.17026390978E+04  0.92955217119E+02 0.  0.
    9000005    2    3    3    0    0 -0.17562111255E+02 -0.13320633169E+02  0.15967339012E+04  0.15969491282E+04  0.14195064177E+02 0.  0.
         22    1    3    3    0    0  0.17562111255E+02  0.13320633169E+02  0.10336586797E+03  0.10568996963E+03  0.00000000000E+00 0.  1.
         22    1    4    4    0    0 -0.36985199415E+01 -0.10854919023E+02  0.54250306219E+03  0.54262425379E+03  0.00000000000E+00 0. -1.
         22    1    4    4    0    0 -0.13863591314E+02 -0.24657141465E+01  0.10542308390E+04  0.10543248744E+04  0.00000000000E+00 0. -1.
<mgrwt>
<rscale>  0 0.92955217E+02</rscale>
<asrwt>0</asrwt>
<pdfrwt beam="1">  1        2 0.26175005E+00 0.92955217E+02</pdfrwt>
<pdfrwt beam="2">  1       -2 0.19533230E-03 0.92955217E+02</pdfrwt>
<totfact> 0.21114153E+05</totfact>
</mgrwt>
</event>
<event>
 7    1  0.3056193E-009  0.9122051E+02  0.7818608E-02  0.1299923E+00
          2   -1    0    0  501    0  0.00000000000E+00  0.00000000000E+00  0.33449060816E+03  0.33449060817E+03  0.25500000000E-02 0. -1.
         -2   -1    0    0    0  501 -0.00000000000E+00 -0.00000000000E+00 -0.62192935592E+01  0.62192940820E+01  0.25500000000E-02 0.  1.
         23    2    1    2    0    0  0.00000000000E+00  0.00000000000E+00  0.32827131460E+03  0.34070990226E+03  0.91220510318E+02 0.  0.
    9000005    2    3    3    0    0  0.20813328628E+02  0.36222609888E+02  0.10430354287E+03  0.11287918683E+03  0.10826340489E+02 0.  0.
         22    1    3    3    0    0 -0.20813328628E+02 -0.36222609888E+02  0.22396777174E+03  0.22783071543E+03  0.00000000000E+00 0. -1.
         22    1    4    4    0    0  0.21116504955E+02  0.36510648343E+02  0.10424839284E+03  0.11245737696E+03  0.00000000000E+00 0.  1.
         22    1    4    4    0    0 -0.30317632738E+00 -0.28803845426E+00  0.55150029628E-01  0.42180986520E+00  0.00000000000E+00 0.  1.
<mgrwt>
<rscale>  0 0.91220510E+02</rscale>
<asrwt>0</asrwt>
<pdfrwt beam="1">  1        2 0.51460085E-01 0.91220510E+02</pdfrwt>
<pdfrwt beam="2">  1       -2 0.95681460E-03 0.91220510E+02</pdfrwt>
<totfact> 0.18681837E+05</totfact>
</mgrwt>
</event>
<event>
 7    1  0.3056193E-009  0.9056525E+02  0.7818608E-02  0.1301489E+00
          2   -1    0    0  501    0  0.00000000000E+00  0.00000000000E+00  0.10417353687E+02  0.10417354000E+02  0.25500000000E-02 0. -1.
         -2   -1    0    0    0  501 -0.00000000000E+00 -0.00000000000E+00 -0.19683654762E+03  0.19683654763E+03  0.25500000000E-02 0.  1.
         23    2    1    2    0    0  0.00000000000E+00  0.17763568394E-14 -0.18641919393E+03  0.20725390163E+03  0.90565246517E+02 0.  0.
    9000005    2    3    3    0    0  0.38780782377E+02 -0.13953921830E+02 -0.13086958416E+03  0.13808439851E+03  0.15549663613E+02 0.  0.
         22    1    3    3    0    0 -0.38780782377E+02  0.13953921830E+02 -0.55549609771E+02  0.69169503120E+02  0.00000000000E+00 0. -1.
         22    1    4    4    0    0  0.21955535875E+02 -0.15500286606E+02 -0.87717573299E+02  0.91742449858E+02  0.00000000000E+00 0. -1.
         22    1    4    4    0    0  0.16825246503E+02  0.15463647765E+01 -0.43152010858E+02  0.46341948654E+02  0.00000000000E+00 0. -1.
<mgrwt>
<rscale>  0 0.90565247E+02</rscale>
<asrwt>0</asrwt>
<pdfrwt beam="1">  1        2 0.16026700E-02 0.90565247E+02</pdfrwt>
<pdfrwt beam="2">  1       -2 0.30282543E-01 0.90565247E+02</pdfrwt>
<totfact> 0.63835462E+04</totfact>
</mgrwt>
</event>
<event>
 7    1  0.3056193E-009  0.9086869E+02  0.7818608E-02  0.1300762E+00
         -2   -1    0    0    0  501 -0.00000000000E+00  0.00000000000E+00  0.90558826524E+00  0.90559185544E+00  0.25500000000E-02 0. -1.
          2   -1    0    0  501    0  0.00000000000E+00 -0.00000000000E+00 -0.22794855972E+04  0.22794855972E+04  0.25500000000E-02 0.  1.
         23    2    1    2    0    0  0.17763568394E-14 -0.17763568394E-14 -0.22785800089E+04  0.22803911891E+04  0.90868685536E+02 0.  0.
    9000005    2    3    3    0    0 -0.10390249897E+02  0.11273347681E+02 -0.22121815340E+04  0.22122457333E+04  0.69999758718E+01 0.  0.
         22    1    3    3    0    0  0.10390249897E+02 -0.11273347681E+02 -0.66398474951E+02  0.68145455730E+02  0.00000000000E+00 0. -1.
         22    1    4    4    0    0 -0.10477761908E+02  0.12060847418E+02 -0.21456946114E+04  0.21457540896E+04  0.00000000000E+00 0.  1.
         22    1    4    4    0    0  0.87512010801E-01 -0.78749973723E+00 -0.66486922564E+02  0.66491643732E+02  0.00000000000E+00 0.  1.
<mgrwt>
<rscale>  0 0.90868686E+02</rscale>
<asrwt>0</asrwt>
<pdfrwt beam="2">  1        2 0.35068550E+00 0.90868686E+02</pdfrwt>
<pdfrwt beam="1">  1       -2 0.13932337E-03 0.90868686E+02</pdfrwt>
<totfact> 0.17168905E+05</totfact>
</mgrwt>
</event>
<event>
 7    1  0.3056193E-009  0.9149739E+02  0.7818608E-02  0.1299266E+00
          2   -1    0    0  501    0  0.00000000000E+00  0.00000000000E+00  0.50101215421E+02  0.50101215486E+02  0.25500000000E-02 0. -1.
         -2   -1    0    0    0  501 -0.00000000000E+00 -0.00000000000E+00 -0.41774295638E+02  0.41774295716E+02  0.25500000000E-02 0.  1.
         23    2    1    2    0    0  0.00000000000E+00  0.35527136788E-14  0.83269197825E+01  0.91875511202E+02  0.91497387752E+02 0.  0.
    9000005    2    3    3    0    0  0.38522004775E+02 -0.23873525685E+02  0.33696529751E+01  0.46285330518E+02  0.87799304964E+01 0.  0.
         22    1    3    3    0    0 -0.38522004775E+02  0.23873525685E+02  0.49572668074E+01  0.45590180683E+02  0.00000000000E+00 0.  1.
         22    1    4    4    0    0  0.35119386942E+02 -0.20214620918E+02  0.50278305480E+00  0.40524745882E+02  0.00000000000E+00 0.  1.
         22    1    4    4    0    0  0.34026178334E+01 -0.36589047664E+01  0.28668699203E+01  0.57605846361E+01  0.00000000000E+00 0.  1.
<mgrwt>
<rscale>  0 0.91497388E+02</rscale>
<asrwt>0</asrwt>
<pdfrwt beam="1">  1        2 0.77078793E-02 0.91497388E+02</pdfrwt>
<pdfrwt beam="2">  1       -2 0.64268147E-02 0.91497388E+02</pdfrwt>
<totfact> 0.10012212E+05</totfact>
</mgrwt>
</event>
<event>
 7    1  0.3056193E-009  0.9114362E+02  0.7818608E-02  0.1300106E+00
         -2   -1    0    0    0  501 -0.00000000000E+00  0.00000000000E+00  0.46432435332E+02  0.46432435402E+02  0.25500000000E-02 0.  1.
          2   -1    0    0  501    0  0.00000000000E+00 -0.00000000000E+00 -0.44727136882E+02  0.44727136955E+02  0.25500000000E-02 0. -1.
         23    2    1    2    0    0  0.00000000000E+00  0.00000000000E+00  0.17052984494E+01  0.91159572357E+02  0.91143620673E+02 0.  0.
    9000005    2    3    3    0    0  0.37073734289E+02 -0.23013736207E+02 -0.88476376701E+01  0.46265716551E+02  0.12575452571E+02 0.  0.
         22    1    3    3    0    0 -0.37073734289E+02  0.23013736207E+02  0.10552936119E+02  0.44893855805E+02  0.00000000000E+00 0. -1.
         22    1    4    4    0    0  0.18814030434E+02 -0.78226485748E+01 -0.95504433898E+01  0.22502722965E+02  0.00000000000E+00 0. -1.
         22    1    4    4    0    0  0.18259703855E+02 -0.15191087632E+02  0.70280571967E+00  0.23762993587E+02  0.00000000000E+00 0. -1.
<mgrwt>
<rscale>  0 0.91143621E+02</rscale>
<asrwt>0</asrwt>
<pdfrwt beam="2">  1        2 0.68810980E-02 0.91143621E+02</pdfrwt>
<pdfrwt beam="1">  1       -2 0.71434516E-02 0.91143621E+02</pdfrwt>
<totfact> 0.98290510E+04</totfact>
</mgrwt>
</event>
<event>
 7    1  0.3056193E-009  0.9119936E+02  0.7818608E-02  0.1299973E+00
          2   -1    0    0  501    0  0.00000000000E+00  0.00000000000E+00  0.99442414024E+03  0.99442414024E+03  0.25500000000E-02 0. -1.
         -2   -1    0    0    0  501 -0.00000000000E+00 -0.00000000000E+00 -0.20909890352E+01  0.20909905901E+01  0.25500000000E-02 0.  1.
         23    2    1    2    0    0  0.00000000000E+00  0.88817841970E-15  0.99233315121E+03  0.99651513083E+03  0.91199358549E+02 0.  0.
    9000005    2    3    3    0    0 -0.37078860841E+02 -0.47261500613E+01  0.77373692266E+03  0.77474613040E+03  0.12867116200E+02 0.  0.
         22    1    3    3    0    0  0.37078860841E+02  0.47261500613E+01  0.21859622855E+03  0.22176900043E+03  0.00000000000E+00 0.  1.
         22    1    4    4    0    0 -0.18303078324E+01 -0.29872457775E+01  0.12582851509E+03  0.12587727703E+03  0.00000000000E+00 0. -1.
         22    1    4    4    0    0 -0.35248553008E+02 -0.17389042839E+01  0.64790840757E+03  0.64886885337E+03  0.00000000000E+00 0. -1.
<mgrwt>
<rscale>  0 0.91199359E+02</rscale>
<asrwt>0</asrwt>
<pdfrwt beam="1">  1        2 0.15298872E+00 0.91199359E+02</pdfrwt>
<pdfrwt beam="2">  1       -2 0.32168992E-03 0.91199359E+02</pdfrwt>
<totfact> 0.24978789E+05</totfact>
</mgrwt>
</event>
<event>
 7    1  0.3056193E-009  0.9281487E+02  0.7818608E-02  0.1296175E+00
          2   -1    0    0  501    0  0.00000000000E+00  0.00000000000E+00  0.15703313282E+02  0.15703313489E+02  0.25500000000E-02 0. -1.
         -2   -1    0    0    0  501 -0.00000000000E+00 -0.00000000000E+00 -0.13714621799E+03  0.13714621802E+03  0.25500000000E-02 0.  1.
         23    2    1    2    0    0  0.00000000000E+00  0.00000000000E+00 -0.12144290471E+03  0.15284953151E+03  0.92814870451E+02 0.  0.
    9000005    2    3    3    0    0 -0.28102370224E+02 -0.13053588251E+02 -0.11665148548E+03  0.12149515260E+03  0.13905526327E+02 0.  0.
         22    1    3    3    0    0  0.28102370224E+02  0.13053588251E+02 -0.47914192346E+01  0.31354378908E+02  0.00000000000E+00 0. -1.
         22    1    4    4    0    0 -0.21991787443E+02 -0.57678172310E+01 -0.97463813995E+02  0.10008047496E+03  0.00000000000E+00 0.  1.
         22    1    4    4    0    0 -0.61105827808E+01 -0.72857710202E+01 -0.19187671482E+02  0.21414677634E+02  0.00000000000E+00 0.  1.
<mgrwt>
<rscale>  0 0.92814870E+02</rscale>
<asrwt>0</asrwt>
<pdfrwt beam="1">  1        2 0.24158945E-02 0.92814870E+02</pdfrwt>
<pdfrwt beam="2">  1       -2 0.21099417E-01 0.92814870E+02</pdfrwt>
<totfact> 0.68944330E+04</totfact>
</mgrwt>
</event>
<event>
 7    1  0.3056193E-009  0.9048472E+02  0.7818608E-02  0.1301682E+00
         -2   -1    0    0    0  501 -0.00000000000E+00  0.00000000000E+00  0.34782783497E+03  0.34782783497E+03  0.25500000000E-02 0.  1.
          2   -1    0    0  501    0  0.00000000000E+00 -0.00000000000E+00 -0.58847241466E+01  0.58847246990E+01  0.25500000000E-02 0. -1.
         23    2    1    2    0    0  0.00000000000E+00  0.00000000000E+00  0.34194311082E+03  0.35371255967E+03  0.90484716027E+02 0.  0.
    9000005    2    3    3    0    0  0.40317517753E+02 -0.17005650962E+02  0.14834156827E+03  0.15522766937E+03  0.13255717945E+02 0.  0.
         22    1    3    3    0    0 -0.40317517753E+02  0.17005650962E+02  0.19360154255E+03  0.19848489031E+03  0.00000000000E+00 0. -1.
         22    1    4    4    0    0  0.39505595121E+01 -0.17821482802E+01  0.52681336091E+01  0.68217449875E+01  0.00000000000E+00 0.  1.
         22    1    4    4    0    0  0.36366958241E+02 -0.15223502682E+02  0.14307343466E+03  0.14840592438E+03  0.00000000000E+00 0.  1.
<mgrwt>
<rscale>  0 0.90484716E+02</rscale>
<asrwt>0</asrwt>
<pdfrwt beam="2">  1        2 0.90534232E-03 0.90484716E+02</pdfrwt>
<pdfrwt beam="1">  1       -2 0.53511969E-01 0.90484716E+02</pdfrwt>
<totfact> 0.47663743E+04</totfact>
</mgrwt>
</event>
<event>
 7    1  0.3056193E-009  0.8917665E+02  0.7818608E-02  0.1304858E+00
         -2   -1    0    0    0  501 -0.00000000000E+00  0.00000000000E+00  0.23755065980E+02  0.23755066117E+02  0.25500000000E-02 0.  1.
          2   -1    0    0  501    0  0.00000000000E+00 -0.00000000000E+00 -0.83692402992E+02  0.83692403031E+02  0.25500000000E-02 0. -1.
         23    2    1    2    0    0  0.00000000000E+00  0.00000000000E+00 -0.59937337012E+02  0.10744746915E+03  0.89176646372E+02 0.  0.
    9000005    2    3    3    0    0  0.44600075220E+01 -0.41310751923E+02 -0.11580626808E+02  0.43691361100E+02  0.69537202968E+01 0.  0.
         22    1    3    3    0    0 -0.44600075220E+01  0.41310751923E+02 -0.48356710205E+02  0.63756108048E+02  0.00000000000E+00 0. -1.
         22    1    4    4    0    0  0.45712421462E+01 -0.40969415293E+02 -0.10481787664E+02  0.42535363133E+02  0.00000000000E+00 0.  1.
         22    1    4    4    0    0 -0.11123462420E+00 -0.34133662996E+00 -0.10988391434E+01  0.11559979670E+01  0.00000000000E+00 0.  1.
<mgrwt>
<rscale>  0 0.89176646E+02</rscale>
<asrwt>0</asrwt>
<pdfrwt beam="2">  1        2 0.12875754E-01 0.89176646E+02</pdfrwt>
<pdfrwt beam="1">  1       -2 0.36546256E-02 0.89176646E+02</pdfrwt>
<totfact> 0.12372081E+05</totfact>
</mgrwt>
</event>
<event>
 7    1  0.3056193E-009  0.9192542E+02  0.7818608E-02  0.1298255E+00
         -2   -1    0    0    0  501 -0.00000000000E+00  0.00000000000E+00  0.78165553927E+01  0.78165558086E+01  0.25500000000E-02 0. -1.
          2   -1    0    0  501    0  0.00000000000E+00 -0.00000000000E+00 -0.27026876988E+03  0.27026876989E+03  0.25500000000E-02 0.  1.
         23    2    1    2    0    0  0.00000000000E+00 -0.35527136788E-14 -0.26245221448E+03  0.27808532570E+03  0.91925423473E+02 0.  0.
    9000005    2    3    3    0    0 -0.34351690426E+02 -0.27649443755E+02 -0.16866485691E+03  0.17444846538E+03  0.63168618123E+01 0.  0.
         22    1    3    3    0    0  0.34351690426E+02  0.27649443755E+02 -0.93787357578E+02  0.10363686032E+03  0.00000000000E+00 0. -1.
         22    1    4    4    0    0 -0.13264036124E+02 -0.94945472812E+01 -0.74125878185E+02  0.75899452561E+02  0.00000000000E+00 0.  1.
         22    1    4    4    0    0 -0.21087654302E+02 -0.18154896474E+02 -0.94538978721E+02  0.98549012819E+02  0.00000000000E+00 0.  1.
<mgrwt>
<rscale>  0 0.91925423E+02</rscale>
<asrwt>0</asrwt>
<pdfrwt beam="2">  1        2 0.41579804E-01 0.91925423E+02</pdfrwt>
<pdfrwt beam="1">  1       -2 0.12025472E-02 0.91925423E+02</pdfrwt>
<totfact> 0.16905968E+05</totfact>
</mgrwt>
</event>
<event>
 7    1  0.3056193E-009  0.8979897E+02  0.7818608E-02  0.1303339E+00
          2   -1    0    0  501    0  0.00000000000E+00  0.00000000000E+00  0.28534042385E+03  0.28534042387E+03  0.25500000000E-02 0. -1.
         -2   -1    0    0    0  501 -0.00000000000E+00 -0.00000000000E+00 -0.70651178277E+01  0.70651182879E+01  0.25500000000E-02 0.  1.
         23    2    1    2    0    0  0.00000000000E+00  0.17763568394E-14  0.27827530603E+03  0.29240554215E+03  0.89798970696E+02 0.  0.
    9000005    2    3    3    0    0 -0.91506296406E+01  0.13668975785E+02  0.27500732927E+03  0.27563489536E+03  0.86596456945E+01 0.  0.
         22    1    3    3    0    0  0.91506296406E+01 -0.13668975785E+02  0.32679767519E+01  0.16770646794E+02  0.00000000000E+00 0.  1.
         22    1    4    4    0    0 -0.43888753128E+01  0.37442361308E+01  0.45580245196E+02  0.45943881887E+02  0.00000000000E+00 0. -1.
         22    1    4    4    0    0 -0.47617543278E+01  0.99247396539E+01  0.22942708408E+03  0.22969101347E+03  0.00000000000E+00 0. -1.
<mgrwt>
<rscale>  0 0.89798971E+02</rscale>
<asrwt>0</asrwt>
<pdfrwt beam="1">  1        2 0.43898522E-01 0.89798971E+02</pdfrwt>
<pdfrwt beam="2">  1       -2 0.10869414E-02 0.89798971E+02</pdfrwt>
<totfact> 0.18364476E+05</totfact>
</mgrwt>
</event>
<event>
 7    1  0.3056193E-009  0.9182009E+02  0.7818608E-02  0.1298503E+00
          2   -1    0    0  501    0  0.00000000000E+00  0.00000000000E+00  0.13708967575E+03  0.13708967578E+03  0.25500000000E-02 0. -1.
         -2   -1    0    0    0  501 -0.00000000000E+00 -0.00000000000E+00 -0.15374841669E+02  0.15374841881E+02  0.25500000000E-02 0.  1.
         23    2    1    2    0    0  0.00000000000E+00  0.00000000000E+00  0.12171483409E+03  0.15246451766E+03  0.91820086629E+02 0.  0.
    9000005    2    3    3    0    0  0.28078663440E+02 -0.35701171650E+02  0.61509430903E+02  0.77047838005E+02  0.94854759245E+01 0.  0.
         22    1    3    3    0    0 -0.28078663440E+02  0.35701171650E+02  0.60205403182E+02  0.75416679654E+02  0.00000000000E+00 0.  1.
         22    1    4    4    0    0  0.92632815657E+01 -0.79499908110E+01  0.11054243142E+02  0.16468364543E+02  0.00000000000E+00 0. -1.
         22    1    4    4    0    0  0.18815381874E+02 -0.27751180839E+02  0.50455187761E+02  0.60579473462E+02  0.00000000000E+00 0. -1.
<mgrwt>
<rscale>  0 0.91820087E+02</rscale>
<asrwt>0</asrwt>
<pdfrwt beam="1">  1        2 0.21090720E-01 0.91820087E+02</pdfrwt>
<pdfrwt beam="2">  1       -2 0.23653602E-02 0.91820087E+02</pdfrwt>
<totfact> 0.13306543E+05</totfact>
</mgrwt>
</event>
<event>
 7    1  0.3056193E-009  0.8954194E+02  0.7818608E-02  0.1303965E+00
          2   -1    0    0  501    0  0.00000000000E+00  0.00000000000E+00  0.18801559902E+03  0.18801559903E+03  0.25500000000E-02 0.  1.
         -2   -1    0    0    0  501 -0.00000000000E+00 -0.00000000000E+00 -0.10661028766E+02  0.10661029071E+02  0.25500000000E-02 0. -1.
         23    2    1    2    0    0 -0.71054273576E-14  0.00000000000E+00  0.17735457025E+03  0.19867662810E+03  0.89541939705E+02 0.  0.
    9000005    2    3    3    0    0  0.39489961934E+02  0.39463747887E+01  0.49435563328E+02  0.64742676846E+02  0.13141853604E+02 0.  0.
         22    1    3    3    0    0 -0.39489961934E+02 -0.39463747887E+01  0.12791900692E+03  0.13393395126E+03  0.00000000000E+00 0.  1.
         22    1    4    4    0    0  0.39117682920E+02  0.31339584468E+01  0.50092240439E+02  0.63633696772E+02  0.00000000000E+00 0.  1.
         22    1    4    4    0    0  0.37227901388E+00  0.81241634195E+00 -0.65667711155E+00  0.11089800745E+01  0.00000000000E+00 0.  1.
<mgrwt>
<rscale>  0 0.89541940E+02</rscale>
<asrwt>0</asrwt>
<pdfrwt beam="1">  1        2 0.28925475E-01 0.89541940E+02</pdfrwt>
<pdfrwt beam="2">  1       -2 0.16401584E-02 0.89541940E+02</pdfrwt>
<totfact> 0.15882896E+05</totfact>
</mgrwt>
</event>
<event>
 7    1  0.3056193E-009  0.9111568E+02  0.7818608E-02  0.1300172E+00
         -2   -1    0    0    0  501 -0.00000000000E+00  0.00000000000E+00  0.77857414498E+02  0.77857414540E+02  0.25500000000E-02 0. -1.
          2   -1    0    0  501    0  0.00000000000E+00 -0.00000000000E+00 -0.26657921527E+02  0.26657921649E+02  0.25500000000E-02 0.  1.
         23    2    1    2    0    0  0.00000000000E+00  0.00000000000E+00  0.51199492971E+02  0.10451533619E+03  0.91115681516E+02 0.  0.
    9000005    2    3    3    0    0 -0.81407088836E+01 -0.22684264162E+02 -0.18047850475E+02  0.31193841686E+02  0.81537642044E+01 0.  0.
         22    1    3    3    0    0  0.81407088836E+01  0.22684264162E+02  0.69247343446E+02  0.73321494502E+02  0.00000000000E+00 0. -1.
         22    1    4    4    0    0 -0.20444977734E+01 -0.23170375525E+01  0.30884412283E+00  0.31054820652E+01  0.00000000000E+00 0.  1.
         22    1    4    4    0    0 -0.60962111102E+01 -0.20367226609E+02 -0.18356694598E+02  0.28088359621E+02  0.00000000000E+00 0.  1.
<mgrwt>
<rscale>  0 0.91115682E+02</rscale>
<asrwt>0</asrwt>
<pdfrwt beam="2">  1        2 0.41012188E-02 0.91115682E+02</pdfrwt>
<pdfrwt beam="1">  1       -2 0.11978064E-01 0.91115682E+02</pdfrwt>
<totfact> 0.85858026E+04</totfact>
</mgrwt>
</event>
<event>
 7    1  0.3056193E-009  0.9224325E+02  0.7818608E-02  0.1297508E+00
          2   -1    0    0  501    0  0.00000000000E+00  0.00000000000E+00  0.11728799211E+03  0.11728799214E+03  0.25500000000E-02 0. -1.
         -2   -1    0    0    0  501 -0.00000000000E+00 -0.00000000000E+00 -0.18136591128E+02  0.18136591308E+02  0.25500000000E-02 0.  1.
         23    2    1    2    0    0  0.00000000000E+00  0.00000000000E+00  0.99151400986E+02  0.13542458345E+03  0.92243251705E+02 0.  0.
    9000005    2    3    3    0    0  0.38876605610E+02  0.20191756062E+02  0.69293053757E+02  0.82409317952E+02  0.84065991759E+01 0.  0.
         22    1    3    3    0    0 -0.38876605610E+02 -0.20191756062E+02  0.29858347229E+02  0.53015265498E+02  0.00000000000E+00 0. -1.
         22    1    4    4    0    0  0.21117015322E+01  0.39699942944E-01  0.70760038040E+01  0.73844897780E+01  0.00000000000E+00 0. -1.
         22    1    4    4    0    0  0.36764904078E+02  0.20152056119E+02  0.62217049953E+02  0.75024828174E+02  0.00000000000E+00 0. -1.
<mgrwt>
<rscale>  0 0.92243252E+02</rscale>
<asrwt>0</asrwt>
<pdfrwt beam="1">  1        2 0.18044306E-01 0.92243252E+02</pdfrwt>
<pdfrwt beam="2">  1       -2 0.27902449E-02 0.92243252E+02</pdfrwt>
<totfact> 0.12487600E+05</totfact>
</mgrwt>
</event>
<event>
 7    1  0.3056193E-009  0.9644091E+02  0.7818608E-02  0.1287963E+00
          2   -1    0    0  501    0  0.00000000000E+00  0.00000000000E+00  0.44225018579E+02  0.44225018653E+02  0.25500000000E-02 0. -1.
         -2   -1    0    0    0  501 -0.00000000000E+00 -0.00000000000E+00 -0.52576848951E+02  0.52576849013E+02  0.25500000000E-02 0.  1.
         23    2    1    2    0    0  0.00000000000E+00  0.00000000000E+00 -0.83518303717E+01  0.96801867665E+02  0.96440906844E+02 0.  0.
    9000005    2    3    3    0    0  0.28461105324E+02  0.36726092760E+02 -0.12066881992E+02  0.50190259517E+02  0.14649645171E+02 0.  0.
         22    1    3    3    0    0 -0.28461105324E+02 -0.36726092760E+02  0.37150516204E+01  0.46611608149E+02  0.00000000000E+00 0. -1.
         22    1    4    4    0    0  0.24209042652E+02  0.36006556461E+02 -0.13818326987E+02  0.45535656523E+02  0.00000000000E+00 0.  1.
         22    1    4    4    0    0  0.42520626723E+01  0.71953629884E+00  0.17514449946E+01  0.46546029931E+01  0.00000000000E+00 0.  1.
<mgrwt>
<rscale>  0 0.96440907E+02</rscale>
<asrwt>0</asrwt>
<pdfrwt beam="1">  1        2 0.68038490E-02 0.96440907E+02</pdfrwt>
<pdfrwt beam="2">  1       -2 0.80887460E-02 0.96440907E+02</pdfrwt>
<totfact> 0.83217115E+04</totfact>
</mgrwt>
</event>
<event>
 7    1  0.3056193E-009  0.9114353E+02  0.7818608E-02  0.1300106E+00
         -2   -1    0    0    0  501 -0.00000000000E+00  0.00000000000E+00  0.15407184311E+02  0.15407184522E+02  0.25500000000E-02 0.  1.
          2   -1    0    0  501    0  0.00000000000E+00 -0.00000000000E+00 -0.13479332124E+03  0.13479332126E+03  0.25500000000E-02 0. -1.
         23    2    1    2    0    0  0.00000000000E+00  0.00000000000E+00 -0.11938613693E+03  0.15020050578E+03  0.91143525537E+02 0.  0.
    9000005    2    3    3    0    0 -0.17980461303E+02 -0.22502391842E+01 -0.12835025130E+03  0.12998378222E+03  0.96765730746E+01 0.  0.
         22    1    3    3    0    0  0.17980461303E+02  0.22502391842E+01  0.89641143743E+01  0.20216723562E+02  0.00000000000E+00 0.  1.
         22    1    4    4    0    0 -0.15179170948E+02  0.21394554166E+01 -0.94421220440E+02  0.95657468969E+02  0.00000000000E+00 0.  1.
         22    1    4    4    0    0 -0.28012903558E+01 -0.43896946008E+01 -0.33929030861E+02  0.34326313253E+02  0.00000000000E+00 0.  1.
<mgrwt>
<rscale>  0 0.91143526E+02</rscale>
<asrwt>0</asrwt>
<pdfrwt beam="2">  1        2 0.20737433E-01 0.91143526E+02</pdfrwt>
<pdfrwt beam="1">  1       -2 0.23703362E-02 0.91143526E+02</pdfrwt>
<totfact> 0.13501552E+05</totfact>
</mgrwt>
</event>
<event>
 7    1  0.3056193E-009  0.9101131E+02  0.7818608E-02  0.1300421E+00
         -2   -1    0    0    0  501 -0.00000000000E+00  0.00000000000E+00  0.35263167656E+03  0.35263167656E+03  0.25500000000E-02 0.  1.
          2   -1    0    0  501    0  0.00000000000E+00 -0.00000000000E+00 -0.58723159157E+01  0.58723164694E+01  0.25500000000E-02 0. -1.
         23    2    1    2    0    0 -0.71054273576E-14 -0.66613381478E-15  0.34675936064E+03  0.35850399303E+03  0.91011311550E+02 0.  0.
    9000005    2    3    3    0    0 -0.40360364167E+02 -0.17683026389E+01  0.10323625667E+03  0.11165264493E+03  0.13285425864E+02 0.  0.
         22    1    3    3    0    0  0.40360364167E+02  0.17683026389E+01  0.24352310397E+03  0.24685134810E+03  0.00000000000E+00 0.  1.
         22    1    4    4    0    0 -0.38306695313E+01  0.29648762240E+01  0.20874059728E+02  0.21428739805E+02  0.00000000000E+00 0. -1.
         22    1    4    4    0    0 -0.36529694635E+02 -0.47331788629E+01  0.82362196937E+02  0.90223905128E+02  0.00000000000E+00 0. -1.
<mgrwt>
<rscale>  0 0.91011312E+02</rscale>
<asrwt>0</asrwt>
<pdfrwt beam="2">  1        2 0.90343317E-03 0.91011312E+02</pdfrwt>
<pdfrwt beam="1">  1       -2 0.54251032E-01 0.91011312E+02</pdfrwt>
<totfact> 0.46557068E+04</totfact>
</mgrwt>
</event>
<event>
 7    1  0.3056193E-009  0.9312662E+02  0.7818608E-02  0.1295452E+00
          2   -1    0    0  501    0  0.00000000000E+00  0.00000000000E+00  0.14733431218E+04  0.14733431218E+04  0.25500000000E-02 0.  1.
         -2   -1    0    0    0  501 -0.00000000000E+00 -0.00000000000E+00 -0.14715785416E+01  0.14715807509E+01  0.25500000000E-02 0. -1.
         23    2    1    2    0    0 -0.35527136788E-14  0.00000000000E+00  0.14718715432E+04  0.14748147025E+04  0.93126618175E+02 0.  0.
    9000005    2    3    3    0    0  0.27264931717E+02 -0.25981374225E+01  0.13286567869E+04  0.13290045751E+04  0.13197595529E+02 0.  0.
         22    1    3    3    0    0 -0.27264931717E+02  0.25981374225E+01  0.14321475635E+03  0.14581012742E+03  0.00000000000E+00 0. -1.
         22    1    4    4    0    0  0.18938185720E+02  0.44194784903E+01  0.80898153960E+03  0.80921524830E+03  0.00000000000E+00 0.  1.
         22    1    4    4    0    0  0.83267459977E+01 -0.70176159128E+01  0.51967524727E+03  0.51978932680E+03  0.00000000000E+00 0.  1.
<mgrwt>
<rscale>  0 0.93126618E+02</rscale>
<asrwt>0</asrwt>
<pdfrwt beam="1">  1        2 0.22666871E+00 0.93126618E+02</pdfrwt>
<pdfrwt beam="2">  1       -2 0.22639633E-03 0.93126618E+02</pdfrwt>
<totfact> 0.22462747E+05</totfact>
</mgrwt>
</event>
<event>
 7    1  0.3056193E-009  0.9193737E+02  0.7818608E-02  0.1298227E+00
          2   -1    0    0  501    0  0.00000000000E+00  0.00000000000E+00  0.23270201614E+02  0.23270201753E+02  0.25500000000E-02 0. -1.
         -2   -1    0    0    0  501 -0.00000000000E+00 -0.00000000000E+00 -0.90807978843E+02  0.90807978878E+02  0.25500000000E-02 0.  1.
         23    2    1    2    0    0  0.00000000000E+00  0.00000000000E+00 -0.67537777229E+02  0.11407818063E+03  0.91937369678E+02 0.  0.
    9000005    2    3    3    0    0  0.54577160342E+01  0.19404605412E+02 -0.84858681454E+02  0.87501139813E+02  0.70091565110E+01 0.  0.
         22    1    3    3    0    0 -0.54577160342E+01 -0.19404605412E+02  0.17320904225E+02  0.26577040819E+02  0.00000000000E+00 0. -1.
         22    1    4    4    0    0  0.80955838877E-01  0.93363449552E+01 -0.48587059282E+02  0.49476016620E+02  0.00000000000E+00 0.  1.
         22    1    4    4    0    0  0.53767601954E+01  0.10068260457E+02 -0.36271622172E+02  0.38025123193E+02  0.00000000000E+00 0.  1.
<mgrwt>
<rscale>  0 0.91937370E+02</rscale>
<asrwt>0</asrwt>
<pdfrwt beam="1">  1        2 0.35800311E-02 0.91937370E+02</pdfrwt>
<pdfrwt beam="2">  1       -2 0.13970458E-01 0.91937370E+02</pdfrwt>
<totfact> 0.80420846E+04</totfact>
</mgrwt>
</event>
<event>
 7    1  0.3056193E-009  0.9214103E+02  0.7818608E-02  0.1297748E+00
          2   -1    0    0  501    0  0.00000000000E+00  0.00000000000E+00  0.37041383551E+03  0.37041383551E+03  0.25500000000E-02 0. -1.
         -2   -1    0    0    0  501 -0.00000000000E+00 -0.00000000000E+00 -0.57300560866E+01  0.57300566540E+01  0.25500000000E-02 0.  1.
         23    2    1    2    0    0  0.35527136788E-14 -0.17763568394E-14  0.36468377942E+03  0.37614389217E+03  0.92141025847E+02 0.  0.
    9000005    2    3    3    0    0  0.20404509551E+02 -0.15624003345E+02  0.33728702417E+03  0.33858013718E+03  0.14612293764E+02 0.  0.
         22    1    3    3    0    0 -0.20404509551E+02  0.15624003345E+02  0.27396755244E+02  0.37563754983E+02  0.00000000000E+00 0.  1.
         22    1    4    4    0    0  0.21023517214E+02 -0.16386666062E+02  0.27576219686E+03  0.27704746943E+03  0.00000000000E+00 0. -1.
         22    1    4    4    0    0 -0.61900766308E+00  0.76266271704E+00  0.61524827311E+02  0.61532667751E+02  0.00000000000E+00 0. -1.
<mgrwt>
<rscale>  0 0.92141026E+02</rscale>
<asrwt>0</asrwt>
<pdfrwt beam="1">  1        2 0.56986730E-01 0.92141026E+02</pdfrwt>
<pdfrwt beam="2">  1       -2 0.88154734E-03 0.92141026E+02</pdfrwt>
<totfact> 0.18880392E+05</totfact>
</mgrwt>
</event>
<event>
 7    1  0.3056193E-009  0.9278689E+02  0.7818608E-02  0.1296240E+00
         -2   -1    0    0    0  501 -0.00000000000E+00  0.00000000000E+00  0.13000973547E+02  0.13000973797E+02  0.25500000000E-02 0.  1.
          2   -1    0    0  501    0  0.00000000000E+00 -0.00000000000E+00 -0.16555310252E+03  0.16555310254E+03  0.25500000000E-02 0. -1.
         23    2    1    2    0    0 -0.88817841970E-15  0.00000000000E+00 -0.15255212897E+03  0.17855407634E+03  0.92786885509E+02 0.  0.
    9000005    2    3    3    0    0 -0.57516823686E+01  0.15793480558E+02 -0.15942041377E+03  0.16039673033E+03  0.54522376988E+01 0.  0.
         22    1    3    3    0    0  0.57516823686E+01 -0.15793480558E+02  0.68682847916E+01  0.18157346012E+02  0.00000000000E+00 0.  1.
         22    1    4    4    0    0 -0.59227021190E+01  0.15755048562E+02 -0.14475430377E+03  0.14572957290E+03  0.00000000000E+00 0.  1.
         22    1    4    4    0    0  0.17101975043E+00  0.38431996259E-01 -0.14666109992E+02  0.14667157430E+02  0.00000000000E+00 0.  1.
<mgrwt>
<rscale>  0 0.92786886E+02</rscale>
<asrwt>0</asrwt>
<pdfrwt beam="2">  1        2 0.25469707E-01 0.92786886E+02</pdfrwt>
<pdfrwt beam="1">  1       -2 0.20001499E-02 0.92786886E+02</pdfrwt>
<totfact> 0.13793199E+05</totfact>
</mgrwt>
</event>
<event>
 7    1  0.3056193E-009  0.8870651E+02  0.7818608E-02  0.1306015E+00
          2   -1    0    0  501    0  0.00000000000E+00  0.00000000000E+00  0.46454913415E+02  0.46454913485E+02  0.25500000000E-02 0. -1.
         -2   -1    0    0    0  501 -0.00000000000E+00 -0.00000000000E+00 -0.42346679406E+02  0.42346679483E+02  0.25500000000E-02 0.  1.
         23    2    1    2    0    0  0.00000000000E+00  0.88817841970E-15  0.41082340088E+01  0.88801592968E+02  0.88706512314E+02 0.  0.
    9000005    2    3    3    0    0  0.23429201423E+02 -0.65914774887E+01 -0.33920347635E+02  0.43651309727E+02  0.12746442735E+02 0.  0.
         22    1    3    3    0    0 -0.23429201423E+02  0.65914774887E+01  0.38028581644E+02  0.45150283240E+02  0.00000000000E+00 0. -1.
         22    1    4    4    0    0  0.27761135356E+00 -0.41892974455E+01 -0.51390056327E+01  0.66360123601E+01  0.00000000000E+00 0.  1.
         22    1    4    4    0    0  0.23151590070E+02 -0.24021800432E+01 -0.28781342003E+02  0.37015297367E+02  0.00000000000E+00 0.  1.
<mgrwt>
<rscale>  0 0.88706512E+02</rscale>
<asrwt>0</asrwt>
<pdfrwt beam="1">  1        2 0.71469098E-02 0.88706512E+02</pdfrwt>
<pdfrwt beam="2">  1       -2 0.65148738E-02 0.88706512E+02</pdfrwt>
<totfact> 0.10724977E+05</totfact>
</mgrwt>
</event>
<event>
 7    1  0.3056193E-009  0.9100414E+02  0.7818608E-02  0.1300438E+00
         -2   -1    0    0    0  501 -0.00000000000E+00  0.00000000000E+00  0.14247157057E+01  0.14247179877E+01  0.25500000000E-02 0.  1.
          2   -1    0    0  501    0  0.00000000000E+00 -0.00000000000E+00 -0.14532280192E+04  0.14532280192E+04  0.25500000000E-02 0. -1.
         23    2    1    2    0    0  0.00000000000E+00  0.00000000000E+00 -0.14518033035E+04  0.14546527372E+04  0.91004141538E+02 0.  0.
    9000005    2    3    3    0    0  0.18541989400E+02 -0.29767597000E+01 -0.13880487138E+04  0.13881898590E+04  0.62598957367E+01 0.  0.
         22    1    3    3    0    0 -0.18541989400E+02  0.29767597000E+01 -0.63754589650E+02  0.66462878140E+02  0.00000000000E+00 0.  1.
         22    1    4    4    0    0 -0.17111763766E+00  0.19586078190E+00 -0.10915809534E+03  0.10915840518E+03  0.00000000000E+00 0. -1.
         22    1    4    4    0    0  0.18713107038E+02 -0.31726204819E+01 -0.12788906185E+04  0.12790314539E+04  0.00000000000E+00 0. -1.
<mgrwt>
<rscale>  0 0.91004142E+02</rscale>
<asrwt>0</asrwt>
<pdfrwt beam="2">  1        2 0.22357236E+00 0.91004142E+02</pdfrwt>
<pdfrwt beam="1">  1       -2 0.21918837E-03 0.91004142E+02</pdfrwt>
<totfact> 0.23983337E+05</totfact>
</mgrwt>
</event>
<event>
 7    1  0.3056193E-009  0.8928754E+02  0.7818608E-02  0.1304586E+00
          2   -1    0    0  501    0  0.00000000000E+00  0.00000000000E+00  0.20156970130E+02  0.20156970292E+02  0.25500000000E-02 0.  1.
         -2   -1    0    0    0  501 -0.00000000000E+00 -0.00000000000E+00 -0.98877277136E+02  0.98877277169E+02  0.25500000000E-02 0. -1.
         23    2    1    2    0    0  0.00000000000E+00  0.00000000000E+00 -0.78720307006E+02  0.11903424746E+03  0.89287542992E+02 0.  0.
    9000005    2    3    3    0    0  0.61046312829E+01  0.42481163933E+02 -0.51489024503E+02  0.68206513310E+02  0.12613207416E+02 0.  0.
         22    1    3    3    0    0 -0.61046312829E+01 -0.42481163933E+02 -0.27231282502E+02  0.50827734151E+02  0.00000000000E+00 0.  1.
         22    1    4    4    0    0  0.24588785868E+01  0.30999888328E+02 -0.28167820053E+02  0.41957898503E+02  0.00000000000E+00 0.  1.
         22    1    4    4    0    0  0.36457526961E+01  0.11481275605E+02 -0.23321204450E+02  0.26248614806E+02  0.00000000000E+00 0.  1.
<mgrwt>
<rscale>  0 0.89287543E+02</rscale>
<asrwt>0</asrwt>
<pdfrwt beam="1">  1        2 0.31010724E-02 0.89287543E+02</pdfrwt>
<pdfrwt beam="2">  1       -2 0.15211889E-01 0.89287543E+02</pdfrwt>
<totfact> 0.84352194E+04</totfact>
</mgrwt>
</event>
<event>
 7    1  0.3056193E-009  0.8941512E+02  0.7818608E-02  0.1304274E+00
          2   -1    0    0  501    0  0.00000000000E+00  0.00000000000E+00  0.25940603758E+03  0.25940603759E+03  0.25500000000E-02 0. -1.
         -2   -1    0    0    0  501 -0.00000000000E+00 -0.00000000000E+00 -0.77051626641E+01  0.77051630861E+01  0.25500000000E-02 0.  1.
         23    2    1    2    0    0  0.00000000000E+00  0.00000000000E+00  0.25170087492E+03  0.26711120068E+03  0.89415116701E+02 0.  0.
    9000005    2    3    3    0    0  0.26496437354E+02 -0.35673271073E+02  0.12172192507E+03  0.12974610007E+03  0.65711475240E+01 0.  0.
         22    1    3    3    0    0 -0.26496437354E+02  0.35673271073E+02  0.12997894985E+03  0.13736510061E+03  0.00000000000E+00 0.  1.
         22    1    4    4    0    0  0.23084489652E+01 -0.72948418359E+00  0.64019994915E+01  0.68444635500E+01  0.00000000000E+00 0.  1.
         22    1    4    4    0    0  0.24187988389E+02 -0.34943786890E+02  0.11531992557E+03  0.12290163652E+03  0.00000000000E+00 0.  1.
<mgrwt>
<rscale>  0 0.89415117E+02</rscale>
<asrwt>0</asrwt>
<pdfrwt beam="1">  1        2 0.39908618E-01 0.89415117E+02</pdfrwt>
<pdfrwt beam="2">  1       -2 0.11854098E-02 0.89415117E+02</pdfrwt>
<totfact> 0.17928207E+05</totfact>
</mgrwt>
</event>
<event>
 7    1  0.3056193E-009  0.8946630E+02  0.7818608E-02  0.1304149E+00
         -2   -1    0    0    0  501 -0.00000000000E+00  0.00000000000E+00  0.34423543934E+02  0.34423544029E+02  0.25500000000E-02 0.  1.
          2   -1    0    0  501    0  0.00000000000E+00 -0.00000000000E+00 -0.58130404127E+02  0.58130404183E+02  0.25500000000E-02 0. -1.
         23    2    1    2    0    0 -0.88817841970E-15  0.00000000000E+00 -0.23706860193E+02  0.92553948211E+02  0.89466295940E+02 0.  0.
    9000005    2    3    3    0    0  0.50979077626E+01 -0.11784918045E+02  0.31793227787E+02  0.35587881798E+02  0.95296925903E+01 0.  0.
         22    1    3    3    0    0 -0.50979077626E+01  0.11784918045E+02 -0.55500087980E+02  0.56966066414E+02  0.00000000000E+00 0. -1.
         22    1    4    4    0    0 -0.26623692460E+01 -0.21672317114E+01  0.94577218553E+01  0.10061491241E+02  0.00000000000E+00 0. -1.
         22    1    4    4    0    0  0.77602770085E+01 -0.96176863335E+01  0.22335505932E+02  0.25526390557E+02  0.00000000000E+00 0. -1.
<mgrwt>
<rscale>  0 0.89466296E+02</rscale>
<asrwt>0</asrwt>
<pdfrwt beam="2">  1        2 0.89431391E-02 0.89466296E+02</pdfrwt>
<pdfrwt beam="1">  1       -2 0.52959299E-02 0.89466296E+02</pdfrwt>
<totfact> 0.11094167E+05</totfact>
</mgrwt>
</event>
<event>
 7    1  0.3056193E-009  0.9143099E+02  0.7818608E-02  0.1299423E+00
          2   -1    0    0  501    0  0.00000000000E+00  0.00000000000E+00  0.49002804105E+03  0.49002804106E+03  0.25500000000E-02 0. -1.
         -2   -1    0    0    0  501 -0.00000000000E+00 -0.00000000000E+00 -0.42648704864E+01  0.42648712488E+01  0.25500000000E-02 0.  1.
         23    2    1    2    0    0  0.17763568394E-14  0.00000000000E+00  0.48576317056E+03  0.49429291231E+03  0.91430986429E+02 0.  0.
    9000005    2    3    3    0    0  0.12293922548E+02 -0.67795504564E+01  0.47807781816E+03  0.47828767948E+03  0.18977088882E+01 0.  0.
         22    1    3    3    0    0 -0.12293922548E+02  0.67795504564E+01  0.76853524093E+01  0.16005232821E+02  0.00000000000E+00 0.  1.
         22    1    4    4    0    0  0.94024739275E+01 -0.58372317826E+01  0.39183737489E+03  0.39199363280E+03  0.00000000000E+00 0.  1.
         22    1    4    4    0    0  0.28914486207E+01 -0.94231867385E+00  0.86240443263E+02  0.86294046689E+02  0.00000000000E+00 0.  1.
<mgrwt>
<rscale>  0 0.91430986E+02</rscale>
<asrwt>0</asrwt>
<pdfrwt beam="1">  1        2 0.75388921E-01 0.91430986E+02</pdfrwt>
<pdfrwt beam="2">  1       -2 0.65613406E-03 0.91430986E+02</pdfrwt>
<totfact> 0.21251003E+05</totfact>
</mgrwt>
</event>
<event>
 7    1  0.3056193E-009  0.9162237E+02  0.7818608E-02  0.1298970E+00
         -2   -1    0    0    0  501 -0.00000000000E+00  0.00000000000E+00  0.25638763087E+02  0.25638763214E+02  0.25500000000E-02 0.  1.
          2   -1    0    0  501    0  0.00000000000E+00 -0.00000000000E+00 -0.81855137843E+02  0.81855137883E+02  0.25500000000E-02 0. -1.
         23    2    1    2    0    0  0.00000000000E+00  0.00000000000E+00 -0.56216374756E+02  0.10749390110E+03  0.91622366168E+02 0.  0.
    9000005    2    3    3    0    0  0.73217590220E+01  0.27521468790E+02 -0.70192983322E+02  0.75770329630E+02  0.17460083183E+01 0.  0.
         22    1    3    3    0    0 -0.73217590220E+01 -0.27521468790E+02  0.13976608566E+02  0.31723571466E+02  0.00000000000E+00 0.  1.
         22    1    4    4    0    0  0.53440717222E+01  0.17982482303E+02 -0.47841924806E+02  0.51388505928E+02  0.00000000000E+00 0.  1.
         22    1    4    4    0    0  0.19776872998E+01  0.95389864868E+01 -0.22351058516E+02  0.24381823702E+02  0.00000000000E+00 0.  1.
<mgrwt>
<rscale>  0 0.91622366E+02</rscale>
<asrwt>0</asrwt>
<pdfrwt beam="2">  1        2 0.12593098E-01 0.91622366E+02</pdfrwt>
<pdfrwt beam="1">  1       -2 0.39444251E-02 0.91622366E+02</pdfrwt>
<totfact> 0.11405744E+05</totfact>
</mgrwt>
</event>
<event>
 7    1  0.3056193E-009  0.9124276E+02  0.7818608E-02  0.1299870E+00
         -2   -1    0    0    0  501 -0.00000000000E+00  0.00000000000E+00  0.10446561708E+02  0.10446562019E+02  0.25500000000E-02 0. -1.
          2   -1    0    0  501    0  0.00000000000E+00 -0.00000000000E+00 -0.19923399684E+03  0.19923399686E+03  0.25500000000E-02 0.  1.
         23    2    1    2    0    0  0.17763568394E-14  0.35527136788E-14 -0.18878743513E+03  0.20968055888E+03  0.91242759200E+02 0.  0.
    9000005    2    3    3    0    0  0.10601689521E+02  0.14263845875E+02 -0.19062058436E+03  0.19181401036E+03  0.11855558611E+02 0.  0.
         22    1    3    3    0    0 -0.10601689521E+02 -0.14263845875E+02  0.18331492225E+01  0.17866548517E+02  0.00000000000E+00 0. -1.
         22    1    4    4    0    0  0.12385858811E+02  0.13136824567E+02 -0.14137753389E+03  0.14252576170E+03  0.00000000000E+00 0.  1.
         22    1    4    4    0    0 -0.17841692904E+01  0.11270213084E+01 -0.49243050462E+02  0.49288248659E+02  0.00000000000E+00 0.  1.
<mgrwt>
<rscale>  0 0.91242759E+02</rscale>
<asrwt>0</asrwt>
<pdfrwt beam="2">  1        2 0.30651381E-01 0.91242759E+02</pdfrwt>
<pdfrwt beam="1">  1       -2 0.16071635E-02 0.91242759E+02</pdfrwt>
<totfact> 0.15416465E+05</totfact>
</mgrwt>
</event>
<event>
 7    1  0.3056193E-009  0.8986349E+02  0.7818608E-02  0.1303183E+00
         -2   -1    0    0    0  501 -0.00000000000E+00  0.00000000000E+00  0.88702122012E+02  0.88702122049E+02  0.25500000000E-02 0.  1.
          2   -1    0    0  501    0  0.00000000000E+00 -0.00000000000E+00 -0.22760015740E+02  0.22760015883E+02  0.25500000000E-02 0. -1.
         23    2    1    2    0    0  0.00000000000E+00  0.00000000000E+00  0.65942106272E+02  0.11146213793E+03  0.89863489876E+02 0.  0.
    9000005    2    3    3    0    0  0.36149297734E+02  0.62163755339E+01  0.15171647480E+01  0.37327205937E+02  0.67530335927E+01 0.  0.
         22    1    3    3    0    0 -0.36149297734E+02 -0.62163755339E+01  0.64424941524E+02  0.74134931995E+02  0.00000000000E+00 0.  1.
         22    1    4    4    0    0  0.16602057796E+02  0.27035445757E+00  0.28717373312E+01  0.16850765262E+02  0.00000000000E+00 0.  1.
         22    1    4    4    0    0  0.19547239938E+02  0.59460210763E+01 -0.13545725833E+01  0.20476440675E+02  0.00000000000E+00 0.  1.
<mgrwt>
<rscale>  0 0.89863490E+02</rscale>
<asrwt>0</asrwt>
<pdfrwt beam="2">  1        2 0.35015408E-02 0.89863490E+02</pdfrwt>
<pdfrwt beam="1">  1       -2 0.13646481E-01 0.89863490E+02</pdfrwt>
<totfact> 0.85663824E+04</totfact>
</mgrwt>
</event>
<event>
 7    1  0.3056193E-009  0.9126239E+02  0.7818608E-02  0.1299823E+00
         -2   -1    0    0    0  501 -0.00000000000E+00  0.00000000000E+00  0.48771148261E+02  0.48771148328E+02  0.25500000000E-02 0.  1.
          2   -1    0    0  501    0  0.00000000000E+00 -0.00000000000E+00 -0.42693393358E+02  0.42693393434E+02  0.25500000000E-02 0. -1.
         23    2    1    2    0    0  0.00000000000E+00  0.00000000000E+00  0.60777549034E+01  0.91464541761E+02  0.91262387077E+02 0.  0.
    9000005    2    3    3    0    0  0.19593592001E+02  0.10141089840E+01  0.44256883007E+02  0.48539221876E+02  0.35280451054E+01 0.  0.
         22    1    3    3    0    0 -0.19593592001E+02 -0.10141089840E+01 -0.38179128104E+02  0.42925319886E+02  0.00000000000E+00 0. -1.
         22    1    4    4    0    0  0.17878772677E+02  0.12230299720E+01  0.37454449497E+02  0.41520863453E+02  0.00000000000E+00 0.  1.
         22    1    4    4    0    0  0.17148193240E+01 -0.20892098799E+00  0.68024335096E+01  0.70183584225E+01  0.00000000000E+00 0.  1.
<mgrwt>
<rscale>  0 0.91262387E+02</rscale>
<asrwt>0</asrwt>
<pdfrwt beam="2">  1        2 0.65682144E-02 0.91262387E+02</pdfrwt>
<pdfrwt beam="1">  1       -2 0.75032535E-02 0.91262387E+02</pdfrwt>
<totfact> 0.96748641E+04</totfact>
</mgrwt>
</event>
<event>
 7    1  0.3056193E-009  0.1044236E+03  0.7818608E-02  0.1271259E+00
          2   -1    0    0  501    0  0.00000000000E+00  0.00000000000E+00  0.11096564145E+02  0.11096564438E+02  0.25500000000E-02 0. -1.
         -2   -1    0    0    0  501 -0.00000000000E+00 -0.00000000000E+00 -0.24566805655E+03  0.24566805656E+03  0.25500000000E-02 0.  1.
         23    2    1    2    0    0 -0.71054273576E-14  0.00000000000E+00 -0.23457149240E+03  0.25676462100E+03  0.10442358713E+03 0.  0.
    9000005    2    3    3    0    0 -0.32561908618E+02 -0.35882954601E+02 -0.16265450975E+03  0.17004716764E+03  0.10568129216E+02 0.  0.
         22    1    3    3    0    0  0.32561908618E+02  0.35882954601E+02 -0.71916982649E+02  0.86717453359E+02  0.00000000000E+00 0.  1.
         22    1    4    4    0    0 -0.53765796090E+01 -0.11866277820E+02 -0.51564476157E+02  0.53184691020E+02  0.00000000000E+00 0.  1.
         22    1    4    4    0    0 -0.27185329009E+02 -0.24016676781E+02 -0.11109003360E+03  0.11686247662E+03  0.00000000000E+00 0.  1.
<mgrwt>
<rscale>  0 0.10442359E+03</rscale>
<asrwt>0</asrwt>
<pdfrwt beam="1">  1        2 0.17071639E-02 0.10442359E+03</pdfrwt>
<pdfrwt beam="2">  1       -2 0.37795081E-01 0.10442359E+03</pdfrwt>
<totfact> 0.39972846E+04</totfact>
</mgrwt>
</event>
<event>
 7    1  0.3056193E-009  0.9133157E+02  0.7818608E-02  0.1299659E+00
          2   -1    0    0  501    0  0.00000000000E+00  0.00000000000E+00  0.19681044890E+03  0.19681044892E+03  0.25500000000E-02 0. -1.
         -2   -1    0    0    0  501 -0.00000000000E+00 -0.00000000000E+00 -0.10595798232E+02  0.10595798538E+02  0.25500000000E-02 0.  1.
         23    2    1    2    0    0  0.00000000000E+00  0.00000000000E+00  0.18621465067E+03  0.20740624746E+03  0.91331568254E+02 0.  0.
    9000005    2    3    3    0    0  0.36973112382E+02 -0.22279636869E+02  0.66733634374E+02  0.80366464265E+02  0.11916264662E+02 0.  0.
         22    1    3    3    0    0 -0.36973112382E+02  0.22279636869E+02  0.11948101630E+03  0.12703978319E+03  0.00000000000E+00 0. -1.
         22    1    4    4    0    0  0.33406996117E+02 -0.23221772553E+02  0.57632594825E+02  0.70546396764E+02  0.00000000000E+00 0.  1.
         22    1    4    4    0    0  0.35661162648E+01  0.94213568399E+00  0.91010395491E+01  0.98200675016E+01  0.00000000000E+00 0.  1.
<mgrwt>
<rscale>  0 0.91331568E+02</rscale>
<asrwt>0</asrwt>
<pdfrwt beam="1">  1        2 0.30278528E-01 0.91331568E+02</pdfrwt>
<pdfrwt beam="2">  1       -2 0.16301230E-02 0.91331568E+02</pdfrwt>
<totfact> 0.15308277E+05</totfact>
</mgrwt>
</event>
<event>
 7    1  0.3056193E-009  0.8894307E+02  0.7818608E-02  0.1305432E+00
          2   -1    0    0  501    0  0.00000000000E+00  0.00000000000E+00  0.94179793692E+03  0.94179793693E+03  0.25500000000E-02 0.  1.
         -2   -1    0    0    0  501 -0.00000000000E+00 -0.00000000000E+00 -0.20999376135E+01  0.20999391618E+01  0.25500000000E-02 0. -1.
         23    2    1    2    0    0  0.88817841970E-15  0.00000000000E+00  0.93969799931E+03  0.94389787609E+03  0.88943074928E+02 0.  0.
    9000005    2    3    3    0    0  0.62421143814E+01  0.28752698163E+02  0.82069826551E+03  0.82131476841E+03  0.12108846127E+02 0.  0.
         22    1    3    3    0    0 -0.62421143814E+01 -0.28752698163E+02  0.11899973380E+03  0.12258310768E+03  0.00000000000E+00 0. -1.
         22    1    4    4    0    0  0.71744602513E+01  0.76837117183E+01  0.22993949577E+03  0.23017967769E+03  0.00000000000E+00 0. -1.
         22    1    4    4    0    0 -0.93234586992E+00  0.21068986445E+02  0.59075876974E+03  0.59113509072E+03  0.00000000000E+00 0. -1.
<mgrwt>
<rscale>  0 0.88943075E+02</rscale>
<asrwt>0</asrwt>
<pdfrwt beam="1">  1        2 0.14489249E+00 0.88943075E+02</pdfrwt>
<pdfrwt beam="2">  1       -2 0.32306634E-03 0.88943075E+02</pdfrwt>
<totfact> 0.26584221E+05</totfact>
</mgrwt>
</event>
<event>
 7    1  0.3132719E-009  0.9168262E+02  0.7818608E-02  0.1298827E+00
         -2   -1    0    0    0  501 -0.00000000000E+00  0.00000000000E+00  0.21453114165E+01  0.21453129320E+01  0.25500000000E-02 0.  1.
          2   -1    0    0  501    0  0.00000000000E+00 -0.00000000000E+00 -0.97954300499E+03  0.97954300499E+03  0.25500000000E-02 0. -1.
         23    2    1    2    0    0  0.00000000000E+00 -0.35527136788E-14 -0.97739769357E+03  0.98168831792E+03  0.91682616390E+02 0.  0.
    9000005    2    3    3    0    0  0.73412891098E+01  0.16679587544E+02 -0.93767676901E+03  0.93798642992E+03  0.15770745710E+02 0.  0.
         22    1    3    3    0    0 -0.73412891098E+01 -0.16679587544E+02 -0.39720924565E+02  0.43701888000E+02  0.00000000000E+00 0.  1.
         22    1    4    4    0    0  0.11161491951E+02  0.16239039865E+02 -0.69533208579E+03  0.69561123830E+03  0.00000000000E+00 0. -1.
         22    1    4    4    0    0 -0.38202028414E+01  0.44054767860E+00 -0.24234468321E+03  0.24237519162E+03  0.00000000000E+00 0. -1.
<mgrwt>
<rscale>  0 0.91682616E+02</rscale>
<asrwt>0</asrwt>
<pdfrwt beam="2">  1        2 0.15069857E+00 0.91682616E+02</pdfrwt>
<pdfrwt beam="1">  1       -2 0.33004881E-03 0.91682616E+02</pdfrwt>
<totfact> 0.24613886E+05</totfact>
</mgrwt>
</event>
<event>
 7    1  0.3056193E-009  0.9196294E+02  0.7818608E-02  0.1298167E+00
          2   -1    0    0  501    0  0.00000000000E+00  0.00000000000E+00  0.49571800835E+03  0.49571800836E+03  0.25500000000E-02 0. -1.
         -2   -1    0    0    0  501 -0.00000000000E+00 -0.00000000000E+00 -0.42651171509E+01  0.42651179132E+01  0.25500000000E-02 0.  1.
         23    2    1    2    0    0  0.00000000000E+00  0.00000000000E+00  0.49145289120E+03  0.49998312627E+03  0.91962939745E+02 0.  0.
    9000005    2    3    3    0    0  0.45805653679E+01 -0.32098453271E+02  0.42204275491E+03  0.42337334033E+03  0.85793969607E+01 0.  0.
         22    1    3    3    0    0 -0.45805653679E+01  0.32098453271E+02  0.69410136294E+02  0.76609785940E+02  0.00000000000E+00 0.  1.
         22    1    4    4    0    0 -0.22017681536E+01 -0.10916885427E+02  0.16109498317E+03  0.16147947168E+03  0.00000000000E+00 0. -1.
         22    1    4    4    0    0  0.67823335214E+01 -0.21181567844E+02  0.26094777174E+03  0.26189386865E+03  0.00000000000E+00 0. -1.
<mgrwt>
<rscale>  0 0.91962940E+02</rscale>
<asrwt>0</asrwt>
<pdfrwt beam="1">  1        2 0.76264278E-01 0.91962940E+02</pdfrwt>
<pdfrwt beam="2">  1       -2 0.65617220E-03 0.91962940E+02</pdfrwt>
<totfact> 0.21006179E+05</totfact>
</mgrwt>
</event>
<event>
 7    1  0.3056193E-009  0.8956139E+02  0.7818608E-02  0.1303917E+00
          2   -1    0    0  501    0  0.00000000000E+00  0.00000000000E+00  0.95684233141E+01  0.95684236539E+01  0.25500000000E-02 0. -1.
         -2   -1    0    0    0  501 -0.00000000000E+00 -0.00000000000E+00 -0.20957585909E+03  0.20957585911E+03  0.25500000000E-02 0.  1.
         23    2    1    2    0    0 -0.22204460493E-15  0.00000000000E+00 -0.20000743578E+03  0.21914428276E+03  0.89561388447E+02 0.  0.
    9000005    2    3    3    0    0  0.10949833238E+01  0.43142701553E+02 -0.77436773572E+02  0.89197913365E+02  0.98651995211E+01 0.  0.
         22    1    3    3    0    0 -0.10949833238E+01 -0.43142701553E+02 -0.12257066221E+03  0.12994636940E+03  0.00000000000E+00 0.  1.
         22    1    4    4    0    0  0.35665352647E+01  0.35576951164E+02 -0.57243226791E+02  0.67492419140E+02  0.00000000000E+00 0.  1.
         22    1    4    4    0    0 -0.24715519410E+01  0.75657503896E+01 -0.20193546781E+02  0.21705494225E+02  0.00000000000E+00 0.  1.
<mgrwt>
<rscale>  0 0.89561388E+02</rscale>
<asrwt>0</asrwt>
<pdfrwt beam="1">  1        2 0.14720653E-02 0.89561388E+02</pdfrwt>
<pdfrwt beam="2">  1       -2 0.32242436E-01 0.89561388E+02</pdfrwt>
<totfact> 0.63903925E+04</totfact>
</mgrwt>
</event>
<event>
 7    1  0.3056193E-009  0.8960685E+02  0.7818608E-02  0.1303807E+00
          2   -1    0    0  501    0  0.00000000000E+00  0.00000000000E+00  0.76846817113E+03  0.76846817113E+03  0.25500000000E-02 0. -1.
         -2   -1    0    0    0  501 -0.00000000000E+00 -0.00000000000E+00 -0.26121399643E+01  0.26121412090E+01  0.25500000000E-02 0.  1.
         23    2    1    2    0    0  0.00000000000E+00  0.17763568394E-14  0.76585603117E+03  0.77108031234E+03  0.89606850243E+02 0.  0.
    9000005    2    3    3    0    0  0.38239570805E+02  0.10345476505E+02  0.54920430874E+03  0.55083666887E+03  0.15045576621E+02 0.  0.
         22    1    3    3    0    0 -0.38239570805E+02 -0.10345476505E+02  0.21665172243E+03  0.22024364347E+03  0.00000000000E+00 0.  1.
         22    1    4    4    0    0  0.35004955496E+02  0.12151521251E+02  0.43598618562E+03  0.43755795094E+03  0.00000000000E+00 0. -1.
         22    1    4    4    0    0  0.32346153090E+01 -0.18060447468E+01  0.11321812312E+03  0.11327871793E+03  0.00000000000E+00 0. -1.
<mgrwt>
<rscale>  0 0.89606850E+02</rscale>
<asrwt>0</asrwt>
<pdfrwt beam="1">  1        2 0.11822602E+00 0.89606850E+02</pdfrwt>
<pdfrwt beam="2">  1       -2 0.40186730E-03 0.89606850E+02</pdfrwt>
<totfact> 0.25325409E+05</totfact>
</mgrwt>
</event>
<event>
 7    1  0.3056193E-009  0.9148657E+02  0.7818608E-02  0.1299291E+00
         -2   -1    0    0    0  501 -0.00000000000E+00  0.00000000000E+00  0.43407043976E+01  0.43407051466E+01  0.25500000000E-02 0.  1.
          2   -1    0    0  501    0  0.00000000000E+00 -0.00000000000E+00 -0.48205267362E+03  0.48205267363E+03  0.25500000000E-02 0. -1.
         23    2    1    2    0    0  0.00000000000E+00  0.35527136788E-14 -0.47771196923E+03  0.48639337878E+03  0.91486574841E+02 0.  0.
    9000005    2    3    3    0    0 -0.21345866762E+02 -0.30015497335E+02 -0.38054061989E+03  0.38247587669E+03  0.10957041377E+02 0.  0.
         22    1    3    3    0    0  0.21345866762E+02  0.30015497335E+02 -0.97171349334E+02  0.10391750208E+03  0.00000000000E+00 0.  1.
         22    1    4    4    0    0 -0.58513786046E+01 -0.10596105103E+02 -0.17919997839E+03  0.17960831921E+03  0.00000000000E+00 0. -1.
         22    1    4    4    0    0 -0.15494488157E+02 -0.19419392232E+02 -0.20134064150E+03  0.20286755748E+03  0.00000000000E+00 0. -1.
<mgrwt>
<rscale>  0 0.91486575E+02</rscale>
<asrwt>0</asrwt>
<pdfrwt beam="2">  1        2 0.74161907E-01 0.91486575E+02</pdfrwt>
<pdfrwt beam="1">  1       -2 0.66780112E-03 0.91486575E+02</pdfrwt>
<totfact> 0.21102111E+05</totfact>
</mgrwt>
</event>
<event>
 7    1  0.3071289E-009  0.9014582E+02  0.7818608E-02  0.1302499E+00
         -2   -1    0    0    0  501 -0.00000000000E+00  0.00000000000E+00  0.85833935666E+01  0.85833939454E+01  0.25500000000E-02 0. -1.
          2   -1    0    0  501    0  0.00000000000E+00 -0.00000000000E+00 -0.23668577029E+03  0.23668577031E+03  0.25500000000E-02 0.  1.
         23    2    1    2    0    0  0.44408920985E-15  0.00000000000E+00 -0.22810237673E+03  0.24526916425E+03  0.90145818897E+02 0.  0.
    9000005    2    3    3    0    0  0.15012041461E+01  0.26880294412E+02 -0.21117145293E+03  0.21346570497E+03  0.15793062579E+02 0.  0.
         22    1    3    3    0    0 -0.15012041461E+01 -0.26880294412E+02 -0.16930923798E+02  0.31803459281E+02  0.00000000000E+00 0. -1.
         22    1    4    4    0    0  0.81963030862E+01  0.19849641594E+02 -0.14960093239E+03  0.15113446539E+03  0.00000000000E+00 0.  1.
         22    1    4    4    0    0 -0.66950989401E+01  0.70306528180E+01 -0.61570520538E+02  0.62331239585E+02  0.00000000000E+00 0.  1.
<mgrwt>
<rscale>  0 0.90145819E+02</rscale>
<asrwt>0</asrwt>
<pdfrwt beam="2">  1        2 0.36413190E-01 0.90145819E+02</pdfrwt>
<pdfrwt beam="1">  1       -2 0.13205223E-02 0.90145819E+02</pdfrwt>
<totfact> 0.16958813E+05</totfact>
</mgrwt>
</event>
<event>
 7    1  0.3056193E-009  0.9362569E+02  0.7818608E-02  0.1294302E+00
         -2   -1    0    0    0  501 -0.00000000000E+00  0.00000000000E+00  0.39095834698E+03  0.39095834699E+03  0.25500000000E-02 0.  1.
          2   -1    0    0  501    0  0.00000000000E+00 -0.00000000000E+00 -0.56053086772E+01  0.56053092572E+01  0.25500000000E-02 0. -1.
         23    2    1    2    0    0  0.00000000000E+00  0.00000000000E+00  0.38535303830E+03  0.39656365625E+03  0.93625687317E+02 0.  0.
    9000005    2    3    3    0    0 -0.32224491022E+01 -0.45509360157E+02  0.15856149830E+03  0.16522864234E+03  0.87903053146E+01 0.  0.
         22    1    3    3    0    0  0.32224491022E+01  0.45509360157E+02  0.22679154000E+03  0.23133501390E+03  0.00000000000E+00 0. -1.
         22    1    4    4    0    0  0.11621266121E+01 -0.24604405833E+02  0.96508750423E+02  0.99602541298E+02  0.00000000000E+00 0.  1.
         22    1    4    4    0    0 -0.43845757143E+01 -0.20904954324E+02  0.62052747874E+02  0.65626101044E+02  0.00000000000E+00 0.  1.
<mgrwt>
<rscale>  0 0.93625687E+02</rscale>
<asrwt>0</asrwt>
<pdfrwt beam="2">  1        2 0.86235513E-03 0.93625687E+02</pdfrwt>
<pdfrwt beam="1">  1       -2 0.60147445E-01 0.93625687E+02</pdfrwt>
<totfact> 0.40479254E+04</totfact>
</mgrwt>
</event>
<event>
 7    1  0.3056193E-009  0.9237214E+02  0.7818608E-02  0.1297207E+00
          2   -1    0    0  501    0  0.00000000000E+00  0.00000000000E+00  0.11161193483E+02  0.11161193774E+02  0.25500000000E-02 0. -1.
         -2   -1    0    0    0  501 -0.00000000000E+00 -0.00000000000E+00 -0.19112229987E+03  0.19112229988E+03  0.25500000000E-02 0.  1.
         23    2    1    2    0    0  0.00000000000E+00  0.00000000000E+00 -0.17996110638E+03  0.20228349366E+03  0.92372138634E+02 0.  0.
    9000005    2    3    3    0    0 -0.31101288768E+02 -0.14041192836E+02 -0.24292491853E+02  0.42918620461E+02  0.93508054502E+01 0.  0.
         22    1    3    3    0    0  0.31101288768E+02  0.14041192836E+02 -0.15566861453E+03  0.15936487320E+03  0.00000000000E+00 0.  1.
         22    1    4    4    0    0 -0.77379796888E+01 -0.12241845321E+01 -0.99241662390E+01  0.12643734930E+02  0.00000000000E+00 0. -1.
         22    1    4    4    0    0 -0.23363309079E+02 -0.12817008303E+02 -0.14368325614E+02  0.30274885531E+02  0.00000000000E+00 0. -1.
<mgrwt>
<rscale>  0 0.92372139E+02</rscale>
<asrwt>0</asrwt>
<pdfrwt beam="1">  1        2 0.17171068E-02 0.92372139E+02</pdfrwt>
<pdfrwt beam="2">  1       -2 0.29403428E-01 0.92372139E+02</pdfrwt>
<totfact> 0.61460937E+04</totfact>
</mgrwt>
</event>
<event>
 7    1  0.3831986E-009  0.9032444E+02  0.7818608E-02  0.1302068E+00
          2   -1    0    0  501    0  0.00000000000E+00  0.00000000000E+00  0.16476479553E+04  0.16476479553E+04  0.25500000000E-02 0. -1.
         -2   -1    0    0    0  501 -0.00000000000E+00 -0.00000000000E+00 -0.12379004306E+01  0.12379030570E+01  0.25500000000E-02 0.  1.
         23    2    1    2    0    0  0.00000000000E+00  0.00000000000E+00  0.16464100549E+04  0.16488858584E+04  0.90324443655E+02 0.  0.
    9000005    2    3    3    0    0 -0.14682435402E+02 -0.20466926402E+02  0.15019454972E+04  0.15022418083E+04  0.15990783484E+02 0.  0.
         22    1    3    3    0    0  0.14682435402E+02  0.20466926402E+02  0.14446455768E+03  0.14664405004E+03  0.00000000000E+00 0.  1.
         22    1    4    4    0    0 -0.79222415559E+00 -0.98646230259E+01  0.28683468056E+03  0.28700535253E+03  0.00000000000E+00 0. -1.
         22    1    4    4    0    0 -0.13890211247E+02 -0.10602303376E+02  0.12151108167E+04  0.12152364558E+04  0.00000000000E+00 0. -1.
<mgrwt>
<rscale>  0 0.90324444E+02</rscale>
<asrwt>0</asrwt>
<pdfrwt beam="1">  1        2 0.25348565E+00 0.90324444E+02</pdfrwt>
<pdfrwt beam="2">  1       -2 0.19044541E-03 0.90324444E+02</pdfrwt>
<totfact> 0.23185468E+05</totfact>
</mgrwt>
</event>
<event>
 7    1  0.4110931E-009  0.9150020E+02  0.7818608E-02  0.1299259E+00
          2   -1    0    0  501    0  0.00000000000E+00  0.00000000000E+00  0.18766985143E+04  0.18766985143E+04  0.25500000000E-02 0. -1.
         -2   -1    0    0    0  501 -0.00000000000E+00 -0.00000000000E+00 -0.11152931835E+01  0.11152960986E+01  0.25500000000E-02 0.  1.
         23    2    1    2    0    0  0.00000000000E+00  0.00000000000E+00  0.18755832212E+04  0.18778138104E+04  0.91500203260E+02 0.  0.
    9000005    2    3    3    0    0  0.24841934331E+01 -0.21465267905E+02  0.17622145104E+04  0.17624041335E+04  0.14192262690E+02 0.  0.
         22    1    3    3    0    0 -0.24841934331E+01  0.21465267905E+02  0.11336871080E+03  0.11540967694E+03  0.00000000000E+00 0.  1.
         22    1    4    4    0    0  0.11090052525E+01 -0.41379279729E+01  0.92149687639E+03  0.92150683423E+03  0.00000000000E+00 0. -1.
         22    1    4    4    0    0  0.13751881806E+01 -0.17327339932E+02  0.84071763397E+03  0.84089729927E+03  0.00000000000E+00 0. -1.
<mgrwt>
<rscale>  0 0.91500203E+02</rscale>
<asrwt>0</asrwt>
<pdfrwt beam="1">  1        2 0.28872016E+00 0.91500203E+02</pdfrwt>
<pdfrwt beam="2">  1       -2 0.17158539E-03 0.91500203E+02</pdfrwt>
<totfact> 0.20589807E+05</totfact>
</mgrwt>
</event>
<event>
 7    1  0.3056193E-009  0.9007520E+02  0.7818608E-02  0.1302670E+00
         -2   -1    0    0    0  501 -0.00000000000E+00  0.00000000000E+00  0.89308793487E+02  0.89308793524E+02  0.25500000000E-02 0.  1.
          2   -1    0    0  501    0  0.00000000000E+00 -0.00000000000E+00 -0.22712045663E+02  0.22712045807E+02  0.25500000000E-02 0. -1.
         23    2    1    2    0    0  0.00000000000E+00  0.00000000000E+00  0.66596747824E+02  0.11202083933E+03  0.90075199825E+02 0.  0.
    9000005    2    3    3    0    0 -0.19746153665E+02  0.20459300560E+02  0.76100412544E+02  0.82040625737E+02  0.11441062801E+02 0.  0.
         22    1    3    3    0    0  0.19746153665E+02 -0.20459300560E+02 -0.95036647199E+01  0.29980213593E+02  0.00000000000E+00 0. -1.
         22    1    4    4    0    0 -0.14015636210E+01  0.70801847663E+01  0.11616118878E+02  0.13675803987E+02  0.00000000000E+00 0.  1.
         22    1    4    4    0    0 -0.18344590044E+02  0.13379115794E+02  0.64484293666E+02  0.68364821750E+02  0.00000000000E+00 0.  1.
<mgrwt>
<rscale>  0 0.90075200E+02</rscale>
<asrwt>0</asrwt>
<pdfrwt beam="2">  1        2 0.34941610E-02 0.90075200E+02</pdfrwt>
<pdfrwt beam="1">  1       -2 0.13739814E-01 0.90075200E+02</pdfrwt>
<totfact> 0.85002395E+04</totfact>
</mgrwt>
</event>
<event>
 7    1  0.3056193E-009  0.9351221E+02  0.7818608E-02  0.1294563E+00
          2   -1    0    0  501    0  0.00000000000E+00  0.00000000000E+00  0.68137206553E+03  0.68137206554E+03  0.25500000000E-02 0. -1.
         -2   -1    0    0    0  501 -0.00000000000E+00 -0.00000000000E+00 -0.32084276328E+01  0.32084286461E+01  0.25500000000E-02 0.  1.
         23    2    1    2    0    0  0.00000000000E+00  0.00000000000E+00  0.67816363790E+03  0.68458049418E+03  0.93512209080E+02 0.  0.
    9000005    2    3    3    0    0  0.19335349839E+02  0.16274328253E+02  0.62664452167E+03  0.62719644718E+03  0.73018697419E+01 0.  0.
         22    1    3    3    0    0 -0.19335349839E+02 -0.16274328253E+02  0.51519116229E+02  0.57384047004E+02  0.00000000000E+00 0.  1.
         22    1    4    4    0    0  0.28261638838E+00  0.14394609235E+01  0.86514733781E+02  0.86527169612E+02  0.00000000000E+00 0.  1.
         22    1    4    4    0    0  0.19052733450E+02  0.14834867330E+02  0.54012978789E+03  0.54066927757E+03  0.00000000000E+00 0.  1.
<mgrwt>
<rscale>  0 0.93512209E+02</rscale>
<asrwt>0</asrwt>
<pdfrwt beam="1">  1        2 0.10482644E+00 0.93512209E+02</pdfrwt>
<pdfrwt beam="2">  1       -2 0.49360448E-03 0.93512209E+02</pdfrwt>
<totfact> 0.22039449E+05</totfact>
</mgrwt>
</event>
<event>
 7    1  0.3056193E-009  0.9147857E+02  0.7818608E-02  0.1299310E+00
          2   -1    0    0  501    0  0.00000000000E+00  0.00000000000E+00  0.34486314165E+02  0.34486314260E+02  0.25500000000E-02 0. -1.
         -2   -1    0    0    0  501 -0.00000000000E+00 -0.00000000000E+00 -0.60664127031E+02  0.60664127085E+02  0.25500000000E-02 0.  1.
         23    2    1    2    0    0  0.00000000000E+00  0.00000000000E+00 -0.26177812866E+02  0.95150441344E+02  0.91478569084E+02 0.  0.
    9000005    2    3    3    0    0 -0.11462148905E+02  0.28530565496E+02  0.21190567886E+02  0.38677992132E+02  0.10078337314E+02 0.  0.
         22    1    3    3    0    0  0.11462148905E+02 -0.28530565496E+02 -0.47368380752E+02  0.56472449213E+02  0.00000000000E+00 0.  1.
         22    1    4    4    0    0 -0.85917110279E+01  0.26566985405E+02  0.15303833490E+02  0.31840689870E+02  0.00000000000E+00 0. -1.
         22    1    4    4    0    0 -0.28704378768E+01  0.19635800906E+01  0.58867343955E+01  0.68373022618E+01  0.00000000000E+00 0. -1.
<mgrwt>
<rscale>  0 0.91478569E+02</rscale>
<asrwt>0</asrwt>
<pdfrwt beam="1">  1        2 0.53055868E-02 0.91478569E+02</pdfrwt>
<pdfrwt beam="2">  1       -2 0.93329427E-02 0.91478569E+02</pdfrwt>
<totfact> 0.90896337E+04</totfact>
</mgrwt>
</event>
<event>
 7    1  0.3056193E-009  0.9336258E+02  0.7818608E-02  0.1294907E+00
         -2   -1    0    0    0  501 -0.00000000000E+00  0.00000000000E+00  0.88570229900E+01  0.88570233571E+01  0.25500000000E-02 0.  1.
          2   -1    0    0  501    0  0.00000000000E+00 -0.00000000000E+00 -0.24603555507E+03  0.24603555508E+03  0.25500000000E-02 0. -1.
         23    2    1    2    0    0 -0.17763568394E-14  0.00000000000E+00 -0.23717853208E+03  0.25489257844E+03  0.93362575287E+02 0.  0.
    9000005    2    3    3    0    0 -0.11955641602E+02 -0.40724211019E+02 -0.16979743854E+03  0.17525834902E+03  0.91060439220E+01 0.  0.
         22    1    3    3    0    0  0.11955641602E+02  0.40724211019E+02 -0.67381093538E+02  0.79634229422E+02  0.00000000000E+00 0. -1.
         22    1    4    4    0    0 -0.12411054247E+02 -0.34662941210E+02 -0.15378895486E+03  0.15813474128E+03  0.00000000000E+00 0.  1.
         22    1    4    4    0    0  0.45541264496E+00 -0.60612698092E+01 -0.16008483678E+02  0.17123607740E+02  0.00000000000E+00 0.  1.
<mgrwt>
<rscale>  0 0.93362575E+02</rscale>
<asrwt>0</asrwt>
<pdfrwt beam="2">  1        2 0.37851619E-01 0.93362575E+02</pdfrwt>
<pdfrwt beam="1">  1       -2 0.13626191E-02 0.93362575E+02</pdfrwt>
<totfact> 0.15658930E+05</totfact>
</mgrwt>
</event>
<event>
 7    1  0.3056193E-009  0.9330703E+02  0.7818608E-02  0.1295035E+00
         -2   -1    0    0    0  501 -0.00000000000E+00  0.00000000000E+00  0.10873892403E+02  0.10873892702E+02  0.25500000000E-02 0.  1.
          2   -1    0    0  501    0  0.00000000000E+00 -0.00000000000E+00 -0.20016296241E+03  0.20016296243E+03  0.25500000000E-02 0. -1.
         23    2    1    2    0    0  0.00000000000E+00  0.00000000000E+00 -0.18928907001E+03  0.21103685513E+03  0.93307031883E+02 0.  0.
    9000005    2    3    3    0    0 -0.25501068632E+02  0.32026800071E+02 -0.50480978539E+02  0.66317448410E+02  0.13177797433E+02 0.  0.
         22    1    3    3    0    0  0.25501068632E+02 -0.32026800071E+02 -0.13880809147E+03  0.14471940672E+03  0.00000000000E+00 0.  1.
         22    1    4    4    0    0 -0.24194769652E+02  0.29743846407E+02 -0.50824495706E+02  0.63664846197E+02  0.00000000000E+00 0.  1.
         22    1    4    4    0    0 -0.13062989802E+01  0.22829536638E+01  0.34351716626E+00  0.26526022129E+01  0.00000000000E+00 0.  1.
<mgrwt>
<rscale>  0 0.93307032E+02</rscale>
<asrwt>0</asrwt>
<pdfrwt beam="2">  1        2 0.30794299E-01 0.93307032E+02</pdfrwt>
<pdfrwt beam="1">  1       -2 0.16729067E-02 0.93307032E+02</pdfrwt>
<totfact> 0.14537850E+05</totfact>
</mgrwt>
</event>
<event>
 7    1  0.3056193E-009  0.9601276E+02  0.7818608E-02  0.1288911E+00
         -2   -1    0    0    0  501 -0.00000000000E+00  0.00000000000E+00  0.31654542916E+03  0.31654542917E+03  0.25500000000E-02 0.  1.
          2   -1    0    0  501    0  0.00000000000E+00 -0.00000000000E+00 -0.72805102722E+01  0.72805107187E+01  0.25500000000E-02 0. -1.
         23    2    1    2    0    0  0.71054273576E-14  0.00000000000E+00  0.30926491889E+03  0.32382593989E+03  0.96012755873E+02 0.  0.
    9000005    2    3    3    0    0  0.38809591301E+02 -0.10612541634E+02  0.23952581353E+03  0.24331287739E+03  0.14482076510E+02 0.  0.
         22    1    3    3    0    0 -0.38809591301E+02  0.10612541634E+02  0.69739105364E+02  0.80513062505E+02  0.00000000000E+00 0. -1.
         22    1    4    4    0    0  0.24008803411E+02 -0.12877204325E+02  0.17222737174E+03  0.17436889805E+03  0.00000000000E+00 0.  1.
         22    1    4    4    0    0  0.14800787890E+02  0.22646626911E+01  0.67298441789E+02  0.68943979334E+02  0.00000000000E+00 0.  1.
<mgrwt>
<rscale>  0 0.96012756E+02</rscale>
<asrwt>0</asrwt>
<pdfrwt beam="2">  1        2 0.11200784E-02 0.96012756E+02</pdfrwt>
<pdfrwt beam="1">  1       -2 0.48699304E-01 0.96012756E+02</pdfrwt>
<totfact> 0.43279919E+04</totfact>
</mgrwt>
</event>
<event>
 7    1  0.3056193E-009  0.8860934E+02  0.7818608E-02  0.1306255E+00
         -2   -1    0    0    0  501 -0.00000000000E+00  0.00000000000E+00  0.61260722668E+01  0.61260727975E+01  0.25500000000E-02 0.  1.
          2   -1    0    0  501    0  0.00000000000E+00 -0.00000000000E+00 -0.32041795091E+03  0.32041795092E+03  0.25500000000E-02 0. -1.
         23    2    1    2    0    0  0.00000000000E+00  0.00000000000E+00 -0.31429187864E+03  0.32654402372E+03  0.88609336103E+02 0.  0.
    9000005    2    3    3    0    0  0.16910198384E+02  0.13564150986E+02 -0.29933430069E+03  0.30020640538E+03  0.72747000299E+01 0.  0.
         22    1    3    3    0    0 -0.16910198384E+02 -0.13564150986E+02 -0.14957577948E+02  0.26337618332E+02  0.00000000000E+00 0.  1.
         22    1    4    4    0    0  0.15002874061E+02  0.95833419266E+01 -0.20601039383E+03  0.20677816383E+03  0.00000000000E+00 0.  1.
         22    1    4    4    0    0  0.19073243226E+01  0.39808090590E+01 -0.93323906867E+02  0.93428241553E+02  0.00000000000E+00 0.  1.
<mgrwt>
<rscale>  0 0.88609336E+02</rscale>
<asrwt>0</asrwt>
<pdfrwt beam="2">  1        2 0.49295056E-01 0.88609336E+02</pdfrwt>
<pdfrwt beam="1">  1       -2 0.94247295E-03 0.88609336E+02</pdfrwt>
<totfact> 0.19863861E+05</totfact>
</mgrwt>
</event>
<event>
 7    1  0.3056193E-009  0.8730653E+02  0.7818608E-02  0.1309509E+00
         -2   -1    0    0    0  501 -0.00000000000E+00  0.00000000000E+00  0.24280318452E+01  0.24280331843E+01  0.25500000000E-02 0.  1.
          2   -1    0    0  501    0  0.00000000000E+00 -0.00000000000E+00 -0.78483617647E+03  0.78483617647E+03  0.25500000000E-02 0. -1.
         23    2    1    2    0    0  0.00000000000E+00  0.00000000000E+00 -0.78240814462E+03  0.78726420966E+03  0.87306534886E+02 0.  0.
    9000005    2    3    3    0    0  0.22365973023E+02  0.25498155848E+02 -0.63890859592E+03  0.63981078251E+03  0.18029885390E+01 0.  0.
         22    1    3    3    0    0 -0.22365973023E+02 -0.25498155848E+02 -0.14349954870E+03  0.14745342715E+03  0.00000000000E+00 0.  1.
         22    1    4    4    0    0  0.19726077077E+02  0.22778553758E+02 -0.55681076539E+03  0.55762550971E+03  0.00000000000E+00 0.  1.
         22    1    4    4    0    0  0.26398959456E+01  0.27196020903E+01 -0.82097830532E+02  0.82185272794E+02  0.00000000000E+00 0.  1.
<mgrwt>
<rscale>  0 0.87306535E+02</rscale>
<asrwt>0</asrwt>
<pdfrwt beam="2">  1        2 0.12074382E+00 0.87306535E+02</pdfrwt>
<pdfrwt beam="1">  1       -2 0.37354409E-03 0.87306535E+02</pdfrwt>
<totfact> 0.27224615E+05</totfact>
</mgrwt>
</event>
<event>
 7    1  0.3056193E-009  0.8972753E+02  0.7818608E-02  0.1303513E+00
         -2   -1    0    0    0  501 -0.00000000000E+00  0.00000000000E+00  0.19554927836E+02  0.19554928002E+02  0.25500000000E-02 0.  1.
          2   -1    0    0  501    0  0.00000000000E+00 -0.00000000000E+00 -0.10292840898E+03  0.10292840901E+03  0.25500000000E-02 0. -1.
         23    2    1    2    0    0  0.00000000000E+00 -0.35527136788E-14 -0.83373481143E+02  0.12248333701E+03  0.89727534725E+02 0.  0.
    9000005    2    3    3    0    0 -0.64073467299E+01 -0.28382562550E+02 -0.87727256934E+02  0.93062607710E+02  0.10860635141E+02 0.  0.
         22    1    3    3    0    0  0.64073467299E+01  0.28382562550E+02  0.43537757906E+01  0.29420729302E+02  0.00000000000E+00 0.  1.
         22    1    4    4    0    0 -0.43995990280E+01 -0.12155974750E+02 -0.54737159545E+02  0.56243051383E+02  0.00000000000E+00 0.  1.
         22    1    4    4    0    0 -0.20077477019E+01 -0.16226587800E+02 -0.32990097388E+02  0.36819556328E+02  0.00000000000E+00 0.  1.
<mgrwt>
<rscale>  0 0.89727535E+02</rscale>
<asrwt>0</asrwt>
<pdfrwt beam="2">  1        2 0.15835139E-01 0.89727535E+02</pdfrwt>
<pdfrwt beam="1">  1       -2 0.30084505E-02 0.89727535E+02</pdfrwt>
<totfact> 0.12932789E+05</totfact>
</mgrwt>
</event>
<event>
 7    1  0.3056193E-009  0.9197347E+02  0.7818608E-02  0.1298142E+00
         -2   -1    0    0    0  501 -0.00000000000E+00  0.00000000000E+00  0.13439981331E+02  0.13439981573E+02  0.25500000000E-02 0.  1.
          2   -1    0    0  501    0  0.00000000000E+00 -0.00000000000E+00 -0.15734991978E+03  0.15734991980E+03  0.25500000000E-02 0. -1.
         23    2    1    2    0    0  0.00000000000E+00  0.00000000000E+00 -0.14390993845E+03  0.17078990137E+03  0.91973474583E+02 0.  0.
    9000005    2    3    3    0    0 -0.45349146643E+01 -0.32670917189E+02 -0.13139577552E+03  0.13551159990E+03  0.32541668562E+01 0.  0.
         22    1    3    3    0    0  0.45349146643E+01  0.32670917189E+02 -0.12514162927E+02  0.35278301472E+02  0.00000000000E+00 0.  1.
         22    1    4    4    0    0 -0.10130478461E+01 -0.27112601879E+01 -0.90379861162E+01  0.94901206937E+01  0.00000000000E+00 0. -1.
         22    1    4    4    0    0 -0.35218668182E+01 -0.29959657001E+02 -0.12235778941E+03  0.12602147921E+03  0.00000000000E+00 0. -1.
<mgrwt>
<rscale>  0 0.91973475E+02</rscale>
<asrwt>0</asrwt>
<pdfrwt beam="2">  1        2 0.24207679E-01 0.91973475E+02</pdfrwt>
<pdfrwt beam="1">  1       -2 0.20676896E-02 0.91973475E+02</pdfrwt>
<totfact> 0.13880006E+05</totfact>
</mgrwt>
</event>
<event>
 7    1  0.3056193E-009  0.9265987E+02  0.7818608E-02  0.1296535E+00
         -2   -1    0    0    0  501 -0.00000000000E+00  0.00000000000E+00  0.29299277616E+02  0.29299277727E+02  0.25500000000E-02 0.  1.
          2   -1    0    0  501    0  0.00000000000E+00 -0.00000000000E+00 -0.73259932034E+02  0.73259932078E+02  0.25500000000E-02 0. -1.
         23    2    1    2    0    0  0.00000000000E+00  0.00000000000E+00 -0.43960654418E+02  0.10255920980E+03  0.92659874697E+02 0.  0.
    9000005    2    3    3    0    0 -0.38822530347E+02  0.24099220323E+02 -0.24755768417E+02  0.52993204024E+02  0.10366789287E+02 0.  0.
         22    1    3    3    0    0  0.38822530347E+02 -0.24099220323E+02 -0.19204886001E+02  0.49566005781E+02  0.00000000000E+00 0. -1.
         22    1    4    4    0    0 -0.26636382200E+02  0.10966275648E+02 -0.13297800828E+02  0.31726764177E+02  0.00000000000E+00 0. -1.
         22    1    4    4    0    0 -0.12186148147E+02  0.13132944675E+02 -0.11457967590E+02  0.21266439848E+02  0.00000000000E+00 0. -1.
<mgrwt>
<rscale>  0 0.92659875E+02</rscale>
<asrwt>0</asrwt>
<pdfrwt beam="2">  1        2 0.11270759E-01 0.92659875E+02</pdfrwt>
<pdfrwt beam="1">  1       -2 0.45075812E-02 0.92659875E+02</pdfrwt>
<totfact> 0.10708622E+05</totfact>
</mgrwt>
</event>
<event>
 7    1  0.3056193E-009  0.8789481E+02  0.7818608E-02  0.1308031E+00
         -2   -1    0    0    0  501 -0.00000000000E+00  0.00000000000E+00  0.42629207669E+01  0.42629215296E+01  0.25500000000E-02 0. -1.
          2   -1    0    0  501    0  0.00000000000E+00 -0.00000000000E+00 -0.45306361750E+03  0.45306361751E+03  0.25500000000E-02 0.  1.
         23    2    1    2    0    0  0.00000000000E+00  0.00000000000E+00 -0.44880069673E+03  0.45732653904E+03  0.87894811674E+02 0.  0.
    9000005    2    3    3    0    0 -0.37653612348E+02 -0.21193821213E+02 -0.25827133430E+03  0.26195916579E+03  0.71798216894E+01 0.  0.
         22    1    3    3    0    0  0.37653612348E+02  0.21193821213E+02 -0.19052936244E+03  0.19536737325E+03  0.00000000000E+00 0.  1.
         22    1    4    4    0    0 -0.20125401301E+02 -0.14970741691E+02 -0.15769311305E+03  0.15967552344E+03  0.00000000000E+00 0. -1.
         22    1    4    4    0    0 -0.17528211047E+02 -0.62230795222E+01 -0.10057822125E+03  0.10228364235E+03  0.00000000000E+00 0. -1.
<mgrwt>
<rscale>  0 0.87894812E+02</rscale>
<asrwt>0</asrwt>
<pdfrwt beam="2">  1        2 0.69702057E-01 0.87894812E+02</pdfrwt>
<pdfrwt beam="1">  1       -2 0.65583438E-03 0.87894812E+02</pdfrwt>
<totfact> 0.22974758E+05</totfact>
</mgrwt>
</event>
<event>
 7    1  0.3421740E-009  0.9143967E+02  0.7818608E-02  0.1299402E+00
         -2   -1    0    0    0  501 -0.00000000000E+00  0.00000000000E+00  0.31998198920E+01  0.31998209081E+01  0.25500000000E-02 0.  1.
          2   -1    0    0  501    0  0.00000000000E+00 -0.00000000000E+00 -0.65325640806E+03  0.65325640807E+03  0.25500000000E-02 0. -1.
         23    2    1    2    0    0  0.00000000000E+00 -0.35527136788E-14 -0.65005658817E+03  0.65645622898E+03  0.91439667196E+02 0.  0.
    9000005    2    3    3    0    0  0.25328669183E+02  0.24630644350E+02 -0.52863280361E+03  0.52999696446E+03  0.13997541403E+02 0.  0.
         22    1    3    3    0    0 -0.25328669183E+02 -0.24630644350E+02 -0.12142378456E+03  0.12645926451E+03  0.00000000000E+00 0.  1.
         22    1    4    4    0    0  0.25588881955E+02  0.18736565939E+02 -0.46972221041E+03  0.47079167870E+03  0.00000000000E+00 0.  1.
         22    1    4    4    0    0 -0.26021277189E+00  0.58940784115E+01 -0.58910593200E+02  0.59205285762E+02  0.00000000000E+00 0.  1.
<mgrwt>
<rscale>  0 0.91439667E+02</rscale>
<asrwt>0</asrwt>
<pdfrwt beam="2">  1        2 0.10050088E+00 0.91439667E+02</pdfrwt>
<pdfrwt beam="1">  1       -2 0.49228058E-03 0.91439667E+02</pdfrwt>
<totfact> 0.23139013E+05</totfact>
</mgrwt>
</event>
<event>
 7    1  0.3056193E-009  0.1013970E+03  0.7818608E-02  0.1277385E+00
          2   -1    0    0  501    0  0.00000000000E+00  0.00000000000E+00  0.40542876510E+03  0.40542876511E+03  0.25500000000E-02 0. -1.
         -2   -1    0    0    0  501 -0.00000000000E+00 -0.00000000000E+00 -0.63397951681E+01  0.63397956810E+01  0.25500000000E-02 0.  1.
         23    2    1    2    0    0  0.00000000000E+00  0.35527136788E-14  0.39908896994E+03  0.41176856079E+03  0.10139695130E+03 0.  0.
    9000005    2    3    3    0    0  0.45261696354E+02  0.20478693686E+02  0.18308827152E+03  0.19012853785E+03  0.12631218734E+02 0.  0.
         22    1    3    3    0    0 -0.45261696354E+02 -0.20478693686E+02  0.21600069842E+03  0.22164002294E+03  0.00000000000E+00 0.  1.
         22    1    4    4    0    0  0.16900242659E+02  0.13073781654E+02  0.63420719282E+02  0.66923311356E+02  0.00000000000E+00 0.  1.
         22    1    4    4    0    0  0.28361453694E+02  0.74049120326E+01  0.11966755224E+03  0.12320522650E+03  0.00000000000E+00 0.  1.
<mgrwt>
<rscale>  0 0.10139695E+03</rscale>
<asrwt>0</asrwt>
<pdfrwt beam="1">  1        2 0.62373641E-01 0.10139695E+03</pdfrwt>
<pdfrwt beam="2">  1       -2 0.97535337E-03 0.10139695E+03</pdfrwt>
<totfact> 0.15104286E+05</totfact>
</mgrwt>
</event>
<event>
 7    1  0.3056193E-009  0.8676629E+02  0.7818608E-02  0.1310877E+00
         -2   -1    0    0    0  501 -0.00000000000E+00  0.00000000000E+00  0.20035219729E+01  0.20035235956E+01  0.25500000000E-02 0.  1.
          2   -1    0    0  501    0  0.00000000000E+00 -0.00000000000E+00 -0.93939409487E+03  0.93939409488E+03  0.25500000000E-02 0. -1.
         23    2    1    2    0    0  0.00000000000E+00  0.00000000000E+00 -0.93739057290E+03  0.94139761847E+03  0.86766294740E+02 0.  0.
    9000005    2    3    3    0    0  0.10060253979E+02  0.34908614816E+01 -0.92481877161E+03  0.92492203012E+03  0.88094635300E+01 0.  0.
         22    1    3    3    0    0 -0.10060253979E+02 -0.34908614816E+01 -0.12571801291E+02  0.16475588357E+02  0.00000000000E+00 0.  1.
         22    1    4    4    0    0  0.63863170675E+01  0.18540528427E+01 -0.81878397226E+03  0.81881097684E+03  0.00000000000E+00 0. -1.
         22    1    4    4    0    0  0.36739369115E+01  0.16368086389E+01 -0.10603479935E+03  0.10611105328E+03  0.00000000000E+00 0. -1.
<mgrwt>
<rscale>  0 0.86766295E+02</rscale>
<asrwt>0</asrwt>
<pdfrwt beam="2">  1        2 0.14452182E+00 0.86766295E+02</pdfrwt>
<pdfrwt beam="1">  1       -2 0.30823502E-03 0.86766295E+02</pdfrwt>
<totfact> 0.28363636E+05</totfact>
</mgrwt>
</event>
<event>
 7    1  0.3056193E-009  0.6484992E+02  0.7818608E-02  0.1378537E+00
          2   -1    0    0  501    0  0.00000000000E+00  0.00000000000E+00  0.19047549319E+02  0.19047549490E+02  0.25500000000E-02 0. -1.
         -2   -1    0    0    0  501 -0.00000000000E+00 -0.00000000000E+00 -0.55197545689E+02  0.55197545748E+02  0.25500000000E-02 0.  1.
         23    2    1    2    0    0  0.88817841970E-15  0.00000000000E+00 -0.36149996370E+02  0.74245095237E+02  0.64849918498E+02 0.  0.
    9000005    2    3    3    0    0 -0.53409234892E+01 -0.23198030999E+02 -0.42077917313E+02  0.49713190447E+02  0.11583439602E+02 0.  0.
         22    1    3    3    0    0  0.53409234892E+01  0.23198030999E+02  0.59279209435E+01  0.24531904791E+02  0.00000000000E+00 0. -1.
         22    1    4    4    0    0 -0.84553483488E+01 -0.19044235858E+02 -0.36924472144E+02  0.42398024462E+02  0.00000000000E+00 0. -1.
         22    1    4    4    0    0  0.31144248596E+01 -0.41537951409E+01 -0.51534451691E+01  0.73151659851E+01  0.00000000000E+00 0. -1.
<mgrwt>
<rscale>  0 0.64849918E+02</rscale>
<asrwt>0</asrwt>
<pdfrwt beam="1">  1        2 0.29303923E-02 0.64849918E+02</pdfrwt>
<pdfrwt beam="2">  1       -2 0.84919300E-02 0.64849918E+02</pdfrwt>
<totfact> 0.21363478E+05</totfact>
</mgrwt>
</event>
<event>
 7    1  0.3056193E-009  0.9350648E+02  0.7818608E-02  0.1294576E+00
          2   -1    0    0  501    0  0.00000000000E+00  0.00000000000E+00  0.89317733062E+03  0.89317733062E+03  0.25500000000E-02 0. -1.
         -2   -1    0    0    0  501 -0.00000000000E+00 -0.00000000000E+00 -0.24472907809E+01  0.24472921094E+01  0.25500000000E-02 0.  1.
         23    2    1    2    0    0  0.35527136788E-14  0.00000000000E+00  0.89073003984E+03  0.89562462273E+03  0.93506475572E+02 0.  0.
    9000005    2    3    3    0    0  0.22179078170E+02 -0.65320829982E+01  0.83329706638E+03  0.83371237792E+03  0.12559803050E+02 0.  0.
         22    1    3    3    0    0 -0.22179078170E+02  0.65320829982E+01  0.57432973465E+02  0.61912244813E+02  0.00000000000E+00 0.  1.
         22    1    4    4    0    0  0.13361476235E+02 -0.15240515685E+01  0.64682844684E+03  0.64696823062E+03  0.00000000000E+00 0. -1.
         22    1    4    4    0    0  0.88176019350E+01 -0.50080314297E+01  0.18646861953E+03  0.18674414731E+03  0.00000000000E+00 0. -1.
<mgrwt>
<rscale>  0 0.93506476E+02</rscale>
<asrwt>0</asrwt>
<pdfrwt beam="1">  1        2 0.13741193E+00 0.93506476E+02</pdfrwt>
<pdfrwt beam="2">  1       -2 0.37650629E-03 0.93506476E+02</pdfrwt>
<totfact> 0.23177749E+05</totfact>
</mgrwt>
</event>
<event>
 7    1  0.3056193E-009  0.9257648E+02  0.7818608E-02  0.1296730E+00
         -2   -1    0    0    0  501 -0.00000000000E+00  0.00000000000E+00  0.43240795064E+01  0.43240802583E+01  0.25500000000E-02 0.  1.
          2   -1    0    0  501    0  0.00000000000E+00 -0.00000000000E+00 -0.49550457009E+03  0.49550457009E+03  0.25500000000E-02 0. -1.
         23    2    1    2    0    0  0.00000000000E+00  0.00000000000E+00 -0.49118049058E+03  0.49982865035E+03  0.92576483977E+02 0.  0.
    9000005    2    3    3    0    0 -0.38541583337E+02  0.19602063365E+02 -0.33462090083E+03  0.33740759360E+03  0.17442507856E+01 0.  0.
         22    1    3    3    0    0  0.38541583337E+02 -0.19602063365E+02 -0.15655958975E+03  0.16242105675E+03  0.00000000000E+00 0.  1.
         22    1    4    4    0    0 -0.29084957747E+02  0.15391480352E+02 -0.25043549341E+03  0.25258814064E+03  0.00000000000E+00 0. -1.
         22    1    4    4    0    0 -0.94566255891E+01  0.42105830133E+01 -0.84185407423E+02  0.84819452957E+02  0.00000000000E+00 0. -1.
<mgrwt>
<rscale>  0 0.92576484E+02</rscale>
<asrwt>0</asrwt>
<pdfrwt beam="2">  1        2 0.76231427E-01 0.92576484E+02</pdfrwt>
<pdfrwt beam="1">  1       -2 0.66524345E-03 0.92576484E+02</pdfrwt>
<totfact> 0.20636172E+05</totfact>
</mgrwt>
</event>
<event>
 7    1  0.3056193E-009  0.9010164E+02  0.7818608E-02  0.1302606E+00
          2   -1    0    0  501    0  0.00000000000E+00  0.00000000000E+00  0.40420417028E+02  0.40420417109E+02  0.25500000000E-02 0.  1.
         -2   -1    0    0    0  501 -0.00000000000E+00 -0.00000000000E+00 -0.50211664407E+02  0.50211664472E+02  0.25500000000E-02 0. -1.
         23    2    1    2    0    0  0.35527136788E-14 -0.17763568394E-14 -0.97912473787E+01  0.90632081580E+02  0.90101640864E+02 0.  0.
    9000005    2    3    3    0    0 -0.30657880270E+02 -0.14125257181E+02 -0.33338029170E+02  0.49475314873E+02  0.14034032914E+02 0.  0.
         22    1    3    3    0    0  0.30657880270E+02  0.14125257181E+02  0.23546781791E+02  0.41156766707E+02  0.00000000000E+00 0.  1.
         22    1    4    4    0    0 -0.30659759562E+02 -0.14754846380E+02 -0.34307690233E+02  0.48319188293E+02  0.00000000000E+00 0. -1.
         22    1    4    4    0    0  0.18792925773E-02  0.62958919904E+00  0.96966106396E+00  0.11561265805E+01  0.00000000000E+00 0. -1.
<mgrwt>
<rscale>  0 0.90101641E+02</rscale>
<asrwt>0</asrwt>
<pdfrwt beam="1">  1        2 0.62185257E-02 0.90101641E+02</pdfrwt>
<pdfrwt beam="2">  1       -2 0.77248714E-02 0.90101641E+02</pdfrwt>
<totfact> 0.98981218E+04</totfact>
</mgrwt>
</event>
<event>
 7    1  0.3056193E-009  0.9181633E+02  0.7818608E-02  0.1298512E+00
         -2   -1    0    0    0  501 -0.00000000000E+00  0.00000000000E+00  0.59081741700E+02  0.59081741755E+02  0.25500000000E-02 0.  1.
          2   -1    0    0  501    0  0.00000000000E+00 -0.00000000000E+00 -0.35671924236E+02  0.35671924327E+02  0.25500000000E-02 0. -1.
         23    2    1    2    0    0  0.00000000000E+00  0.00000000000E+00  0.23409817464E+02  0.94753666081E+02  0.91816325793E+02 0.  0.
    9000005    2    3    3    0    0 -0.16855179122E+02  0.24367886512E+02 -0.24001094725E+02  0.38845835227E+02  0.74199333021E+01 0.  0.
         22    1    3    3    0    0  0.16855179122E+02 -0.24367886512E+02  0.47410912189E+02  0.55907830855E+02  0.00000000000E+00 0. -1.
         22    1    4    4    0    0 -0.26324288401E+01  0.59481390743E+01 -0.19612264644E+01  0.67938537878E+01  0.00000000000E+00 0. -1.
         22    1    4    4    0    0 -0.14222750281E+02  0.18419747437E+02 -0.22039868261E+02  0.32051981439E+02  0.00000000000E+00 0. -1.
<mgrwt>
<rscale>  0 0.91816326E+02</rscale>
<asrwt>0</asrwt>
<pdfrwt beam="2">  1        2 0.54879884E-02 0.91816326E+02</pdfrwt>
<pdfrwt beam="1">  1       -2 0.90894987E-02 0.91816326E+02</pdfrwt>
<totfact> 0.90719979E+04</totfact>
</mgrwt>
</event>
<event>
 7    1  0.3056193E-009  0.9128665E+02  0.7818608E-02  0.1299765E+00
         -2   -1    0    0    0  501 -0.00000000000E+00  0.00000000000E+00  0.69116559231E+01  0.69116563935E+01  0.25500000000E-02 0.  1.
          2   -1    0    0  501    0  0.00000000000E+00 -0.00000000000E+00 -0.30142027499E+03  0.30142027500E+03  0.25500000000E-02 0. -1.
         23    2    1    2    0    0  0.00000000000E+00 -0.35527136788E-14 -0.29450861906E+03  0.30833193139E+03  0.91286654077E+02 0.  0.
    9000005    2    3    3    0    0 -0.37686679313E+02  0.22756128871E+02 -0.11206311215E+03  0.12065004576E+03  0.77566255384E+01 0.  0.
         22    1    3    3    0    0  0.37686679313E+02 -0.22756128871E+02 -0.18244550692E+03  0.18768188563E+03  0.00000000000E+00 0. -1.
         22    1    4    4    0    0 -0.10146549407E+02  0.75735630509E+01 -0.23909905159E+02  0.27055404023E+02  0.00000000000E+00 0.  1.
         22    1    4    4    0    0 -0.27540129906E+02  0.15182565820E+02 -0.88153206990E+02  0.93594641741E+02  0.00000000000E+00 0.  1.
<mgrwt>
<rscale>  0 0.91286654E+02</rscale>
<asrwt>0</asrwt>
<pdfrwt beam="2">  1        2 0.46372340E-01 0.91286654E+02</pdfrwt>
<pdfrwt beam="1">  1       -2 0.10633320E-02 0.91286654E+02</pdfrwt>
<totfact> 0.17939890E+05</totfact>
</mgrwt>
</event>
<event>
 7    1  0.3056193E-009  0.9570083E+02  0.7818608E-02  0.1289605E+00
          2   -1    0    0  501    0  0.00000000000E+00  0.00000000000E+00  0.25579333760E+03  0.25579333762E+03  0.25500000000E-02 0. -1.
         -2   -1    0    0    0  501 -0.00000000000E+00 -0.00000000000E+00 -0.89512198379E+01  0.89512202011E+01  0.25500000000E-02 0.  1.
         23    2    1    2    0    0  0.00000000000E+00  0.00000000000E+00  0.24684211777E+03  0.26474455782E+03  0.95700834850E+02 0.  0.
    9000005    2    3    3    0    0  0.33598889437E+02  0.29686428663E+02  0.16273107546E+03  0.16943014728E+03  0.14662962499E+02 0.  0.
         22    1    3    3    0    0 -0.33598889437E+02 -0.29686428663E+02  0.84111042307E+02  0.95314410538E+02  0.00000000000E+00 0.  1.
         22    1    4    4    0    0  0.65342438963E+01  0.37181446546E-01  0.32569329301E+02  0.33218352411E+02  0.00000000000E+00 0. -1.
         22    1    4    4    0    0  0.27064645540E+02  0.29649247216E+02  0.13016174616E+03  0.13621179487E+03  0.00000000000E+00 0. -1.
<mgrwt>
<rscale>  0 0.95700835E+02</rscale>
<asrwt>0</asrwt>
<pdfrwt beam="1">  1        2 0.39352822E-01 0.95700835E+02</pdfrwt>
<pdfrwt beam="2">  1       -2 0.13771107E-02 0.95700835E+02</pdfrwt>
<totfact> 0.14864418E+05</totfact>
</mgrwt>
</event>
<event>
 7    1  0.3056193E-009  0.9289652E+02  0.7818608E-02  0.1295985E+00
          2   -1    0    0  501    0  0.00000000000E+00  0.00000000000E+00  0.10182610276E+03  0.10182610279E+03  0.25500000000E-02 0. -1.
         -2   -1    0    0    0  501 -0.00000000000E+00 -0.00000000000E+00 -0.21187500984E+02  0.21187501138E+02  0.25500000000E-02 0.  1.
         23    2    1    2    0    0  0.35527136788E-14  0.00000000000E+00  0.80638601771E+02  0.12301360392E+03  0.92896515839E+02 0.  0.
    9000005    2    3    3    0    0 -0.26805157702E+02  0.13166895295E+02 -0.66268406440E+01  0.30779439696E+02  0.34022463069E+01 0.  0.
         22    1    3    3    0    0  0.26805157702E+02 -0.13166895295E+02  0.87265442415E+02  0.92234164229E+02  0.00000000000E+00 0. -1.
         22    1    4    4    0    0 -0.16160163469E+02  0.61555518803E+01 -0.43437184571E+01  0.17830019414E+02  0.00000000000E+00 0.  1.
         22    1    4    4    0    0 -0.10644994234E+02  0.70113434143E+01 -0.22831221869E+01  0.12949420282E+02  0.00000000000E+00 0.  1.
<mgrwt>
<rscale>  0 0.92896516E+02</rscale>
<asrwt>0</asrwt>
<pdfrwt beam="1">  1        2 0.15665554E-01 0.92896516E+02</pdfrwt>
<pdfrwt beam="2">  1       -2 0.32596156E-02 0.92896516E+02</pdfrwt>
<totfact> 0.11716143E+05</totfact>
</mgrwt>
</event>
<event>
 7    1  0.3056193E-009  0.9255997E+02  0.7818608E-02  0.1296768E+00
          2   -1    0    0  501    0  0.00000000000E+00  0.00000000000E+00  0.71997380984E+03  0.71997380984E+03  0.25500000000E-02 0. -1.
         -2   -1    0    0    0  501 -0.00000000000E+00 -0.00000000000E+00 -0.29748811745E+01  0.29748822674E+01  0.25500000000E-02 0.  1.
         23    2    1    2    0    0  0.00000000000E+00 -0.88817841970E-15  0.71699892867E+03  0.72294869211E+03  0.92559968231E+02 0.  0.
    9000005    2    3    3    0    0  0.34394657406E+02  0.49876779063E+01  0.59381884293E+03  0.59495961871E+03  0.12176218039E+02 0.  0.
         22    1    3    3    0    0 -0.34394657406E+02 -0.49876779063E+01  0.12318008574E+03  0.12798907341E+03  0.00000000000E+00 0.  1.
         22    1    4    4    0    0  0.51968196818E+01  0.53291859997E+01  0.14621431575E+03  0.14640366555E+03  0.00000000000E+00 0. -1.
         22    1    4    4    0    0  0.29197837724E+02 -0.34150809341E+00  0.44760452718E+03  0.44855595315E+03  0.00000000000E+00 0. -1.
<mgrwt>
<rscale>  0 0.92559968E+02</rscale>
<asrwt>0</asrwt>
<pdfrwt beam="1">  1        2 0.11076522E+00 0.92559968E+02</pdfrwt>
<pdfrwt beam="2">  1       -2 0.45767405E-03 0.92559968E+02</pdfrwt>
<totfact> 0.22936651E+05</totfact>
</mgrwt>
</event>
<event>
 7    1  0.3056193E-009  0.9050541E+02  0.7818608E-02  0.1301632E+00
          2   -1    0    0  501    0  0.00000000000E+00  0.00000000000E+00  0.26368194314E+02  0.26368194437E+02  0.25500000000E-02 0. -1.
         -2   -1    0    0    0  501 -0.00000000000E+00 -0.00000000000E+00 -0.77662019006E+02  0.77662019048E+02  0.25500000000E-02 0.  1.
         23    2    1    2    0    0 -0.71054273576E-14 -0.35527136788E-14 -0.51293824691E+02  0.10403021349E+03  0.90505407939E+02 0.  0.
    9000005    2    3    3    0    0 -0.39554228935E+02 -0.20497244183E+02 -0.32994149846E+02  0.55868484434E+02  0.69281731484E+01 0.  0.
         22    1    3    3    0    0  0.39554228935E+02  0.20497244183E+02 -0.18299674845E+02  0.48161729051E+02  0.00000000000E+00 0. -1.
         22    1    4    4    0    0 -0.31871347173E+02 -0.16981115190E+02 -0.23151896263E+02  0.42896985259E+02  0.00000000000E+00 0. -1.
         22    1    4    4    0    0 -0.76828817618E+01 -0.35161289927E+01 -0.98422535831E+01  0.12971499175E+02  0.00000000000E+00 0. -1.
<mgrwt>
<rscale>  0 0.90505408E+02</rscale>
<asrwt>0</asrwt>
<pdfrwt beam="1">  1        2 0.40566453E-02 0.90505408E+02</pdfrwt>
<pdfrwt beam="2">  1       -2 0.11948003E-01 0.90505408E+02</pdfrwt>
<totfact> 0.87343849E+04</totfact>
</mgrwt>
</event>
<event>
 7    1  0.3056193E-009  0.9058395E+02  0.7818608E-02  0.1301444E+00
          2   -1    0    0  501    0  0.00000000000E+00  0.00000000000E+00  0.36633634387E+03  0.36633634388E+03  0.25500000000E-02 0. -1.
         -2   -1    0    0    0  501 -0.00000000000E+00 -0.00000000000E+00 -0.55996711460E+01  0.55996717266E+01  0.25500000000E-02 0.  1.
         23    2    1    2    0    0  0.00000000000E+00  0.00000000000E+00  0.36073667273E+03  0.37193601561E+03  0.90583953638E+02 0.  0.
    9000005    2    3    3    0    0 -0.30255611994E+01  0.33512632735E+02  0.30317141650E+03  0.30525761358E+03  0.11706933363E+02 0.  0.
         22    1    3    3    0    0  0.30255611994E+01 -0.33512632735E+02  0.57565256224E+02  0.66678402032E+02  0.00000000000E+00 0.  1.
         22    1    4    4    0    0 -0.22906081023E+01  0.34280570287E+02  0.29827181635E+03  0.30024403544E+03  0.00000000000E+00 0. -1.
         22    1    4    4    0    0 -0.73495309710E+00 -0.76793755219E+00  0.48996001516E+01  0.50135781419E+01  0.00000000000E+00 0. -1.
<mgrwt>
<rscale>  0 0.90583954E+02</rscale>
<asrwt>0</asrwt>
<pdfrwt beam="1">  1        2 0.56359447E-01 0.90583954E+02</pdfrwt>
<pdfrwt beam="2">  1       -2 0.86148777E-03 0.90583954E+02</pdfrwt>
<totfact> 0.19676712E+05</totfact>
</mgrwt>
</event>
<event>
 7    1  0.3056193E-009  0.9180052E+02  0.7818608E-02  0.1298549E+00
         -2   -1    0    0    0  501 -0.00000000000E+00  0.00000000000E+00  0.10596859974E+02  0.10596860281E+02  0.25500000000E-02 0. -1.
          2   -1    0    0  501    0  0.00000000000E+00 -0.00000000000E+00 -0.19881680488E+03  0.19881680489E+03  0.25500000000E-02 0.  1.
         23    2    1    2    0    0  0.00000000000E+00  0.35527136788E-14 -0.18821994490E+03  0.20941366517E+03  0.91800520164E+02 0.  0.
    9000005    2    3    3    0    0  0.34068210826E+02  0.21788025116E+02 -0.49627834632E+02  0.65042151167E+02  0.11497757643E+02 0.  0.
         22    1    3    3    0    0 -0.34068210826E+02 -0.21788025116E+02 -0.13859211027E+03  0.14437151401E+03  0.00000000000E+00 0.  1.
         22    1    4    4    0    0  0.27202389375E+02  0.21268735754E+02 -0.36671756435E+02  0.50370098554E+02  0.00000000000E+00 0. -1.
         22    1    4    4    0    0  0.68658214516E+01  0.51928936177E+00 -0.12956078197E+02  0.14672052613E+02  0.00000000000E+00 0. -1.
<mgrwt>
<rscale>  0 0.91800520E+02</rscale>
<asrwt>0</asrwt>
<pdfrwt beam="2">  1        2 0.30587198E-01 0.91800520E+02</pdfrwt>
<pdfrwt beam="1">  1       -2 0.16302863E-02 0.91800520E+02</pdfrwt>
<totfact> 0.15153744E+05</totfact>
</mgrwt>
</event>
<event>
 7    1  0.3232663E-009  0.9166530E+02  0.7818608E-02  0.1298868E+00
         -2   -1    0    0    0  501 -0.00000000000E+00  0.00000000000E+00  0.13621120659E+02  0.13621120898E+02  0.25500000000E-02 0.  1.
          2   -1    0    0  501    0  0.00000000000E+00 -0.00000000000E+00 -0.15421870805E+03  0.15421870807E+03  0.25500000000E-02 0. -1.
         23    2    1    2    0    0  0.00000000000E+00  0.00000000000E+00 -0.14059758739E+03  0.16783982897E+03  0.91665296642E+02 0.  0.
    9000005    2    3    3    0    0  0.11322365103E+02  0.38652975972E+02 -0.10823920139E+03  0.11617442810E+03  0.12590652187E+02 0.  0.
         22    1    3    3    0    0 -0.11322365103E+02 -0.38652975972E+02 -0.32358386003E+02  0.51665400877E+02  0.00000000000E+00 0.  1.
         22    1    4    4    0    0  0.13263317615E+02  0.25718859765E+02 -0.79375021899E+02  0.84485320874E+02  0.00000000000E+00 0.  1.
         22    1    4    4    0    0 -0.19409525126E+01  0.12934116207E+02 -0.28864179493E+02  0.31689107222E+02  0.00000000000E+00 0.  1.
<mgrwt>
<rscale>  0 0.91665297E+02</rscale>
<asrwt>0</asrwt>
<pdfrwt beam="2">  1        2 0.23725954E-01 0.91665297E+02</pdfrwt>
<pdfrwt beam="1">  1       -2 0.20955572E-02 0.91665297E+02</pdfrwt>
<totfact> 0.13910659E+05</totfact>
</mgrwt>
</event>
<event>
 7    1  0.3056193E-009  0.9006421E+02  0.7818608E-02  0.1302696E+00
         -2   -1    0    0    0  501 -0.00000000000E+00  0.00000000000E+00  0.25753491307E+01  0.25753503931E+01  0.25500000000E-02 0. -1.
          2   -1    0    0  501    0  0.00000000000E+00 -0.00000000000E+00 -0.78742326963E+03  0.78742326963E+03  0.25500000000E-02 0.  1.
         23    2    1    2    0    0  0.00000000000E+00  0.44408920985E-15 -0.78484792050E+03  0.78999862003E+03  0.90064206724E+02 0.  0.
    9000005    2    3    3    0    0  0.33241525168E+02 -0.22438638432E+01 -0.65191852905E+03  0.65295754213E+03  0.15676395758E+02 0.  0.
         22    1    3    3    0    0 -0.33241525168E+02  0.22438638432E+01 -0.13292939144E+03  0.13704107789E+03  0.00000000000E+00 0. -1.
         22    1    4    4    0    0  0.27022391831E+02 -0.61454725499E+01 -0.41440224273E+03  0.41532781663E+03  0.00000000000E+00 0. -1.
         22    1    4    4    0    0  0.62191333369E+01  0.39016087067E+01 -0.23751628633E+03  0.23762972550E+03  0.00000000000E+00 0. -1.
<mgrwt>
<rscale>  0 0.90064207E+02</rscale>
<asrwt>0</asrwt>
<pdfrwt beam="2">  1        2 0.12114185E+00 0.90064207E+02</pdfrwt>
<pdfrwt beam="1">  1       -2 0.39620828E-03 0.90064207E+02</pdfrwt>
<totfact> 0.25103487E+05</totfact>
</mgrwt>
</event>
<event>
 7    1  0.3056193E-009  0.9524815E+02  0.7818608E-02  0.1290618E+00
          2   -1    0    0  501    0  0.00000000000E+00  0.00000000000E+00  0.63454414067E+02  0.63454414119E+02  0.25500000000E-02 0. -1.
         -2   -1    0    0    0  501 -0.00000000000E+00 -0.00000000000E+00 -0.35743024108E+02  0.35743024199E+02  0.25500000000E-02 0.  1.
         23    2    1    2    0    0  0.00000000000E+00  0.00000000000E+00  0.27711389959E+02  0.99197438318E+02  0.95248152924E+02 0.  0.
    9000005    2    3    3    0    0  0.38947380016E+02  0.11303072672E+02  0.39579626991E+02  0.56942108333E+02  0.55856035273E+01 0.  0.
         22    1    3    3    0    0 -0.38947380016E+02 -0.11303072672E+02 -0.11868237032E+02  0.42255329985E+02  0.00000000000E+00 0.  1.
         22    1    4    4    0    0  0.16316784557E+02  0.49725955781E+01  0.12881550658E+02  0.21375184500E+02  0.00000000000E+00 0.  1.
         22    1    4    4    0    0  0.22630595458E+02  0.63304770937E+01  0.26698076333E+02  0.35566923832E+02  0.00000000000E+00 0.  1.
<mgrwt>
<rscale>  0 0.95248153E+02</rscale>
<asrwt>0</asrwt>
<pdfrwt beam="1">  1        2 0.97622175E-02 0.95248153E+02</pdfrwt>
<pdfrwt beam="2">  1       -2 0.54989268E-02 0.95248153E+02</pdfrwt>
<totfact> 0.95179896E+04</totfact>
</mgrwt>
</event>
<event>
 7    1  0.3056193E-009  0.9106800E+02  0.7818608E-02  0.1300286E+00
          2   -1    0    0  501    0  0.00000000000E+00  0.00000000000E+00  0.17445696043E+03  0.17445696045E+03  0.25500000000E-02 0. -1.
         -2   -1    0    0    0  501 -0.00000000000E+00 -0.00000000000E+00 -0.11884564871E+02  0.11884565145E+02  0.25500000000E-02 0.  1.
         23    2    1    2    0    0  0.00000000000E+00  0.00000000000E+00  0.16257239556E+03  0.18634152559E+03  0.91067998565E+02 0.  0.
    9000005    2    3    3    0    0 -0.31425919871E+01  0.16354356538E+02  0.16759233948E+03  0.16894782848E+03  0.13372944067E+02 0.  0.
         22    1    3    3    0    0  0.31425919871E+01 -0.16354356538E+02 -0.50199439253E+01  0.17393697110E+02  0.00000000000E+00 0.  1.
         22    1    4    4    0    0 -0.76142440369E+01  0.92870659496E+01  0.12243567736E+03  0.12302325552E+03  0.00000000000E+00 0.  1.
         22    1    4    4    0    0  0.44716520498E+01  0.70672905881E+01  0.45156662119E+02  0.45924572965E+02  0.00000000000E+00 0.  1.
<mgrwt>
<rscale>  0 0.91067999E+02</rscale>
<asrwt>0</asrwt>
<pdfrwt beam="1">  1        2 0.26839533E-01 0.91067999E+02</pdfrwt>
<pdfrwt beam="2">  1       -2 0.18283946E-02 0.91067999E+02</pdfrwt>
<totfact> 0.14778555E+05</totfact>
</mgrwt>
</event>
<event>
 7    1  0.3056193E-009  0.9092815E+02  0.7818608E-02  0.1300619E+00
          2   -1    0    0  501    0  0.00000000000E+00  0.00000000000E+00  0.10747817178E+03  0.10747817181E+03  0.25500000000E-02 0.  1.
         -2   -1    0    0    0  501 -0.00000000000E+00 -0.00000000000E+00 -0.19231644338E+02  0.19231644507E+02  0.25500000000E-02 0. -1.
         23    2    1    2    0    0  0.35527136788E-14  0.00000000000E+00  0.88246527440E+02  0.12670981632E+03  0.90928147157E+02 0.  0.
    9000005    2    3    3    0    0 -0.25772568646E+02 -0.64509899890E+01  0.95494859420E+02  0.99171136555E+02  0.31313868419E+01 0.  0.
         22    1    3    3    0    0  0.25772568646E+02  0.64509899890E+01 -0.72483319802E+01  0.27538679760E+02  0.00000000000E+00 0. -1.
         22    1    4    4    0    0 -0.12724983330E+02 -0.37150364753E+01  0.53096533239E+02  0.54726305730E+02  0.00000000000E+00 0.  1.
         22    1    4    4    0    0 -0.13047585315E+02 -0.27359535136E+01  0.42398326181E+02  0.44444830826E+02  0.00000000000E+00 0.  1.
<mgrwt>
<rscale>  0 0.90928147E+02</rscale>
<asrwt>0</asrwt>
<pdfrwt beam="1">  1        2 0.16535103E-01 0.90928147E+02</pdfrwt>
<pdfrwt beam="2">  1       -2 0.29587146E-02 0.90928147E+02</pdfrwt>
<totfact> 0.12637199E+05</totfact>
</mgrwt>
</event>
<event>
 7    1  0.3056193E-009  0.9023864E+02  0.7818608E-02  0.1302275E+00
         -2   -1    0    0    0  501 -0.00000000000E+00  0.00000000000E+00  0.14098789218E+03  0.14098789220E+03  0.25500000000E-02 0.  1.
          2   -1    0    0  501    0  0.00000000000E+00 -0.00000000000E+00 -0.14439203261E+02  0.14439203486E+02  0.25500000000E-02 0. -1.
         23    2    1    2    0    0 -0.35527136788E-14  0.00000000000E+00  0.12654868892E+03  0.15542709569E+03  0.90238635891E+02 0.  0.
    9000005    2    3    3    0    0  0.29352199124E+02  0.10408637144E+02  0.74591947992E+01  0.32332827219E+02  0.44587900074E+01 0.  0.
         22    1    3    3    0    0 -0.29352199124E+02 -0.10408637144E+02  0.11908949412E+03  0.12309426847E+03  0.00000000000E+00 0.  1.
         22    1    4    4    0    0  0.44368095621E+01  0.33654369552E+01  0.13499920688E+01  0.57300893166E+01  0.00000000000E+00 0.  1.
         22    1    4    4    0    0  0.24915389562E+02  0.70432001886E+01  0.61092027304E+01  0.26602737902E+02  0.00000000000E+00 0.  1.
<mgrwt>
<rscale>  0 0.90238636E+02</rscale>
<asrwt>0</asrwt>
<pdfrwt beam="2">  1        2 0.22214159E-02 0.90238636E+02</pdfrwt>
<pdfrwt beam="1">  1       -2 0.21690445E-01 0.90238636E+02</pdfrwt>
<totfact> 0.73312378E+04</totfact>
</mgrwt>
</event>
<event>
 7    1  0.3056193E-009  0.8967593E+02  0.7818608E-02  0.1303638E+00
          2   -1    0    0  501    0  0.00000000000E+00  0.00000000000E+00  0.56313193564E+03  0.56313193565E+03  0.25500000000E-02 0.  1.
         -2   -1    0    0    0  501 -0.00000000000E+00 -0.00000000000E+00 -0.35701099582E+01  0.35701108689E+01  0.25500000000E-02 0. -1.
         23    2    1    2    0    0  0.00000000000E+00  0.00000000000E+00  0.55956182568E+03  0.56670204652E+03  0.89675931908E+02 0.  0.
    9000005    2    3    3    0    0  0.19953323285E+02 -0.38120808306E+02  0.35841633213E+03  0.36100605552E+03  0.34313039651E+01 0.  0.
         22    1    3    3    0    0 -0.19953323285E+02  0.38120808306E+02  0.20114549355E+03  0.20569599099E+03  0.00000000000E+00 0. -1.
         22    1    4    4    0    0  0.37265669982E+01 -0.89252478735E+01  0.90610891135E+02  0.91125632747E+02  0.00000000000E+00 0.  1.
         22    1    4    4    0    0  0.16226756287E+02 -0.29195560432E+02  0.26780544100E+03  0.26988042278E+03  0.00000000000E+00 0.  1.
<mgrwt>
<rscale>  0 0.89675932E+02</rscale>
<asrwt>0</asrwt>
<pdfrwt beam="1">  1        2 0.86635678E-01 0.89675932E+02</pdfrwt>
<pdfrwt beam="2">  1       -2 0.54924779E-03 0.89675932E+02</pdfrwt>
<totfact> 0.23368828E+05</totfact>
</mgrwt>
</event>
<event>
 7    1  0.3056193E-009  0.9106968E+02  0.7818608E-02  0.1300282E+00
         -2   -1    0    0    0  501 -0.00000000000E+00  0.00000000000E+00  0.20507200431E+02  0.20507200590E+02  0.25500000000E-02 0.  1.
          2   -1    0    0  501    0  0.00000000000E+00 -0.00000000000E+00 -0.10110701049E+03  0.10110701053E+03  0.25500000000E-02 0. -1.
         23    2    1    2    0    0  0.00000000000E+00  0.41633363423E-15 -0.80599810063E+02  0.12161421112E+03  0.91069681910E+02 0.  0.
    9000005    2    3    3    0    0  0.20344246149E+02 -0.22359514874E+00  0.12055286921E+02  0.26751650834E+02  0.12505300214E+02 0.  0.
         22    1    3    3    0    0 -0.20344246149E+02  0.22359514874E+00 -0.92655096983E+02  0.94862560281E+02  0.00000000000E+00 0. -1.
         22    1    4    4    0    0  0.11107432316E+02 -0.40313835748E+01  0.10120214608E+01  0.11859649810E+02  0.00000000000E+00 0.  1.
         22    1    4    4    0    0  0.92368138333E+01  0.38077884260E+01  0.11043265460E+02  0.14892001024E+02  0.00000000000E+00 0.  1.
<mgrwt>
<rscale>  0 0.91069682E+02</rscale>
<asrwt>0</asrwt>
<pdfrwt beam="2">  1        2 0.15554924E-01 0.91069682E+02</pdfrwt>
<pdfrwt beam="1">  1       -2 0.31549540E-02 0.91069682E+02</pdfrwt>
<totfact> 0.12348808E+05</totfact>
</mgrwt>
</event>
<event>
 7    1  0.3056193E-009  0.8691901E+02  0.7818608E-02  0.1310489E+00
          2   -1    0    0  501    0  0.00000000000E+00  0.00000000000E+00  0.16438282694E+03  0.16438282696E+03  0.25500000000E-02 0. -1.
         -2   -1    0    0    0  501 -0.00000000000E+00 -0.00000000000E+00 -0.11489817623E+02  0.11489817906E+02  0.25500000000E-02 0.  1.
         23    2    1    2    0    0 -0.35527136788E-14  0.00000000000E+00  0.15289300931E+03  0.17587264486E+03  0.86919013537E+02 0.  0.
    9000005    2    3    3    0    0 -0.29252996505E+02 -0.92838663310E+01  0.16757242058E+02  0.36320234978E+02  0.98196908732E+01 0.  0.
         22    1    3    3    0    0  0.29252996505E+02  0.92838663310E+01  0.13613576726E+03  0.13955240989E+03  0.00000000000E+00 0. -1.
         22    1    4    4    0    0 -0.20030248658E+02 -0.71725085490E+01  0.62364843381E+01  0.22170915116E+02  0.00000000000E+00 0.  1.
         22    1    4    4    0    0 -0.92227478472E+01 -0.21113577819E+01  0.10520757720E+02  0.14149319861E+02  0.00000000000E+00 0.  1.
<mgrwt>
<rscale>  0 0.86919014E+02</rscale>
<asrwt>0</asrwt>
<pdfrwt beam="1">  1        2 0.25289666E-01 0.86919014E+02</pdfrwt>
<pdfrwt beam="2">  1       -2 0.17676643E-02 0.86919014E+02</pdfrwt>
<totfact> 0.16413897E+05</totfact>
</mgrwt>
</event>
<event>
 7    1  0.3056193E-009  0.9091992E+02  0.7818608E-02  0.1300639E+00
         -2   -1    0    0    0  501 -0.00000000000E+00  0.00000000000E+00  0.15412724264E+02  0.15412724475E+02  0.25500000000E-02 0.  1.
          2   -1    0    0  501    0  0.00000000000E+00 -0.00000000000E+00 -0.13408453668E+03  0.13408453670E+03  0.25500000000E-02 0. -1.
         23    2    1    2    0    0  0.17763568394E-14  0.00000000000E+00 -0.11867181241E+03  0.14949726118E+03  0.90919921017E+02 0.  0.
    9000005    2    3    3    0    0 -0.84920889250E+01 -0.34948517868E+02 -0.18339442848E+02  0.42913496662E+02  0.14550551752E+02 0.  0.
         22    1    3    3    0    0  0.84920889250E+01  0.34948517868E+02 -0.10033236956E+03  0.10658376451E+03  0.00000000000E+00 0. -1.
         22    1    4    4    0    0 -0.94038211324E+01 -0.36110039058E+02 -0.17786571547E+02  0.41336774185E+02  0.00000000000E+00 0. -1.
         22    1    4    4    0    0  0.91173220738E+00  0.11615211899E+01 -0.55287130131E+00  0.15767224766E+01  0.00000000000E+00 0. -1.
<mgrwt>
<rscale>  0 0.90919921E+02</rscale>
<asrwt>0</asrwt>
<pdfrwt beam="2">  1        2 0.20628390E-01 0.90919921E+02</pdfrwt>
<pdfrwt beam="1">  1       -2 0.23711885E-02 0.90919921E+02</pdfrwt>
<totfact> 0.13568471E+05</totfact>
</mgrwt>
</event>
<event>
 7    1  0.3056193E-009  0.9049032E+02  0.7818608E-02  0.1301669E+00
          2   -1    0    0  501    0  0.00000000000E+00  0.00000000000E+00  0.20884757899E+02  0.20884758055E+02  0.25500000000E-02 0.  1.
         -2   -1    0    0    0  501 -0.00000000000E+00 -0.00000000000E+00 -0.98020020861E+02  0.98020020895E+02  0.25500000000E-02 0. -1.
         23    2    1    2    0    0  0.71054273576E-14  0.00000000000E+00 -0.77135262962E+02  0.11890477895E+03  0.90490318072E+02 0.  0.
    9000005    2    3    3    0    0 -0.40165570134E+02 -0.19455982509E+01 -0.65794012463E+02  0.77123415405E+02  0.14528423561E+01 0.  0.
         22    1    3    3    0    0  0.40165570134E+02  0.19455982509E+01 -0.11341250499E+02  0.41781363545E+02  0.00000000000E+00 0.  1.
         22    1    4    4    0    0 -0.27198026279E+02 -0.14763478013E+01 -0.43283775780E+02  0.51140956992E+02  0.00000000000E+00 0.  1.
         22    1    4    4    0    0 -0.12967543855E+02 -0.46925044965E+00 -0.22510236683E+02  0.25982458412E+02  0.00000000000E+00 0.  1.
<mgrwt>
<rscale>  0 0.90490318E+02</rscale>
<asrwt>0</asrwt>
<pdfrwt beam="1">  1        2 0.32130398E-02 0.90490318E+02</pdfrwt>
<pdfrwt beam="2">  1       -2 0.15080003E-01 0.90490318E+02</pdfrwt>
<totfact> 0.81803724E+04</totfact>
</mgrwt>
</event>
<event>
 7    1  0.3056193E-009  0.9405245E+02  0.7818608E-02  0.1293325E+00
         -2   -1    0    0    0  501 -0.00000000000E+00  0.00000000000E+00  0.15983241429E+03  0.15983241431E+03  0.25500000000E-02 0. -1.
          2   -1    0    0  501    0  0.00000000000E+00 -0.00000000000E+00 -0.13836153687E+02  0.13836153922E+02  0.25500000000E-02 0.  1.
         23    2    1    2    0    0  0.00000000000E+00  0.00000000000E+00  0.14599626060E+03  0.17366856823E+03  0.94052450694E+02 0.  0.
    9000005    2    3    3    0    0 -0.21320978423E+02  0.67024134531E+01  0.14875198548E+03  0.15114967646E+03  0.14817727324E+02 0.  0.
         22    1    3    3    0    0  0.21320978423E+02 -0.67024134531E+01 -0.27557248758E+01  0.22518891771E+02  0.00000000000E+00 0.  1.
         22    1    4    4    0    0 -0.23438999332E+01  0.56087845962E+01  0.17441271104E+02  0.18470253633E+02  0.00000000000E+00 0.  1.
         22    1    4    4    0    0 -0.18977078490E+02  0.10936288569E+01  0.13131071438E+03  0.13267942283E+03  0.00000000000E+00 0.  1.
<mgrwt>
<rscale>  0 0.94052451E+02</rscale>
<asrwt>0</asrwt>
<pdfrwt beam="2">  1        2 0.21286391E-02 0.94052451E+02</pdfrwt>
<pdfrwt beam="1">  1       -2 0.24589602E-01 0.94052451E+02</pdfrwt>
<totfact> 0.63057511E+04</totfact>
</mgrwt>
</event>
<event>
 7    1  0.3056193E-009  0.9369464E+02  0.7818608E-02  0.1294143E+00
          2   -1    0    0  501    0  0.00000000000E+00  0.00000000000E+00  0.28680105955E+02  0.28680106069E+02  0.25500000000E-02 0. -1.
         -2   -1    0    0    0  501 -0.00000000000E+00 -0.00000000000E+00 -0.76522429359E+02  0.76522429401E+02  0.25500000000E-02 0.  1.
         23    2    1    2    0    0  0.00000000000E+00  0.00000000000E+00 -0.47842323403E+02  0.10520253547E+03  0.93694639978E+02 0.  0.
    9000005    2    3    3    0    0 -0.32415621320E+02  0.28839152374E+02 -0.74080096640E+01  0.45894838307E+02  0.12999552332E+02 0.  0.
         22    1    3    3    0    0  0.32415621320E+02 -0.28839152374E+02 -0.40434313740E+02  0.59307697163E+02  0.00000000000E+00 0. -1.
         22    1    4    4    0    0 -0.39995386941E+01  0.10225538234E+02 -0.42683584086E+01  0.11780357611E+02  0.00000000000E+00 0. -1.
         22    1    4    4    0    0 -0.28416082626E+02  0.18613614140E+02 -0.31396512554E+01  0.34114480696E+02  0.00000000000E+00 0. -1.
<mgrwt>
<rscale>  0 0.93694640E+02</rscale>
<asrwt>0</asrwt>
<pdfrwt beam="1">  1        2 0.44123240E-02 0.93694640E+02</pdfrwt>
<pdfrwt beam="2">  1       -2 0.11772681E-01 0.93694640E+02</pdfrwt>
<totfact> 0.80561047E+04</totfact>
</mgrwt>
</event>
<event>
 7    1  0.3056193E-009  0.8967517E+02  0.7818608E-02  0.1303640E+00
          2   -1    0    0  501    0  0.00000000000E+00  0.00000000000E+00  0.47049518790E+02  0.47049518859E+02  0.25500000000E-02 0. -1.
         -2   -1    0    0    0  501 -0.00000000000E+00 -0.00000000000E+00 -0.42729638298E+02  0.42729638375E+02  0.25500000000E-02 0.  1.
         23    2    1    2    0    0  0.00000000000E+00  0.00000000000E+00  0.43198804918E+01  0.89779157234E+02  0.89675167723E+02 0.  0.
    9000005    2    3    3    0    0 -0.28332438998E+02 -0.70882521344E+01 -0.30920110142E+02  0.44009873235E+02  0.11306870171E+02 0.  0.
         22    1    3    3    0    0  0.28332438998E+02  0.70882521344E+01  0.35239990634E+02  0.45769283999E+02  0.00000000000E+00 0. -1.
         22    1    4    4    0    0 -0.43592096183E+01 -0.58347633847E+01 -0.64168553651E+01  0.97068638101E+01  0.00000000000E+00 0.  1.
         22    1    4    4    0    0 -0.23973229380E+02 -0.12534887497E+01 -0.24503254777E+02  0.34303009425E+02  0.00000000000E+00 0.  1.
<mgrwt>
<rscale>  0 0.89675168E+02</rscale>
<asrwt>0</asrwt>
<pdfrwt beam="1">  1        2 0.72383875E-02 0.89675168E+02</pdfrwt>
<pdfrwt beam="2">  1       -2 0.65737905E-02 0.89675168E+02</pdfrwt>
<totfact> 0.10432016E+05</totfact>
</mgrwt>
</event>
<event>
 7    1  0.3056193E-009  0.9075560E+02  0.7818608E-02  0.1301032E+00
          2   -1    0    0  501    0  0.00000000000E+00  0.00000000000E+00  0.96494820935E+02  0.96494820969E+02  0.25500000000E-02 0.  1.
         -2   -1    0    0    0  501 -0.00000000000E+00 -0.00000000000E+00 -0.21339431108E+02  0.21339431260E+02  0.25500000000E-02 0. -1.
         23    2    1    2    0    0  0.35527136788E-14  0.88817841970E-15  0.75155389827E+02  0.11783425223E+03  0.90755596953E+02 0.  0.
    9000005    2    3    3    0    0  0.17176635669E+02  0.76963966821E+01 -0.15982627650E+02  0.24772930701E+02  0.19955886661E+01 0.  0.
         22    1    3    3    0    0 -0.17176635669E+02 -0.76963966821E+01  0.91138017477E+02  0.93061321528E+02  0.00000000000E+00 0.  1.
         22    1    4    4    0    0  0.44330897800E+00  0.44445052866E+00 -0.95038962708E+00  0.11389905907E+01  0.00000000000E+00 0. -1.
         22    1    4    4    0    0  0.16733326691E+02  0.72519461534E+01 -0.15032238023E+02  0.23633940110E+02  0.00000000000E+00 0. -1.
<mgrwt>
<rscale>  0 0.90755597E+02</rscale>
<asrwt>0</asrwt>
<pdfrwt beam="1">  1        2 0.14845357E-01 0.90755597E+02</pdfrwt>
<pdfrwt beam="2">  1       -2 0.32829894E-02 0.90755597E+02</pdfrwt>
<totfact> 0.12291532E+05</totfact>
</mgrwt>
</event>
<event>
 7    1  0.3056193E-009  0.9055937E+02  0.7818608E-02  0.1301503E+00
         -2   -1    0    0    0  501 -0.00000000000E+00  0.00000000000E+00  0.23939021828E+02  0.23939021964E+02  0.25500000000E-02 0.  1.
          2   -1    0    0  501    0  0.00000000000E+00 -0.00000000000E+00 -0.85644676146E+02  0.85644676184E+02  0.25500000000E-02 0. -1.
         23    2    1    2    0    0  0.00000000000E+00  0.00000000000E+00 -0.61705654317E+02  0.10958369815E+03  0.90559367958E+02 0.  0.
    9000005    2    3    3    0    0  0.17482209438E+02 -0.20718793788E+02  0.12278466454E+02  0.30789369740E+02  0.78948393079E+01 0.  0.
         22    1    3    3    0    0 -0.17482209438E+02  0.20718793788E+02 -0.73984120771E+02  0.78794328407E+02  0.00000000000E+00 0. -1.
         22    1    4    4    0    0  0.74610204607E+01 -0.33570336882E+01  0.38793127175E+01  0.90545882656E+01  0.00000000000E+00 0.  1.
         22    1    4    4    0    0  0.10021188978E+02 -0.17361760099E+02  0.83991537362E+01  0.21734781475E+02  0.00000000000E+00 0.  1.
<mgrwt>
<rscale>  0 0.90559368E+02</rscale>
<asrwt>0</asrwt>
<pdfrwt beam="2">  1        2 0.13176104E-01 0.90559368E+02</pdfrwt>
<pdfrwt beam="1">  1       -2 0.36829265E-02 0.90559368E+02</pdfrwt>
<totfact> 0.11936343E+05</totfact>
</mgrwt>
</event>
<event>
 7    1  0.3056193E-009  0.9185384E+02  0.7818608E-02  0.1298423E+00
          2   -1    0    0  501    0  0.00000000000E+00  0.00000000000E+00  0.15462647150E+03  0.15462647152E+03  0.25500000000E-02 0. -1.
         -2   -1    0    0    0  501 -0.00000000000E+00 -0.00000000000E+00 -0.13641143414E+02  0.13641143652E+02  0.25500000000E-02 0.  1.
         23    2    1    2    0    0  0.00000000000E+00 -0.35527136788E-14  0.14098532809E+03  0.16826761517E+03  0.91853838137E+02 0.  0.
    9000005    2    3    3    0    0 -0.36391690858E+02  0.27483624729E+02  0.63191198943E+02  0.78092056838E+02  0.50534073299E+01 0.  0.
         22    1    3    3    0    0  0.36391690858E+02 -0.27483624729E+02  0.77794129144E+02  0.90175558335E+02  0.00000000000E+00 0.  1.
         22    1    4    4    0    0  0.66445694486E-01  0.29864909349E+00  0.10677489434E+00  0.32404812825E+00  0.00000000000E+00 0.  1.
         22    1    4    4    0    0 -0.36458136553E+02  0.27184975636E+02  0.63084424049E+02  0.77768008710E+02  0.00000000000E+00 0.  1.
<mgrwt>
<rscale>  0 0.91853838E+02</rscale>
<asrwt>0</asrwt>
<pdfrwt beam="1">  1        2 0.23788687E-01 0.91853838E+02</pdfrwt>
<pdfrwt beam="2">  1       -2 0.20986375E-02 0.91853838E+02</pdfrwt>
<totfact> 0.13845771E+05</totfact>
</mgrwt>
</event>
<event>
 7    1  0.3056193E-009  0.9033142E+02  0.7818608E-02  0.1302051E+00
          2   -1    0    0  501    0  0.00000000000E+00  0.00000000000E+00  0.17844492652E+02  0.17844492834E+02  0.25500000000E-02 0. -1.
         -2   -1    0    0    0  501 -0.00000000000E+00 -0.00000000000E+00 -0.11431770141E+03  0.11431770144E+03  0.25500000000E-02 0.  1.
         23    2    1    2    0    0  0.00000000000E+00  0.00000000000E+00 -0.96473208761E+02  0.13216219427E+03  0.90331420818E+02 0.  0.
    9000005    2    3    3    0    0 -0.34661433032E+02  0.70751172447E+01 -0.89071168463E+02  0.96019941655E+02  0.58893055694E+01 0.  0.
         22    1    3    3    0    0  0.34661433032E+02 -0.70751172447E+01 -0.74020402975E+01  0.36142252620E+02  0.00000000000E+00 0. -1.
         22    1    4    4    0    0 -0.27331239291E+02  0.52131437574E+01 -0.75795401281E+02  0.80741045103E+02  0.00000000000E+00 0.  1.
         22    1    4    4    0    0 -0.73301937415E+01  0.18619734874E+01 -0.13275767182E+02  0.15278896551E+02  0.00000000000E+00 0.  1.
<mgrwt>
<rscale>  0 0.90331421E+02</rscale>
<asrwt>0</asrwt>
<pdfrwt beam="1">  1        2 0.27453066E-02 0.90331421E+02</pdfrwt>
<pdfrwt beam="2">  1       -2 0.17587338E-01 0.90331421E+02</pdfrwt>
<totfact> 0.78401899E+04</totfact>
</mgrwt>
</event>
<event>
 7    1  0.3056193E-009  0.9132535E+02  0.7818608E-02  0.1299674E+00
          2   -1    0    0  501    0  0.00000000000E+00  0.00000000000E+00  0.37867614713E+02  0.37867614799E+02  0.25500000000E-02 0. -1.
         -2   -1    0    0    0  501 -0.00000000000E+00 -0.00000000000E+00 -0.55062350780E+02  0.55062350839E+02  0.25500000000E-02 0.  1.
         23    2    1    2    0    0  0.00000000000E+00  0.00000000000E+00 -0.17194736067E+02  0.92929965638E+02  0.91325350069E+02 0.  0.
    9000005    2    3    3    0    0 -0.17108665682E+02  0.14015636243E+02  0.31017493081E+02  0.39886930845E+02  0.11821077550E+02 0.  0.
         22    1    3    3    0    0  0.17108665682E+02 -0.14015636243E+02 -0.48212229148E+02  0.53043034794E+02  0.00000000000E+00 0.  1.
         22    1    4    4    0    0 -0.58243263321E+01  0.91527732378E+01  0.70067822463E+01  0.12914760262E+02  0.00000000000E+00 0.  1.
         22    1    4    4    0    0 -0.11284339349E+02  0.48628630053E+01  0.24010710835E+02  0.26972170583E+02  0.00000000000E+00 0.  1.
<mgrwt>
<rscale>  0 0.91325350E+02</rscale>
<asrwt>0</asrwt>
<pdfrwt beam="1">  1        2 0.58257869E-02 0.91325350E+02</pdfrwt>
<pdfrwt beam="2">  1       -2 0.84711309E-02 0.91325350E+02</pdfrwt>
<totfact> 0.93599682E+04</totfact>
</mgrwt>
</event>
<event>
 7    1  0.3056193E-009  0.9201325E+02  0.7818608E-02  0.1298048E+00
         -2   -1    0    0    0  501 -0.00000000000E+00  0.00000000000E+00  0.10481742162E+02  0.10481742472E+02  0.25500000000E-02 0.  1.
          2   -1    0    0  501    0  0.00000000000E+00 -0.00000000000E+00 -0.20193299485E+03  0.20193299486E+03  0.25500000000E-02 0. -1.
         23    2    1    2    0    0  0.00000000000E+00  0.00000000000E+00 -0.19145125268E+03  0.21241473733E+03  0.92013251669E+02 0.  0.
    9000005    2    3    3    0    0 -0.35208519356E+02  0.19600485701E+02 -0.14459323427E+03  0.15061269235E+03  0.12375816103E+02 0.  0.
         22    1    3    3    0    0  0.35208519356E+02 -0.19600485701E+02 -0.46858018411E+02  0.61802044986E+02  0.00000000000E+00 0.  1.
         22    1    4    4    0    0 -0.22257576964E+02  0.16390138737E+02 -0.11271367850E+03  0.11605347776E+03  0.00000000000E+00 0. -1.
         22    1    4    4    0    0 -0.12950942393E+02  0.32103469648E+01 -0.31879555776E+02  0.34559214588E+02  0.00000000000E+00 0. -1.
<mgrwt>
<rscale>  0 0.92013252E+02</rscale>
<asrwt>0</asrwt>
<pdfrwt beam="2">  1        2 0.31066612E-01 0.92013252E+02</pdfrwt>
<pdfrwt beam="1">  1       -2 0.16125759E-02 0.92013252E+02</pdfrwt>
<totfact> 0.15144528E+05</totfact>
</mgrwt>
</event>
<event>
 7    1  0.3056193E-009  0.9046428E+02  0.7818608E-02  0.1301731E+00
          2   -1    0    0  501    0  0.00000000000E+00  0.00000000000E+00  0.51557215936E+03  0.51557215936E+03  0.25500000000E-02 0. -1.
         -2   -1    0    0    0  501 -0.00000000000E+00 -0.00000000000E+00 -0.39683020831E+01  0.39683029024E+01  0.25500000000E-02 0.  1.
         23    2    1    2    0    0  0.00000000000E+00  0.00000000000E+00  0.51160385727E+03  0.51954046226E+03  0.90464275567E+02 0.  0.
    9000005    2    3    3    0    0  0.17456925972E+02 -0.34612178569E+02  0.38917062398E+03  0.39111677370E+03  0.39760447479E+01 0.  0.
         22    1    3    3    0    0 -0.17456925972E+02  0.34612178569E+02  0.12243323329E+03  0.12842368856E+03  0.00000000000E+00 0.  1.
         22    1    4    4    0    0  0.20168572782E+01 -0.18444433839E+01  0.24889050572E+02  0.25038660568E+02  0.00000000000E+00 0.  1.
         22    1    4    4    0    0  0.15440068694E+02 -0.32767735185E+02  0.36428157341E+03  0.36607811313E+03  0.00000000000E+00 0.  1.
<mgrwt>
<rscale>  0 0.90464276E+02</rscale>
<asrwt>0</asrwt>
<pdfrwt beam="1">  1        2 0.79318784E-01 0.90464276E+02</pdfrwt>
<pdfrwt beam="2">  1       -2 0.61050815E-03 0.90464276E+02</pdfrwt>
<totfact> 0.22219701E+05</totfact>
</mgrwt>
</event>
<event>
 7    1  0.3056193E-009  0.9128924E+02  0.7818608E-02  0.1299759E+00
          2   -1    0    0  501    0  0.00000000000E+00  0.00000000000E+00  0.26462446785E+03  0.26462446787E+03  0.25500000000E-02 0. -1.
         -2   -1    0    0    0  501 -0.00000000000E+00 -0.00000000000E+00 -0.78731616093E+01  0.78731620222E+01  0.25500000000E-02 0.  1.
         23    2    1    2    0    0  0.00000000000E+00  0.00000000000E+00  0.25675130625E+03  0.27249762989E+03  0.91289238339E+02 0.  0.
    9000005    2    3    3    0    0  0.39516569554E+02  0.11377858314E+02  0.18528441252E+03  0.19004441996E+03  0.97751268595E+01 0.  0.
         22    1    3    3    0    0 -0.39516569554E+02 -0.11377858314E+02  0.71466893722E+02  0.82453209928E+02  0.00000000000E+00 0.  1.
         22    1    4    4    0    0  0.23937977368E+02  0.22284506194E+01  0.11385709359E+03  0.11636765235E+03  0.00000000000E+00 0. -1.
         22    1    4    4    0    0  0.15578592187E+02  0.91494076948E+01  0.71427318938E+02  0.73676767616E+02  0.00000000000E+00 0. -1.
<mgrwt>
<rscale>  0 0.91289238E+02</rscale>
<asrwt>0</asrwt>
<pdfrwt beam="1">  1        2 0.40711458E-01 0.91289238E+02</pdfrwt>
<pdfrwt beam="2">  1       -2 0.12112556E-02 0.91289238E+02</pdfrwt>
<totfact> 0.17088085E+05</totfact>
</mgrwt>
</event>
<event>
 7    1  0.3056193E-009  0.9133853E+02  0.7818608E-02  0.1299642E+00
          2   -1    0    0  501    0  0.00000000000E+00  0.00000000000E+00  0.75488765706E+03  0.75488765707E+03  0.25500000000E-02 0. -1.
         -2   -1    0    0    0  501 -0.00000000000E+00 -0.00000000000E+00 -0.27629027102E+01  0.27629038870E+01  0.25500000000E-02 0.  1.
         23    2    1    2    0    0 -0.17763568394E-14  0.00000000000E+00  0.75212475435E+03  0.75765056095E+03  0.91338526396E+02 0.  0.
    9000005    2    3    3    0    0 -0.14206284973E+02  0.14860409005E+02  0.71429248771E+03  0.71459326555E+03  0.26696208656E+01 0.  0.
         22    1    3    3    0    0  0.14206284973E+02 -0.14860409005E+02  0.37832266639E+02  0.43057295405E+02  0.00000000000E+00 0.  1.
         22    1    4    4    0    0 -0.65574555237E+01  0.67290511913E+01  0.37268256321E+03  0.37280098347E+03  0.00000000000E+00 0.  1.
         22    1    4    4    0    0 -0.76488294495E+01  0.81313578141E+01  0.34160992450E+03  0.34179228208E+03  0.00000000000E+00 0.  1.
<mgrwt>
<rscale>  0 0.91338526E+02</rscale>
<asrwt>0</asrwt>
<pdfrwt beam="1">  1        2 0.11613650E+00 0.91338526E+02</pdfrwt>
<pdfrwt beam="2">  1       -2 0.42506228E-03 0.91338526E+02</pdfrwt>
<totfact> 0.23995376E+05</totfact>
</mgrwt>
</event>
<event>
 7    1  0.3056193E-009  0.9097469E+02  0.7818608E-02  0.1300508E+00
         -2   -1    0    0    0  501 -0.00000000000E+00  0.00000000000E+00  0.18874822617E+03  0.18874822619E+03  0.25500000000E-02 0.  1.
          2   -1    0    0  501    0  0.00000000000E+00 -0.00000000000E+00 -0.10962215138E+02  0.10962215434E+02  0.25500000000E-02 0. -1.
         23    2    1    2    0    0  0.00000000000E+00  0.00000000000E+00  0.17778601103E+03  0.19971044162E+03  0.90974693042E+02 0.  0.
    9000005    2    3    3    0    0  0.35846803458E+02 -0.25343152864E+02  0.72297219199E+02  0.85451289176E+02  0.12155912253E+02 0.  0.
         22    1    3    3    0    0 -0.35846803458E+02  0.25343152864E+02  0.10548879184E+03  0.11425915245E+03  0.00000000000E+00 0.  1.
         22    1    4    4    0    0  0.26014614232E+02 -0.14121973326E+02  0.56098195553E+02  0.63428683011E+02  0.00000000000E+00 0.  1.
         22    1    4    4    0    0  0.98321892259E+01 -0.11221179538E+02  0.16199023646E+02  0.22022606165E+02  0.00000000000E+00 0.  1.
<mgrwt>
<rscale>  0 0.90974693E+02</rscale>
<asrwt>0</asrwt>
<pdfrwt beam="2">  1        2 0.16864946E-02 0.90974693E+02</pdfrwt>
<pdfrwt beam="1">  1       -2 0.29038189E-01 0.90974693E+02</pdfrwt>
<totfact> 0.64235685E+04</totfact>
</mgrwt>
</event>
<event>
 7    1  0.3056193E-009  0.1056051E+03  0.7818608E-02  0.1268932E+00
         -2   -1    0    0    0  501 -0.00000000000E+00  0.00000000000E+00  0.16382994539E+02  0.16382994737E+02  0.25500000000E-02 0.  1.
          2   -1    0    0  501    0  0.00000000000E+00 -0.00000000000E+00 -0.17018309601E+03  0.17018309603E+03  0.25500000000E-02 0. -1.
         23    2    1    2    0    0 -0.35527136788E-14  0.35527136788E-14 -0.15380010147E+03  0.18656609076E+03  0.10560508989E+03 0.  0.
    9000005    2    3    3    0    0  0.24051425317E+02  0.30262747348E+02 -0.14019859058E+03  0.14558675408E+03  0.67493129031E+01 0.  0.
         22    1    3    3    0    0 -0.24051425317E+02 -0.30262747348E+02 -0.13601510885E+02  0.40979336685E+02  0.00000000000E+00 0.  1.
         22    1    4    4    0    0  0.62927574416E+01  0.43597254334E+01 -0.33403209660E+02  0.34269234273E+02  0.00000000000E+00 0. -1.
         22    1    4    4    0    0  0.17758667875E+02  0.25903021915E+02 -0.10679538092E+03  0.11131751980E+03  0.00000000000E+00 0. -1.
<mgrwt>
<rscale>  0 0.10560509E+03</rscale>
<asrwt>0</asrwt>
<pdfrwt beam="2">  1        2 0.26182014E-01 0.10560509E+03</pdfrwt>
<pdfrwt beam="1">  1       -2 0.25204608E-02 0.10560509E+03</pdfrwt>
<totfact> 0.97776193E+04</totfact>
</mgrwt>
</event>
<event>
 7    1  0.3056193E-009  0.8353179E+02  0.7818608E-02  0.1319317E+00
          2   -1    0    0  501    0  0.00000000000E+00  0.00000000000E+00  0.15553004133E+03  0.15553004135E+03  0.25500000000E-02 0. -1.
         -2   -1    0    0    0  501 -0.00000000000E+00 -0.00000000000E+00 -0.11215775061E+02  0.11215775351E+02  0.25500000000E-02 0.  1.
         23    2    1    2    0    0  0.00000000000E+00  0.00000000000E+00  0.14431426626E+03  0.16674581670E+03  0.83531789988E+02 0.  0.
    9000005    2    3    3    0    0  0.17823916349E+02  0.14949643573E+02  0.71214516193E+01  0.27594631912E+02  0.13021704965E+02 0.  0.
         22    1    3    3    0    0 -0.17823916349E+02 -0.14949643573E+02  0.13719281465E+03  0.13915118479E+03  0.00000000000E+00 0. -1.
         22    1    4    4    0    0  0.50664658707E+01  0.12448831226E+02  0.18532614573E+01  0.13567499893E+02  0.00000000000E+00 0. -1.
         22    1    4    4    0    0  0.12757450478E+02  0.25008123475E+01  0.52681901620E+01  0.14027132019E+02  0.00000000000E+00 0. -1.
<mgrwt>
<rscale>  0 0.83531790E+02</rscale>
<asrwt>0</asrwt>
<pdfrwt beam="1">  1        2 0.23927700E-01 0.83531790E+02</pdfrwt>
<pdfrwt beam="2">  1       -2 0.17255038E-02 0.83531790E+02</pdfrwt>
<totfact> 0.17921710E+05</totfact>
</mgrwt>
</event>
<event>
 7    1  0.3056193E-009  0.9078022E+02  0.7818608E-02  0.1300973E+00
         -2   -1    0    0    0  501 -0.00000000000E+00  0.00000000000E+00  0.25007364886E+01  0.25007377888E+01  0.25500000000E-02 0.  1.
          2   -1    0    0  501    0  0.00000000000E+00 -0.00000000000E+00 -0.82386185456E+03  0.82386185456E+03  0.25500000000E-02 0. -1.
         23    2    1    2    0    0  0.00000000000E+00  0.00000000000E+00 -0.82136111807E+03  0.82636259235E+03  0.90780216790E+02 0.  0.
    9000005    2    3    3    0    0  0.15116229310E+02 -0.17986825230E+02 -0.76230610477E+03  0.76280536722E+03  0.14470819634E+02 0.  0.
         22    1    3    3    0    0 -0.15116229310E+02  0.17986825230E+02 -0.59055013297E+02  0.63557225127E+02  0.00000000000E+00 0.  1.
         22    1    4    4    0    0 -0.10052981157E+01 -0.87779474903E+01 -0.28975268971E+03  0.28988736464E+03  0.00000000000E+00 0.  1.
         22    1    4    4    0    0  0.16121527426E+02 -0.92088777393E+01 -0.47255341507E+03  0.47291800258E+03  0.00000000000E+00 0.  1.
<mgrwt>
<rscale>  0 0.90780217E+02</rscale>
<asrwt>0</asrwt>
<pdfrwt beam="2">  1        2 0.12674776E+00 0.90780217E+02</pdfrwt>
<pdfrwt beam="1">  1       -2 0.38472945E-03 0.90780217E+02</pdfrwt>
<totfact> 0.24777818E+05</totfact>
</mgrwt>
</event>
<event>
 7    1  0.3056193E-009  0.9170090E+02  0.7818608E-02  0.1298784E+00
          2   -1    0    0  501    0  0.00000000000E+00  0.00000000000E+00  0.46344262098E+03  0.46344262098E+03  0.25500000000E-02 0. -1.
         -2   -1    0    0    0  501 -0.00000000000E+00 -0.00000000000E+00 -0.45361896871E+01  0.45361904038E+01  0.25500000000E-02 0.  1.
         23    2    1    2    0    0 -0.88817841970E-15  0.00000000000E+00  0.45890643129E+03  0.46797881139E+03  0.91700900915E+02 0.  0.
    9000005    2    3    3    0    0 -0.31982033177E+01 -0.21585637474E+02  0.43479903239E+03  0.43546212442E+03  0.10044649644E+02 0.  0.
         22    1    3    3    0    0  0.31982033177E+01  0.21585637474E+02  0.24107398894E+02  0.32516686963E+02  0.00000000000E+00 0.  1.
         22    1    4    4    0    0  0.25739089076E+01 -0.47500608347E+01  0.60692575602E+02  0.60932559590E+02  0.00000000000E+00 0.  1.
         22    1    4    4    0    0 -0.57721122253E+01 -0.16835576639E+02  0.37410645679E+03  0.37452956483E+03  0.00000000000E+00 0.  1.
<mgrwt>
<rscale>  0 0.91700901E+02</rscale>
<asrwt>0</asrwt>
<pdfrwt beam="1">  1        2 0.71298881E-01 0.91700901E+02</pdfrwt>
<pdfrwt beam="2">  1       -2 0.69787524E-03 0.91700901E+02</pdfrwt>
<totfact> 0.20696685E+05</totfact>
</mgrwt>
</event>
<event>
 7    1  0.3056193E-009  0.9680062E+02  0.7818608E-02  0.1287171E+00
         -2   -1    0    0    0  501 -0.00000000000E+00  0.00000000000E+00  0.14403031816E+02  0.14403032041E+02  0.25500000000E-02 0.  1.
          2   -1    0    0  501    0  0.00000000000E+00 -0.00000000000E+00 -0.16264562875E+03  0.16264562877E+03  0.25500000000E-02 0. -1.
         23    2    1    2    0    0  0.35527136788E-14  0.00000000000E+00 -0.14824259693E+03  0.17704866081E+03  0.96800623702E+02 0.  0.
    9000005    2    3    3    0    0 -0.18385312482E+02 -0.11514581458E+02 -0.15315338638E+03  0.15480633282E+03  0.61996468985E+01 0.  0.
         22    1    3    3    0    0  0.18385312482E+02  0.11514581458E+02  0.49107894469E+01  0.22242327985E+02  0.00000000000E+00 0.  1.
         22    1    4    4    0    0 -0.11975834284E+02 -0.10005565175E+02 -0.93864214576E+02  0.95152628546E+02  0.00000000000E+00 0. -1.
         22    1    4    4    0    0 -0.64094781978E+01 -0.15090162827E+01 -0.59289171803E+02  0.59653704277E+02  0.00000000000E+00 0. -1.
<mgrwt>
<rscale>  0 0.96800624E+02</rscale>
<asrwt>0</asrwt>
<pdfrwt beam="2">  1        2 0.25022403E-01 0.96800624E+02</pdfrwt>
<pdfrwt beam="1">  1       -2 0.22158512E-02 0.96800624E+02</pdfrwt>
<totfact> 0.12215370E+05</totfact>
</mgrwt>
</event>
<event>
 7    1  0.3056193E-009  0.9279249E+02  0.7818608E-02  0.1296227E+00
          2   -1    0    0  501    0  0.00000000000E+00  0.00000000000E+00  0.71555403281E+03  0.71555403282E+03  0.25500000000E-02 0. -1.
         -2   -1    0    0    0  501 -0.00000000000E+00 -0.00000000000E+00 -0.30083138391E+01  0.30083149199E+01  0.25500000000E-02 0.  1.
         23    2    1    2    0    0  0.00000000000E+00  0.00000000000E+00  0.71254571897E+03  0.71856234774E+03  0.92792488694E+02 0.  0.
    9000005    2    3    3    0    0  0.20771155628E+02 -0.31628386917E+02  0.55577202601E+03  0.55728684876E+03  0.15946508703E+02 0.  0.
         22    1    3    3    0    0 -0.20771155628E+02  0.31628386917E+02  0.15677369296E+03  0.16127549898E+03  0.00000000000E+00 0.  1.
         22    1    4    4    0    0  0.57046824139E+01 -0.20090470789E+02  0.22360952815E+03  0.22458270525E+03  0.00000000000E+00 0. -1.
         22    1    4    4    0    0  0.15066473214E+02 -0.11537916128E+02  0.33216249786E+03  0.33270414351E+03  0.00000000000E+00 0. -1.
<mgrwt>
<rscale>  0 0.92792489E+02</rscale>
<asrwt>0</asrwt>
<pdfrwt beam="1">  1        2 0.11008511E+00 0.92792489E+02</pdfrwt>
<pdfrwt beam="2">  1       -2 0.46281811E-03 0.92792489E+02</pdfrwt>
<totfact> 0.22753746E+05</totfact>
</mgrwt>
</event>
<event>
 6    1  0.3056193E-009  0.1973257E+03  0.7818608E-02  0.1152015E+00
         -2   -1    0    0    0  501 -0.00000000000E+00  0.00000000000E+00  0.89746686703E+01  0.89746690326E+01  0.25500000000E-02 0.  1.
          2   -1    0    0  501    0  0.00000000000E+00 -0.00000000000E+00 -0.10846478915E+04  0.10846478915E+04  0.25500000000E-02 0. -1.
    9000005    2    1    2    0    0  0.16770665337E+02 -0.11495055994E+02 -0.10728991518E+04  0.10731021561E+04  0.47176205866E+01 0.  0.
         22    1    1    2    0    0 -0.16770665337E+02  0.11495055994E+02 -0.27740710190E+01  0.20520404435E+02  0.00000000000E+00 0.  1.
         22    1    3    3    0    0  0.22034142883E+01 -0.82347364955E-01 -0.16237350805E+03  0.16238847845E+03  0.00000000000E+00 0.  1.
         22    1    3    3    0    0  0.14567251048E+02 -0.11412708629E+02 -0.91052564375E+03  0.91071367764E+03  0.00000000000E+00 0.  1.
<mgrwt>
<rscale>  0 0.19732568E+03</rscale>
<asrwt>0</asrwt>
<pdfrwt beam="2">  1        2 0.16686880E+00 0.19732568E+03</pdfrwt>
<pdfrwt beam="1">  1       -2 0.13807191E-02 0.19732568E+03</pdfrwt>
<totfact> 0.30361500E+04</totfact>
</mgrwt>
</event>
<event>
 7    1  0.3056193E-009  0.9015120E+02  0.7818608E-02  0.1302486E+00
         -2   -1    0    0    0  501 -0.00000000000E+00  0.00000000000E+00  0.18016375061E+02  0.18016375242E+02  0.25500000000E-02 0. -1.
          2   -1    0    0  501    0  0.00000000000E+00 -0.00000000000E+00 -0.11277571987E+03  0.11277571990E+03  0.25500000000E-02 0.  1.
         23    2    1    2    0    0 -0.35527136788E-14  0.00000000000E+00 -0.94759344809E+02  0.13079209514E+03  0.90151199230E+02 0.  0.
    9000005    2    3    3    0    0  0.23144093461E+02 -0.20653960325E+02 -0.13520304630E+01  0.32368716248E+02  0.91471671004E+01 0.  0.
         22    1    3    3    0    0 -0.23144093461E+02  0.20653960325E+02 -0.93407314346E+02  0.98423378892E+02  0.00000000000E+00 0.  1.
         22    1    4    4    0    0  0.52151128146E+01 -0.32571723629E+01 -0.38620829167E+01  0.72610094289E+01  0.00000000000E+00 0.  1.
         22    1    4    4    0    0  0.17928980646E+02 -0.17396787962E+02  0.25100524537E+01  0.25107706819E+02  0.00000000000E+00 0.  1.
<mgrwt>
<rscale>  0 0.90151199E+02</rscale>
<asrwt>0</asrwt>
<pdfrwt beam="2">  1        2 0.17350110E-01 0.90151199E+02</pdfrwt>
<pdfrwt beam="1">  1       -2 0.27717501E-02 0.90151199E+02</pdfrwt>
<totfact> 0.13133201E+05</totfact>
</mgrwt>
</event>
<event>
 7    1  0.3056193E-009  0.9044630E+02  0.7818608E-02  0.1301774E+00
         -2   -1    0    0    0  501 -0.00000000000E+00  0.00000000000E+00  0.34970851337E+02  0.34970851430E+02  0.25500000000E-02 0.  1.
          2   -1    0    0  501    0  0.00000000000E+00 -0.00000000000E+00 -0.58481087717E+02  0.58481087772E+02  0.25500000000E-02 0. -1.
         23    2    1    2    0    0  0.00000000000E+00  0.88817841970E-15 -0.23510236380E+02  0.93451939202E+02  0.90446302998E+02 0.  0.
    9000005    2    3    3    0    0  0.32229670496E+02 -0.53673126953E+01 -0.43039732088E+02  0.55386720058E+02  0.12153621465E+02 0.  0.
         22    1    3    3    0    0 -0.32229670496E+02  0.53673126953E+01  0.19529495709E+02  0.38065219144E+02  0.00000000000E+00 0.  1.
         22    1    4    4    0    0  0.19728308536E+02 -0.60073269126E+01 -0.17919479231E+02  0.27320356334E+02  0.00000000000E+00 0.  1.
         22    1    4    4    0    0  0.12501361960E+02  0.64001421725E+00 -0.25120252858E+02  0.28066363724E+02  0.00000000000E+00 0.  1.
<mgrwt>
<rscale>  0 0.90446303E+02</rscale>
<asrwt>0</asrwt>
<pdfrwt beam="2">  1        2 0.89970904E-02 0.90446303E+02</pdfrwt>
<pdfrwt beam="1">  1       -2 0.53801310E-02 0.90446303E+02</pdfrwt>
<totfact> 0.10776172E+05</totfact>
</mgrwt>
</event>
<event>
 7    1  0.3056193E-009  0.9080036E+02  0.7818608E-02  0.1300925E+00
         -2   -1    0    0    0  501 -0.00000000000E+00  0.00000000000E+00  0.45043275326E+02  0.45043275398E+02  0.25500000000E-02 0.  1.
          2   -1    0    0  501    0  0.00000000000E+00 -0.00000000000E+00 -0.45759912121E+02  0.45759912192E+02  0.25500000000E-02 0. -1.
         23    2    1    2    0    0  0.00000000000E+00 -0.35527136788E-14 -0.71663679558E+00  0.90803187590E+02  0.90800359626E+02 0.  0.
    9000005    2    3    3    0    0  0.16646175838E+02 -0.24153213848E+02 -0.33262093730E+02  0.46989038319E+02  0.15528359014E+02 0.  0.
         22    1    3    3    0    0 -0.16646175838E+02  0.24153213848E+02  0.32545456935E+02  0.43814149270E+02  0.00000000000E+00 0.  1.
         22    1    4    4    0    0  0.59990562217E+01 -0.92598132100E+01 -0.24124077867E+02  0.26527418818E+02  0.00000000000E+00 0.  1.
         22    1    4    4    0    0  0.10647119616E+02 -0.14893400638E+02 -0.91380158632E+01  0.20461619501E+02  0.00000000000E+00 0.  1.
<mgrwt>
<rscale>  0 0.90800360E+02</rscale>
<asrwt>0</asrwt>
<pdfrwt beam="2">  1        2 0.70399865E-02 0.90800360E+02</pdfrwt>
<pdfrwt beam="1">  1       -2 0.69297347E-02 0.90800360E+02</pdfrwt>
<totfact> 0.99949563E+04</totfact>
</mgrwt>
</event>
<event>
 7    1  0.3056193E-009  0.9204591E+02  0.7818608E-02  0.1297972E+00
         -2   -1    0    0    0  501 -0.00000000000E+00  0.00000000000E+00  0.12918177143E+03  0.12918177146E+03  0.25500000000E-02 0.  1.
          2   -1    0    0  501    0  0.00000000000E+00 -0.00000000000E+00 -0.16396371524E+02  0.16396371722E+02  0.25500000000E-02 0. -1.
         23    2    1    2    0    0  0.17763568394E-14  0.00000000000E+00  0.11278539991E+03  0.14557814318E+03  0.92045908868E+02 0.  0.
    9000005    2    3    3    0    0 -0.10609955191E+02  0.36150604016E+02  0.96026139966E+02  0.10434332642E+03  0.15718552434E+02 0.  0.
         22    1    3    3    0    0  0.10609955191E+02 -0.36150604016E+02  0.16759259945E+02  0.41234816767E+02  0.00000000000E+00 0. -1.
         22    1    4    4    0    0 -0.13118432551E+02  0.35842344546E+02  0.87786616366E+02  0.95724902445E+02  0.00000000000E+00 0. -1.
         22    1    4    4    0    0  0.25084773598E+01  0.30825947049E+00  0.82395235999E+01  0.86184239696E+01  0.00000000000E+00 0. -1.
<mgrwt>
<rscale>  0 0.92045909E+02</rscale>
<asrwt>0</asrwt>
<pdfrwt beam="2">  1        2 0.25225187E-02 0.92045909E+02</pdfrwt>
<pdfrwt beam="1">  1       -2 0.19874119E-01 0.92045909E+02</pdfrwt>
<totfact> 0.71865604E+04</totfact>
</mgrwt>
</event>
<event>
 7    1  0.3056193E-009  0.9262807E+02  0.7818608E-02  0.1296609E+00
          2   -1    0    0  501    0  0.00000000000E+00  0.00000000000E+00  0.24049413310E+03  0.24049413311E+03  0.25500000000E-02 0. -1.
         -2   -1    0    0    0  501 -0.00000000000E+00 -0.00000000000E+00 -0.89190932347E+01  0.89190935992E+01  0.25500000000E-02 0.  1.
         23    2    1    2    0    0  0.00000000000E+00  0.00000000000E+00  0.23157503986E+03  0.24941322671E+03  0.92628065782E+02 0.  0.
    9000005    2    3    3    0    0 -0.26904028571E+02  0.13025947434E+02  0.20984292797E+03  0.21245667456E+03  0.14501106274E+02 0.  0.
         22    1    3    3    0    0  0.26904028571E+02 -0.13025947434E+02  0.21732111889E+02  0.36956552153E+02  0.00000000000E+00 0.  1.
         22    1    4    4    0    0 -0.12866286520E+02  0.51250660490E+01  0.14430802139E+03  0.14497107528E+03  0.00000000000E+00 0. -1.
         22    1    4    4    0    0 -0.14037742052E+02  0.79008813852E+01  0.65534906581E+02  0.67485599273E+02  0.00000000000E+00 0. -1.
<mgrwt>
<rscale>  0 0.92628066E+02</rscale>
<asrwt>0</asrwt>
<pdfrwt beam="1">  1        2 0.36999092E-01 0.92628066E+02</pdfrwt>
<pdfrwt beam="2">  1       -2 0.13721684E-02 0.92628066E+02</pdfrwt>
<totfact> 0.15860401E+05</totfact>
</mgrwt>
</event>
<event>
 7    1  0.3056193E-009  0.9088142E+02  0.7818608E-02  0.1300731E+00
          2   -1    0    0  501    0  0.00000000000E+00  0.00000000000E+00  0.35201520980E+03  0.35201520981E+03  0.25500000000E-02 0.  1.
         -2   -1    0    0    0  501 -0.00000000000E+00 -0.00000000000E+00 -0.58658203988E+01  0.58658209531E+01  0.25500000000E-02 0. -1.
         23    2    1    2    0    0  0.00000000000E+00  0.00000000000E+00  0.34614938940E+03  0.35788103076E+03  0.90881419425E+02 0.  0.
    9000005    2    3    3    0    0 -0.39088658254E+02  0.20514657394E+02  0.13405258772E+03  0.14123886576E+03  0.54356743398E+01 0.  0.
         22    1    3    3    0    0  0.39088658254E+02 -0.20514657394E+02  0.21209680168E+03  0.21664216500E+03  0.00000000000E+00 0. -1.
         22    1    4    4    0    0 -0.22361288120E+02  0.90298468761E+01  0.68776195228E+02  0.72881618883E+02  0.00000000000E+00 0. -1.
         22    1    4    4    0    0 -0.16727370134E+02  0.11484810518E+02  0.65276392492E+02  0.68357246880E+02  0.00000000000E+00 0. -1.
<mgrwt>
<rscale>  0 0.90881419E+02</rscale>
<asrwt>0</asrwt>
<pdfrwt beam="1">  1        2 0.54156206E-01 0.90881419E+02</pdfrwt>
<pdfrwt beam="2">  1       -2 0.90243363E-03 0.90881419E+02</pdfrwt>
<totfact> 0.19224910E+05</totfact>
</mgrwt>
</event>
<event>
 7    1  0.3056193E-009  0.8932828E+02  0.7818608E-02  0.1304487E+00
         -2   -1    0    0    0  501 -0.00000000000E+00  0.00000000000E+00  0.29166874857E+01  0.29166886004E+01  0.25500000000E-02 0.  1.
          2   -1    0    0  501    0  0.00000000000E+00 -0.00000000000E+00 -0.68395569959E+03  0.68395569960E+03  0.25500000000E-02 0. -1.
         23    2    1    2    0    0 -0.55511151231E-16  0.71054273576E-14 -0.68103901211E+03  0.68687238820E+03  0.89328280276E+02 0.  0.
    9000005    2    3    3    0    0  0.28527401543E+00 -0.41543834116E+02 -0.46607060589E+03  0.46792630532E+03  0.26918405160E+01 0.  0.
         22    1    3    3    0    0 -0.28527401543E+00  0.41543834116E+02 -0.21496840622E+03  0.21894608288E+03  0.00000000000E+00 0.  1.
         22    1    4    4    0    0  0.29556919926E+00 -0.36137356773E+02 -0.39450850761E+03  0.39616026869E+03  0.00000000000E+00 0.  1.
         22    1    4    4    0    0 -0.10295183829E-01 -0.54064773428E+01 -0.71562098281E+02  0.71766036630E+02  0.00000000000E+00 0.  1.
<mgrwt>
<rscale>  0 0.89328280E+02</rscale>
<asrwt>0</asrwt>
<pdfrwt beam="2">  1        2 0.10522383E+00 0.89328280E+02</pdfrwt>
<pdfrwt beam="1">  1       -2 0.44872178E-03 0.89328280E+02</pdfrwt>
<totfact> 0.24892042E+05</totfact>
</mgrwt>
</event>
<event>
 7    1  0.3056193E-009  0.8977644E+02  0.7818608E-02  0.1303394E+00
         -2   -1    0    0    0  501 -0.00000000000E+00  0.00000000000E+00  0.23579173047E+02  0.23579173185E+02  0.25500000000E-02 0.  1.
          2   -1    0    0  501    0  0.00000000000E+00 -0.00000000000E+00 -0.85454739790E+02  0.85454739828E+02  0.25500000000E-02 0. -1.
         23    2    1    2    0    0  0.00000000000E+00  0.35527136788E-14 -0.61875566743E+02  0.10903391301E+03  0.89776435812E+02 0.  0.
    9000005    2    3    3    0    0  0.30468629041E+02  0.31524427320E+02 -0.25211678282E+02  0.51881768779E+02  0.11574209964E+02 0.  0.
         22    1    3    3    0    0 -0.30468629041E+02 -0.31524427320E+02 -0.36663888461E+02  0.57152144234E+02  0.00000000000E+00 0.  1.
         22    1    4    4    0    0  0.21553340646E+02  0.21182950616E+02 -0.23160734872E+02  0.38074709842E+02  0.00000000000E+00 0.  1.
         22    1    4    4    0    0  0.89152883952E+01  0.10341476705E+02 -0.20509434109E+01  0.13807058937E+02  0.00000000000E+00 0.  1.
<mgrwt>
<rscale>  0 0.89776436E+02</rscale>
<asrwt>0</asrwt>
<pdfrwt beam="2">  1        2 0.13146883E-01 0.89776436E+02</pdfrwt>
<pdfrwt beam="1">  1       -2 0.36275652E-02 0.89776436E+02</pdfrwt>
<totfact> 0.12218354E+05</totfact>
</mgrwt>
</event>
<event>
 7    1  0.3056193E-009  0.9092378E+02  0.7818608E-02  0.1300630E+00
          2   -1    0    0  501    0  0.00000000000E+00  0.00000000000E+00  0.21717574072E+03  0.21717574074E+03  0.25500000000E-02 0. -1.
         -2   -1    0    0    0  501 -0.00000000000E+00 -0.00000000000E+00 -0.95166401279E+01  0.95166404695E+01  0.25500000000E-02 0.  1.
         23    2    1    2    0    0  0.00000000000E+00  0.00000000000E+00  0.20765910059E+03  0.22669238121E+03  0.90923779274E+02 0.  0.
    9000005    2    3    3    0    0  0.16940629519E+02 -0.36231765980E+02  0.56498463213E+02  0.70329776700E+02  0.12428811317E+02 0.  0.
         22    1    3    3    0    0 -0.16940629519E+02  0.36231765980E+02  0.15116063738E+03  0.15636260451E+03  0.00000000000E+00 0. -1.
         22    1    4    4    0    0  0.15417774704E+02 -0.22537037440E+02  0.43664215941E+02  0.51499413464E+02  0.00000000000E+00 0. -1.
         22    1    4    4    0    0  0.15228548156E+01 -0.13694728540E+02  0.12834247272E+02  0.18830363236E+02  0.00000000000E+00 0. -1.
<mgrwt>
<rscale>  0 0.90923779E+02</rscale>
<asrwt>0</asrwt>
<pdfrwt beam="1">  1        2 0.33411650E-01 0.90923779E+02</pdfrwt>
<pdfrwt beam="2">  1       -2 0.14640986E-02 0.90923779E+02</pdfrwt>
<totfact> 0.16057958E+05</totfact>
</mgrwt>
</event>
<event>
 7    1  0.3056193E-009  0.9187782E+02  0.7818608E-02  0.1298367E+00
         -2   -1    0    0    0  501 -0.00000000000E+00  0.00000000000E+00  0.46898766814E+02  0.46898766883E+02  0.25500000000E-02 0.  1.
          2   -1    0    0  501    0  0.00000000000E+00 -0.00000000000E+00 -0.44998699937E+02  0.44998700009E+02  0.25500000000E-02 0. -1.
         23    2    1    2    0    0 -0.44408920985E-15 -0.71054273576E-14  0.19000668771E+01  0.91897466892E+02  0.91877821954E+02 0.  0.
    9000005    2    3    3    0    0 -0.28602757142E+01 -0.30854690577E+02 -0.32770979001E+02  0.45397203129E+02  0.51745414678E+01 0.  0.
         22    1    3    3    0    0  0.28602757142E+01  0.30854690577E+02  0.34671045879E+02  0.46500263764E+02  0.00000000000E+00 0.  1.
         22    1    4    4    0    0 -0.17848415141E+01 -0.25342385598E+02 -0.23791363596E+02  0.34805906809E+02  0.00000000000E+00 0. -1.
         22    1    4    4    0    0 -0.10754342001E+01 -0.55123049796E+01 -0.89796154056E+01  0.10591296320E+02  0.00000000000E+00 0. -1.
<mgrwt>
<rscale>  0 0.91877822E+02</rscale>
<asrwt>0</asrwt>
<pdfrwt beam="2">  1        2 0.69228769E-02 0.91877822E+02</pdfrwt>
<pdfrwt beam="1">  1       -2 0.72151949E-02 0.91877822E+02</pdfrwt>
<totfact> 0.96198359E+04</totfact>
</mgrwt>
</event>
<event>
 7    1  0.3056193E-009  0.9159182E+02  0.7818608E-02  0.1299042E+00
         -2   -1    0    0    0  501 -0.00000000000E+00  0.00000000000E+00  0.16585895146E+02  0.16585895342E+02  0.25500000000E-02 0.  1.
          2   -1    0    0  501    0  0.00000000000E+00 -0.00000000000E+00 -0.12644872525E+03  0.12644872527E+03  0.25500000000E-02 0. -1.
         23    2    1    2    0    0  0.00000000000E+00  0.44408920985E-15 -0.10986283010E+03  0.14303462061E+03  0.91591818720E+02 0.  0.
    9000005    2    3    3    0    0 -0.39080494073E+02 -0.29113021363E+01 -0.90007890595E+02  0.99103090708E+02  0.13573559641E+02 0.  0.
         22    1    3    3    0    0  0.39080494073E+02  0.29113021363E+01 -0.19854939506E+02  0.43931529907E+02  0.00000000000E+00 0.  1.
         22    1    4    4    0    0 -0.34687841595E+02 -0.57617875209E+01 -0.68884027978E+02  0.77339859454E+02  0.00000000000E+00 0. -1.
         22    1    4    4    0    0 -0.43926524780E+01  0.28504853847E+01 -0.21123862617E+02  0.21763231253E+02  0.00000000000E+00 0. -1.
<mgrwt>
<rscale>  0 0.91591819E+02</rscale>
<asrwt>0</asrwt>
<pdfrwt beam="2">  1        2 0.19453649E-01 0.91591819E+02</pdfrwt>
<pdfrwt beam="1">  1       -2 0.25516763E-02 0.91591819E+02</pdfrwt>
<totfact> 0.13045066E+05</totfact>
</mgrwt>
</event>
<event>
 7    1  0.3056193E-009  0.1013900E+03  0.7818608E-02  0.1277400E+00
         -2   -1    0    0    0  501 -0.00000000000E+00  0.00000000000E+00  0.15477349005E+01  0.15477370011E+01  0.25500000000E-02 0.  1.
          2   -1    0    0  501    0  0.00000000000E+00 -0.00000000000E+00 -0.16604796314E+04  0.16604796314E+04  0.25500000000E-02 0. -1.
         23    2    1    2    0    0  0.00000000000E+00  0.00000000000E+00 -0.16589318965E+04  0.16620273684E+04  0.10139001971E+03 0.  0.
    9000005    2    3    3    0    0  0.83236112369E+01  0.65931455087E+01 -0.16419395446E+04  0.16419901007E+04  0.72986838455E+01 0.  0.
         22    1    3    3    0    0 -0.83236112369E+01 -0.65931455087E+01 -0.16992351902E+02  0.20037267650E+02  0.00000000000E+00 0.  1.
         22    1    4    4    0    0  0.69195383631E+01  0.82032070586E+01 -0.13366542557E+04  0.13366973375E+04  0.00000000000E+00 0.  1.
         22    1    4    4    0    0  0.14040728737E+01 -0.16100615500E+01 -0.30528528881E+03  0.30529276323E+03  0.00000000000E+00 0.  1.
<mgrwt>
<rscale>  0 0.10139002E+03</rscale>
<asrwt>0</asrwt>
<pdfrwt beam="2">  1        2 0.25545698E+00 0.10139002E+03</pdfrwt>
<pdfrwt beam="1">  1       -2 0.23811455E-03 0.10139002E+03</pdfrwt>
<totfact> 0.17000582E+05</totfact>
</mgrwt>
</event>
<event>
 6    1  0.8458855E-009  0.3029411E+03  0.7818608E-02  0.1083780E+00
         -2   -1    0    0    0  501 -0.00000000000E+00  0.00000000000E+00  0.44738147110E+02  0.44738147183E+02  0.25500000000E-02 0.  1.
          2   -1    0    0  501    0  0.00000000000E+00 -0.00000000000E+00 -0.51283586234E+03  0.51283586235E+03  0.25500000000E-02 0. -1.
    9000005    2    1    2    0    0  0.11139197213E+03 -0.85110588820E+02 -0.13093156487E+03  0.19242609877E+03  0.15255983203E+02 0.  0.
         22    1    1    2    0    0 -0.11139197213E+03  0.85110588820E+02 -0.33716615036E+03  0.36514791076E+03  0.00000000000E+00 0. -1.
         22    1    3    3    0    0  0.15636803616E+02 -0.68185389352E+01 -0.19925695945E+02  0.26230430028E+02  0.00000000000E+00 0. -1.
         22    1    3    3    0    0  0.95755168515E+02 -0.78292049885E+02 -0.11100586892E+03  0.16619566874E+03  0.00000000000E+00 0. -1.
<mgrwt>
<rscale>  0 0.30294109E+03</rscale>
<asrwt>0</asrwt>
<pdfrwt beam="2">  1        2 0.78897821E-01 0.30294109E+03</pdfrwt>
<pdfrwt beam="1">  1       -2 0.68827922E-02 0.30294109E+03</pdfrwt>
<totfact> 0.72293927E+03</totfact>
</mgrwt>
</event>
<event>
 7    1  0.3056193E-009  0.9247915E+02  0.7818608E-02  0.1296957E+00
         -2   -1    0    0    0  501 -0.00000000000E+00  0.00000000000E+00  0.51184284163E+01  0.51184290515E+01  0.25500000000E-02 0. -1.
          2   -1    0    0  501    0  0.00000000000E+00 -0.00000000000E+00 -0.41772554158E+03  0.41772554159E+03  0.25500000000E-02 0.  1.
         23    2    1    2    0    0 -0.71054273576E-14  0.00000000000E+00 -0.41260711316E+03  0.42284397064E+03  0.92479152638E+02 0.  0.
    9000005    2    3    3    0    0  0.43843636957E+02 -0.10597496808E+02 -0.17758751733E+03  0.18353500326E+03  0.10639533428E+02 0.  0.
         22    1    3    3    0    0 -0.43843636957E+02  0.10597496808E+02 -0.23501959583E+03  0.23930896737E+03  0.00000000000E+00 0.  1.
         22    1    4    4    0    0  0.35624818264E+02 -0.78191208217E+01 -0.15724871791E+03  0.16142312601E+03  0.00000000000E+00 0.  1.
         22    1    4    4    0    0  0.82188186929E+01 -0.27783759864E+01 -0.20338799422E+02  0.22111877256E+02  0.00000000000E+00 0.  1.
<mgrwt>
<rscale>  0 0.92479153E+02</rscale>
<asrwt>0</asrwt>
<pdfrwt beam="2">  1        2 0.64265441E-01 0.92479153E+02</pdfrwt>
<pdfrwt beam="1">  1       -2 0.78745090E-03 0.92479153E+02</pdfrwt>
<totfact> 0.19522722E+05</totfact>
</mgrwt>
</event>
<event>
 7    1  0.3056193E-009  0.8657599E+02  0.7818608E-02  0.1311362E+00
          2   -1    0    0  501    0  0.00000000000E+00  0.00000000000E+00  0.95837571846E+02  0.95837571880E+02  0.25500000000E-02 0. -1.
         -2   -1    0    0    0  501 -0.00000000000E+00 -0.00000000000E+00 -0.19552359092E+02  0.19552359258E+02  0.25500000000E-02 0.  1.
         23    2    1    2    0    0  0.00000000000E+00  0.00000000000E+00  0.76285212754E+02  0.11538993114E+03  0.86575992764E+02 0.  0.
    9000005    2    3    3    0    0 -0.27611822019E+02  0.29522097610E+02  0.21269847697E+02  0.47120923859E+02  0.11576185974E+02 0.  0.
         22    1    3    3    0    0  0.27611822019E+02 -0.29522097610E+02  0.55015365057E+02  0.68269007279E+02  0.00000000000E+00 0. -1.
         22    1    4    4    0    0 -0.28525387691E+02  0.26788229459E+02  0.20268468587E+02  0.44069465612E+02  0.00000000000E+00 0.  1.
         22    1    4    4    0    0  0.91356567238E+00  0.27338681514E+01  0.10013791096E+01  0.30514582462E+01  0.00000000000E+00 0.  1.
<mgrwt>
<rscale>  0 0.86575993E+02</rscale>
<asrwt>0</asrwt>
<pdfrwt beam="1">  1        2 0.14744242E-01 0.86575993E+02</pdfrwt>
<pdfrwt beam="2">  1       -2 0.30080553E-02 0.86575993E+02</pdfrwt>
<totfact> 0.13960410E+05</totfact>
</mgrwt>
</event>
<event>
 7    1  0.3056193E-009  0.9030743E+02  0.7818608E-02  0.1302109E+00
         -2   -1    0    0    0  501 -0.00000000000E+00  0.00000000000E+00  0.15652989460E+02  0.15652989667E+02  0.25500000000E-02 0.  1.
          2   -1    0    0  501    0  0.00000000000E+00 -0.00000000000E+00 -0.13025359186E+03  0.13025359189E+03  0.25500000000E-02 0. -1.
         23    2    1    2    0    0  0.00000000000E+00  0.44408920985E-15 -0.11460060240E+03  0.14590658155E+03  0.90307433081E+02 0.  0.
    9000005    2    3    3    0    0 -0.23418006705E+02  0.29454599419E+01  0.44230309430E+01  0.24565310475E+02  0.51780791511E+01 0.  0.
         22    1    3    3    0    0  0.23418006705E+02 -0.29454599419E+01 -0.11902363334E+03  0.12134127108E+03  0.00000000000E+00 0. -1.
         22    1    4    4    0    0 -0.13365898446E+02 -0.58391311032E+00  0.11880796647E+01  0.13431296627E+02  0.00000000000E+00 0. -1.
         22    1    4    4    0    0 -0.10052108259E+02  0.35293730522E+01  0.32349512784E+01  0.11134013848E+02  0.00000000000E+00 0. -1.
<mgrwt>
<rscale>  0 0.90307433E+02</rscale>
<asrwt>0</asrwt>
<pdfrwt beam="2">  1        2 0.20039013E-01 0.90307433E+02</pdfrwt>
<pdfrwt beam="1">  1       -2 0.24081523E-02 0.90307433E+02</pdfrwt>
<totfact> 0.13689104E+05</totfact>
</mgrwt>
</event>
<event>
 7    1  0.3056193E-009  0.9043377E+02  0.7818608E-02  0.1301805E+00
          2   -1    0    0  501    0  0.00000000000E+00  0.00000000000E+00  0.57984437552E+02  0.57984437608E+02  0.25500000000E-02 0. -1.
         -2   -1    0    0    0  501 -0.00000000000E+00 -0.00000000000E+00 -0.35260608057E+02  0.35260608149E+02  0.25500000000E-02 0.  1.
         23    2    1    2    0    0  0.00000000000E+00 -0.17763568394E-14  0.22723829495E+02  0.93245045757E+02  0.90433766544E+02 0.  0.
    9000005    2    3    3    0    0  0.11865136799E+02  0.15055532497E+02  0.52876256456E+02  0.57515234931E+02  0.12027186801E+02 0.  0.
         22    1    3    3    0    0 -0.11865136799E+02 -0.15055532497E+02 -0.30152426961E+02  0.35729810826E+02  0.00000000000E+00 0.  1.
         22    1    4    4    0    0  0.92173805771E+00 -0.94990044411E+00  0.14400373923E+00  0.13314086441E+01  0.00000000000E+00 0.  1.
         22    1    4    4    0    0  0.10943398741E+02  0.16005432941E+02  0.52732252717E+02  0.56183826287E+02  0.00000000000E+00 0.  1.
<mgrwt>
<rscale>  0 0.90433767E+02</rscale>
<asrwt>0</asrwt>
<pdfrwt beam="1">  1        2 0.89206827E-02 0.90433767E+02</pdfrwt>
<pdfrwt beam="2">  1       -2 0.54247090E-02 0.90433767E+02</pdfrwt>
<totfact> 0.10755992E+05</totfact>
</mgrwt>
</event>
<event>
 7    1  0.3056193E-009  0.9196819E+02  0.7818608E-02  0.1298154E+00
          2   -1    0    0  501    0  0.00000000000E+00  0.00000000000E+00  0.61057630317E+02  0.61057630370E+02  0.25500000000E-02 0. -1.
         -2   -1    0    0    0  501 -0.00000000000E+00 -0.00000000000E+00 -0.34631822200E+02  0.34631822294E+02  0.25500000000E-02 0.  1.
         23    2    1    2    0    0  0.17763568394E-14  0.00000000000E+00  0.26425808116E+02  0.95689452664E+02  0.91968190243E+02 0.  0.
    9000005    2    3    3    0    0  0.11746971748E+02 -0.32978816855E+02  0.42841740991E+02  0.57023232800E+02  0.13807266255E+02 0.  0.
         22    1    3    3    0    0 -0.11746971748E+02  0.32978816855E+02 -0.16415932875E+02  0.38666219864E+02  0.00000000000E+00 0.  1.
         22    1    4    4    0    0  0.14792500009E+02 -0.26554961466E+02  0.32796674904E+02  0.44716953382E+02  0.00000000000E+00 0.  1.
         22    1    4    4    0    0 -0.30455282601E+01 -0.64238553887E+01  0.10045066087E+02  0.12306279419E+02  0.00000000000E+00 0.  1.
<mgrwt>
<rscale>  0 0.91968190E+02</rscale>
<asrwt>0</asrwt>
<pdfrwt beam="1">  1        2 0.93934815E-02 0.91968190E+02</pdfrwt>
<pdfrwt beam="2">  1       -2 0.53279727E-02 0.91968190E+02</pdfrwt>
<totfact> 0.10400036E+05</totfact>
</mgrwt>
</event>
<event>
 7    1  0.3056193E-009  0.9601066E+02  0.7818608E-02  0.1288916E+00
          2   -1    0    0  501    0  0.00000000000E+00  0.00000000000E+00  0.26760763366E+03  0.26760763367E+03  0.25500000000E-02 0. -1.
         -2   -1    0    0    0  501 -0.00000000000E+00 -0.00000000000E+00 -0.86115319619E+01  0.86115323395E+01  0.25500000000E-02 0.  1.
         23    2    1    2    0    0  0.35527136788E-14 -0.17763568394E-14  0.25899610169E+03  0.27621916601E+03  0.96010660748E+02 0.  0.
    9000005    2    3    3    0    0 -0.22210287330E+02  0.11058489567E+02  0.24765354548E+03  0.24893839189E+03  0.47389149410E+01 0.  0.
         22    1    3    3    0    0  0.22210287330E+02 -0.11058489567E+02  0.11342556214E+02  0.27280774114E+02  0.00000000000E+00 0.  1.
         22    1    4    4    0    0 -0.23546300527E+01  0.30253087843E+01  0.39711675516E+02  0.39896289905E+02  0.00000000000E+00 0.  1.
         22    1    4    4    0    0 -0.19855657278E+02  0.80331807826E+01  0.20794186997E+03  0.20904210199E+03  0.00000000000E+00 0.  1.
<mgrwt>
<rscale>  0 0.96010661E+02</rscale>
<asrwt>0</asrwt>
<pdfrwt beam="1">  1        2 0.41170410E-01 0.96010661E+02</pdfrwt>
<pdfrwt beam="2">  1       -2 0.13248510E-02 0.96010661E+02</pdfrwt>
<totfact> 0.14987727E+05</totfact>
</mgrwt>
</event>
<event>
 7    1  0.3056193E-009  0.9018060E+02  0.7818608E-02  0.1302415E+00
         -2   -1    0    0    0  501 -0.00000000000E+00  0.00000000000E+00  0.73892086440E+02  0.73892086484E+02  0.25500000000E-02 0.  1.
          2   -1    0    0  501    0  0.00000000000E+00 -0.00000000000E+00 -0.27514921890E+02  0.27514922008E+02  0.25500000000E-02 0. -1.
         23    2    1    2    0    0  0.71054273576E-14 -0.44408920985E-15  0.46377164551E+02  0.10140700849E+03  0.90180596469E+02 0.  0.
    9000005    2    3    3    0    0 -0.35193183102E+02  0.37664062325E+01  0.53824578373E+02  0.65237823744E+02  0.10302546144E+02 0.  0.
         22    1    3    3    0    0  0.35193183102E+02 -0.37664062325E+01 -0.74474138224E+01  0.36169184748E+02  0.00000000000E+00 0.  1.
         22    1    4    4    0    0 -0.43081528434E+01  0.25610946984E+01  0.32735111609E+01  0.59862561169E+01  0.00000000000E+00 0.  1.
         22    1    4    4    0    0 -0.30885030258E+02  0.12053115341E+01  0.50551067212E+02  0.59251567627E+02  0.00000000000E+00 0.  1.
<mgrwt>
<rscale>  0 0.90180596E+02</rscale>
<asrwt>0</asrwt>
<pdfrwt beam="2">  1        2 0.42330650E-02 0.90180596E+02</pdfrwt>
<pdfrwt beam="1">  1       -2 0.11368013E-01 0.90180596E+02</pdfrwt>
<totfact> 0.89311321E+04</totfact>
</mgrwt>
</event>
<event>
 7    1  0.3056193E-009  0.9167744E+02  0.7818608E-02  0.1298840E+00
         -2   -1    0    0    0  501 -0.00000000000E+00  0.00000000000E+00  0.21259491448E+01  0.21259506741E+01  0.25500000000E-02 0. -1.
          2   -1    0    0  501    0  0.00000000000E+00 -0.00000000000E+00 -0.98835272582E+03  0.98835272582E+03  0.25500000000E-02 0.  1.
         23    2    1    2    0    0 -0.35527136788E-14 -0.35527136788E-14 -0.98622677667E+03  0.99047867650E+03  0.91677443054E+02 0.  0.
    9000005    2    3    3    0    0 -0.23116434544E+02 -0.18341827651E+02 -0.86723810694E+03  0.86788546415E+03  0.15888756135E+02 0.  0.
         22    1    3    3    0    0  0.23116434544E+02  0.18341827651E+02 -0.11898866974E+03  0.12259321235E+03  0.00000000000E+00 0. -1.
         22    1    4    4    0    0 -0.17105701181E+01  0.27935056278E+01 -0.11364403999E+03  0.11369123778E+03  0.00000000000E+00 0. -1.
         22    1    4    4    0    0 -0.21405864426E+02 -0.21135333279E+02 -0.75359406695E+03  0.75419422637E+03  0.00000000000E+00 0. -1.
<mgrwt>
<rscale>  0 0.91677443E+02</rscale>
<asrwt>0</asrwt>
<pdfrwt beam="2">  1        2 0.15205390E+00 0.91677443E+02</pdfrwt>
<pdfrwt beam="1">  1       -2 0.32707001E-03 0.91677443E+02</pdfrwt>
<totfact> 0.24629662E+05</totfact>
</mgrwt>
</event>
<event>
 7    1  0.3056193E-009  0.9141111E+02  0.7818608E-02  0.1299470E+00
          2   -1    0    0  501    0  0.00000000000E+00  0.00000000000E+00  0.14840061253E+03  0.14840061256E+03  0.25500000000E-02 0. -1.
         -2   -1    0    0    0  501 -0.00000000000E+00 -0.00000000000E+00 -0.14076745142E+02  0.14076745373E+02  0.25500000000E-02 0.  1.
         23    2    1    2    0    0  0.00000000000E+00  0.35527136788E-14  0.13432386739E+03  0.16247735793E+03  0.91411107029E+02 0.  0.
    9000005    2    3    3    0    0 -0.16798244126E+02  0.27886401112E+02  0.10655019181E+02  0.34595317006E+02  0.48450131391E+01 0.  0.
         22    1    3    3    0    0  0.16798244126E+02 -0.27886401112E+02  0.12366884821E+03  0.12788204092E+03  0.00000000000E+00 0. -1.
         22    1    4    4    0    0 -0.23953311166E+01  0.73966162973E+01  0.14316712375E+01  0.79055187268E+01  0.00000000000E+00 0. -1.
         22    1    4    4    0    0 -0.14402913009E+02  0.20489784815E+02  0.92233479435E+01  0.26689798279E+02  0.00000000000E+00 0. -1.
<mgrwt>
<rscale>  0 0.91411107E+02</rscale>
<asrwt>0</asrwt>
<pdfrwt beam="1">  1        2 0.22830864E-01 0.91411107E+02</pdfrwt>
<pdfrwt beam="2">  1       -2 0.21656531E-02 0.91411107E+02</pdfrwt>
<totfact> 0.13833329E+05</totfact>
</mgrwt>
</event>
<event>
 7    1  0.3056193E-009  0.1026538E+03  0.7818608E-02  0.1274812E+00
         -2   -1    0    0    0  501 -0.00000000000E+00  0.00000000000E+00  0.38020106892E+01  0.38020115444E+01  0.25500000000E-02 0.  1.
          2   -1    0    0  501    0  0.00000000000E+00 -0.00000000000E+00 -0.69290936238E+03  0.69290936239E+03  0.25500000000E-02 0. -1.
         23    2    1    2    0    0  0.11102230246E-15  0.00000000000E+00 -0.68910735169E+03  0.69671137393E+03  0.10265376957E+03 0.  0.
    9000005    2    3    3    0    0  0.74176528338E+00  0.42233410666E+02 -0.54172885197E+03  0.54339916511E+03  0.53190597107E+01 0.  0.
         22    1    3    3    0    0 -0.74176528338E+00 -0.42233410666E+02 -0.14737849972E+03  0.15331220882E+03  0.00000000000E+00 0. -1.
         22    1    4    4    0    0  0.29481209921E+01  0.29751434591E+02 -0.38203374431E+03  0.38320180202E+03  0.00000000000E+00 0. -1.
         22    1    4    4    0    0 -0.22063557087E+01  0.12481976075E+02 -0.15969510766E+03  0.16019736309E+03  0.00000000000E+00 0. -1.
<mgrwt>
<rscale>  0 0.10265377E+03</rscale>
<asrwt>0</asrwt>
<pdfrwt beam="2">  1        2 0.10660134E+00 0.10265377E+03</pdfrwt>
<pdfrwt beam="1">  1       -2 0.58492534E-03 0.10265377E+03</pdfrwt>
<totfact> 0.17270804E+05</totfact>
</mgrwt>
</event>
<event>
 7    1  0.3056193E-009  0.9292991E+02  0.7818608E-02  0.1295908E+00
         -2   -1    0    0    0  501 -0.00000000000E+00  0.00000000000E+00  0.46694790540E+02  0.46694790610E+02  0.25500000000E-02 0. -1.
          2   -1    0    0  501    0  0.00000000000E+00 -0.00000000000E+00 -0.46236248663E+02  0.46236248734E+02  0.25500000000E-02 0.  1.
         23    2    1    2    0    0 -0.88817841970E-15  0.00000000000E+00  0.45854187687E+00  0.92931039343E+02  0.92929908064E+02 0.  0.
    9000005    2    3    3    0    0 -0.55112663554E+01 -0.35927260770E+02  0.28342073144E+02  0.47120195221E+02  0.97927301747E+01 0.  0.
         22    1    3    3    0    0  0.55112663554E+01  0.35927260770E+02 -0.27883531267E+02  0.45810844122E+02  0.00000000000E+00 0.  1.
         22    1    4    4    0    0 -0.70086466785E+01 -0.34921214265E+02  0.27948115526E+02  0.45273717491E+02  0.00000000000E+00 0. -1.
         22    1    4    4    0    0  0.14973803231E+01 -0.10060465055E+01  0.39395761800E+00  0.18464777301E+01  0.00000000000E+00 0. -1.
<mgrwt>
<rscale>  0 0.92929908E+02</rscale>
<asrwt>0</asrwt>
<pdfrwt beam="2">  1        2 0.71132690E-02 0.92929908E+02</pdfrwt>
<pdfrwt beam="1">  1       -2 0.71838139E-02 0.92929908E+02</pdfrwt>
<totfact> 0.93759587E+04</totfact>
</mgrwt>
</event>
<event>
 7    1  0.3056193E-009  0.9225832E+02  0.7818608E-02  0.1297473E+00
          2   -1    0    0  501    0  0.00000000000E+00  0.00000000000E+00  0.17564722065E+02  0.17564722250E+02  0.25500000000E-02 0. -1.
         -2   -1    0    0    0  501 -0.00000000000E+00 -0.00000000000E+00 -0.12114619229E+03  0.12114619232E+03  0.25500000000E-02 0.  1.
         23    2    1    2    0    0  0.00000000000E+00  0.33306690739E-15 -0.10358147022E+03  0.13871091457E+03  0.92258315864E+02 0.  0.
    9000005    2    3    3    0    0  0.27568727641E+02 -0.48504097165E+00  0.11768775875E+01  0.30384641462E+02  0.12711073418E+02 0.  0.
         22    1    3    3    0    0 -0.27568727641E+02  0.48504097165E+00 -0.10475834781E+03  0.10832627310E+03  0.00000000000E+00 0.  1.
         22    1    4    4    0    0  0.14699756000E+02  0.60049886447E+01 -0.41279123844E+00  0.15884366896E+02  0.00000000000E+00 0. -1.
         22    1    4    4    0    0  0.12868971641E+02 -0.64900296163E+01  0.15896688259E+01  0.14500274566E+02  0.00000000000E+00 0. -1.
<mgrwt>
<rscale>  0 0.92258316E+02</rscale>
<asrwt>0</asrwt>
<pdfrwt beam="1">  1        2 0.27022650E-02 0.92258316E+02</pdfrwt>
<pdfrwt beam="2">  1       -2 0.18637875E-01 0.92258316E+02</pdfrwt>
<totfact> 0.72989548E+04</totfact>
</mgrwt>
</event>
<event>
 7    1  0.3056193E-009  0.9057924E+02  0.7818608E-02  0.1301455E+00
         -2   -1    0    0    0  501 -0.00000000000E+00  0.00000000000E+00  0.68787500916E+01  0.68787505643E+01  0.25500000000E-02 0.  1.
          2   -1    0    0  501    0  0.00000000000E+00 -0.00000000000E+00 -0.29818635405E+03  0.29818635406E+03  0.25500000000E-02 0. -1.
         23    2    1    2    0    0 -0.35527136788E-14  0.71054273576E-14 -0.29130760396E+03  0.30506510463E+03  0.90579235678E+02 0.  0.
    9000005    2    3    3    0    0 -0.18645806145E+02 -0.40725651920E+02 -0.12759072998E+03  0.13533160870E+03  0.53856408659E+01 0.  0.
         22    1    3    3    0    0  0.18645806145E+02  0.40725651920E+02 -0.16371687398E+03  0.16973349592E+03  0.00000000000E+00 0.  1.
         22    1    4    4    0    0 -0.31349329159E+00 -0.41754719747E+01 -0.10352454825E+02  0.11167191463E+02  0.00000000000E+00 0.  1.
         22    1    4    4    0    0 -0.18332312853E+02 -0.36550179945E+02 -0.11723827515E+03  0.12416441724E+03  0.00000000000E+00 0.  1.
<mgrwt>
<rscale>  0 0.90579236E+02</rscale>
<asrwt>0</asrwt>
<pdfrwt beam="2">  1        2 0.45874814E-01 0.90579236E+02</pdfrwt>
<pdfrwt beam="1">  1       -2 0.10582695E-02 0.90579236E+02</pdfrwt>
<totfact> 0.18242586E+05</totfact>
</mgrwt>
</event>
<event>
 7    1  0.3056193E-009  0.9070552E+02  0.7818608E-02  0.1301152E+00
          2   -1    0    0  501    0  0.00000000000E+00  0.00000000000E+00  0.91090113163E+03  0.91090113163E+03  0.25500000000E-02 0. -1.
         -2   -1    0    0    0  501 -0.00000000000E+00 -0.00000000000E+00 -0.22580631198E+01  0.22580645597E+01  0.25500000000E-02 0.  1.
         23    2    1    2    0    0  0.17763568394E-14  0.00000000000E+00  0.90864306851E+03  0.91315919619E+03  0.90705521555E+02 0.  0.
    9000005    2    3    3    0    0  0.84168914390E+01  0.17538068688E+02  0.86534396004E+03  0.86569088351E+03  0.14903311623E+02 0.  0.
         22    1    3    3    0    0 -0.84168914390E+01 -0.17538068688E+02  0.43299108468E+02  0.47468312683E+02  0.00000000000E+00 0.  1.
         22    1    4    4    0    0  0.81914854992E+01  0.18353513065E+02  0.58416256364E+03  0.58450821434E+03  0.00000000000E+00 0.  1.
         22    1    4    4    0    0  0.22540593979E+00 -0.81544437689E+00  0.28118139641E+03  0.28118266917E+03  0.00000000000E+00 0.  1.
<mgrwt>
<rscale>  0 0.90705522E+02</rscale>
<asrwt>0</asrwt>
<pdfrwt beam="1">  1        2 0.14013893E+00 0.90705522E+02</pdfrwt>
<pdfrwt beam="2">  1       -2 0.34739371E-03 0.90705522E+02</pdfrwt>
<totfact> 0.25167763E+05</totfact>
</mgrwt>
</event>
<event>
 7    1  0.3056193E-009  0.9115843E+02  0.7818608E-02  0.1300070E+00
          2   -1    0    0  501    0  0.00000000000E+00  0.00000000000E+00  0.17424666042E+02  0.17424666229E+02  0.25500000000E-02 0.  1.
         -2   -1    0    0    0  501 -0.00000000000E+00 -0.00000000000E+00 -0.11922552854E+03  0.11922552857E+03  0.25500000000E-02 0. -1.
         23    2    1    2    0    0  0.71054273576E-14 -0.55511151231E-16 -0.10180086250E+03  0.13665019480E+03  0.91158434238E+02 0.  0.
    9000005    2    3    3    0    0  0.44529718692E+02 -0.32768187358E+00 -0.53119495756E+02  0.70673845321E+02  0.13787978855E+02 0.  0.
         22    1    3    3    0    0 -0.44529718692E+02  0.32768187358E+00 -0.48681366743E+02  0.65976349476E+02  0.00000000000E+00 0. -1.
         22    1    4    4    0    0  0.95311683286E+01 -0.23148385735E+01 -0.46457816872E+01  0.10852876799E+02  0.00000000000E+00 0.  1.
         22    1    4    4    0    0  0.34998550364E+02  0.19871566999E+01 -0.48473714069E+02  0.59820968522E+02  0.00000000000E+00 0.  1.
<mgrwt>
<rscale>  0 0.91158434E+02</rscale>
<asrwt>0</asrwt>
<pdfrwt beam="1">  1        2 0.26807179E-02 0.91158434E+02</pdfrwt>
<pdfrwt beam="2">  1       -2 0.18342388E-01 0.91158434E+02</pdfrwt>
<totfact> 0.75612877E+04</totfact>
</mgrwt>
</event>
<event>
 7    1  0.3431476E-009  0.9154289E+02  0.7818608E-02  0.1299158E+00
         -2   -1    0    0    0  501 -0.00000000000E+00  0.00000000000E+00  0.53653689325E+02  0.53653689386E+02  0.25500000000E-02 0.  1.
          2   -1    0    0  501    0  0.00000000000E+00 -0.00000000000E+00 -0.39047176779E+02  0.39047176862E+02  0.25500000000E-02 0. -1.
         23    2    1    2    0    0  0.00000000000E+00  0.00000000000E+00  0.14606512546E+02  0.92700866248E+02  0.91542888278E+02 0.  0.
    9000005    2    3    3    0    0 -0.71431602419E+01  0.17027695823E+02  0.48837255105E+02  0.53807281952E+02  0.13006880546E+02 0.  0.
         22    1    3    3    0    0  0.71431602419E+01 -0.17027695823E+02 -0.34230742559E+02  0.38893584296E+02  0.00000000000E+00 0. -1.
         22    1    4    4    0    0 -0.93160920779E+01  0.63527140361E+01  0.29966668698E+02  0.32017929041E+02  0.00000000000E+00 0. -1.
         22    1    4    4    0    0  0.21729318360E+01  0.10674981786E+02  0.18870586407E+02  0.21789352911E+02  0.00000000000E+00 0. -1.
<mgrwt>
<rscale>  0 0.91542888E+02</rscale>
<asrwt>0</asrwt>
<pdfrwt beam="2">  1        2 0.60072580E-02 0.91542888E+02</pdfrwt>
<pdfrwt beam="1">  1       -2 0.82544138E-02 0.91542888E+02</pdfrwt>
<totfact> 0.93697515E+04</totfact>
</mgrwt>
</event>
<event>
 7    1  0.3056193E-009  0.9281805E+02  0.7818608E-02  0.1296167E+00
          2   -1    0    0  501    0  0.00000000000E+00  0.00000000000E+00  0.10176501683E+02  0.10176502002E+02  0.25500000000E-02 0. -1.
         -2   -1    0    0    0  501 -0.00000000000E+00 -0.00000000000E+00 -0.21164419575E+03  0.21164419577E+03  0.25500000000E-02 0.  1.
         23    2    1    2    0    0  0.00000000000E+00 -0.71054273576E-14 -0.20146769407E+03  0.22182069777E+03  0.92818048922E+02 0.  0.
    9000005    2    3    3    0    0  0.10595888242E+02  0.41442743875E+02 -0.13815638537E+03  0.14541326569E+03  0.15101561290E+02 0.  0.
         22    1    3    3    0    0 -0.10595888242E+02 -0.41442743875E+02 -0.63311308703E+02  0.76407432081E+02  0.00000000000E+00 0. -1.
         22    1    4    4    0    0  0.10437369111E+02  0.37490322745E+02 -0.13453453406E+03  0.14005000474E+03  0.00000000000E+00 0. -1.
         22    1    4    4    0    0  0.15851913118E+00  0.39524211304E+01 -0.36218513073E+01  0.53632609482E+01  0.00000000000E+00 0. -1.
<mgrwt>
<rscale>  0 0.92818049E+02</rscale>
<asrwt>0</asrwt>
<pdfrwt beam="1">  1        2 0.15656158E-02 0.92818049E+02</pdfrwt>
<pdfrwt beam="2">  1       -2 0.32560642E-01 0.92818049E+02</pdfrwt>
<totfact> 0.58070446E+04</totfact>
</mgrwt>
</event>
<event>
 7    1  0.3056193E-009  0.9031718E+02  0.7818608E-02  0.1302085E+00
         -2   -1    0    0    0  501 -0.00000000000E+00  0.00000000000E+00  0.34468216199E+01  0.34468225632E+01  0.25500000000E-02 0.  1.
          2   -1    0    0  501    0  0.00000000000E+00 -0.00000000000E+00 -0.59164586755E+03  0.59164586756E+03  0.25500000000E-02 0. -1.
         23    2    1    2    0    0 -0.71054273576E-14  0.00000000000E+00 -0.58819904593E+03  0.59509269012E+03  0.90317175552E+02 0.  0.
    9000005    2    3    3    0    0  0.40616352897E+02 -0.60088291125E+01 -0.40820690563E+03  0.41047696836E+03  0.13140380574E+02 0.  0.
         22    1    3    3    0    0 -0.40616352897E+02  0.60088291125E+01 -0.17999214030E+03  0.18461572175E+03  0.00000000000E+00 0.  1.
         22    1    4    4    0    0  0.24209190731E+02 -0.30511237574E+01 -0.30030865522E+03  0.30129832836E+03  0.00000000000E+00 0.  1.
         22    1    4    4    0    0  0.16407162166E+02 -0.29577053552E+01 -0.10789825041E+03  0.10917864001E+03  0.00000000000E+00 0.  1.
<mgrwt>
<rscale>  0 0.90317176E+02</rscale>
<asrwt>0</asrwt>
<pdfrwt beam="2">  1        2 0.91022361E-01 0.90317176E+02</pdfrwt>
<pdfrwt beam="1">  1       -2 0.53028079E-03 0.90317176E+02</pdfrwt>
<totfact> 0.23268650E+05</totfact>
</mgrwt>
</event>
<event>
 7    1  0.3056193E-009  0.9102742E+02  0.7818608E-02  0.1300383E+00
         -2   -1    0    0    0  501 -0.00000000000E+00  0.00000000000E+00  0.15316642389E+03  0.15316642391E+03  0.25500000000E-02 0.  1.
          2   -1    0    0  501    0  0.00000000000E+00 -0.00000000000E+00 -0.13524489482E+02  0.13524489722E+02  0.25500000000E-02 0. -1.
         23    2    1    2    0    0  0.00000000000E+00 -0.35527136788E-14  0.13964193441E+03  0.16669091363E+03  0.91027418082E+02 0.  0.
    9000005    2    3    3    0    0  0.25781345483E+02 -0.30558209816E+02  0.32943802230E+02  0.52748062289E+02  0.99288472585E+01 0.  0.
         22    1    3    3    0    0 -0.25781345483E+02  0.30558209816E+02  0.10669813218E+03  0.11394285134E+03  0.00000000000E+00 0.  1.
         22    1    4    4    0    0  0.98081940476E+01 -0.10584281412E+02  0.60856428285E+01  0.15660866263E+02  0.00000000000E+00 0.  1.
         22    1    4    4    0    0  0.15973151435E+02 -0.19973928404E+02  0.26858159401E+02  0.37087196026E+02  0.00000000000E+00 0.  1.
<mgrwt>
<rscale>  0 0.91027418E+02</rscale>
<asrwt>0</asrwt>
<pdfrwt beam="2">  1        2 0.20806908E-02 0.91027418E+02</pdfrwt>
<pdfrwt beam="1">  1       -2 0.23564065E-01 0.91027418E+02</pdfrwt>
<totfact> 0.69613199E+04</totfact>
</mgrwt>
</event>
<event>
 7    1  0.3056193E-009  0.9104833E+02  0.7818608E-02  0.1300333E+00
          2   -1    0    0  501    0  0.00000000000E+00  0.00000000000E+00  0.40912127028E+02  0.40912127107E+02  0.25500000000E-02 0.  1.
         -2   -1    0    0    0  501 -0.00000000000E+00 -0.00000000000E+00 -0.50656124625E+02  0.50656124689E+02  0.25500000000E-02 0. -1.
         23    2    1    2    0    0  0.88817841970E-15  0.00000000000E+00 -0.97439975975E+01  0.91568251796E+02  0.91048334679E+02 0.  0.
    9000005    2    3    3    0    0  0.57921379628E+01  0.38700023093E+02  0.17537131204E+02  0.43866043900E+02  0.92432779354E+01 0.  0.
         22    1    3    3    0    0 -0.57921379628E+01 -0.38700023093E+02 -0.27281128802E+02  0.47702207897E+02  0.00000000000E+00 0. -1.
         22    1    4    4    0    0  0.90037997073E-01  0.34045925079E+01  0.48547426300E+01  0.59302515115E+01  0.00000000000E+00 0.  1.
         22    1    4    4    0    0  0.57020999657E+01  0.35295430585E+02  0.12682388574E+02  0.37935792388E+02  0.00000000000E+00 0.  1.
<mgrwt>
<rscale>  0 0.91048335E+02</rscale>
<asrwt>0</asrwt>
<pdfrwt beam="1">  1        2 0.62941735E-02 0.91048335E+02</pdfrwt>
<pdfrwt beam="2">  1       -2 0.77932499E-02 0.91048335E+02</pdfrwt>
<totfact> 0.96339139E+04</totfact>
</mgrwt>
</event>
<event>
 7    1  0.3056193E-009  0.6627429E+02  0.7818608E-02  0.1373241E+00
          2   -1    0    0  501    0  0.00000000000E+00  0.00000000000E+00  0.24885342423E+03  0.24885342424E+03  0.25500000000E-02 0. -1.
         -2   -1    0    0    0  501 -0.00000000000E+00 -0.00000000000E+00 -0.44125181255E+01  0.44125188623E+01  0.25500000000E-02 0.  1.
         23    2    1    2    0    0  0.00000000000E+00  0.17763568394E-14  0.24444090611E+03  0.25326594311E+03  0.66274288829E+02 0.  0.
    9000005    2    3    3    0    0 -0.75690601504E+01  0.12788266366E+02  0.23516924579E+03  0.23575040391E+03  0.72696871966E+01 0.  0.
         22    1    3    3    0    0  0.75690601504E+01 -0.12788266366E+02  0.92716603165E+01  0.17515539193E+02  0.00000000000E+00 0.  1.
         22    1    4    4    0    0 -0.44870529385E+01  0.68411228402E+01  0.17837483276E+03  0.17856235764E+03  0.00000000000E+00 0.  1.
         22    1    4    4    0    0 -0.30820072118E+01  0.59471435259E+01  0.56794413031E+02  0.57188046270E+02  0.00000000000E+00 0.  1.
<mgrwt>
<rscale>  0 0.66274289E+02</rscale>
<asrwt>0</asrwt>
<pdfrwt beam="1">  1        2 0.38285131E-01 0.66274289E+02</pdfrwt>
<pdfrwt beam="2">  1       -2 0.67884919E-03 0.66274289E+02</pdfrwt>
<totfact> 0.38765148E+05</totfact>
</mgrwt>
</event>
<event>
 7    1  0.3056193E-009  0.9305872E+02  0.7818608E-02  0.1295609E+00
          2   -1    0    0  501    0  0.00000000000E+00  0.00000000000E+00  0.12280039082E+03  0.12280039085E+03  0.25500000000E-02 0. -1.
         -2   -1    0    0    0  501 -0.00000000000E+00 -0.00000000000E+00 -0.17630083839E+02  0.17630084023E+02  0.25500000000E-02 0.  1.
         23    2    1    2    0    0  0.00000000000E+00 -0.35527136788E-14  0.10517030698E+03  0.14043047487E+03  0.93058716956E+02 0.  0.
    9000005    2    3    3    0    0  0.31290382519E+02  0.30642302639E+02  0.32324709385E+02  0.55433299396E+02  0.10484516959E+02 0.  0.
         22    1    3    3    0    0 -0.31290382519E+02 -0.30642302639E+02  0.72845597596E+02  0.84997175473E+02  0.00000000000E+00 0. -1.
         22    1    4    4    0    0  0.17288596843E+02  0.14732513418E+02  0.22847238886E+02  0.32217058481E+02  0.00000000000E+00 0.  1.
         22    1    4    4    0    0  0.14001785676E+02  0.15909789221E+02  0.94774704983E+01  0.23216240915E+02  0.00000000000E+00 0.  1.
<mgrwt>
<rscale>  0 0.93058717E+02</rscale>
<asrwt>0</asrwt>
<pdfrwt beam="1">  1        2 0.18892367E-01 0.93058717E+02</pdfrwt>
<pdfrwt beam="2">  1       -2 0.27123207E-02 0.93058717E+02</pdfrwt>
<totfact> 0.12371377E+05</totfact>
</mgrwt>
</event>
<event>
 7    1  0.3056193E-009  0.9513450E+02  0.7818608E-02  0.1290873E+00
         -2   -1    0    0    0  501 -0.00000000000E+00  0.00000000000E+00  0.10286997148E+03  0.10286997151E+03  0.25500000000E-02 0. -1.
          2   -1    0    0  501    0  0.00000000000E+00 -0.00000000000E+00 -0.21995175569E+02  0.21995175717E+02  0.25500000000E-02 0.  1.
         23    2    1    2    0    0  0.00000000000E+00  0.00000000000E+00  0.80874795908E+02  0.12486514723E+03  0.95134496260E+02 0.  0.
    9000005    2    3    3    0    0 -0.66270806264E+01 -0.45065980681E+02  0.55691805327E+02  0.72816671485E+02  0.11217381748E+02 0.  0.
         22    1    3    3    0    0  0.66270806264E+01  0.45065980681E+02  0.25182990581E+02  0.52048475741E+02  0.00000000000E+00 0.  1.
         22    1    4    4    0    0  0.12389396191E+01 -0.21032193928E+02  0.19811668620E+02  0.28920414352E+02  0.00000000000E+00 0. -1.
         22    1    4    4    0    0 -0.78660202455E+01 -0.24033786753E+02  0.35880136706E+02  0.43896257133E+02  0.00000000000E+00 0. -1.
<mgrwt>
<rscale>  0 0.95134496E+02</rscale>
<asrwt>0</asrwt>
<pdfrwt beam="2">  1        2 0.33838732E-02 0.95134496E+02</pdfrwt>
<pdfrwt beam="1">  1       -2 0.15826150E-01 0.95134496E+02</pdfrwt>
<totfact> 0.71177810E+04</totfact>
</mgrwt>
</event>
<event>
 7    1  0.3056193E-009  0.9290963E+02  0.7818608E-02  0.1295955E+00
         -2   -1    0    0    0  501 -0.00000000000E+00  0.00000000000E+00  0.53058674522E+02  0.53058674583E+02  0.25500000000E-02 0.  1.
          2   -1    0    0  501    0  0.00000000000E+00 -0.00000000000E+00 -0.40672890784E+02  0.40672890864E+02  0.25500000000E-02 0. -1.
         23    2    1    2    0    0  0.00000000000E+00  0.00000000000E+00  0.12385783738E+02  0.93731565448E+02  0.92909626640E+02 0.  0.
    9000005    2    3    3    0    0 -0.89601526995E+01 -0.43800252329E+02 -0.23413289789E+01  0.46661040812E+02  0.13153876532E+02 0.  0.
         22    1    3    3    0    0  0.89601526995E+01  0.43800252329E+02  0.14727112717E+02  0.47070524635E+02  0.00000000000E+00 0. -1.
         22    1    4    4    0    0 -0.24654799068E+01 -0.33037149573E+01 -0.38203752033E+01  0.56203550051E+01  0.00000000000E+00 0. -1.
         22    1    4    4    0    0 -0.64946727927E+01 -0.40496537372E+02  0.14790462244E+01  0.41040685807E+02  0.00000000000E+00 0. -1.
<mgrwt>
<rscale>  0 0.92909627E+02</rscale>
<asrwt>0</asrwt>
<pdfrwt beam="2">  1        2 0.62573679E-02 0.92909627E+02</pdfrwt>
<pdfrwt beam="1">  1       -2 0.81628729E-02 0.92909627E+02</pdfrwt>
<totfact> 0.90708166E+04</totfact>
</mgrwt>
</event>
<event>
 7    1  0.3056193E-009  0.9640506E+02  0.7818608E-02  0.1288043E+00
         -2   -1    0    0    0  501 -0.00000000000E+00  0.00000000000E+00  0.83226750787E+02  0.83226750826E+02  0.25500000000E-02 0.  1.
          2   -1    0    0  501    0  0.00000000000E+00 -0.00000000000E+00 -0.27917513939E+02  0.27917514056E+02  0.25500000000E-02 0. -1.
         23    2    1    2    0    0  0.00000000000E+00  0.00000000000E+00  0.55309236848E+02  0.11114426488E+03  0.96405061773E+02 0.  0.
    9000005    2    3    3    0    0  0.37632270439E+02  0.28568191348E+02  0.33166141553E+02  0.58965284397E+02  0.12024245639E+02 0.  0.
         22    1    3    3    0    0 -0.37632270439E+02 -0.28568191348E+02  0.22143095295E+02  0.52178980486E+02  0.00000000000E+00 0.  1.
         22    1    4    4    0    0  0.58807431117E+01  0.17347461172E+01  0.89689681145E+01  0.10864385518E+02  0.00000000000E+00 0. -1.
         22    1    4    4    0    0  0.31751527327E+02  0.26833445231E+02  0.24197173438E+02  0.48100898879E+02  0.00000000000E+00 0. -1.
<mgrwt>
<rscale>  0 0.96405062E+02</rscale>
<asrwt>0</asrwt>
<pdfrwt beam="2">  1        2 0.42950021E-02 0.96405062E+02</pdfrwt>
<pdfrwt beam="1">  1       -2 0.12804116E-01 0.96405062E+02</pdfrwt>
<totfact> 0.73355259E+04</totfact>
</mgrwt>
</event>
<event>
 7    1  0.3056193E-009  0.9141806E+02  0.7818608E-02  0.1299454E+00
         -2   -1    0    0    0  501 -0.00000000000E+00  0.00000000000E+00  0.18224826811E+02  0.18224826989E+02  0.25500000000E-02 0.  1.
          2   -1    0    0  501    0  0.00000000000E+00 -0.00000000000E+00 -0.11464117019E+03  0.11464117021E+03  0.25500000000E-02 0. -1.
         23    2    1    2    0    0  0.00000000000E+00  0.35527136788E-14 -0.96416343375E+02  0.13286599720E+03  0.91418061361E+02 0.  0.
    9000005    2    3    3    0    0 -0.24598177584E+02  0.24935288674E+02 -0.90812574155E+02  0.97394301569E+02  0.34478096857E+01 0.  0.
         22    1    3    3    0    0  0.24598177584E+02 -0.24935288674E+02 -0.56037692200E+01  0.35471695634E+02  0.00000000000E+00 0.  1.
         22    1    4    4    0    0 -0.35034694290E+01  0.24256446647E+01 -0.89695477276E+01  0.99302989138E+01  0.00000000000E+00 0. -1.
         22    1    4    4    0    0 -0.21094708155E+02  0.22509644009E+02 -0.81843026428E+02  0.87464002655E+02  0.00000000000E+00 0. -1.
<mgrwt>
<rscale>  0 0.91418061E+02</rscale>
<asrwt>0</asrwt>
<pdfrwt beam="2">  1        2 0.17637103E-01 0.91418061E+02</pdfrwt>
<pdfrwt beam="1">  1       -2 0.28038196E-02 0.91418061E+02</pdfrwt>
<totfact> 0.12706629E+05</totfact>
</mgrwt>
</event>
<event>
 7    1  0.3056193E-009  0.6176509E+02  0.7818608E-02  0.1390570E+00
          2   -1    0    0  501    0  0.00000000000E+00  0.00000000000E+00  0.17157756001E+03  0.17157756003E+03  0.25500000000E-02 0. -1.
         -2   -1    0    0    0  501 -0.00000000000E+00 -0.00000000000E+00 -0.55586030440E+01  0.55586036289E+01  0.25500000000E-02 0.  1.
         23    2    1    2    0    0  0.00000000000E+00  0.00000000000E+00  0.16601895696E+03  0.17713616365E+03  0.61765090490E+02 0.  0.
    9000005    2    3    3    0    0 -0.22032863685E+02 -0.51417019831E+01  0.29922719204E+02  0.39172146196E+02  0.11278463174E+02 0.  0.
         22    1    3    3    0    0  0.22032863685E+02  0.51417019831E+01  0.13609623776E+03  0.13796401746E+03  0.00000000000E+00 0. -1.
         22    1    4    4    0    0 -0.11594018350E+01 -0.61437516647E+00 -0.95798874088E+00  0.16246266919E+01  0.00000000000E+00 0. -1.
         22    1    4    4    0    0 -0.20873461850E+02 -0.45273268167E+01  0.30880707945E+02  0.37547519504E+02  0.00000000000E+00 0. -1.
<mgrwt>
<rscale>  0 0.61765090E+02</rscale>
<asrwt>0</asrwt>
<pdfrwt beam="1">  1        2 0.26396546E-01 0.61765090E+02</pdfrwt>
<pdfrwt beam="2">  1       -2 0.85516979E-03 0.61765090E+02</pdfrwt>
<totfact> 0.40923056E+05</totfact>
</mgrwt>
</event>
<event>
 7    1  0.3056193E-009  0.9069318E+02  0.7818608E-02  0.1301182E+00
         -2   -1    0    0    0  501 -0.00000000000E+00  0.00000000000E+00  0.21090758451E+03  0.21090758453E+03  0.25500000000E-02 0. -1.
          2   -1    0    0  501    0  0.00000000000E+00 -0.00000000000E+00 -0.97498296583E+01  0.97498299918E+01  0.25500000000E-02 0.  1.
         23    2    1    2    0    0  0.00000000000E+00  0.00000000000E+00  0.20115775486E+03  0.22065741452E+03  0.90693176395E+02 0.  0.
    9000005    2    3    3    0    0  0.17374883484E+02  0.25811987239E+02  0.17989146822E+03  0.18296921732E+03  0.12192164942E+02 0.  0.
         22    1    3    3    0    0 -0.17374883484E+02 -0.25811987239E+02  0.21266286638E+02  0.37688197206E+02  0.00000000000E+00 0.  1.
         22    1    4    4    0    0  0.89153524094E+00  0.55250349741E+01  0.14830227969E+02  0.15851072776E+02  0.00000000000E+00 0. -1.
         22    1    4    4    0    0  0.16483348243E+02  0.20286952265E+02  0.16506124025E+03  0.16711814454E+03  0.00000000000E+00 0. -1.
<mgrwt>
<rscale>  0 0.90693176E+02</rscale>
<asrwt>0</asrwt>
<pdfrwt beam="2">  1        2 0.14999741E-02 0.90693176E+02</pdfrwt>
<pdfrwt beam="1">  1       -2 0.32447315E-01 0.90693176E+02</pdfrwt>
<totfact> 0.61712505E+04</totfact>
</mgrwt>
</event>
<event>
 7    1  0.3056193E-009  0.1117358E+03  0.7818608E-02  0.1257389E+00
         -2   -1    0    0    0  501 -0.00000000000E+00  0.00000000000E+00  0.19392254766E+02  0.19392254934E+02  0.25500000000E-02 0.  1.
          2   -1    0    0  501    0  0.00000000000E+00 -0.00000000000E+00 -0.16095212005E+03  0.16095212007E+03  0.25500000000E-02 0. -1.
         23    2    1    2    0    0  0.00000000000E+00  0.00000000000E+00 -0.14155986529E+03  0.18034437501E+03  0.11173584088E+03 0.  0.
    9000005    2    3    3    0    0  0.13148966688E+02  0.13312669796E+01 -0.15820502700E+03  0.15909045760E+03  0.10309002737E+02 0.  0.
         22    1    3    3    0    0 -0.13148966688E+02 -0.13312669796E+01  0.16645161708E+02  0.21253917404E+02  0.00000000000E+00 0.  1.
         22    1    4    4    0    0  0.31403316151E+01 -0.41704118239E+01 -0.58866589214E+02  0.59097625528E+02  0.00000000000E+00 0. -1.
         22    1    4    4    0    0  0.10008635073E+02  0.55016788035E+01 -0.99338437782E+02  0.99992832076E+02  0.00000000000E+00 0. -1.
<mgrwt>
<rscale>  0 0.11173584E+03</rscale>
<asrwt>0</asrwt>
<pdfrwt beam="2">  1        2 0.24761864E-01 0.11173584E+03</pdfrwt>
<pdfrwt beam="1">  1       -2 0.29834239E-02 0.11173584E+03</pdfrwt>
<totfact> 0.81951560E+04</totfact>
</mgrwt>
</event>
<event>
 7    1  0.3056193E-009  0.9159696E+02  0.7818608E-02  0.1299030E+00
          2   -1    0    0  501    0  0.00000000000E+00  0.00000000000E+00  0.11891386557E+02  0.11891386830E+02  0.25500000000E-02 0. -1.
         -2   -1    0    0    0  501 -0.00000000000E+00 -0.00000000000E+00 -0.17638824556E+03  0.17638824558E+03  0.25500000000E-02 0.  1.
         23    2    1    2    0    0  0.00000000000E+00  0.00000000000E+00 -0.16449685900E+03  0.18827963241E+03  0.91596961512E+02 0.  0.
    9000005    2    3    3    0    0 -0.16852037993E+02  0.12633343577E+02 -0.16562901093E+03  0.16718758835E+03  0.86676342692E+01 0.  0.
         22    1    3    3    0    0  0.16852037993E+02 -0.12633343577E+02  0.11321519258E+01  0.21092044055E+02  0.00000000000E+00 0. -1.
         22    1    4    4    0    0 -0.14026507822E+02  0.54414593883E+01 -0.11078824902E+03  0.11180513638E+03  0.00000000000E+00 0.  1.
         22    1    4    4    0    0 -0.28255301712E+01  0.71918841890E+01 -0.54840761913E+02  0.55382451969E+02  0.00000000000E+00 0.  1.
<mgrwt>
<rscale>  0 0.91596962E+02</rscale>
<asrwt>0</asrwt>
<pdfrwt beam="1">  1        2 0.18294442E-02 0.91596962E+02</pdfrwt>
<pdfrwt beam="2">  1       -2 0.27136651E-01 0.91596962E+02</pdfrwt>
<totfact> 0.64903759E+04</totfact>
</mgrwt>
</event>
<event>
 7    1  0.3056193E-009  0.9057984E+02  0.7818608E-02  0.1301454E+00
          2   -1    0    0  501    0  0.00000000000E+00  0.00000000000E+00  0.19501072654E+03  0.19501072656E+03  0.25500000000E-02 0. -1.
         -2   -1    0    0    0  501 -0.00000000000E+00 -0.00000000000E+00 -0.10518277976E+02  0.10518278286E+02  0.25500000000E-02 0.  1.
         23    2    1    2    0    0  0.00000000000E+00  0.00000000000E+00  0.18449244856E+03  0.20552900484E+03  0.90579844637E+02 0.  0.
    9000005    2    3    3    0    0 -0.41796175041E+02 -0.12790928043E+02  0.10839588489E+03  0.11777243762E+03  0.14496589695E+02 0.  0.
         22    1    3    3    0    0  0.41796175041E+02  0.12790928043E+02  0.76096563670E+02  0.87756567223E+02  0.00000000000E+00 0.  1.
         22    1    4    4    0    0 -0.71727302320E+01  0.31627325405E+01  0.15861038954E+02  0.17692469946E+02  0.00000000000E+00 0.  1.
         22    1    4    4    0    0 -0.34623444809E+02 -0.15953660584E+02  0.92534845939E+02  0.10007996767E+03  0.00000000000E+00 0.  1.
<mgrwt>
<rscale>  0 0.90579845E+02</rscale>
<asrwt>0</asrwt>
<pdfrwt beam="1">  1        2 0.30001648E-01 0.90579845E+02</pdfrwt>
<pdfrwt beam="2">  1       -2 0.16181967E-02 0.90579845E+02</pdfrwt>
<totfact> 0.15601031E+05</totfact>
</mgrwt>
</event>
<event>
 7    1  0.3056193E-009  0.8968040E+02  0.7818608E-02  0.1303627E+00
          2   -1    0    0  501    0  0.00000000000E+00  0.00000000000E+00  0.36654243090E+02  0.36654243179E+02  0.25500000000E-02 0. -1.
         -2   -1    0    0    0  501 -0.00000000000E+00 -0.00000000000E+00 -0.54854321882E+02  0.54854321941E+02  0.25500000000E-02 0.  1.
         23    2    1    2    0    0  0.00000000000E+00  0.00000000000E+00 -0.18200078792E+02  0.91508565120E+02  0.89680402666E+02 0.  0.
    9000005    2    3    3    0    0 -0.43164994350E+02 -0.69501976132E+01 -0.14915065022E+01  0.44703668239E+02  0.92017051841E+01 0.  0.
         22    1    3    3    0    0  0.43164994350E+02  0.69501976132E+01 -0.16708572290E+02  0.46804896881E+02  0.00000000000E+00 0.  1.
         22    1    4    4    0    0 -0.26183930125E+02 -0.96872573420E+00  0.23082607886E+01  0.26303320973E+02  0.00000000000E+00 0. -1.
         22    1    4    4    0    0 -0.16981064225E+02 -0.59814718790E+01 -0.37997672908E+01  0.18400347266E+02  0.00000000000E+00 0. -1.
<mgrwt>
<rscale>  0 0.89680403E+02</rscale>
<asrwt>0</asrwt>
<pdfrwt beam="1">  1        2 0.56391144E-02 0.89680403E+02</pdfrwt>
<pdfrwt beam="2">  1       -2 0.84391264E-02 0.89680403E+02</pdfrwt>
<totfact> 0.97851181E+04</totfact>
</mgrwt>
</event>
<event>
 7    1  0.3056193E-009  0.8944214E+02  0.7818608E-02  0.1304208E+00
         -2   -1    0    0    0  501 -0.00000000000E+00  0.00000000000E+00  0.26546741111E+03  0.26546741112E+03  0.25500000000E-02 0.  1.
          2   -1    0    0  501    0  0.00000000000E+00 -0.00000000000E+00 -0.75337844159E+01  0.75337848474E+01  0.25500000000E-02 0. -1.
         23    2    1    2    0    0  0.00000000000E+00 -0.71054273576E-14  0.25793362669E+03  0.27300119597E+03  0.89442144547E+02 0.  0.
    9000005    2    3    3    0    0  0.11811149755E+02 -0.41663045779E+02  0.13169459141E+03  0.13954106457E+03  0.15903793706E+02 0.  0.
         22    1    3    3    0    0 -0.11811149755E+02  0.41663045779E+02  0.12623903528E+03  0.13346013139E+03  0.00000000000E+00 0.  1.
         22    1    4    4    0    0  0.70327107733E+01 -0.47623707445E+01  0.17799664298E+02  0.19722252535E+02  0.00000000000E+00 0.  1.
         22    1    4    4    0    0  0.47784389820E+01 -0.36900675034E+02  0.11389492711E+03  0.11981881204E+03  0.00000000000E+00 0.  1.
<mgrwt>
<rscale>  0 0.89442145E+02</rscale>
<asrwt>0</asrwt>
<pdfrwt beam="2">  1        2 0.11590439E-02 0.89442145E+02</pdfrwt>
<pdfrwt beam="1">  1       -2 0.40841137E-01 0.89442145E+02</pdfrwt>
<totfact> 0.57239989E+04</totfact>
</mgrwt>
</event>
<event>
 7    1  0.3056193E-009  0.9100253E+02  0.7818608E-02  0.1300442E+00
         -2   -1    0    0    0  501 -0.00000000000E+00  0.00000000000E+00  0.18908172450E+02  0.18908172622E+02  0.25500000000E-02 0.  1.
          2   -1    0    0  501    0  0.00000000000E+00 -0.00000000000E+00 -0.10949579102E+03  0.10949579105E+03  0.25500000000E-02 0. -1.
         23    2    1    2    0    0  0.00000000000E+00 -0.71054273576E-14 -0.90587618570E+02  0.12840396367E+03  0.91002534295E+02 0.  0.
    9000005    2    3    3    0    0 -0.20990900228E+02 -0.34957550228E+02 -0.20679688962E+02  0.47473333917E+02  0.12783570991E+02 0.  0.
         22    1    3    3    0    0  0.20990900228E+02  0.34957550228E+02 -0.69907929607E+02  0.80930629753E+02  0.00000000000E+00 0. -1.
         22    1    4    4    0    0 -0.31148128421E+01 -0.80577520234E+01  0.81431120546E+00  0.86771267970E+01  0.00000000000E+00 0. -1.
         22    1    4    4    0    0 -0.17876087386E+02 -0.26899798205E+02 -0.21494000168E+02  0.38796207120E+02  0.00000000000E+00 0. -1.
<mgrwt>
<rscale>  0 0.91002534E+02</rscale>
<asrwt>0</asrwt>
<pdfrwt beam="2">  1        2 0.16845506E-01 0.91002534E+02</pdfrwt>
<pdfrwt beam="1">  1       -2 0.29089497E-02 0.91002534E+02</pdfrwt>
<totfact> 0.12682112E+05</totfact>
</mgrwt>
</event>
<event>
 7    1  0.3056193E-009  0.8980272E+02  0.7818608E-02  0.1303330E+00
         -2   -1    0    0    0  501 -0.00000000000E+00  0.00000000000E+00  0.38665162352E+01  0.38665170760E+01  0.25500000000E-02 0.  1.
          2   -1    0    0  501    0  0.00000000000E+00 -0.00000000000E+00 -0.52143368589E+03  0.52143368590E+03  0.25500000000E-02 0. -1.
         23    2    1    2    0    0  0.00000000000E+00  0.00000000000E+00 -0.51756716966E+03  0.52530020297E+03  0.89802717878E+02 0.  0.
    9000005    2    3    3    0    0  0.29893093013E+02 -0.38849602825E+01 -0.45157874232E+03  0.45275254644E+03  0.12361952341E+02 0.  0.
         22    1    3    3    0    0 -0.29893093013E+02  0.38849602825E+01 -0.65988427334E+02  0.72547656532E+02  0.00000000000E+00 0.  1.
         22    1    4    4    0    0  0.10408362767E+02  0.39984756758E+01 -0.12407045630E+03  0.12457046178E+03  0.00000000000E+00 0.  1.
         22    1    4    4    0    0  0.19484730246E+02 -0.78834359583E+01 -0.32750828603E+03  0.32818208466E+03  0.00000000000E+00 0.  1.
<mgrwt>
<rscale>  0 0.89802718E+02</rscale>
<asrwt>0</asrwt>
<pdfrwt beam="2">  1        2 0.80220512E-01 0.89802718E+02</pdfrwt>
<pdfrwt beam="1">  1       -2 0.59484913E-03 0.89802718E+02</pdfrwt>
<totfact> 0.22736092E+05</totfact>
</mgrwt>
</event>
<event>
 7    1  0.3056193E-009  0.9376739E+02  0.7818608E-02  0.1293977E+00
          2   -1    0    0  501    0  0.00000000000E+00  0.00000000000E+00  0.98168891171E+02  0.98168891204E+02  0.25500000000E-02 0. -1.
         -2   -1    0    0    0  501 -0.00000000000E+00 -0.00000000000E+00 -0.22390807222E+02  0.22390807367E+02  0.25500000000E-02 0.  1.
         23    2    1    2    0    0  0.00000000000E+00  0.00000000000E+00  0.75778083949E+02  0.12055969857E+03  0.93767387255E+02 0.  0.
    9000005    2    3    3    0    0 -0.19572456691E+02 -0.14721948385E+02  0.89195914144E+02  0.92633814659E+02  0.50294824028E+01 0.  0.
         22    1    3    3    0    0  0.19572456691E+02  0.14721948385E+02 -0.13417830195E+02  0.27925883912E+02  0.00000000000E+00 0.  1.
         22    1    4    4    0    0 -0.11688261056E+02 -0.56789331566E+01  0.45064103817E+02  0.46900311099E+02  0.00000000000E+00 0. -1.
         22    1    4    4    0    0 -0.78841956343E+01 -0.90430152279E+01  0.44131810327E+02  0.45733503561E+02  0.00000000000E+00 0. -1.
<mgrwt>
<rscale>  0 0.93767387E+02</rscale>
<asrwt>0</asrwt>
<pdfrwt beam="1">  1        2 0.15102906E-01 0.93767387E+02</pdfrwt>
<pdfrwt beam="2">  1       -2 0.34447397E-02 0.93767387E+02</pdfrwt>
<totfact> 0.11290226E+05</totfact>
</mgrwt>
</event>
<event>
 7    1  0.3056193E-009  0.1015897E+03  0.7818608E-02  0.1276988E+00
         -2   -1    0    0    0  501 -0.00000000000E+00  0.00000000000E+00  0.48498131564E+02  0.48498131631E+02  0.25500000000E-02 0. -1.
          2   -1    0    0  501    0  0.00000000000E+00 -0.00000000000E+00 -0.53200288530E+02  0.53200288591E+02  0.25500000000E-02 0.  1.
         23    2    1    2    0    0  0.00000000000E+00  0.00000000000E+00 -0.47021569661E+01  0.10169842022E+03  0.10158965693E+03 0.  0.
    9000005    2    3    3    0    0  0.71594382609E+01  0.11609090921E+02  0.45359048290E+02  0.49812460465E+02  0.15421070246E+02 0.  0.
         22    1    3    3    0    0 -0.71594382609E+01 -0.11609090921E+02 -0.50061205256E+02  0.51885959757E+02  0.00000000000E+00 0.  1.
         22    1    4    4    0    0 -0.18190817160E+01  0.11388900239E+02  0.23403787920E+02  0.26091251330E+02  0.00000000000E+00 0.  1.
         22    1    4    4    0    0  0.89785199770E+01  0.22019068235E+00  0.21955260370E+02  0.23721209135E+02  0.00000000000E+00 0.  1.
<mgrwt>
<rscale>  0 0.10158966E+03</rscale>
<asrwt>0</asrwt>
<pdfrwt beam="2">  1        2 0.81846598E-02 0.10158966E+03</pdfrwt>
<pdfrwt beam="1">  1       -2 0.74612510E-02 0.10158966E+03</pdfrwt>
<totfact> 0.75297130E+04</totfact>
</mgrwt>
</event>
<event>
 7    1  0.3056193E-009  0.8158992E+02  0.7818608E-02  0.1324599E+00
          2   -1    0    0  501    0  0.00000000000E+00  0.00000000000E+00  0.16281848496E+03  0.16281848498E+03  0.25500000000E-02 0. -1.
         -2   -1    0    0    0  501 -0.00000000000E+00 -0.00000000000E+00 -0.10221375857E+02  0.10221376175E+02  0.25500000000E-02 0.  1.
         23    2    1    2    0    0 -0.71054273576E-14 -0.17763568394E-14  0.15259710910E+03  0.17303986116E+03  0.81589924882E+02 0.  0.
    9000005    2    3    3    0    0 -0.35371289499E+02 -0.10717395320E+02  0.44789452689E+02  0.59072841958E+02  0.10840429032E+02 0.  0.
         22    1    3    3    0    0  0.35371289499E+02  0.10717395320E+02  0.10780765641E+03  0.11396701920E+03  0.00000000000E+00 0.  1.
         22    1    4    4    0    0 -0.73890059159E+01  0.19502784357E+01  0.11174774144E+02  0.13537967779E+02  0.00000000000E+00 0. -1.
         22    1    4    4    0    0 -0.27982283583E+02 -0.12667673756E+02  0.33614678544E+02  0.45534874179E+02  0.00000000000E+00 0. -1.
<mgrwt>
<rscale>  0 0.81589925E+02</rscale>
<asrwt>0</asrwt>
<pdfrwt beam="1">  1        2 0.25048993E-01 0.81589925E+02</pdfrwt>
<pdfrwt beam="2">  1       -2 0.15725197E-02 0.81589925E+02</pdfrwt>
<totfact> 0.19382637E+05</totfact>
</mgrwt>
</event>
<event>
 7    1  0.3056193E-009  0.9110524E+02  0.7818608E-02  0.1300197E+00
          2   -1    0    0  501    0  0.00000000000E+00  0.00000000000E+00  0.37876656103E+02  0.37876656188E+02  0.25500000000E-02 0.  1.
         -2   -1    0    0    0  501 -0.00000000000E+00 -0.00000000000E+00 -0.54784164505E+02  0.54784164564E+02  0.25500000000E-02 0. -1.
         23    2    1    2    0    0 -0.88817841970E-15  0.00000000000E+00 -0.16907508403E+02  0.92660820753E+02  0.91105235098E+02 0.  0.
    9000005    2    3    3    0    0 -0.63997132508E+01 -0.16696604927E+02  0.33000503513E+02  0.39646269928E+02  0.12769516095E+02 0.  0.
         22    1    3    3    0    0  0.63997132508E+01  0.16696604927E+02 -0.49908011916E+02  0.53014550825E+02  0.00000000000E+00 0. -1.
         22    1    4    4    0    0 -0.55546758002E+01 -0.15020295247E+02  0.33953698941E+02  0.37540875913E+02  0.00000000000E+00 0. -1.
         22    1    4    4    0    0 -0.84503745057E+00 -0.16763096799E+01 -0.95319542750E+00  0.21053940151E+01  0.00000000000E+00 0. -1.
<mgrwt>
<rscale>  0 0.91105235E+02</rscale>
<asrwt>0</asrwt>
<pdfrwt beam="1">  1        2 0.58271779E-02 0.91105235E+02</pdfrwt>
<pdfrwt beam="2">  1       -2 0.84283330E-02 0.91105235E+02</pdfrwt>
<totfact> 0.94265544E+04</totfact>
</mgrwt>
</event>
<event>
 7    1  0.3056193E-009  0.8976556E+02  0.7818608E-02  0.1303420E+00
         -2   -1    0    0    0  501 -0.00000000000E+00  0.00000000000E+00  0.13379003579E+03  0.13379003581E+03  0.25500000000E-02 0.  1.
          2   -1    0    0  501    0  0.00000000000E+00 -0.00000000000E+00 -0.15056906019E+02  0.15056906235E+02  0.25500000000E-02 0. -1.
         23    2    1    2    0    0  0.00000000000E+00  0.00000000000E+00  0.11873312977E+03  0.14884694205E+03  0.89765561615E+02 0.  0.
    9000005    2    3    3    0    0  0.32149426087E+02 -0.28365849622E+01  0.11102713784E+03  0.11566540918E+03  0.31352401291E+01 0.  0.
         22    1    3    3    0    0 -0.32149426087E+02  0.28365849622E+01  0.77059919247E+01  0.33181532868E+02  0.00000000000E+00 0. -1.
         22    1    4    4    0    0  0.28392122188E+02 -0.24791258826E+01  0.94029524082E+02  0.98253804336E+02  0.00000000000E+00 0. -1.
         22    1    4    4    0    0  0.37573038988E+01 -0.35745907956E+00  0.16997613761E+02  0.17411604841E+02  0.00000000000E+00 0. -1.
<mgrwt>
<rscale>  0 0.89765562E+02</rscale>
<asrwt>0</asrwt>
<pdfrwt beam="2">  1        2 0.23164471E-02 0.89765562E+02</pdfrwt>
<pdfrwt beam="1">  1       -2 0.20583082E-01 0.89765562E+02</pdfrwt>
<totfact> 0.75648907E+04</totfact>
</mgrwt>
</event>
<event>
 7    1  0.3056193E-009  0.9245011E+02  0.7818608E-02  0.1297025E+00
          2   -1    0    0  501    0  0.00000000000E+00  0.00000000000E+00  0.26946556355E+03  0.26946556357E+03  0.25500000000E-02 0. -1.
         -2   -1    0    0    0  501 -0.00000000000E+00 -0.00000000000E+00 -0.79296058582E+01  0.79296062682E+01  0.25500000000E-02 0.  1.
         23    2    1    2    0    0 -0.47184478547E-15  0.00000000000E+00  0.26153595770E+03  0.27739516983E+03  0.92450111301E+02 0.  0.
    9000005    2    3    3    0    0 -0.22467807185E+00 -0.37550470455E+02  0.55666529352E+02  0.68129047783E+02  0.11520258251E+02 0.  0.
         22    1    3    3    0    0  0.22467807185E+00  0.37550470455E+02  0.20586942834E+03  0.20926612205E+03  0.00000000000E+00 0. -1.
         22    1    4    4    0    0 -0.43517778302E+01 -0.75273760663E+01  0.16008530037E+02  0.18217365196E+02  0.00000000000E+00 0. -1.
         22    1    4    4    0    0  0.41270997583E+01 -0.30023094388E+02  0.39657999315E+02  0.49911682588E+02  0.00000000000E+00 0. -1.
<mgrwt>
<rscale>  0 0.92450111E+02</rscale>
<asrwt>0</asrwt>
<pdfrwt beam="1">  1        2 0.41456238E-01 0.92450111E+02</pdfrwt>
<pdfrwt beam="2">  1       -2 0.12199395E-02 0.92450111E+02</pdfrwt>
<totfact> 0.16631652E+05</totfact>
</mgrwt>
</event>
<event>
 7    1  0.3056193E-009  0.9188103E+02  0.7818608E-02  0.1298359E+00
         -2   -1    0    0    0  501 -0.00000000000E+00  0.00000000000E+00  0.15250233764E+03  0.15250233766E+03  0.25500000000E-02 0.  1.
          2   -1    0    0  501    0  0.00000000000E+00 -0.00000000000E+00 -0.13839335501E+02  0.13839335736E+02  0.25500000000E-02 0. -1.
         23    2    1    2    0    0  0.00000000000E+00  0.00000000000E+00  0.13866300214E+03  0.16634167340E+03  0.91881032573E+02 0.  0.
    9000005    2    3    3    0    0 -0.71840507341E+01  0.98842869402E+01  0.14903739245E+03  0.15031239745E+03  0.15243449872E+02 0.  0.
         22    1    3    3    0    0  0.71840507341E+01 -0.98842869402E+01 -0.10374390311E+02  0.16029275953E+02  0.00000000000E+00 0. -1.
         22    1    4    4    0    0 -0.10950946952E+02  0.79762229300E+01  0.79434001431E+02  0.80581039673E+02  0.00000000000E+00 0. -1.
         22    1    4    4    0    0  0.37668962182E+01  0.19080640102E+01  0.69603391022E+02  0.69731357775E+02  0.00000000000E+00 0. -1.
<mgrwt>
<rscale>  0 0.91881033E+02</rscale>
<asrwt>0</asrwt>
<pdfrwt beam="2">  1        2 0.21291285E-02 0.91881033E+02</pdfrwt>
<pdfrwt beam="1">  1       -2 0.23461899E-01 0.91881033E+02</pdfrwt>
<totfact> 0.68093693E+04</totfact>
</mgrwt>
</event>
<event>
 7    1  0.3056193E-009  0.9122070E+02  0.7818608E-02  0.1299922E+00
         -2   -1    0    0    0  501 -0.00000000000E+00  0.00000000000E+00  0.94227805018E+01  0.94227808468E+01  0.25500000000E-02 0. -1.
          2   -1    0    0  501    0  0.00000000000E+00 -0.00000000000E+00 -0.22077391805E+03  0.22077391806E+03  0.25500000000E-02 0.  1.
         23    2    1    2    0    0  0.00000000000E+00 -0.88817841970E-15 -0.21135113755E+03  0.23019669891E+03  0.91220704047E+02 0.  0.
    9000005    2    3    3    0    0  0.39412428757E+02 -0.49853501470E+01 -0.16028636379E+03  0.16549890625E+03  0.10953369150E+02 0.  0.
         22    1    3    3    0    0 -0.39412428757E+02  0.49853501470E+01 -0.51064773761E+02  0.64697792666E+02  0.00000000000E+00 0.  1.
         22    1    4    4    0    0  0.37513670520E+02 -0.72709011653E+01 -0.14712195269E+03  0.15200332379E+03  0.00000000000E+00 0.  1.
         22    1    4    4    0    0  0.18987582364E+01  0.22855510183E+01 -0.13164411094E+02  0.13495582453E+02  0.00000000000E+00 0.  1.
<mgrwt>
<rscale>  0 0.91220704E+02</rscale>
<asrwt>0</asrwt>
<pdfrwt beam="2">  1        2 0.33965214E-01 0.91220704E+02</pdfrwt>
<pdfrwt beam="1">  1       -2 0.14496587E-02 0.91220704E+02</pdfrwt>
<totfact> 0.16013916E+05</totfact>
</mgrwt>
</event>
<event>
 7    1  0.3056193E-009  0.9158424E+02  0.7818608E-02  0.1299060E+00
          2   -1    0    0  501    0  0.00000000000E+00  0.00000000000E+00  0.75784825259E+03  0.75784825260E+03  0.25500000000E-02 0.  1.
         -2   -1    0    0    0  501 -0.00000000000E+00 -0.00000000000E+00 -0.27669362047E+01  0.27669373797E+01  0.25500000000E-02 0. -1.
         23    2    1    2    0    0  0.00000000000E+00  0.00000000000E+00  0.75508131639E+03  0.76061518998E+03  0.91584239174E+02 0.  0.
    9000005    2    3    3    0    0 -0.64787215536E+01  0.21216695515E+02  0.70918424284E+03  0.70963810334E+03  0.12321745829E+02 0.  0.
         22    1    3    3    0    0  0.64787215536E+01 -0.21216695515E+02  0.45897073549E+02  0.50977086636E+02  0.00000000000E+00 0. -1.
         22    1    4    4    0    0 -0.45808684482E+01  0.82179145416E+01  0.14721288186E+03  0.14751322335E+03  0.00000000000E+00 0.  1.
         22    1    4    4    0    0 -0.18978531054E+01  0.12998780973E+02  0.56197136098E+03  0.56212488000E+03  0.00000000000E+00 0.  1.
<mgrwt>
<rscale>  0 0.91584239E+02</rscale>
<asrwt>0</asrwt>
<pdfrwt beam="1">  1        2 0.11659220E+00 0.91584239E+02</pdfrwt>
<pdfrwt beam="2">  1       -2 0.42568200E-03 0.91584239E+02</pdfrwt>
<totfact> 0.23844761E+05</totfact>
</mgrwt>
</event>
<event>
 7    1  0.3056193E-009  0.9303462E+02  0.7818608E-02  0.1295665E+00
         -2   -1    0    0    0  501 -0.00000000000E+00  0.00000000000E+00  0.14429010180E+02  0.14429010405E+02  0.25500000000E-02 0.  1.
          2   -1    0    0  501    0  0.00000000000E+00 -0.00000000000E+00 -0.14996593431E+03  0.14996593433E+03  0.25500000000E-02 0. -1.
         23    2    1    2    0    0  0.00000000000E+00  0.00000000000E+00 -0.13553692413E+03  0.16439494473E+03  0.93034617494E+02 0.  0.
    9000005    2    3    3    0    0 -0.31849689116E+02  0.18492304943E+02 -0.11652815452E+03  0.12294978385E+03  0.13471099201E+02 0.  0.
         22    1    3    3    0    0  0.31849689116E+02 -0.18492304943E+02 -0.19008769607E+02  0.41445160885E+02  0.00000000000E+00 0.  1.
         22    1    4    4    0    0 -0.24478692232E+02  0.92388086366E+01 -0.93063479178E+02  0.96671470016E+02  0.00000000000E+00 0.  1.
         22    1    4    4    0    0 -0.73709968838E+01  0.92534963063E+01 -0.23464675341E+02  0.26278313831E+02  0.00000000000E+00 0.  1.
<mgrwt>
<rscale>  0 0.93034617E+02</rscale>
<asrwt>0</asrwt>
<pdfrwt beam="2">  1        2 0.23071681E-01 0.93034617E+02</pdfrwt>
<pdfrwt beam="1">  1       -2 0.22198478E-02 0.93034617E+02</pdfrwt>
<totfact> 0.13233555E+05</totfact>
</mgrwt>
</event>
<event>
 7    1  0.3056193E-009  0.9030291E+02  0.7818608E-02  0.1302120E+00
         -2   -1    0    0    0  501 -0.00000000000E+00  0.00000000000E+00  0.20076083579E+03  0.20076083581E+03  0.25500000000E-02 0.  1.
          2   -1    0    0  501    0  0.00000000000E+00 -0.00000000000E+00 -0.10154639477E+02  0.10154639797E+02  0.25500000000E-02 0. -1.
         23    2    1    2    0    0  0.35527136788E-14  0.00000000000E+00  0.19060619631E+03  0.21091547560E+03  0.90302911228E+02 0.  0.
    9000005    2    3    3    0    0 -0.21872970841E+02  0.20780345736E+02  0.17271152506E+03  0.17583743573E+03  0.13389671118E+02 0.  0.
         22    1    3    3    0    0  0.21872970841E+02 -0.20780345736E+02  0.17894671256E+02  0.35078039878E+02  0.00000000000E+00 0. -1.
         22    1    4    4    0    0  0.28186349249E+00  0.63854329645E+01  0.41866818475E+02  0.42351903032E+02  0.00000000000E+00 0.  1.
         22    1    4    4    0    0 -0.22154834334E+02  0.14394912772E+02  0.13084470658E+03  0.13348553269E+03  0.00000000000E+00 0.  1.
<mgrwt>
<rscale>  0 0.90302911E+02</rscale>
<asrwt>0</asrwt>
<pdfrwt beam="2">  1        2 0.15622523E-02 0.90302911E+02</pdfrwt>
<pdfrwt beam="1">  1       -2 0.30886282E-01 0.90302911E+02</pdfrwt>
<totfact> 0.63764868E+04</totfact>
</mgrwt>
</event>
<event>
 7    1  0.3056193E-009  0.9197208E+02  0.7818608E-02  0.1298145E+00
          2   -1    0    0  501    0  0.00000000000E+00  0.00000000000E+00  0.19549493170E+02  0.19549493336E+02  0.25500000000E-02 0. -1.
         -2   -1    0    0    0  501 -0.00000000000E+00 -0.00000000000E+00 -0.10817242037E+03  0.10817242040E+03  0.25500000000E-02 0.  1.
         23    2    1    2    0    0  0.00000000000E+00  0.00000000000E+00 -0.88622927199E+02  0.12772191374E+03  0.91972082845E+02 0.  0.
    9000005    2    3    3    0    0  0.21844812290E+02  0.37845221159E+02 -0.29786344579E+02  0.54433442316E+02  0.12896384394E+02 0.  0.
         22    1    3    3    0    0 -0.21844812290E+02 -0.37845221159E+02 -0.58836582620E+02  0.73288471419E+02  0.00000000000E+00 0. -1.
         22    1    4    4    0    0  0.15110719992E+02  0.28273999502E+02 -0.14509274598E+02  0.35189088591E+02  0.00000000000E+00 0. -1.
         22    1    4    4    0    0  0.67340922977E+01  0.95712216574E+01 -0.15277069982E+02  0.19244353725E+02  0.00000000000E+00 0. -1.
<mgrwt>
<rscale>  0 0.91972083E+02</rscale>
<asrwt>0</asrwt>
<pdfrwt beam="1">  1        2 0.30076144E-02 0.91972083E+02</pdfrwt>
<pdfrwt beam="2">  1       -2 0.16641910E-01 0.91972083E+02</pdfrwt>
<totfact> 0.76253954E+04</totfact>
</mgrwt>
</event>
<event>
 7    1  0.3056193E-009  0.9160710E+02  0.7818608E-02  0.1299006E+00
          2   -1    0    0  501    0  0.00000000000E+00  0.00000000000E+00  0.22184566924E+03  0.22184566926E+03  0.25500000000E-02 0. -1.
         -2   -1    0    0    0  501 -0.00000000000E+00 -0.00000000000E+00 -0.94568669299E+01  0.94568672737E+01  0.25500000000E-02 0.  1.
         23    2    1    2    0    0  0.55511151231E-16  0.00000000000E+00  0.21238880231E+03  0.23130253653E+03  0.91607096111E+02 0.  0.
    9000005    2    3    3    0    0  0.23693549518E+00  0.37171512323E+02  0.44596403849E+02  0.59441934737E+02  0.12756445517E+02 0.  0.
         22    1    3    3    0    0 -0.23693549518E+00 -0.37171512323E+02  0.16779239846E+03  0.17186060179E+03  0.00000000000E+00 0. -1.
         22    1    4    4    0    0 -0.42230283257E+01  0.54193684241E+01  0.50317276140E+01  0.85159735284E+01  0.00000000000E+00 0. -1.
         22    1    4    4    0    0  0.44599638209E+01  0.31752143899E+02  0.39564676235E+02  0.50925961208E+02  0.00000000000E+00 0. -1.
<mgrwt>
<rscale>  0 0.91607096E+02</rscale>
<asrwt>0</asrwt>
<pdfrwt beam="1">  1        2 0.34130101E-01 0.91607096E+02</pdfrwt>
<pdfrwt beam="2">  1       -2 0.14549027E-02 0.91607096E+02</pdfrwt>
<totfact> 0.15861093E+05</totfact>
</mgrwt>
</event>
<event>
 7    1  0.3056193E-009  0.9218161E+02  0.7818608E-02  0.1297653E+00
          2   -1    0    0  501    0  0.00000000000E+00  0.00000000000E+00  0.97009563363E+02  0.97009563396E+02  0.25500000000E-02 0. -1.
         -2   -1    0    0    0  501 -0.00000000000E+00 -0.00000000000E+00 -0.21898482180E+02  0.21898482329E+02  0.25500000000E-02 0.  1.
         23    2    1    2    0    0 -0.35527136788E-14  0.44408920985E-15  0.75111081183E+02  0.11890804573E+03  0.92181607828E+02 0.  0.
    9000005    2    3    3    0    0  0.31784532710E+02 -0.27654112535E+01 -0.45532456268E+01  0.33092493609E+02  0.75151226551E+01 0.  0.
         22    1    3    3    0    0 -0.31784532710E+02  0.27654112535E+01  0.79664326809E+02  0.85815552116E+02  0.00000000000E+00 0. -1.
         22    1    4    4    0    0  0.10388551913E+02 -0.44201126214E+01 -0.91977617268E+00  0.11327197122E+02  0.00000000000E+00 0. -1.
         22    1    4    4    0    0  0.21395980798E+02  0.16547013679E+01 -0.36334694541E+01  0.21765296487E+02  0.00000000000E+00 0. -1.
<mgrwt>
<rscale>  0 0.92181608E+02</rscale>
<asrwt>0</asrwt>
<pdfrwt beam="1">  1        2 0.14924548E-01 0.92181608E+02</pdfrwt>
<pdfrwt beam="2">  1       -2 0.33689973E-02 0.92181608E+02</pdfrwt>
<totfact> 0.11792884E+05</totfact>
</mgrwt>
</event>
<event>
 7    1  0.3056193E-009  0.9183763E+02  0.7818608E-02  0.1298462E+00
         -2   -1    0    0    0  501 -0.00000000000E+00  0.00000000000E+00  0.21159380640E+01  0.21159396006E+01  0.25500000000E-02 0.  1.
          2   -1    0    0  501    0  0.00000000000E+00 -0.00000000000E+00 -0.99650216332E+03  0.99650216333E+03  0.25500000000E-02 0. -1.
         23    2    1    2    0    0  0.44408920985E-15  0.00000000000E+00 -0.99438622526E+03  0.99861810293E+03  0.91837631222E+02 0.  0.
    9000005    2    3    3    0    0 -0.39825552899E+01  0.37179324646E+02 -0.77840861471E+03  0.77942756666E+03  0.13754900837E+02 0.  0.
         22    1    3    3    0    0  0.39825552899E+01 -0.37179324646E+02 -0.21597761055E+03  0.21919053627E+03  0.00000000000E+00 0.  1.
         22    1    4    4    0    0 -0.82882306682E+01  0.24708224520E+02 -0.44997974326E+03  0.45073380223E+03  0.00000000000E+00 0. -1.
         22    1    4    4    0    0  0.43056753783E+01  0.12471100126E+02 -0.32842887145E+03  0.32869376444E+03  0.00000000000E+00 0. -1.
<mgrwt>
<rscale>  0 0.91837631E+02</rscale>
<asrwt>0</asrwt>
<pdfrwt beam="2">  1        2 0.15330765E+00 0.91837631E+02</pdfrwt>
<pdfrwt beam="1">  1       -2 0.32552985E-03 0.91837631E+02</pdfrwt>
<totfact> 0.24526485E+05</totfact>
</mgrwt>
</event>
<event>
 7    1  0.3056193E-009  0.9185551E+02  0.7818608E-02  0.1298420E+00
          2   -1    0    0  501    0  0.00000000000E+00  0.00000000000E+00  0.33553560240E+03  0.33553560241E+03  0.25500000000E-02 0. -1.
         -2   -1    0    0    0  501 -0.00000000000E+00 -0.00000000000E+00 -0.62865419089E+01  0.62865424261E+01  0.25500000000E-02 0.  1.
         23    2    1    2    0    0 -0.17763568394E-14  0.00000000000E+00  0.32924906049E+03  0.34182214484E+03  0.91855510809E+02 0.  0.
    9000005    2    3    3    0    0 -0.15106135809E+02 -0.38341030557E+02  0.98472774536E+02  0.10739534577E+03  0.11774676384E+02 0.  0.
         22    1    3    3    0    0  0.15106135809E+02  0.38341030557E+02  0.23077628596E+03  0.23442679907E+03  0.00000000000E+00 0.  1.
         22    1    4    4    0    0 -0.15929026230E+02 -0.31008087392E+02  0.87331695358E+02  0.94032230509E+02  0.00000000000E+00 0.  1.
         22    1    4    4    0    0  0.82289042125E+00 -0.73329431650E+01  0.11141079178E+02  0.13363115256E+02  0.00000000000E+00 0.  1.
<mgrwt>
<rscale>  0 0.91855511E+02</rscale>
<asrwt>0</asrwt>
<pdfrwt beam="1">  1        2 0.51620875E-01 0.91855511E+02</pdfrwt>
<pdfrwt beam="2">  1       -2 0.96716009E-03 0.91855511E+02</pdfrwt>
<totfact> 0.18360671E+05</totfact>
</mgrwt>
</event>
<event>
 7    1  0.3056193E-009  0.1097101E+03  0.7818608E-02  0.1261108E+00
          2   -1    0    0  501    0  0.00000000000E+00  0.00000000000E+00  0.75892358135E+03  0.75892358135E+03  0.25500000000E-02 0. -1.
         -2   -1    0    0    0  501 -0.00000000000E+00 -0.00000000000E+00 -0.39649288667E+01  0.39649296867E+01  0.25500000000E-02 0.  1.
         23    2    1    2    0    0  0.00000000000E+00 -0.71054273576E-14  0.75495865248E+03  0.76288851104E+03  0.10971013316E+03 0.  0.
    9000005    2    3    3    0    0  0.19281798668E+02 -0.49768954268E+02  0.43764983062E+03  0.44112209731E+03  0.14233549474E+02 0.  0.
         22    1    3    3    0    0 -0.19281798668E+02  0.49768954268E+02  0.31730882186E+03  0.32176641373E+03  0.00000000000E+00 0. -1.
         22    1    4    4    0    0  0.21244461368E+02 -0.41502126824E+02  0.37999474243E+03  0.38284429988E+03  0.00000000000E+00 0.  1.
         22    1    4    4    0    0 -0.19626626999E+01 -0.82668274437E+01  0.57655088182E+02  0.58277797437E+02  0.00000000000E+00 0.  1.
<mgrwt>
<rscale>  0 0.10971013E+03</rscale>
<asrwt>0</asrwt>
<pdfrwt beam="1">  1        2 0.11675764E+00 0.10971013E+03</pdfrwt>
<pdfrwt beam="2">  1       -2 0.60998827E-03 0.10971013E+03</pdfrwt>
<totfact> 0.14750367E+05</totfact>
</mgrwt>
</event>
<event>
 7    1  0.3056193E-009  0.8905871E+02  0.7818608E-02  0.1305147E+00
          2   -1    0    0  501    0  0.00000000000E+00  0.00000000000E+00  0.25524786671E+03  0.25524786672E+03  0.25500000000E-02 0. -1.
         -2   -1    0    0    0  501 -0.00000000000E+00 -0.00000000000E+00 -0.77683843102E+01  0.77683847287E+01  0.25500000000E-02 0.  1.
         23    2    1    2    0    0  0.00000000000E+00  0.00000000000E+00  0.24747948240E+03  0.26301625145E+03  0.89058712761E+02 0.  0.
    9000005    2    3    3    0    0  0.80685601850E+01  0.20890990737E+02  0.23728505589E+03  0.23841012438E+03  0.58012499743E+01 0.  0.
         22    1    3    3    0    0 -0.80685601850E+01 -0.20890990737E+02  0.10194426506E+02  0.24606127067E+02  0.00000000000E+00 0.  1.
         22    1    4    4    0    0  0.20902683691E+01  0.13138680075E+02  0.14360627926E+03  0.14422121057E+03  0.00000000000E+00 0. -1.
         22    1    4    4    0    0  0.59782918160E+01  0.77523106622E+01  0.93678776631E+02  0.94188913810E+02  0.00000000000E+00 0. -1.
<mgrwt>
<rscale>  0 0.89058713E+02</rscale>
<asrwt>0</asrwt>
<pdfrwt beam="1">  1        2 0.39268910E-01 0.89058713E+02</pdfrwt>
<pdfrwt beam="2">  1       -2 0.11951359E-02 0.89058713E+02</pdfrwt>
<totfact> 0.18012005E+05</totfact>
</mgrwt>
</event>
<event>
 7    1  0.3056193E-009  0.8972597E+02  0.7818608E-02  0.1303517E+00
          2   -1    0    0  501    0  0.00000000000E+00  0.00000000000E+00  0.15025921484E+03  0.15025921486E+03  0.25500000000E-02 0. -1.
         -2   -1    0    0    0  501 -0.00000000000E+00 -0.00000000000E+00 -0.13394769515E+02  0.13394769758E+02  0.25500000000E-02 0.  1.
         23    2    1    2    0    0 -0.66613381478E-15  0.35527136788E-14  0.13686444533E+03  0.16365398462E+03  0.89725973319E+02 0.  0.
    9000005    2    3    3    0    0  0.17567723634E+01  0.26603329965E+02  0.78092480631E+01  0.31873609166E+02  0.15624314117E+02 0.  0.
         22    1    3    3    0    0 -0.17567723634E+01 -0.26603329965E+02  0.12905519726E+03  0.13178037546E+03  0.00000000000E+00 0. -1.
         22    1    4    4    0    0 -0.49832496363E+01  0.41130332756E+01  0.51151199889E+01  0.82410115985E+01  0.00000000000E+00 0.  1.
         22    1    4    4    0    0  0.67400219997E+01  0.22490296689E+02  0.26941280741E+01  0.23632597568E+02  0.00000000000E+00 0.  1.
<mgrwt>
<rscale>  0 0.89725973E+02</rscale>
<asrwt>0</asrwt>
<pdfrwt beam="1">  1        2 0.23116801E-01 0.89725973E+02</pdfrwt>
<pdfrwt beam="2">  1       -2 0.20607339E-02 0.89725973E+02</pdfrwt>
<totfact> 0.14610557E+05</totfact>
</mgrwt>
</event>
<event>
 7    1  0.3056193E-009  0.9369893E+02  0.7818608E-02  0.1294134E+00
          2   -1    0    0  501    0  0.00000000000E+00  0.00000000000E+00  0.16729762583E+03  0.16729762585E+03  0.25500000000E-02 0. -1.
         -2   -1    0    0    0  501 -0.00000000000E+00 -0.00000000000E+00 -0.13119568003E+02  0.13119568251E+02  0.25500000000E-02 0.  1.
         23    2    1    2    0    0  0.00000000000E+00  0.00000000000E+00  0.15417805782E+03  0.18041719410E+03  0.93698934954E+02 0.  0.
    9000005    2    3    3    0    0  0.41964713297E+01 -0.40121531612E+02  0.12024323954E+03  0.12770173562E+03  0.14897951366E+02 0.  0.
         22    1    3    3    0    0 -0.41964713297E+01  0.40121531612E+02  0.33934818287E+02  0.52715458480E+02  0.00000000000E+00 0.  1.
         22    1    4    4    0    0  0.64810790572E+01 -0.23790179609E+02  0.52828966468E+02  0.58299886189E+02  0.00000000000E+00 0. -1.
         22    1    4    4    0    0 -0.22846077275E+01 -0.16331352004E+02  0.67414273069E+02  0.69401849429E+02  0.00000000000E+00 0. -1.
<mgrwt>
<rscale>  0 0.93698935E+02</rscale>
<asrwt>0</asrwt>
<pdfrwt beam="1">  1        2 0.25738094E-01 0.93698935E+02</pdfrwt>
<pdfrwt beam="2">  1       -2 0.20183952E-02 0.93698935E+02</pdfrwt>
<totfact> 0.13481027E+05</totfact>
</mgrwt>
</event>
<event>
 7    1  0.3056193E-009  0.8901993E+02  0.7818608E-02  0.1305243E+00
          2   -1    0    0  501    0  0.00000000000E+00  0.00000000000E+00  0.45475050176E+03  0.45475050177E+03  0.25500000000E-02 0. -1.
         -2   -1    0    0    0  501 -0.00000000000E+00 -0.00000000000E+00 -0.43565355232E+01  0.43565362694E+01  0.25500000000E-02 0.  1.
         23    2    1    2    0    0  0.00000000000E+00  0.00000000000E+00  0.45039396624E+03  0.45910703804E+03  0.89019927838E+02 0.  0.
    9000005    2    3    3    0    0 -0.17363937962E+02  0.24003569426E+01  0.43596619482E+03  0.43640398443E+03  0.86398232270E+01 0.  0.
         22    1    3    3    0    0  0.17363937962E+02 -0.24003569426E+01  0.14427771416E+02  0.22703053606E+02  0.00000000000E+00 0.  1.
         22    1    4    4    0    0 -0.79142242480E+01  0.31716692158E+01  0.12348938073E+03  0.12378336554E+03  0.00000000000E+00 0.  1.
         22    1    4    4    0    0 -0.94497137143E+01 -0.77131227329E+00  0.31247681409E+03  0.31262061889E+03  0.00000000000E+00 0.  1.
<mgrwt>
<rscale>  0 0.89019928E+02</rscale>
<asrwt>0</asrwt>
<pdfrwt beam="1">  1        2 0.69961552E-01 0.89019928E+02</pdfrwt>
<pdfrwt beam="2">  1       -2 0.67023691E-03 0.89019928E+02</pdfrwt>
<totfact> 0.22244039E+05</totfact>
</mgrwt>
</event>
<event>
 7    1  0.3056193E-009  0.8680553E+02  0.7818608E-02  0.1310777E+00
          2   -1    0    0  501    0  0.00000000000E+00  0.00000000000E+00  0.30509026311E+03  0.30509026312E+03  0.25500000000E-02 0.  1.
         -2   -1    0    0    0  501 -0.00000000000E+00 -0.00000000000E+00 -0.61745651696E+01  0.61745656962E+01  0.25500000000E-02 0. -1.
         23    2    1    2    0    0  0.22204460493E-15  0.00000000000E+00  0.29891569794E+03  0.31126482882E+03  0.86805525073E+02 0.  0.
    9000005    2    3    3    0    0  0.18847026981E+01 -0.30563808380E+02  0.25888306713E+03  0.26086334058E+03  0.95677334922E+01 0.  0.
         22    1    3    3    0    0 -0.18847026981E+01  0.30563808380E+02  0.40032630807E+02  0.50401488235E+02  0.00000000000E+00 0. -1.
         22    1    4    4    0    0  0.14594600740E+01 -0.23462203915E+02  0.15913736619E+03  0.16086424821E+03  0.00000000000E+00 0. -1.
         22    1    4    4    0    0  0.42524262414E+00 -0.71016044651E+01  0.99745700947E+02  0.99999092370E+02  0.00000000000E+00 0. -1.
<mgrwt>
<rscale>  0 0.86805525E+02</rscale>
<asrwt>0</asrwt>
<pdfrwt beam="1">  1        2 0.46936957E-01 0.86805525E+02</pdfrwt>
<pdfrwt beam="2">  1       -2 0.94993328E-03 0.86805525E+02</pdfrwt>
<totfact> 0.20601594E+05</totfact>
</mgrwt>
</event>
<event>
 7    1  0.3056193E-009  0.8815916E+02  0.7818608E-02  0.1307372E+00
          2   -1    0    0  501    0  0.00000000000E+00  0.00000000000E+00  0.37252726787E+03  0.37252726787E+03  0.25500000000E-02 0.  1.
         -2   -1    0    0    0  501 -0.00000000000E+00 -0.00000000000E+00 -0.52157501088E+01  0.52157507322E+01  0.25500000000E-02 0. -1.
         23    2    1    2    0    0  0.44408920985E-15  0.00000000000E+00  0.36731151776E+03  0.37774301861E+03  0.88159157376E+02 0.  0.
    9000005    2    3    3    0    0  0.33693434201E+01 -0.42112950842E+02  0.15035666396E+03  0.15671301682E+03  0.12922466481E+02 0.  0.
         22    1    3    3    0    0 -0.33693434201E+01  0.42112950842E+02  0.21695485379E+03  0.22103000178E+03  0.00000000000E+00 0.  1.
         22    1    4    4    0    0  0.82704556400E+01 -0.25681998146E+02  0.88170622715E+02  0.92206421551E+02  0.00000000000E+00 0. -1.
         22    1    4    4    0    0 -0.49011122199E+01 -0.16430952696E+02  0.62186041248E+02  0.64506595272E+02  0.00000000000E+00 0. -1.
<mgrwt>
<rscale>  0 0.88159157E+02</rscale>
<asrwt>0</asrwt>
<pdfrwt beam="1">  1        2 0.57311881E-01 0.88159157E+02</pdfrwt>
<pdfrwt beam="2">  1       -2 0.80242324E-03 0.88159157E+02</pdfrwt>
<totfact> 0.21272797E+05</totfact>
</mgrwt>
</event>
<event>
 7    1  0.3056193E-009  0.8774275E+02  0.7818608E-02  0.1308412E+00
          2   -1    0    0  501    0  0.00000000000E+00  0.00000000000E+00  0.11316147709E+04  0.11316147709E+04  0.25500000000E-02 0. -1.
         -2   -1    0    0    0  501 -0.00000000000E+00 -0.00000000000E+00 -0.17008405375E+01  0.17008424490E+01  0.25500000000E-02 0.  1.
         23    2    1    2    0    0  0.00000000000E+00  0.00000000000E+00  0.11299139303E+04  0.11333156133E+04  0.87742745795E+02 0.  0.
    9000005    2    3    3    0    0  0.13943800810E+02 -0.14456478332E+02  0.10671652234E+04  0.10674307170E+04  0.12778972160E+02 0.  0.
         22    1    3    3    0    0 -0.13943800810E+02  0.14456478332E+02  0.62748706925E+02  0.65884896353E+02  0.00000000000E+00 0.  1.
         22    1    4    4    0    0  0.76305931506E+00 -0.27088183891E+01  0.34508328274E+02  0.34622892381E+02  0.00000000000E+00 0. -1.
         22    1    4    4    0    0  0.13180741495E+02 -0.11747659943E+02  0.10326568951E+04  0.10328078246E+04  0.00000000000E+00 0. -1.
<mgrwt>
<rscale>  0 0.87742746E+02</rscale>
<asrwt>0</asrwt>
<pdfrwt beam="1">  1        2 0.17409473E+00 0.87742746E+02</pdfrwt>
<pdfrwt beam="2">  1       -2 0.26166769E-03 0.87742746E+02</pdfrwt>
<totfact> 0.27641181E+05</totfact>
</mgrwt>
</event>
<event>
 7    1  0.3056193E-009  0.8908176E+02  0.7818608E-02  0.1305091E+00
         -2   -1    0    0    0  501 -0.00000000000E+00  0.00000000000E+00  0.12744794414E+02  0.12744794669E+02  0.25500000000E-02 0.  1.
          2   -1    0    0  501    0  0.00000000000E+00 -0.00000000000E+00 -0.15566277891E+03  0.15566277893E+03  0.25500000000E-02 0. -1.
         23    2    1    2    0    0  0.00000000000E+00 -0.44408920985E-15 -0.14291798450E+03  0.16840757360E+03  0.89081763305E+02 0.  0.
    9000005    2    3    3    0    0 -0.39065903902E+02 -0.25391499069E+01 -0.11004719022E+03  0.11728926723E+03  0.10667520873E+02 0.  0.
         22    1    3    3    0    0  0.39065903902E+02  0.25391499069E+01 -0.32870794273E+02  0.51118306369E+02  0.00000000000E+00 0.  1.
         22    1    4    4    0    0 -0.87959497472E+01 -0.50764318860E+01 -0.29996590934E+02  0.31669138926E+02  0.00000000000E+00 0.  1.
         22    1    4    4    0    0 -0.30269954155E+02  0.25372819790E+01 -0.80050599289E+02  0.85620128305E+02  0.00000000000E+00 0.  1.
<mgrwt>
<rscale>  0 0.89081763E+02</rscale>
<asrwt>0</asrwt>
<pdfrwt beam="2">  1        2 0.23948118E-01 0.89081763E+02</pdfrwt>
<pdfrwt beam="1">  1       -2 0.19607377E-02 0.89081763E+02</pdfrwt>
<totfact> 0.15078029E+05</totfact>
</mgrwt>
</event>
<event>
 7    1  0.3056193E-009  0.8926559E+02  0.7818608E-02  0.1304640E+00
         -2   -1    0    0    0  501 -0.00000000000E+00  0.00000000000E+00  0.80977430530E+02  0.80977430570E+02  0.25500000000E-02 0.  1.
          2   -1    0    0  501    0  0.00000000000E+00 -0.00000000000E+00 -0.24600513107E+02  0.24600513239E+02  0.25500000000E-02 0. -1.
         23    2    1    2    0    0  0.00000000000E+00  0.00000000000E+00  0.56376917423E+02  0.10557794381E+03  0.89265589119E+02 0.  0.
    9000005    2    3    3    0    0  0.27540230186E+02 -0.34362131197E+02  0.22825505828E+02  0.50216246227E+02  0.78388347203E+01 0.  0.
         22    1    3    3    0    0 -0.27540230186E+02  0.34362131197E+02  0.33551411595E+02  0.55361697581E+02  0.00000000000E+00 0.  1.
         22    1    4    4    0    0  0.14941686546E+02 -0.15321076815E+02  0.14780327747E+02  0.26008603959E+02  0.00000000000E+00 0.  1.
         22    1    4    4    0    0  0.12598543640E+02 -0.19041054382E+02  0.80451780815E+01  0.24207642268E+02  0.00000000000E+00 0.  1.
<mgrwt>
<rscale>  0 0.89265589E+02</rscale>
<asrwt>0</asrwt>
<pdfrwt beam="2">  1        2 0.37846943E-02 0.89265589E+02</pdfrwt>
<pdfrwt beam="1">  1       -2 0.12458066E-01 0.89265589E+02</pdfrwt>
<totfact> 0.89324751E+04</totfact>
</mgrwt>
</event>
<event>
 7    1  0.3056193E-009  0.9042975E+02  0.7818608E-02  0.1301814E+00
          2   -1    0    0  501    0  0.00000000000E+00  0.00000000000E+00  0.28976587657E+03  0.28976587658E+03  0.25500000000E-02 0. -1.
         -2   -1    0    0    0  501 -0.00000000000E+00 -0.00000000000E+00 -0.70552990679E+01  0.70552995288E+01  0.25500000000E-02 0.  1.
         23    2    1    2    0    0  0.00000000000E+00  0.00000000000E+00  0.28271057750E+03  0.29682117611E+03  0.90429751497E+02 0.  0.
    9000005    2    3    3    0    0  0.26315275784E+02 -0.21557568801E+02  0.23784238601E+03  0.24051507413E+03  0.11012619539E+02 0.  0.
         22    1    3    3    0    0 -0.26315275784E+02  0.21557568801E+02  0.44868191489E+02  0.56306101976E+02  0.00000000000E+00 0.  1.
         22    1    4    4    0    0  0.33496865753E+01 -0.29061491329E+01  0.65645779868E+02  0.65795398908E+02  0.00000000000E+00 0.  1.
         22    1    4    4    0    0  0.22965589209E+02 -0.18651419669E+02  0.17219660615E+03  0.17471967523E+03  0.00000000000E+00 0.  1.
<mgrwt>
<rscale>  0 0.90429751E+02</rscale>
<asrwt>0</asrwt>
<pdfrwt beam="1">  1        2 0.44579353E-01 0.90429751E+02</pdfrwt>
<pdfrwt beam="2">  1       -2 0.10854310E-02 0.90429751E+02</pdfrwt>
<totfact> 0.18128666E+05</totfact>
</mgrwt>
</event>
<event>
 7    1  0.3056193E-009  0.8203348E+02  0.7818608E-02  0.1323378E+00
          2   -1    0    0  501    0  0.00000000000E+00  0.00000000000E+00  0.15484511614E+02  0.15484511824E+02  0.25500000000E-02 0. -1.
         -2   -1    0    0    0  501 -0.00000000000E+00 -0.00000000000E+00 -0.10864874708E+03  0.10864874711E+03  0.25500000000E-02 0.  1.
         23    2    1    2    0    0 -0.11102230246E-15  0.35527136788E-14 -0.93164235468E+02  0.12413325894E+03  0.82033476117E+02 0.  0.
    9000005    2    3    3    0    0 -0.82126112007E-01 -0.24496598897E+02  0.13891194330E+01  0.26458149388E+02  0.99001976770E+01 0.  0.
         22    1    3    3    0    0  0.82126112007E-01  0.24496598897E+02 -0.94553354901E+02  0.97675109548E+02  0.00000000000E+00 0.  1.
         22    1    4    4    0    0 -0.16626959298E+01  0.15905139236E+00 -0.28841154000E+00  0.16950033382E+01  0.00000000000E+00 0.  1.
         22    1    4    4    0    0  0.15805698177E+01 -0.24655650289E+02  0.16775309730E+01  0.24763146050E+02  0.00000000000E+00 0.  1.
<mgrwt>
<rscale>  0 0.82033476E+02</rscale>
<asrwt>0</asrwt>
<pdfrwt beam="1">  1        2 0.23822326E-02 0.82033476E+02</pdfrwt>
<pdfrwt beam="2">  1       -2 0.16715191E-01 0.82033476E+02</pdfrwt>
<totfact> 0.10132707E+05</totfact>
</mgrwt>
</event>
<event>
 7    1  0.3056193E-009  0.1000480E+03  0.7818608E-02  0.1280195E+00
          2   -1    0    0  501    0  0.00000000000E+00  0.00000000000E+00  0.38707755162E+01  0.38707763561E+01  0.25500000000E-02 0.  1.
         -2   -1    0    0    0  501 -0.00000000000E+00 -0.00000000000E+00 -0.64648596477E+03  0.64648596478E+03  0.25500000000E-02 0. -1.
         23    2    1    2    0    0  0.00000000000E+00  0.71054273576E-14 -0.64261518926E+03  0.65035674113E+03  0.10004803484E+03 0.  0.
    9000005    2    3    3    0    0 -0.47683700172E+01  0.36446467847E+02 -0.54170093994E+03  0.54295670349E+03  0.33152918852E+01 0.  0.
         22    1    3    3    0    0  0.47683700172E+01 -0.36446467847E+02 -0.10091424932E+03  0.10740003765E+03  0.00000000000E+00 0.  1.
         22    1    4    4    0    0 -0.49661047134E+01  0.27866000195E+02 -0.40825699860E+03  0.40923703776E+03  0.00000000000E+00 0. -1.
         22    1    4    4    0    0  0.19773469621E+00  0.85804676514E+01 -0.13344394133E+03  0.13371966573E+03  0.00000000000E+00 0. -1.
<mgrwt>
<rscale>  0 0.10004803E+03</rscale>
<asrwt>0</asrwt>
<pdfrwt beam="1">  1        2 0.59550450E-03 0.10004803E+03</pdfrwt>
<pdfrwt beam="2">  1       -2 0.99459294E-01 0.10004803E+03</pdfrwt>
<totfact> 0.22983073E+04</totfact>
</mgrwt>
</event>
<event>
 7    1  0.3056193E-009  0.9143199E+02  0.7818608E-02  0.1299421E+00
         -2   -1    0    0    0  501 -0.00000000000E+00  0.00000000000E+00  0.16182079484E+02  0.16182079685E+02  0.25500000000E-02 0. -1.
          2   -1    0    0  501    0  0.00000000000E+00 -0.00000000000E+00 -0.12915226021E+03  0.12915226023E+03  0.25500000000E-02 0.  1.
         23    2    1    2    0    0  0.00000000000E+00  0.00000000000E+00 -0.11297018072E+03  0.14533433992E+03  0.91431989078E+02 0.  0.
    9000005    2    3    3    0    0 -0.31307343827E+01  0.14801827717E+02 -0.12465964954E+03  0.12621525828E+03  0.12703054606E+02 0.  0.
         22    1    3    3    0    0  0.31307343827E+01 -0.14801827717E+02  0.11689468819E+02  0.19119081642E+02  0.00000000000E+00 0. -1.
         22    1    4    4    0    0 -0.47693825755E+01  0.69318647043E+01 -0.98240559972E+02  0.98600230132E+02  0.00000000000E+00 0. -1.
         22    1    4    4    0    0  0.16386481928E+01  0.78699630131E+01 -0.26419089569E+02  0.27615028144E+02  0.00000000000E+00 0. -1.
<mgrwt>
<rscale>  0 0.91431989E+02</rscale>
<asrwt>0</asrwt>
<pdfrwt beam="2">  1        2 0.19869578E-01 0.91431989E+02</pdfrwt>
<pdfrwt beam="1">  1       -2 0.24895508E-02 0.91431989E+02</pdfrwt>
<totfact> 0.13198429E+05</totfact>
</mgrwt>
</event>
<event>
 7    1  0.3056193E-009  0.9165411E+02  0.7818608E-02  0.1298895E+00
          2   -1    0    0  501    0  0.00000000000E+00  0.00000000000E+00  0.30322070566E+02  0.30322070673E+02  0.25500000000E-02 0. -1.
         -2   -1    0    0    0  501 -0.00000000000E+00 -0.00000000000E+00 -0.69260411473E+02  0.69260411520E+02  0.25500000000E-02 0.  1.
         23    2    1    2    0    0  0.00000000000E+00  0.00000000000E+00 -0.38938340907E+02  0.99582482193E+02  0.91654112658E+02 0.  0.
    9000005    2    3    3    0    0  0.25581001225E+02 -0.24924192076E+02 -0.50373052798E+02  0.62081074081E+02  0.64040874833E+01 0.  0.
         22    1    3    3    0    0 -0.25581001225E+02  0.24924192076E+02  0.11434711891E+02  0.37501408112E+02  0.00000000000E+00 0. -1.
         22    1    4    4    0    0  0.22841462171E+02 -0.24529124947E+02 -0.46534475984E+02  0.57348651421E+02  0.00000000000E+00 0.  1.
         22    1    4    4    0    0  0.27395390546E+01 -0.39506712895E+00 -0.38385768148E+01  0.47324226598E+01  0.00000000000E+00 0.  1.
<mgrwt>
<rscale>  0 0.91654113E+02</rscale>
<asrwt>0</asrwt>
<pdfrwt beam="1">  1        2 0.46649340E-02 0.91654113E+02</pdfrwt>
<pdfrwt beam="2">  1       -2 0.10655448E-01 0.91654113E+02</pdfrwt>
<totfact> 0.87353503E+04</totfact>
</mgrwt>
</event>
<event>
 7    1  0.3056193E-009  0.9418343E+02  0.7818608E-02  0.1293026E+00
         -2   -1    0    0    0  501 -0.00000000000E+00  0.00000000000E+00  0.70098768957E+01  0.70098773595E+01  0.25500000000E-02 0.  1.
          2   -1    0    0  501    0  0.00000000000E+00 -0.00000000000E+00 -0.31635783720E+03  0.31635783721E+03  0.25500000000E-02 0. -1.
         23    2    1    2    0    0  0.35527136788E-14 -0.35527136788E-14 -0.30934796031E+03  0.32336771457E+03  0.94183428913E+02 0.  0.
    9000005    2    3    3    0    0  0.25619473211E+02 -0.31964271637E+02 -0.22990912153E+03  0.23398873955E+03  0.14644248266E+02 0.  0.
         22    1    3    3    0    0 -0.25619473211E+02  0.31964271637E+02 -0.79438838782E+02  0.89378975022E+02  0.00000000000E+00 0. -1.
         22    1    4    4    0    0 -0.79117411695E+00 -0.69137473106E+01 -0.44389662137E+02  0.44931814597E+02  0.00000000000E+00 0. -1.
         22    1    4    4    0    0  0.26410647328E+02 -0.25050524327E+02 -0.18551945939E+03  0.18905692496E+03  0.00000000000E+00 0. -1.
<mgrwt>
<rscale>  0 0.94183429E+02</rscale>
<asrwt>0</asrwt>
<pdfrwt beam="2">  1        2 0.48670425E-01 0.94183429E+02</pdfrwt>
<pdfrwt beam="1">  1       -2 0.10784429E-02 0.94183429E+02</pdfrwt>
<totfact> 0.16802592E+05</totfact>
</mgrwt>
</event>
<event>
 7    1  0.3056193E-009  0.8984439E+02  0.7818608E-02  0.1303229E+00
         -2   -1    0    0    0  501 -0.00000000000E+00  0.00000000000E+00  0.38609553467E+02  0.38609553551E+02  0.25500000000E-02 0.  1.
          2   -1    0    0  501    0  0.00000000000E+00 -0.00000000000E+00 -0.52266945731E+02  0.52266945793E+02  0.25500000000E-02 0. -1.
         23    2    1    2    0    0 -0.35527136788E-14  0.71054273576E-14 -0.13657392263E+02  0.90876499344E+02  0.89844386411E+02 0.  0.
    9000005    2    3    3    0    0 -0.20187350241E+02  0.37237546925E+02 -0.17417577433E+02  0.48352353224E+02  0.15505290965E+02 0.  0.
         22    1    3    3    0    0  0.20187350241E+02 -0.37237546925E+02  0.37601851700E+01  0.42524146120E+02  0.00000000000E+00 0.  1.
         22    1    4    4    0    0 -0.49409460880E+01  0.24250846910E+02 -0.12514834879E+02  0.27733330419E+02  0.00000000000E+00 0. -1.
         22    1    4    4    0    0 -0.15246404153E+02  0.12986700015E+02 -0.49027425544E+01  0.20619022805E+02  0.00000000000E+00 0. -1.
<mgrwt>
<rscale>  0 0.89844386E+02</rscale>
<asrwt>0</asrwt>
<pdfrwt beam="2">  1        2 0.80410686E-02 0.89844386E+02</pdfrwt>
<pdfrwt beam="1">  1       -2 0.59399313E-02 0.89844386E+02</pdfrwt>
<totfact> 0.10662082E+05</totfact>
</mgrwt>
</event>
<event>
 7    1  0.3056193E-009  0.8851930E+02  0.7818608E-02  0.1306478E+00
         -2   -1    0    0    0  501 -0.00000000000E+00  0.00000000000E+00  0.25055875910E+03  0.25055875911E+03  0.25500000000E-02 0.  1.
          2   -1    0    0  501    0  0.00000000000E+00 -0.00000000000E+00 -0.78181923507E+01  0.78181927666E+01  0.25500000000E-02 0. -1.
         23    2    1    2    0    0  0.00000000000E+00  0.00000000000E+00  0.24274056675E+03  0.25837695188E+03  0.88519300251E+02 0.  0.
    9000005    2    3    3    0    0  0.11674622953E+02 -0.37814435090E+02  0.70727831554E+02  0.81870268177E+02  0.11579565312E+02 0.  0.
         22    1    3    3    0    0 -0.11674622953E+02  0.37814435090E+02  0.17201273520E+03  0.17650668370E+03  0.00000000000E+00 0.  1.
         22    1    4    4    0    0  0.35719056630E+01 -0.92873509539E+01  0.29138790942E+02  0.30790948920E+02  0.00000000000E+00 0. -1.
         22    1    4    4    0    0  0.81027172897E+01 -0.28527084136E+02  0.41589040611E+02  0.51079319257E+02  0.00000000000E+00 0. -1.
<mgrwt>
<rscale>  0 0.88519300E+02</rscale>
<asrwt>0</asrwt>
<pdfrwt beam="2">  1        2 0.12027986E-02 0.88519300E+02</pdfrwt>
<pdfrwt beam="1">  1       -2 0.38547510E-01 0.88519300E+02</pdfrwt>
<totfact> 0.60534764E+04</totfact>
</mgrwt>
</event>
<event>
 7    1  0.3056193E-009  0.9316288E+02  0.7818608E-02  0.1295368E+00
         -2   -1    0    0    0  501 -0.00000000000E+00  0.00000000000E+00  0.21208172476E+02  0.21208172629E+02  0.25500000000E-02 0.  1.
          2   -1    0    0  501    0  0.00000000000E+00 -0.00000000000E+00 -0.10231105353E+03  0.10231105356E+03  0.25500000000E-02 0. -1.
         23    2    1    2    0    0  0.00000000000E+00  0.00000000000E+00 -0.81102881056E+02  0.12351922619E+03  0.93162878464E+02 0.  0.
    9000005    2    3    3    0    0  0.33743806994E+02  0.40188174572E+01  0.15098837804E+01  0.34190259345E+02  0.34494464562E+01 0.  0.
         22    1    3    3    0    0 -0.33743806994E+02 -0.40188174572E+01 -0.82612764836E+02  0.89328966848E+02  0.00000000000E+00 0. -1.
         22    1    4    4    0    0  0.12470213173E+02  0.14131774029E+00 -0.43737707327E+00  0.12478681260E+02  0.00000000000E+00 0.  1.
         22    1    4    4    0    0  0.21273593821E+02  0.38774997169E+01  0.19472608536E+01  0.21711578085E+02  0.00000000000E+00 0.  1.
<mgrwt>
<rscale>  0 0.93162878E+02</rscale>
<asrwt>0</asrwt>
<pdfrwt beam="2">  1        2 0.15740162E-01 0.93162878E+02</pdfrwt>
<pdfrwt beam="1">  1       -2 0.32627958E-02 0.93162878E+02</pdfrwt>
<totfact> 0.11640931E+05</totfact>
</mgrwt>
</event>
<event>
 7    1  0.3056193E-009  0.9965613E+02  0.7818608E-02  0.1281021E+00
          2   -1    0    0  501    0  0.00000000000E+00  0.00000000000E+00  0.17861875922E+03  0.17861875924E+03  0.25500000000E-02 0. -1.
         -2   -1    0    0    0  501 -0.00000000000E+00 -0.00000000000E+00 -0.13900196981E+02  0.13900197215E+02  0.25500000000E-02 0.  1.
         23    2    1    2    0    0  0.00000000000E+00  0.00000000000E+00  0.16471856224E+03  0.19251895645E+03  0.99656128000E+02 0.  0.
    9000005    2    3    3    0    0  0.11401645025E+02  0.48207182935E+02  0.72063236452E+02  0.87452599362E+02  0.95764894769E+00 0.  0.
         22    1    3    3    0    0 -0.11401645025E+02 -0.48207182935E+02  0.92655325788E+02  0.10506635709E+03  0.00000000000E+00 0. -1.
         22    1    4    4    0    0  0.10000641646E+02  0.40995124610E+02  0.61080153174E+02  0.74238791658E+02  0.00000000000E+00 0.  1.
         22    1    4    4    0    0  0.14010033787E+01  0.72120583253E+01  0.10983083278E+02  0.13213807705E+02  0.00000000000E+00 0.  1.
<mgrwt>
<rscale>  0 0.99656128E+02</rscale>
<asrwt>0</asrwt>
<pdfrwt beam="1">  1        2 0.27479810E-01 0.99656128E+02</pdfrwt>
<pdfrwt beam="2">  1       -2 0.21384918E-02 0.99656128E+02</pdfrwt>
<totfact> 0.11665811E+05</totfact>
</mgrwt>
</event>
<event>
 7    1  0.3056193E-009  0.8549496E+02  0.7818608E-02  0.1314143E+00
         -2   -1    0    0    0  501 -0.00000000000E+00  0.00000000000E+00  0.10614401667E+02  0.10614401974E+02  0.25500000000E-02 0.  1.
          2   -1    0    0  501    0  0.00000000000E+00 -0.00000000000E+00 -0.17215732201E+03  0.17215732203E+03  0.25500000000E-02 0. -1.
         23    2    1    2    0    0  0.00000000000E+00  0.00000000000E+00 -0.16154292035E+03  0.18277172401E+03  0.85494958811E+02 0.  0.
    9000005    2    3    3    0    0 -0.20796500256E+02  0.23118806516E+01 -0.15985024003E+03  0.16177876372E+03  0.13506662676E+02 0.  0.
         22    1    3    3    0    0  0.20796500256E+02 -0.23118806516E+01 -0.16926803144E+01  0.20992960289E+02  0.00000000000E+00 0.  1.
         22    1    4    4    0    0 -0.78635687867E+01  0.72022298795E+01 -0.84531822099E+02  0.85201741629E+02  0.00000000000E+00 0. -1.
         22    1    4    4    0    0 -0.12932931469E+02 -0.48903492280E+01 -0.75318417933E+02  0.76577022088E+02  0.00000000000E+00 0. -1.
<mgrwt>
<rscale>  0 0.85494959E+02</rscale>
<asrwt>0</asrwt>
<pdfrwt beam="2">  1        2 0.26485740E-01 0.85494959E+02</pdfrwt>
<pdfrwt beam="1">  1       -2 0.16329850E-02 0.85494959E+02</pdfrwt>
<totfact> 0.17433753E+05</totfact>
</mgrwt>
</event>
<event>
 7    1  0.3056193E-009  0.8974828E+02  0.7818608E-02  0.1303462E+00
         -2   -1    0    0    0  501 -0.00000000000E+00  0.00000000000E+00  0.33191600706E+01  0.33191610501E+01  0.25500000000E-02 0.  1.
          2   -1    0    0  501    0  0.00000000000E+00 -0.00000000000E+00 -0.60668609544E+03  0.60668609544E+03  0.25500000000E-02 0. -1.
         23    2    1    2    0    0  0.00000000000E+00  0.17763568394E-14 -0.60336693537E+03  0.61000525650E+03  0.89748282742E+02 0.  0.
    9000005    2    3    3    0    0 -0.19039845681E+02  0.11403930039E+02 -0.56524183264E+03  0.56589075999E+03  0.15538903773E+02 0.  0.
         22    1    3    3    0    0  0.19039845681E+02 -0.11403930039E+02 -0.38125102727E+02  0.44114496504E+02  0.00000000000E+00 0.  1.
         22    1    4    4    0    0 -0.14586802238E+02  0.82999187024E+00 -0.23813812957E+03  0.23858590160E+03  0.00000000000E+00 0. -1.
         22    1    4    4    0    0 -0.44530434427E+01  0.10573938169E+02 -0.32710370307E+03  0.32730485839E+03  0.00000000000E+00 0. -1.
<mgrwt>
<rscale>  0 0.89748283E+02</rscale>
<asrwt>0</asrwt>
<pdfrwt beam="2">  1        2 0.93336234E-01 0.89748283E+02</pdfrwt>
<pdfrwt beam="1">  1       -2 0.51064057E-03 0.89748283E+02</pdfrwt>
<totfact> 0.23828594E+05</totfact>
</mgrwt>
</event>
<event>
 7    1  0.3056193E-009  0.8678038E+02  0.7818608E-02  0.1310841E+00
         -2   -1    0    0    0  501 -0.00000000000E+00  0.00000000000E+00  0.18145580870E+01  0.18145598787E+01  0.25500000000E-02 0.  1.
          2   -1    0    0  501    0  0.00000000000E+00 -0.00000000000E+00 -0.10375570263E+04  0.10375570263E+04  0.25500000000E-02 0. -1.
         23    2    1    2    0    0  0.00000000000E+00  0.00000000000E+00 -0.10357424682E+04  0.10393715862E+04  0.86780376252E+02 0.  0.
    9000005    2    3    3    0    0  0.19769243922E+02  0.10116447459E+02 -0.96366605788E+03  0.96395159917E+03  0.75663016017E+01 0.  0.
         22    1    3    3    0    0 -0.19769243922E+02 -0.10116447459E+02 -0.72076410368E+02  0.75419987046E+02  0.00000000000E+00 0.  1.
         22    1    4    4    0    0  0.48893320715E+01  0.44577315203E+01 -0.17528775109E+03  0.17541257829E+03  0.00000000000E+00 0. -1.
         22    1    4    4    0    0  0.14879911851E+02  0.56587159391E+01 -0.78837830679E+03  0.78853902088E+03  0.00000000000E+00 0. -1.
<mgrwt>
<rscale>  0 0.86780376E+02</rscale>
<asrwt>0</asrwt>
<pdfrwt beam="2">  1        2 0.15962368E+00 0.86780376E+02</pdfrwt>
<pdfrwt beam="1">  1       -2 0.27916375E-03 0.86780376E+02</pdfrwt>
<totfact> 0.28497974E+05</totfact>
</mgrwt>
</event>
<event>
 7    1  0.3056193E-009  0.8940464E+02  0.7818608E-02  0.1304300E+00
         -2   -1    0    0    0  501 -0.00000000000E+00  0.00000000000E+00  0.14650675058E+03  0.14650675060E+03  0.25500000000E-02 0.  1.
          2   -1    0    0  501    0  0.00000000000E+00 -0.00000000000E+00 -0.13639627556E+02  0.13639627794E+02  0.25500000000E-02 0. -1.
         23    2    1    2    0    0 -0.17763568394E-14  0.00000000000E+00  0.13286712303E+03  0.16014637840E+03  0.89404642681E+02 0.  0.
    9000005    2    3    3    0    0 -0.14349944404E+02  0.42153220009E+02  0.61077397702E+02  0.75668099985E+02  0.35210770922E+01 0.  0.
         22    1    3    3    0    0  0.14349944404E+02 -0.42153220009E+02  0.71789725325E+02  0.84478278413E+02  0.00000000000E+00 0. -1.
         22    1    4    4    0    0 -0.11739341505E+02  0.32483654183E+02  0.45023421487E+02  0.56745999070E+02  0.00000000000E+00 0. -1.
         22    1    4    4    0    0 -0.26106028992E+01  0.96695658258E+01  0.16053976214E+02  0.18922100915E+02  0.00000000000E+00 0. -1.
<mgrwt>
<rscale>  0 0.89404643E+02</rscale>
<asrwt>0</asrwt>
<pdfrwt beam="2">  1        2 0.20984044E-02 0.89404643E+02</pdfrwt>
<pdfrwt beam="1">  1       -2 0.22539499E-01 0.89404643E+02</pdfrwt>
<totfact> 0.74037547E+04</totfact>
</mgrwt>
</event>
<event>
 7    1  0.3056193E-009  0.9062948E+02  0.7818608E-02  0.1301334E+00
         -2   -1    0    0    0  501 -0.00000000000E+00  0.00000000000E+00  0.89053293962E+01  0.89053297613E+01  0.25500000000E-02 0.  1.
          2   -1    0    0  501    0  0.00000000000E+00 -0.00000000000E+00 -0.23058388005E+03  0.23058388007E+03  0.25500000000E-02 0. -1.
         23    2    1    2    0    0  0.00000000000E+00  0.00000000000E+00 -0.22167855066E+03  0.23948920983E+03  0.90629475354E+02 0.  0.
    9000005    2    3    3    0    0 -0.23350364011E+02 -0.29209762619E+02 -0.45626543851E+02  0.59509325308E+02  0.78184757491E+01 0.  0.
         22    1    3    3    0    0  0.23350364011E+02  0.29209762619E+02 -0.17605200681E+03  0.17997988452E+03  0.00000000000E+00 0. -1.
         22    1    4    4    0    0 -0.64096121212E+01 -0.10457338082E+02 -0.20390345829E+02  0.23795067773E+02  0.00000000000E+00 0.  1.
         22    1    4    4    0    0 -0.16940751890E+02 -0.18752424537E+02 -0.25236198022E+02  0.35714257535E+02  0.00000000000E+00 0.  1.
<mgrwt>
<rscale>  0 0.90629475E+02</rscale>
<asrwt>0</asrwt>
<pdfrwt beam="2">  1        2 0.35474439E-01 0.90629475E+02</pdfrwt>
<pdfrwt beam="1">  1       -2 0.13700509E-02 0.90629475E+02</pdfrwt>
<totfact> 0.16557796E+05</totfact>
</mgrwt>
</event>
<event>
 7    1  0.3056193E-009  0.9250261E+02  0.7818608E-02  0.1296902E+00
         -2   -1    0    0    0  501 -0.00000000000E+00  0.00000000000E+00  0.80239941708E+01  0.80239945760E+01  0.25500000000E-02 0.  1.
          2   -1    0    0  501    0  0.00000000000E+00 -0.00000000000E+00 -0.26659826867E+03  0.26659826868E+03  0.25500000000E-02 0. -1.
         23    2    1    2    0    0 -0.35527136788E-14  0.00000000000E+00 -0.25857427450E+03  0.27462226326E+03  0.92502605607E+02 0.  0.
    9000005    2    3    3    0    0  0.28842599000E+02 -0.19597111466E+02 -0.21945033028E+03  0.22221400717E+03  0.21622273910E+01 0.  0.
         22    1    3    3    0    0 -0.28842599000E+02  0.19597111466E+02 -0.39123944214E+02  0.52408256083E+02  0.00000000000E+00 0.  1.
         22    1    4    4    0    0  0.17751790018E+02 -0.11607699294E+02 -0.13964496623E+03  0.14124652678E+03  0.00000000000E+00 0.  1.
         22    1    4    4    0    0  0.11090808982E+02 -0.79894121722E+01 -0.79805364048E+02  0.80967480396E+02  0.00000000000E+00 0.  1.
<mgrwt>
<rscale>  0 0.92502606E+02</rscale>
<asrwt>0</asrwt>
<pdfrwt beam="2">  1        2 0.41015112E-01 0.92502606E+02</pdfrwt>
<pdfrwt beam="1">  1       -2 0.12344609E-02 0.92502606E+02</pdfrwt>
<totfact> 0.16540075E+05</totfact>
</mgrwt>
</event>
<event>
 7    1  0.3056193E-009  0.8984753E+02  0.7818608E-02  0.1303221E+00
         -2   -1    0    0    0  501 -0.00000000000E+00  0.00000000000E+00  0.42453682634E+01  0.42453690292E+01  0.25500000000E-02 0.  1.
          2   -1    0    0  501    0  0.00000000000E+00 -0.00000000000E+00 -0.47537558548E+03  0.47537558549E+03  0.25500000000E-02 0. -1.
         23    2    1    2    0    0  0.17763568394E-14  0.00000000000E+00 -0.47113021722E+03  0.47962095452E+03  0.89847528827E+02 0.  0.
    9000005    2    3    3    0    0  0.13666205604E+02 -0.59021378271E+01 -0.46148214657E+03  0.46188157252E+03  0.12133219772E+02 0.  0.
         22    1    3    3    0    0 -0.13666205604E+02  0.59021378271E+01 -0.96480706495E+01  0.17739382001E+02  0.00000000000E+00 0.  1.
         22    1    4    4    0    0  0.23621458668E+01 -0.72985635004E+01 -0.21402005774E+03  0.21415749783E+03  0.00000000000E+00 0.  1.
         22    1    4    4    0    0  0.11304059737E+02  0.13964256733E+01 -0.24746208883E+03  0.24772407468E+03  0.00000000000E+00 0.  1.
<mgrwt>
<rscale>  0 0.89847529E+02</rscale>
<asrwt>0</asrwt>
<pdfrwt beam="2">  1        2 0.73134663E-01 0.89847529E+02</pdfrwt>
<pdfrwt beam="1">  1       -2 0.65313401E-03 0.89847529E+02</pdfrwt>
<totfact> 0.22033590E+05</totfact>
</mgrwt>
</event>
<event>
 7    1  0.3056193E-009  0.9847855E+02  0.7818608E-02  0.1283528E+00
          2   -1    0    0  501    0  0.00000000000E+00  0.00000000000E+00  0.49158207188E+03  0.49158207189E+03  0.25500000000E-02 0. -1.
         -2   -1    0    0    0  501 -0.00000000000E+00 -0.00000000000E+00 -0.49320476654E+01  0.49320483246E+01  0.25500000000E-02 0.  1.
         23    2    1    2    0    0  0.00000000000E+00  0.00000000000E+00  0.48665002422E+03  0.49651412022E+03  0.98478553508E+02 0.  0.
    9000005    2    3    3    0    0  0.23770472748E+02 -0.39817054819E+02  0.32222303114E+03  0.32567305583E+03  0.92100089036E+01 0.  0.
         22    1    3    3    0    0 -0.23770472748E+02  0.39817054819E+02  0.16442699308E+03  0.17084106439E+03  0.00000000000E+00 0.  1.
         22    1    4    4    0    0  0.40450846114E+01 -0.18155325924E+01  0.33709024029E+02  0.33999370128E+02  0.00000000000E+00 0.  1.
         22    1    4    4    0    0  0.19725388137E+02 -0.38001522227E+02  0.28851400711E+03  0.29167368570E+03  0.00000000000E+00 0.  1.
<mgrwt>
<rscale>  0 0.98478554E+02</rscale>
<asrwt>0</asrwt>
<pdfrwt beam="1">  1        2 0.75628029E-01 0.98478554E+02</pdfrwt>
<pdfrwt beam="2">  1       -2 0.75877644E-03 0.98478554E+02</pdfrwt>
<totfact> 0.17461416E+05</totfact>
</mgrwt>
</event>
<event>
 7    1  0.3056193E-009  0.9164562E+02  0.7818608E-02  0.1298915E+00
         -2   -1    0    0    0  501 -0.00000000000E+00  0.00000000000E+00  0.13386144373E+02  0.13386144615E+02  0.25500000000E-02 0. -1.
          2   -1    0    0  501    0  0.00000000000E+00 -0.00000000000E+00 -0.15685844230E+03  0.15685844232E+03  0.25500000000E-02 0.  1.
         23    2    1    2    0    0  0.00000000000E+00  0.00000000000E+00 -0.14347229792E+03  0.17024458693E+03  0.91645616962E+02 0.  0.
    9000005    2    3    3    0    0  0.54153614601E+01 -0.39636458013E+02 -0.34513524672E+02  0.54173965275E+02  0.11969134667E+02 0.  0.
         22    1    3    3    0    0 -0.54153614601E+01  0.39636458013E+02 -0.10895877325E+03  0.11607062166E+03  0.00000000000E+00 0.  1.
         22    1    4    4    0    0 -0.20222026940E+01 -0.23936651821E+02 -0.16464922633E+02  0.29122951111E+02  0.00000000000E+00 0.  1.
         22    1    4    4    0    0  0.74375641540E+01 -0.15699806192E+02 -0.18048602039E+02  0.25051014163E+02  0.00000000000E+00 0.  1.
<mgrwt>
<rscale>  0 0.91645617E+02</rscale>
<asrwt>0</asrwt>
<pdfrwt beam="2">  1        2 0.24132067E-01 0.91645617E+02</pdfrwt>
<pdfrwt beam="1">  1       -2 0.20594070E-02 0.91645617E+02</pdfrwt>
<totfact> 0.14000145E+05</totfact>
</mgrwt>
</event>
<event>
 7    1  0.3056193E-009  0.9089317E+02  0.7818608E-02  0.1300703E+00
         -2   -1    0    0    0  501 -0.00000000000E+00  0.00000000000E+00  0.36442952186E+02  0.36442952275E+02  0.25500000000E-02 0.  1.
          2   -1    0    0  501    0  0.00000000000E+00 -0.00000000000E+00 -0.56674666453E+02  0.56674666511E+02  0.25500000000E-02 0. -1.
         23    2    1    2    0    0  0.00000000000E+00 -0.35527136788E-14 -0.20231714267E+02  0.93117618786E+02  0.90893171725E+02 0.  0.
    9000005    2    3    3    0    0 -0.34993987245E+02 -0.26635689783E+02 -0.64453035979E+01  0.47029613484E+02  0.15368913183E+02 0.  0.
         22    1    3    3    0    0  0.34993987245E+02  0.26635689783E+02 -0.13786410669E+02  0.46088005302E+02  0.00000000000E+00 0. -1.
         22    1    4    4    0    0 -0.14158753965E+02 -0.41698075263E+01  0.28036071680E+01  0.15023908340E+02  0.00000000000E+00 0. -1.
         22    1    4    4    0    0 -0.20835233281E+02 -0.22465882257E+02 -0.92489107659E+01  0.32005705145E+02  0.00000000000E+00 0. -1.
<mgrwt>
<rscale>  0 0.90893172E+02</rscale>
<asrwt>0</asrwt>
<pdfrwt beam="2">  1        2 0.87191795E-02 0.90893172E+02</pdfrwt>
<pdfrwt beam="1">  1       -2 0.56066080E-02 0.90893172E+02</pdfrwt>
<totfact> 0.10539236E+05</totfact>
</mgrwt>
</event>
<event>
 7    1  0.3056193E-009  0.9318428E+02  0.7818608E-02  0.1295319E+00
         -2   -1    0    0    0  501 -0.00000000000E+00  0.00000000000E+00  0.79191219760E+02  0.79191219801E+02  0.25500000000E-02 0.  1.
          2   -1    0    0  501    0  0.00000000000E+00 -0.00000000000E+00 -0.27412477088E+02  0.27412477207E+02  0.25500000000E-02 0. -1.
         23    2    1    2    0    0 -0.35527136788E-14  0.00000000000E+00  0.51778742672E+02  0.10660369701E+03  0.93184279914E+02 0.  0.
    9000005    2    3    3    0    0 -0.28569349603E+02  0.35802522951E+02  0.24493578223E+02  0.53288515441E+02  0.11903869848E+02 0.  0.
         22    1    3    3    0    0  0.28569349603E+02 -0.35802522951E+02  0.27285164449E+02  0.53315181566E+02  0.00000000000E+00 0. -1.
         22    1    4    4    0    0 -0.20750193214E+02  0.32093420116E+02  0.16947706487E+02  0.41806493375E+02  0.00000000000E+00 0. -1.
         22    1    4    4    0    0 -0.78191563897E+01  0.37091028357E+01  0.75458717353E+01  0.11482022067E+02  0.00000000000E+00 0. -1.
<mgrwt>
<rscale>  0 0.93184280E+02</rscale>
<asrwt>0</asrwt>
<pdfrwt beam="2">  1        2 0.42173042E-02 0.93184280E+02</pdfrwt>
<pdfrwt beam="1">  1       -2 0.12183265E-01 0.93184280E+02</pdfrwt>
<totfact> 0.80872922E+04</totfact>
</mgrwt>
</event>
<event>
 7    1  0.3056193E-009  0.8972772E+02  0.7818608E-02  0.1303512E+00
         -2   -1    0    0    0  501 -0.00000000000E+00  0.00000000000E+00  0.81873785088E+01  0.81873789059E+01  0.25500000000E-02 0.  1.
          2   -1    0    0  501    0  0.00000000000E+00 -0.00000000000E+00 -0.24583762477E+03  0.24583762478E+03  0.25500000000E-02 0. -1.
         23    2    1    2    0    0  0.00000000000E+00  0.17763568394E-14 -0.23765024626E+03  0.25402500368E+03  0.89727715624E+02 0.  0.
    9000005    2    3    3    0    0 -0.35696181455E+02  0.14229264528E+02 -0.55802683245E+02  0.68161544358E+02  0.74409228231E+01 0.  0.
         22    1    3    3    0    0  0.35696181455E+02 -0.14229264528E+02 -0.18184756301E+03  0.18586345933E+03  0.00000000000E+00 0.  1.
         22    1    4    4    0    0 -0.36014550739E+02  0.13759067262E+02 -0.55229455288E+02  0.67354677108E+02  0.00000000000E+00 0. -1.
         22    1    4    4    0    0  0.31836928364E+00  0.47019726578E+00 -0.57322795692E+00  0.80686725061E+00  0.00000000000E+00 0. -1.
<mgrwt>
<rscale>  0 0.89727716E+02</rscale>
<asrwt>0</asrwt>
<pdfrwt beam="2">  1        2 0.37821167E-01 0.89727716E+02</pdfrwt>
<pdfrwt beam="1">  1       -2 0.12595969E-02 0.89727716E+02</pdfrwt>
<totfact> 0.17412609E+05</totfact>
</mgrwt>
</event>
<event>
 7    1  0.3056193E-009  0.8916416E+02  0.7818608E-02  0.1304889E+00
         -2   -1    0    0    0  501 -0.00000000000E+00  0.00000000000E+00  0.36177945039E+03  0.36177945040E+03  0.25500000000E-02 0. -1.
          2   -1    0    0  501    0  0.00000000000E+00 -0.00000000000E+00 -0.54938495559E+01  0.54938501477E+01  0.25500000000E-02 0.  1.
         23    2    1    2    0    0 -0.88817841970E-15  0.00000000000E+00  0.35628560083E+03  0.36727330054E+03  0.89164162827E+02 0.  0.
    9000005    2    3    3    0    0 -0.58450540857E+01 -0.37967352659E+02  0.26754568581E+03  0.27057553923E+03  0.12439610476E+02 0.  0.
         22    1    3    3    0    0  0.58450540857E+01  0.37967352659E+02  0.88739915023E+02  0.96697761315E+02  0.00000000000E+00 0. -1.
         22    1    4    4    0    0 -0.35259403879E+01 -0.19545262622E+01  0.37570772821E+02  0.37786444645E+02  0.00000000000E+00 0.  1.
         22    1    4    4    0    0 -0.23191136978E+01 -0.36012826397E+02  0.22997491299E+03  0.23278909458E+03  0.00000000000E+00 0.  1.
<mgrwt>
<rscale>  0 0.89164163E+02</rscale>
<asrwt>0</asrwt>
<pdfrwt beam="2">  1        2 0.84520770E-03 0.89164163E+02</pdfrwt>
<pdfrwt beam="1">  1       -2 0.55658375E-01 0.89164163E+02</pdfrwt>
<totfact> 0.48299116E+04</totfact>
</mgrwt>
</event>
<event>
 7    1  0.3056193E-009  0.9333850E+02  0.7818608E-02  0.1294963E+00
          2   -1    0    0  501    0  0.00000000000E+00  0.00000000000E+00  0.14874028419E+02  0.14874028638E+02  0.25500000000E-02 0. -1.
         -2   -1    0    0    0  501 -0.00000000000E+00 -0.00000000000E+00 -0.14643100147E+03  0.14643100149E+03  0.25500000000E-02 0.  1.
         23    2    1    2    0    0  0.00000000000E+00  0.00000000000E+00 -0.13155697305E+03  0.16130503013E+03  0.93338500024E+02 0.  0.
    9000005    2    3    3    0    0 -0.40173090768E+02 -0.57484640841E+01 -0.29786980737E+02  0.51742019051E+02  0.11960361736E+02 0.  0.
         22    1    3    3    0    0  0.40173090768E+02  0.57484640841E+01 -0.10176999231E+03  0.10956301108E+03  0.00000000000E+00 0.  1.
         22    1    4    4    0    0 -0.36177689374E+01  0.17198143997E+01 -0.68788349182E+01  0.79601748402E+01  0.00000000000E+00 0.  1.
         22    1    4    4    0    0 -0.36555321830E+02 -0.74682784838E+01 -0.22908145819E+02  0.43781844211E+02  0.00000000000E+00 0.  1.
<mgrwt>
<rscale>  0 0.93338500E+02</rscale>
<asrwt>0</asrwt>
<pdfrwt beam="1">  1        2 0.22883122E-02 0.93338500E+02</pdfrwt>
<pdfrwt beam="2">  1       -2 0.22527845E-01 0.93338500E+02</pdfrwt>
<totfact> 0.66408360E+04</totfact>
</mgrwt>
</event>
<event>
 7    1  0.3056193E-009  0.8960116E+02  0.7818608E-02  0.1303820E+00
         -2   -1    0    0    0  501 -0.00000000000E+00  0.00000000000E+00  0.22489434438E+01  0.22489448894E+01  0.25500000000E-02 0.  1.
          2   -1    0    0  501    0  0.00000000000E+00 -0.00000000000E+00 -0.89245976005E+03  0.89245976006E+03  0.25500000000E-02 0. -1.
         23    2    1    2    0    0  0.84654505628E-15  0.00000000000E+00 -0.89021081661E+03  0.89470870495E+03  0.89601164603E+02 0.  0.
    9000005    2    3    3    0    0 -0.63842480784E-01 -0.32655743719E+02 -0.74468164488E+03  0.74556065267E+03  0.15605541135E+02 0.  0.
         22    1    3    3    0    0  0.63842480784E-01  0.32655743719E+02 -0.14552917173E+03  0.14914805228E+03  0.00000000000E+00 0.  1.
         22    1    4    4    0    0 -0.72252481057E+01 -0.95620088150E+01 -0.26117846138E+03  0.26145329394E+03  0.00000000000E+00 0. -1.
         22    1    4    4    0    0  0.71614056249E+01 -0.23093734904E+02 -0.48350318350E+03  0.48410735873E+03  0.00000000000E+00 0. -1.
<mgrwt>
<rscale>  0 0.89601165E+02</rscale>
<asrwt>0</asrwt>
<pdfrwt beam="2">  1        2 0.13730122E+00 0.89601165E+02</pdfrwt>
<pdfrwt beam="1">  1       -2 0.34599212E-03 0.89601165E+02</pdfrwt>
<totfact> 0.25932942E+05</totfact>
</mgrwt>
</event>
<event>
 7    1  0.3056193E-009  0.9078725E+02  0.7818608E-02  0.1300956E+00
          2   -1    0    0  501    0  0.00000000000E+00  0.00000000000E+00  0.18605482985E+03  0.18605482987E+03  0.25500000000E-02 0. -1.
         -2   -1    0    0    0  501 -0.00000000000E+00 -0.00000000000E+00 -0.11075127500E+02  0.11075127793E+02  0.25500000000E-02 0.  1.
         23    2    1    2    0    0  0.71054273576E-14 -0.88817841970E-15  0.17497970235E+03  0.19712995766E+03  0.90787245651E+02 0.  0.
    9000005    2    3    3    0    0  0.36896284234E+02 -0.70575384252E+01  0.38638322687E+02  0.55708189720E+02  0.14118703304E+02 0.  0.
         22    1    3    3    0    0 -0.36896284234E+02  0.70575384252E+01  0.13634137966E+03  0.14142176794E+03  0.00000000000E+00 0. -1.
         22    1    4    4    0    0  0.20297422638E+02 -0.49689885706E+01  0.11566857559E+02  0.23884480462E+02  0.00000000000E+00 0.  1.
         22    1    4    4    0    0  0.16598861596E+02 -0.20885498546E+01  0.27071465128E+02  0.31823709258E+02  0.00000000000E+00 0.  1.
<mgrwt>
<rscale>  0 0.90787246E+02</rscale>
<asrwt>0</asrwt>
<pdfrwt beam="1">  1        2 0.28623818E-01 0.90787246E+02</pdfrwt>
<pdfrwt beam="2">  1       -2 0.17038659E-02 0.90787246E+02</pdfrwt>
<totfact> 0.15246223E+05</totfact>
</mgrwt>
</event>
<event>
 7    1  0.3056193E-009  0.9016603E+02  0.7818608E-02  0.1302450E+00
         -2   -1    0    0    0  501 -0.00000000000E+00  0.00000000000E+00  0.12289830838E+02  0.12289831103E+02  0.25500000000E-02 0.  1.
          2   -1    0    0  501    0  0.00000000000E+00 -0.00000000000E+00 -0.16537884377E+03  0.16537884379E+03  0.25500000000E-02 0. -1.
         23    2    1    2    0    0  0.00000000000E+00 -0.27755575616E-16 -0.15308901293E+03  0.17766867489E+03  0.90166025516E+02 0.  0.
    9000005    2    3    3    0    0  0.21204436276E+02  0.22139820828E+00 -0.15490145217E+03  0.15638576929E+03  0.35173593179E+01 0.  0.
         22    1    3    3    0    0 -0.21204436276E+02 -0.22139820828E+00  0.18124392387E+01  0.21282905603E+02  0.00000000000E+00 0.  1.
         22    1    4    4    0    0  0.19155628087E+02  0.37461071896E+00 -0.13063550795E+03  0.13203300481E+03  0.00000000000E+00 0.  1.
         22    1    4    4    0    0  0.20488081882E+01 -0.15321251068E+00 -0.24265944217E+02  0.24352764480E+02  0.00000000000E+00 0.  1.
<mgrwt>
<rscale>  0 0.90166026E+02</rscale>
<asrwt>0</asrwt>
<pdfrwt beam="2">  1        2 0.25442897E-01 0.90166026E+02</pdfrwt>
<pdfrwt beam="1">  1       -2 0.18907434E-02 0.90166026E+02</pdfrwt>
<totfact> 0.14900496E+05</totfact>
</mgrwt>
</event>
<event>
 7    1  0.3056193E-009  0.9480665E+02  0.7818608E-02  0.1291612E+00
          2   -1    0    0  501    0  0.00000000000E+00  0.00000000000E+00  0.45259750110E+03  0.45259750110E+03  0.25500000000E-02 0. -1.
         -2   -1    0    0    0  501 -0.00000000000E+00 -0.00000000000E+00 -0.49648416451E+01  0.49648423000E+01  0.25500000000E-02 0.  1.
         23    2    1    2    0    0 -0.17763568394E-14 -0.35527136788E-14  0.44763265945E+03  0.45756234340E+03  0.94806646885E+02 0.  0.
    9000005    2    3    3    0    0  0.14225555582E+02  0.21727180234E+02  0.41504644602E+03  0.41589343295E+03  0.54183414883E+01 0.  0.
         22    1    3    3    0    0 -0.14225555582E+02 -0.21727180234E+02  0.32586213427E+02  0.41668910450E+02  0.00000000000E+00 0.  1.
         22    1    4    4    0    0  0.32655543346E+00  0.15653514012E+01  0.50556600456E+02  0.50581882262E+02  0.00000000000E+00 0.  1.
         22    1    4    4    0    0  0.13899000148E+02  0.20161828833E+02  0.36448984557E+03  0.36531155069E+03  0.00000000000E+00 0.  1.
<mgrwt>
<rscale>  0 0.94806647E+02</rscale>
<asrwt>0</asrwt>
<pdfrwt beam="1">  1        2 0.69630416E-01 0.94806647E+02</pdfrwt>
<pdfrwt beam="2">  1       -2 0.76382150E-03 0.94806647E+02</pdfrwt>
<totfact> 0.18791451E+05</totfact>
</mgrwt>
</event>
<event>
 7    1  0.3056193E-009  0.9054210E+02  0.7818608E-02  0.1301544E+00
         -2   -1    0    0    0  501 -0.00000000000E+00  0.00000000000E+00  0.13091697258E+03  0.13091697260E+03  0.25500000000E-02 0.  1.
          2   -1    0    0  501    0  0.00000000000E+00 -0.00000000000E+00 -0.15654715414E+02  0.15654715622E+02  0.25500000000E-02 0. -1.
         23    2    1    2    0    0  0.00000000000E+00  0.71054273576E-14  0.11526225717E+03  0.14657168823E+03  0.90542099945E+02 0.  0.
    9000005    2    3    3    0    0 -0.60352040597E+01 -0.33086145236E+02  0.12861389526E+02  0.38789248153E+02  0.14424761250E+02 0.  0.
         22    1    3    3    0    0  0.60352040597E+01  0.33086145236E+02  0.10240086764E+03  0.10778244007E+03  0.00000000000E+00 0.  1.
         22    1    4    4    0    0  0.19719937335E+01 -0.18583799188E+02  0.15969241435E+01  0.18756239449E+02  0.00000000000E+00 0. -1.
         22    1    4    4    0    0 -0.80071977931E+01 -0.14502346049E+02  0.11264465382E+02  0.20033008705E+02  0.00000000000E+00 0. -1.
<mgrwt>
<rscale>  0 0.90542100E+02</rscale>
<asrwt>0</asrwt>
<pdfrwt beam="2">  1        2 0.24084177E-02 0.90542100E+02</pdfrwt>
<pdfrwt beam="1">  1       -2 0.20141074E-01 0.90542100E+02</pdfrwt>
<totfact> 0.74573598E+04</totfact>
</mgrwt>
</event>
<event>
 7    1  0.3056193E-009  0.9993683E+02  0.7818608E-02  0.1280429E+00
         -2   -1    0    0    0  501 -0.00000000000E+00  0.00000000000E+00  0.48790496104E+02  0.48790496170E+02  0.25500000000E-02 0.  1.
          2   -1    0    0  501    0  0.00000000000E+00 -0.00000000000E+00 -0.51174776375E+02  0.51174776438E+02  0.25500000000E-02 0. -1.
         23    2    1    2    0    0 -0.35527136788E-14  0.35527136788E-14 -0.23842802709E+01  0.99965272609E+02  0.99936834727E+02 0.  0.
    9000005    2    3    3    0    0 -0.31765945241E+02  0.27734953983E+02 -0.27526085439E+02  0.50869312321E+02  0.71901743284E+01 0.  0.
         22    1    3    3    0    0  0.31765945241E+02 -0.27734953983E+02  0.25141805168E+02  0.49095960288E+02  0.00000000000E+00 0.  1.
         22    1    4    4    0    0 -0.15152884673E+02  0.91858614890E+01 -0.93101659954E+01  0.20016721912E+02  0.00000000000E+00 0.  1.
         22    1    4    4    0    0 -0.16613060568E+02  0.18549092494E+02 -0.18215919444E+02  0.30852590409E+02  0.00000000000E+00 0.  1.
<mgrwt>
<rscale>  0 0.99936835E+02</rscale>
<asrwt>0</asrwt>
<pdfrwt beam="2">  1        2 0.78730426E-02 0.99936835E+02</pdfrwt>
<pdfrwt beam="1">  1       -2 0.75062302E-02 0.99936835E+02</pdfrwt>
<totfact> 0.78109935E+04</totfact>
</mgrwt>
</event>
<event>
 7    1  0.3056193E-009  0.9172476E+02  0.7818608E-02  0.1298728E+00
          2   -1    0    0  501    0  0.00000000000E+00  0.00000000000E+00  0.22070865434E+03  0.22070865436E+03  0.25500000000E-02 0. -1.
         -2   -1    0    0    0  501 -0.00000000000E+00 -0.00000000000E+00 -0.95300194572E+01  0.95300197984E+01  0.25500000000E-02 0.  1.
         23    2    1    2    0    0  0.71054273576E-14  0.00000000000E+00  0.21117863488E+03  0.23023867415E+03  0.91724758080E+02 0.  0.
    9000005    2    3    3    0    0 -0.40906207160E+02  0.84522406469E+01  0.14872155449E+03  0.15510116656E+03  0.13910892922E+02 0.  0.
         22    1    3    3    0    0  0.40906207160E+02 -0.84522406469E+01  0.62457080391E+02  0.75137507592E+02  0.00000000000E+00 0. -1.
         22    1    4    4    0    0  0.13600799771E+00 -0.17531558707E+00 -0.25258753974E+00  0.33620558553E+00  0.00000000000E+00 0. -1.
         22    1    4    4    0    0 -0.41042215158E+02  0.86275562340E+01  0.14897414203E+03  0.15476496098E+03  0.00000000000E+00 0. -1.
<mgrwt>
<rscale>  0 0.91724758E+02</rscale>
<asrwt>0</asrwt>
<pdfrwt beam="1">  1        2 0.33955175E-01 0.91724758E+02</pdfrwt>
<pdfrwt beam="2">  1       -2 0.14661570E-02 0.91724758E+02</pdfrwt>
<totfact> 0.15776672E+05</totfact>
</mgrwt>
</event>
<event>
 7    1  0.3056193E-009  0.8600703E+02  0.7818608E-02  0.1312820E+00
          2   -1    0    0  501    0  0.00000000000E+00  0.00000000000E+00  0.12448103776E+03  0.12448103779E+03  0.25500000000E-02 0. -1.
         -2   -1    0    0    0  501 -0.00000000000E+00 -0.00000000000E+00 -0.14856096205E+02  0.14856096424E+02  0.25500000000E-02 0.  1.
         23    2    1    2    0    0  0.00000000000E+00  0.35527136788E-14  0.10962494156E+03  0.13933713421E+03  0.86007029707E+02 0.  0.
    9000005    2    3    3    0    0 -0.21465620691E+02 -0.29936012571E+02  0.22555342680E+02  0.44795858734E+02  0.11873826514E+02 0.  0.
         22    1    3    3    0    0  0.21465620691E+02  0.29936012571E+02  0.87069598877E+02  0.94541275477E+02  0.00000000000E+00 0. -1.
         22    1    4    4    0    0 -0.12009426549E+01 -0.12805251721E+01 -0.14481091450E+01  0.22757478051E+01  0.00000000000E+00 0. -1.
         22    1    4    4    0    0 -0.20264678036E+02 -0.28655487398E+02  0.24003451825E+02  0.42520110929E+02  0.00000000000E+00 0. -1.
<mgrwt>
<rscale>  0 0.86007030E+02</rscale>
<asrwt>0</asrwt>
<pdfrwt beam="1">  1        2 0.19150929E-01 0.86007030E+02</pdfrwt>
<pdfrwt beam="2">  1       -2 0.22855533E-02 0.86007030E+02</pdfrwt>
<totfact> 0.15399915E+05</totfact>
</mgrwt>
</event>
<event>
 7    1  0.3056193E-009  0.9159170E+02  0.7818608E-02  0.1299042E+00
          2   -1    0    0  501    0  0.00000000000E+00  0.00000000000E+00  0.97676584033E+02  0.97676584066E+02  0.25500000000E-02 0.  1.
         -2   -1    0    0    0  501 -0.00000000000E+00 -0.00000000000E+00 -0.21471469529E+02  0.21471469680E+02  0.25500000000E-02 0. -1.
         23    2    1    2    0    0  0.00000000000E+00  0.71054273576E-14  0.76205114504E+02  0.11914805375E+03  0.91591698505E+02 0.  0.
    9000005    2    3    3    0    0  0.53944982851E+00  0.45516611026E+02  0.32064823685E+02  0.55741286292E+02  0.26239653509E+01 0.  0.
         22    1    3    3    0    0 -0.53944982851E+00 -0.45516611026E+02  0.44140290819E+02  0.63406767454E+02  0.00000000000E+00 0. -1.
         22    1    4    4    0    0  0.13267388425E+01  0.27032112201E+02  0.20025543939E+02  0.33667755139E+02  0.00000000000E+00 0. -1.
         22    1    4    4    0    0 -0.78728901396E+00  0.18484498825E+02  0.12039279746E+02  0.22073531154E+02  0.00000000000E+00 0. -1.
<mgrwt>
<rscale>  0 0.91591699E+02</rscale>
<asrwt>0</asrwt>
<pdfrwt beam="1">  1        2 0.15027167E-01 0.91591699E+02</pdfrwt>
<pdfrwt beam="2">  1       -2 0.33033031E-02 0.91591699E+02</pdfrwt>
<totfact> 0.12028787E+05</totfact>
</mgrwt>
</event>
<event>
 7    1  0.3056193E-009  0.1039933E+03  0.7818608E-02  0.1272116E+00
          2   -1    0    0  501    0  0.00000000000E+00  0.00000000000E+00  0.23338482871E+03  0.23338482872E+03  0.25500000000E-02 0. -1.
         -2   -1    0    0    0  501 -0.00000000000E+00 -0.00000000000E+00 -0.11584510997E+02  0.11584511278E+02  0.25500000000E-02 0.  1.
         23    2    1    2    0    0  0.00000000000E+00  0.00000000000E+00  0.22180031771E+03  0.24496934000E+03  0.10399325268E+03 0.  0.
    9000005    2    3    3    0    0  0.51322950020E+01  0.44059997792E+02  0.51949787607E+02  0.69422120045E+02  0.12370386481E+02 0.  0.
         22    1    3    3    0    0 -0.51322950020E+01 -0.44059997792E+02  0.16985053010E+03  0.17554721995E+03  0.00000000000E+00 0. -1.
         22    1    4    4    0    0 -0.24231633156E+01  0.19144393320E+02  0.16195677285E+02  0.25192845785E+02  0.00000000000E+00 0. -1.
         22    1    4    4    0    0  0.75554583176E+01  0.24915604472E+02  0.35754110322E+02  0.44229274260E+02  0.00000000000E+00 0. -1.
<mgrwt>
<rscale>  0 0.10399325E+03</rscale>
<asrwt>0</asrwt>
<pdfrwt beam="1">  1        2 0.35905356E-01 0.10399325E+03</pdfrwt>
<pdfrwt beam="2">  1       -2 0.17822326E-02 0.10399325E+03</pdfrwt>
<totfact> 0.11467024E+05</totfact>
</mgrwt>
</event>
<event>
 7    1  0.3056193E-009  0.9185979E+02  0.7818608E-02  0.1298409E+00
          2   -1    0    0  501    0  0.00000000000E+00  0.00000000000E+00  0.13866425095E+02  0.13866425329E+02  0.25500000000E-02 0. -1.
         -2   -1    0    0    0  501 -0.00000000000E+00 -0.00000000000E+00 -0.15213403297E+03  0.15213403299E+03  0.25500000000E-02 0.  1.
         23    2    1    2    0    0  0.00000000000E+00  0.00000000000E+00 -0.13826760787E+03  0.16600045832E+03  0.91859788673E+02 0.  0.
    9000005    2    3    3    0    0 -0.35424536973E+02 -0.19697807482E+02 -0.10744073937E+03  0.11507701322E+03  0.75036694147E+01 0.  0.
         22    1    3    3    0    0  0.35424536973E+02  0.19697807482E+02 -0.30826868497E+02  0.50923445098E+02  0.00000000000E+00 0. -1.
         22    1    4    4    0    0 -0.11635853392E+02 -0.10636449001E+02 -0.40775511616E+02  0.43716924400E+02  0.00000000000E+00 0. -1.
         22    1    4    4    0    0 -0.23788683581E+02 -0.90613584813E+01 -0.66665227759E+02  0.71360088819E+02  0.00000000000E+00 0. -1.
<mgrwt>
<rscale>  0 0.91859789E+02</rscale>
<asrwt>0</asrwt>
<pdfrwt beam="1">  1        2 0.21332963E-02 0.91859789E+02</pdfrwt>
<pdfrwt beam="2">  1       -2 0.23405235E-01 0.91859789E+02</pdfrwt>
<totfact> 0.68194259E+04</totfact>
</mgrwt>
</event>
<event>
 7    1  0.3894364E-009  0.8985958E+02  0.7818608E-02  0.1303192E+00
         -2   -1    0    0    0  501 -0.00000000000E+00  0.00000000000E+00  0.73456878508E+01  0.73456882934E+01  0.25500000000E-02 0.  1.
          2   -1    0    0  501    0  0.00000000000E+00 -0.00000000000E+00 -0.27481235412E+03  0.27481235413E+03  0.25500000000E-02 0. -1.
         23    2    1    2    0    0  0.00000000000E+00  0.00000000000E+00 -0.26746666626E+03  0.28215804242E+03  0.89859575672E+02 0.  0.
    9000005    2    3    3    0    0  0.32842065355E+02  0.17969338698E+02 -0.67802123751E+02  0.79014182245E+02  0.15640160506E+02 0.  0.
         22    1    3    3    0    0 -0.32842065355E+02 -0.17969338698E+02 -0.19966454251E+03  0.20314386018E+03  0.00000000000E+00 0.  1.
         22    1    4    4    0    0  0.32464599840E+02  0.12773532927E+02 -0.54295206791E+02  0.64537453209E+02  0.00000000000E+00 0. -1.
         22    1    4    4    0    0  0.37746551539E+00  0.51958057704E+01 -0.13506916960E+02  0.14476729036E+02  0.00000000000E+00 0. -1.
<mgrwt>
<rscale>  0 0.89859576E+02</rscale>
<asrwt>0</asrwt>
<pdfrwt beam="2">  1        2 0.42278816E-01 0.89859576E+02</pdfrwt>
<pdfrwt beam="1">  1       -2 0.11301061E-02 0.89859576E+02</pdfrwt>
<totfact> 0.18076612E+05</totfact>
</mgrwt>
</event>
<event>
 7    1  0.3056193E-009  0.9927236E+02  0.7818608E-02  0.1281834E+00
          2   -1    0    0  501    0  0.00000000000E+00  0.00000000000E+00  0.15540437700E+03  0.15540437702E+03  0.25500000000E-02 0. -1.
         -2   -1    0    0    0  501 -0.00000000000E+00 -0.00000000000E+00 -0.15853801990E+02  0.15853802195E+02  0.25500000000E-02 0.  1.
         23    2    1    2    0    0  0.00000000000E+00 -0.88817841970E-15  0.13955057501E+03  0.17125817922E+03  0.99272357496E+02 0.  0.
    9000005    2    3    3    0    0  0.32442340184E+02  0.67905007954E+01  0.13266357839E+03  0.13740486239E+03  0.13485356530E+02 0.  0.
         22    1    3    3    0    0 -0.32442340184E+02 -0.67905007954E+01  0.68869966251E+01  0.33853316827E+02  0.00000000000E+00 0.  1.
         22    1    4    4    0    0  0.22362734124E+02  0.76265991629E+01  0.11113406523E+03  0.11361794465E+03  0.00000000000E+00 0.  1.
         22    1    4    4    0    0  0.10079606060E+02 -0.83609836745E+00  0.21529513159E+02  0.23786917742E+02  0.00000000000E+00 0.  1.
<mgrwt>
<rscale>  0 0.99272357E+02</rscale>
<asrwt>0</asrwt>
<pdfrwt beam="1">  1        2 0.23908366E-01 0.99272357E+02</pdfrwt>
<pdfrwt beam="2">  1       -2 0.24390465E-02 0.99272357E+02</pdfrwt>
<totfact> 0.11220351E+05</totfact>
</mgrwt>
</event>
<event>
 7    1  0.3056193E-009  0.8522167E+02  0.7818608E-02  0.1314854E+00
         -2   -1    0    0    0  501 -0.00000000000E+00  0.00000000000E+00  0.42077745962E+01  0.42077753688E+01  0.25500000000E-02 0.  1.
          2   -1    0    0  501    0  0.00000000000E+00 -0.00000000000E+00 -0.43150676587E+03  0.43150676588E+03  0.25500000000E-02 0. -1.
         23    2    1    2    0    0 -0.17763568394E-14  0.44408920985E-15 -0.42729899128E+03  0.43571454125E+03  0.85221672771E+02 0.  0.
    9000005    2    3    3    0    0 -0.10000071615E+02  0.18362947443E+01 -0.42510362564E+03  0.42531295286E+03  0.86395560496E+01 0.  0.
         22    1    3    3    0    0  0.10000071615E+02 -0.18362947443E+01 -0.21953656352E+01  0.10401588386E+02  0.00000000000E+00 0.  1.
         22    1    4    4    0    0 -0.78354263082E+01 -0.36792909253E+00 -0.16074320753E+03  0.16093448370E+03  0.00000000000E+00 0. -1.
         22    1    4    4    0    0 -0.21646453065E+01  0.22042238368E+01 -0.26436041811E+03  0.26437846916E+03  0.00000000000E+00 0. -1.
<mgrwt>
<rscale>  0 0.85221673E+02</rscale>
<asrwt>0</asrwt>
<pdfrwt beam="2">  1        2 0.66385622E-01 0.85221673E+02</pdfrwt>
<pdfrwt beam="1">  1       -2 0.64735034E-03 0.85221673E+02</pdfrwt>
<totfact> 0.24509429E+05</totfact>
</mgrwt>
</event>
<event>
 7    1  0.3056193E-009  0.9221909E+02  0.7818608E-02  0.1297565E+00
         -2   -1    0    0    0  501 -0.00000000000E+00  0.00000000000E+00  0.18765459596E+02  0.18765459769E+02  0.25500000000E-02 0.  1.
          2   -1    0    0  501    0  0.00000000000E+00 -0.00000000000E+00 -0.11329805229E+03  0.11329805232E+03  0.25500000000E-02 0. -1.
         23    2    1    2    0    0  0.00000000000E+00  0.00000000000E+00 -0.94532592691E+02  0.13206351209E+03  0.92219087739E+02 0.  0.
    9000005    2    3    3    0    0 -0.31546308557E+02 -0.92236426915E+01 -0.93562015933E+02  0.99182101116E+02  0.17300832704E+01 0.  0.
         22    1    3    3    0    0  0.31546308557E+02  0.92236426915E+01 -0.97057675796E+00  0.32881410969E+02  0.00000000000E+00 0.  1.
         22    1    4    4    0    0 -0.19826380699E+02 -0.61403937538E+01 -0.56731826543E+02  0.60409353166E+02  0.00000000000E+00 0.  1.
         22    1    4    4    0    0 -0.11719927859E+02 -0.30832489377E+01 -0.36830189390E+02  0.38772747949E+02  0.00000000000E+00 0.  1.
<mgrwt>
<rscale>  0 0.92219088E+02</rscale>
<asrwt>0</asrwt>
<pdfrwt beam="2">  1        2 0.17430469E-01 0.92219088E+02</pdfrwt>
<pdfrwt beam="1">  1       -2 0.28869939E-02 0.92219088E+02</pdfrwt>
<totfact> 0.12359880E+05</totfact>
</mgrwt>
</event>
<event>
 6    1  0.3056193E-009  0.1689666E+03  0.7818608E-02  0.1178930E+00
          2   -1    0    0  501    0  0.00000000000E+00  0.00000000000E+00  0.14147778753E+03  0.14147778756E+03  0.25500000000E-02 0. -1.
         -2   -1    0    0    0  501 -0.00000000000E+00 -0.00000000000E+00 -0.50449091507E+02  0.50449091571E+02  0.25500000000E-02 0.  1.
    9000005    2    1    2    0    0  0.90106340370E+01 -0.41926572427E+02  0.12814365686E+03  0.13521224857E+03  0.47461953299E+01 0.  0.
         22    1    1    2    0    0 -0.90106340370E+01  0.41926572427E+02 -0.37114960833E+02  0.56714630553E+02  0.00000000000E+00 0.  1.
         22    1    3    3    0    0  0.53713382786E+01 -0.25167536836E+02  0.84030178467E+02  0.87882461723E+02  0.00000000000E+00 0.  1.
         22    1    3    3    0    0  0.36392957583E+01 -0.16759035591E+02  0.44113478392E+02  0.47329786852E+02  0.00000000000E+00 0.  1.
<mgrwt>
<rscale>  0 0.16896657E+03</rscale>
<asrwt>0</asrwt>
<pdfrwt beam="1">  1        2 0.21765813E-01 0.16896657E+03</pdfrwt>
<pdfrwt beam="2">  1       -2 0.77613989E-02 0.16896657E+03</pdfrwt>
<totfact> 0.23625315E+04</totfact>
</mgrwt>
</event>
<event>
 7    1  0.3056193E-009  0.9303252E+02  0.7818608E-02  0.1295670E+00
         -2   -1    0    0    0  501 -0.00000000000E+00  0.00000000000E+00  0.13163231285E+03  0.13163231287E+03  0.25500000000E-02 0.  1.
          2   -1    0    0  501    0  0.00000000000E+00 -0.00000000000E+00 -0.16437926507E+02  0.16437926705E+02  0.25500000000E-02 0. -1.
         23    2    1    2    0    0  0.35527136788E-14 -0.88817841970E-15  0.11519438634E+03  0.14807023958E+03  0.93032516919E+02 0.  0.
    9000005    2    3    3    0    0  0.25175693518E+02  0.65536017912E+01  0.32164256071E+00  0.30288608989E+02  0.15509066381E+02 0.  0.
         22    1    3    3    0    0 -0.25175693518E+02 -0.65536017912E+01  0.11487274378E+03  0.11778163059E+03  0.00000000000E+00 0.  1.
         22    1    4    4    0    0  0.26393038327E+01 -0.43640197276E+01  0.11702694452E+01  0.52326019797E+01  0.00000000000E+00 0. -1.
         22    1    4    4    0    0  0.22536389685E+02  0.10917621519E+02 -0.84862688451E+00  0.25056007010E+02  0.00000000000E+00 0. -1.
<mgrwt>
<rscale>  0 0.93032517E+02</rscale>
<asrwt>0</asrwt>
<pdfrwt beam="2">  1        2 0.25289119E-02 0.93032517E+02</pdfrwt>
<pdfrwt beam="1">  1       -2 0.20251124E-01 0.93032517E+02</pdfrwt>
<totfact> 0.69515289E+04</totfact>
</mgrwt>
</event>
<event>
 7    1  0.3056193E-009  0.9374508E+02  0.7818608E-02  0.1294028E+00
         -2   -1    0    0    0  501 -0.00000000000E+00  0.00000000000E+00  0.38192879075E+02  0.38192879160E+02  0.25500000000E-02 0.  1.
          2   -1    0    0  501    0  0.00000000000E+00 -0.00000000000E+00 -0.57524732473E+02  0.57524732530E+02  0.25500000000E-02 0. -1.
         23    2    1    2    0    0  0.00000000000E+00  0.71054273576E-14 -0.19331853398E+02  0.95717611690E+02  0.93745083241E+02 0.  0.
    9000005    2    3    3    0    0  0.12674393197E+02 -0.40887859747E+02 -0.29134839277E+02  0.51802285781E+02  0.14766972777E+01 0.  0.
         22    1    3    3    0    0 -0.12674393197E+02  0.40887859747E+02  0.98029858790E+01  0.43915325909E+02  0.00000000000E+00 0.  1.
         22    1    4    4    0    0  0.12238878010E+02 -0.38707534041E+02 -0.27331397239E+02  0.48939438099E+02  0.00000000000E+00 0.  1.
         22    1    4    4    0    0  0.43551518701E+00 -0.21803257055E+01 -0.18034420384E+01  0.28628476813E+01  0.00000000000E+00 0.  1.
<mgrwt>
<rscale>  0 0.93745083E+02</rscale>
<asrwt>0</asrwt>
<pdfrwt beam="2">  1        2 0.88499588E-02 0.93745083E+02</pdfrwt>
<pdfrwt beam="1">  1       -2 0.58758276E-02 0.93745083E+02</pdfrwt>
<totfact> 0.96932873E+04</totfact>
</mgrwt>
</event>
<event>
 7    1  0.3056193E-009  0.8541027E+02  0.7818608E-02  0.1314363E+00
         -2   -1    0    0    0  501 -0.00000000000E+00  0.00000000000E+00  0.85539291463E+02  0.85539291501E+02  0.25500000000E-02 0.  1.
          2   -1    0    0  501    0  0.00000000000E+00 -0.00000000000E+00 -0.21320358620E+02  0.21320358772E+02  0.25500000000E-02 0. -1.
         23    2    1    2    0    0  0.17763568394E-14 -0.35527136788E-14  0.64218932843E+02  0.10685965027E+03  0.85410265899E+02 0.  0.
    9000005    2    3    3    0    0 -0.14418209485E+02  0.20791578568E+02 -0.86114650910E+01  0.29759446853E+02  0.13087889131E+02 0.  0.
         22    1    3    3    0    0  0.14418209485E+02 -0.20791578568E+02  0.72830397934E+02  0.77100203419E+02  0.00000000000E+00 0.  1.
         22    1    4    4    0    0  0.38844619437E+00  0.84992298121E+01  0.38371516119E+00  0.85167502704E+01  0.00000000000E+00 0. -1.
         22    1    4    4    0    0 -0.14806655679E+02  0.12292348756E+02 -0.89951802522E+01  0.21242696583E+02  0.00000000000E+00 0. -1.
<mgrwt>
<rscale>  0 0.85410266E+02</rscale>
<asrwt>0</asrwt>
<pdfrwt beam="2">  1        2 0.32800552E-02 0.85410266E+02</pdfrwt>
<pdfrwt beam="1">  1       -2 0.13159891E-01 0.85410266E+02</pdfrwt>
<totfact> 0.98111050E+04</totfact>
</mgrwt>
</event>
<event>
 7    1  0.3056193E-009  0.9176741E+02  0.7818608E-02  0.1298627E+00
         -2   -1    0    0    0  501 -0.00000000000E+00  0.00000000000E+00  0.16630135157E+03  0.16630135159E+03  0.25500000000E-02 0. -1.
          2   -1    0    0  501    0  0.00000000000E+00 -0.00000000000E+00 -0.12659634093E+02  0.12659634350E+02  0.25500000000E-02 0.  1.
         23    2    1    2    0    0  0.00000000000E+00 -0.44408920985E-15  0.15364171748E+03  0.17896098594E+03  0.91767407827E+02 0.  0.
    9000005    2    3    3    0    0 -0.19799008112E+02 -0.39840775718E+01  0.15715930579E+03  0.15846105853E+03  0.17280270075E+01 0.  0.
         22    1    3    3    0    0  0.19799008112E+02  0.39840775718E+01 -0.35175883130E+01  0.20499927411E+02  0.00000000000E+00 0.  1.
         22    1    4    4    0    0 -0.10306769119E+02 -0.29525962657E+01  0.83485648105E+02  0.84171258479E+02  0.00000000000E+00 0.  1.
         22    1    4    4    0    0 -0.94922389934E+01 -0.10314813061E+01  0.73673657684E+02  0.74289800049E+02  0.00000000000E+00 0.  1.
<mgrwt>
<rscale>  0 0.91767408E+02</rscale>
<asrwt>0</asrwt>
<pdfrwt beam="2">  1        2 0.19476362E-02 0.91767408E+02</pdfrwt>
<pdfrwt beam="1">  1       -2 0.25584821E-01 0.91767408E+02</pdfrwt>
<totfact> 0.66111726E+04</totfact>
</mgrwt>
</event>
<event>
 7    1  0.3056193E-009  0.1148931E+03  0.7818608E-02  0.1251768E+00
          2   -1    0    0  501    0  0.00000000000E+00  0.00000000000E+00  0.14921758571E+02  0.14921758789E+02  0.25500000000E-02 0.  1.
         -2   -1    0    0    0  501 -0.00000000000E+00 -0.00000000000E+00 -0.22116054615E+03  0.22116054616E+03  0.25500000000E-02 0. -1.
         23    2    1    2    0    0  0.35527136788E-14 -0.17763568394E-14 -0.20623878758E+03  0.23608230495E+03  0.11489306859E+03 0.  0.
    9000005    2    3    3    0    0 -0.19552260977E+02  0.11734141129E+02 -0.21124272727E+03  0.21273663319E+03  0.10649145410E+02 0.  0.
         22    1    3    3    0    0  0.19552260977E+02 -0.11734141129E+02  0.50039396983E+01  0.23345671759E+02  0.00000000000E+00 0.  1.
         22    1    4    4    0    0 -0.25906502054E+01  0.36912074506E+01 -0.83533780311E+02  0.83655417840E+02  0.00000000000E+00 0. -1.
         22    1    4    4    0    0 -0.16961610772E+02  0.80429336787E+01 -0.12770894696E+03  0.12908121535E+03  0.00000000000E+00 0. -1.
<mgrwt>
<rscale>  0 0.11489307E+03</rscale>
<asrwt>0</asrwt>
<pdfrwt beam="1">  1        2 0.22956553E-02 0.11489307E+03</pdfrwt>
<pdfrwt beam="2">  1       -2 0.34024697E-01 0.11489307E+03</pdfrwt>
<totfact> 0.32904769E+04</totfact>
</mgrwt>
</event>
<event>
 7    1  0.3056193E-009  0.7567519E+02  0.7818608E-02  0.1341793E+00
          2   -1    0    0  501    0  0.00000000000E+00  0.00000000000E+00  0.55881047320E+01  0.55881053138E+01  0.25500000000E-02 0. -1.
         -2   -1    0    0    0  501 -0.00000000000E+00 -0.00000000000E+00 -0.25620199501E+03  0.25620199502E+03  0.25500000000E-02 0.  1.
         23    2    1    2    0    0  0.00000000000E+00  0.44408920985E-15 -0.25061389028E+03  0.26179010034E+03  0.75675191668E+02 0.  0.
    9000005    2    3    3    0    0  0.21729732273E+02  0.30203933508E+01 -0.23134815971E+03  0.23259297009E+03  0.98089087158E+01 0.  0.
         22    1    3    3    0    0 -0.21729732273E+02 -0.30203933508E+01 -0.19265730566E+02  0.29197130251E+02  0.00000000000E+00 0. -1.
         22    1    4    4    0    0  0.15005966635E+02  0.27360912127E+01 -0.19713361820E+03  0.19772285820E+03  0.00000000000E+00 0.  1.
         22    1    4    4    0    0  0.67237656388E+01  0.28430213807E+00 -0.34214541514E+02  0.34870111888E+02  0.00000000000E+00 0.  1.
<mgrwt>
<rscale>  0 0.75675192E+02</rscale>
<asrwt>0</asrwt>
<pdfrwt beam="1">  1        2 0.85970866E-03 0.75675192E+02</pdfrwt>
<pdfrwt beam="2">  1       -2 0.39415683E-01 0.75675192E+02</pdfrwt>
<totfact> 0.89344190E+04</totfact>
</mgrwt>
</event>
<event>
 7    1  0.3056193E-009  0.9099847E+02  0.7818608E-02  0.1300452E+00
         -2   -1    0    0    0  501 -0.00000000000E+00  0.00000000000E+00  0.57694386427E+01  0.57694392062E+01  0.25500000000E-02 0.  1.
          2   -1    0    0  501    0  0.00000000000E+00 -0.00000000000E+00 -0.35881835593E+03  0.35881835594E+03  0.25500000000E-02 0. -1.
         23    2    1    2    0    0  0.00000000000E+00  0.00000000000E+00 -0.35304891729E+03  0.36458779514E+03  0.90998474554E+02 0.  0.
    9000005    2    3    3    0    0  0.16615573853E+02 -0.52627035367E+01 -0.34437864057E+03  0.34512123301E+03  0.14430663583E+02 0.  0.
         22    1    3    3    0    0 -0.16615573853E+02  0.52627035367E+01 -0.86702767186E+01  0.19466562135E+02  0.00000000000E+00 0.  1.
         22    1    4    4    0    0  0.13471250149E+02 -0.52682895814E+01 -0.14539468037E+03  0.14611243115E+03  0.00000000000E+00 0.  1.
         22    1    4    4    0    0  0.31443237045E+01  0.55860446795E-02 -0.19898396019E+03  0.19900880186E+03  0.00000000000E+00 0.  1.
<mgrwt>
<rscale>  0 0.90998475E+02</rscale>
<asrwt>0</asrwt>
<pdfrwt beam="2">  1        2 0.55202807E-01 0.90998475E+02</pdfrwt>
<pdfrwt beam="1">  1       -2 0.88760627E-03 0.90998475E+02</pdfrwt>
<totfact> 0.19293556E+05</totfact>
</mgrwt>
</event>
<event>
 6    1  0.3056193E-009  0.3002745E+03  0.7818608E-02  0.1085103E+00
          2   -1    0    0  501    0  0.00000000000E+00  0.00000000000E+00  0.12106061867E+03  0.12106061870E+03  0.25500000000E-02 0. -1.
         -2   -1    0    0    0  501 -0.00000000000E+00 -0.00000000000E+00 -0.18619757552E+03  0.18619757554E+03  0.25500000000E-02 0.  1.
    9000005    2    1    2    0    0  0.14595832658E+03  0.12131231726E+02  0.97809245530E+00  0.14656532064E+03  0.54255569001E+01 0.  0.
         22    1    1    2    0    0 -0.14595832658E+03 -0.12131231726E+02 -0.66115049304E+02  0.16069287360E+03  0.00000000000E+00 0.  1.
         22    1    3    3    0    0  0.66313582814E+02  0.28619574354E+01  0.10098007109E+01  0.66382993029E+02  0.00000000000E+00 0. -1.
         22    1    3    3    0    0  0.79644743763E+02  0.92692742904E+01 -0.31708255565E-01  0.80182327606E+02  0.00000000000E+00 0. -1.
<mgrwt>
<rscale>  0 0.30027450E+03</rscale>
<asrwt>0</asrwt>
<pdfrwt beam="1">  1        2 0.18624711E-01 0.30027450E+03</pdfrwt>
<pdfrwt beam="2">  1       -2 0.28645781E-01 0.30027450E+03</pdfrwt>
<totfact> 0.33522219E+03</totfact>
</mgrwt>
</event>
<event>
 7    1  0.3056193E-009  0.9212335E+02  0.7818608E-02  0.1297790E+00
         -2   -1    0    0    0  501 -0.00000000000E+00  0.00000000000E+00  0.50332913604E+02  0.50332913668E+02  0.25500000000E-02 0.  1.
          2   -1    0    0  501    0  0.00000000000E+00 -0.00000000000E+00 -0.42152890739E+02  0.42152890816E+02  0.25500000000E-02 0. -1.
         23    2    1    2    0    0  0.00000000000E+00  0.17763568394E-14  0.81800228647E+01  0.92485804485E+02  0.92123348056E+02 0.  0.
    9000005    2    3    3    0    0  0.10831566818E+02 -0.73058511555E+01 -0.39700159950E+02  0.42855065953E+02  0.94739472720E+01 0.  0.
         22    1    3    3    0    0 -0.10831566818E+02  0.73058511555E+01  0.47880182815E+02  0.49630738532E+02  0.00000000000E+00 0.  1.
         22    1    4    4    0    0  0.43702644161E+01 -0.68280259040E+00 -0.25671685266E+02  0.26049968423E+02  0.00000000000E+00 0. -1.
         22    1    4    4    0    0  0.64613024016E+01 -0.66230485651E+01 -0.14028474684E+02  0.16805097530E+02  0.00000000000E+00 0. -1.
<mgrwt>
<rscale>  0 0.92123348E+02</rscale>
<asrwt>0</asrwt>
<pdfrwt beam="2">  1        2 0.64850601E-02 0.92123348E+02</pdfrwt>
<pdfrwt beam="1">  1       -2 0.77435252E-02 0.92123348E+02</pdfrwt>
<totfact> 0.93846746E+04</totfact>
</mgrwt>
</event>
<event>
 7    1  0.3056193E-009  0.9594746E+02  0.7818608E-02  0.1289056E+00
         -2   -1    0    0    0  501 -0.00000000000E+00  0.00000000000E+00  0.48128304023E+02  0.48128304090E+02  0.25500000000E-02 0.  1.
          2   -1    0    0  501    0  0.00000000000E+00 -0.00000000000E+00 -0.47819653765E+02  0.47819653833E+02  0.25500000000E-02 0. -1.
         23    2    1    2    0    0  0.00000000000E+00  0.00000000000E+00  0.30865025770E+00  0.95947957923E+02  0.95947461481E+02 0.  0.
    9000005    2    3    3    0    0 -0.17816992751E+02 -0.36554478321E+02 -0.24240746252E+02  0.48446926513E+02  0.10286680402E+02 0.  0.
         22    1    3    3    0    0  0.17816992751E+02  0.36554478321E+02  0.24549396510E+02  0.47501031410E+02  0.00000000000E+00 0.  1.
         22    1    4    4    0    0 -0.10173848655E+02 -0.14010861871E+02 -0.15011624214E+02  0.22916376423E+02  0.00000000000E+00 0.  1.
         22    1    4    4    0    0 -0.76431440959E+01 -0.22543616450E+02 -0.92291220387E+01  0.25530550090E+02  0.00000000000E+00 0.  1.
<mgrwt>
<rscale>  0 0.95947461E+02</rscale>
<asrwt>0</asrwt>
<pdfrwt beam="2">  1        2 0.73568699E-02 0.95947461E+02</pdfrwt>
<pdfrwt beam="1">  1       -2 0.74043544E-02 0.95947461E+02</pdfrwt>
<totfact> 0.86270352E+04</totfact>
</mgrwt>
</event>
<event>
 7    1  0.3056193E-009  0.9458369E+02  0.7818608E-02  0.1292116E+00
          2   -1    0    0  501    0  0.00000000000E+00  0.00000000000E+00  0.32200490761E+03  0.32200490762E+03  0.25500000000E-02 0. -1.
         -2   -1    0    0    0  501 -0.00000000000E+00 -0.00000000000E+00 -0.69456037118E+01  0.69456041799E+01  0.25500000000E-02 0.  1.
         23    2    1    2    0    0  0.35527136788E-14  0.71054273576E-14  0.31505930390E+03  0.32895051180E+03  0.94583689084E+02 0.  0.
    9000005    2    3    3    0    0  0.21694267546E+02 -0.38945290995E+02  0.21027733788E+03  0.21507936823E+03  0.74295947212E+01 0.  0.
         22    1    3    3    0    0 -0.21694267546E+02  0.38945290995E+02  0.10478196602E+03  0.11387114357E+03  0.00000000000E+00 0.  1.
         22    1    4    4    0    0  0.26827978053E+01 -0.48308444693E+01  0.16347008763E+02  0.17255699286E+02  0.00000000000E+00 0. -1.
         22    1    4    4    0    0  0.19011469741E+02 -0.34114446525E+02  0.19393032912E+03  0.19782366895E+03  0.00000000000E+00 0. -1.
<mgrwt>
<rscale>  0 0.94583689E+02</rscale>
<asrwt>0</asrwt>
<pdfrwt beam="1">  1        2 0.49539208E-01 0.94583689E+02</pdfrwt>
<pdfrwt beam="2">  1       -2 0.10685546E-02 0.94583689E+02</pdfrwt>
<totfact> 0.16722752E+05</totfact>
</mgrwt>
</event>
<event>
 7    1  0.3056193E-009  0.9057928E+02  0.7818608E-02  0.1301455E+00
          2   -1    0    0  501    0  0.00000000000E+00  0.00000000000E+00  0.51421760744E+03  0.51421760745E+03  0.25500000000E-02 0. -1.
         -2   -1    0    0    0  501 -0.00000000000E+00 -0.00000000000E+00 -0.39888776958E+01  0.39888785109E+01  0.25500000000E-02 0.  1.
         23    2    1    2    0    0 -0.71054273576E-14 -0.17763568394E-14  0.51022872975E+03  0.51820648596E+03  0.90579277055E+02 0.  0.
    9000005    2    3    3    0    0  0.39253798385E+02  0.15401337946E+02  0.34646028591E+03  0.34909656580E+03  0.74579250302E+01 0.  0.
         22    1    3    3    0    0 -0.39253798385E+02 -0.15401337946E+02  0.16376844384E+03  0.16910992016E+03  0.00000000000E+00 0. -1.
         22    1    4    4    0    0  0.62339081715E+01  0.15360143832E+01  0.34990338923E+02  0.35574496050E+02  0.00000000000E+00 0. -1.
         22    1    4    4    0    0  0.33019890213E+02  0.13865323563E+02  0.31146994698E+03  0.31352206975E+03  0.00000000000E+00 0. -1.
<mgrwt>
<rscale>  0 0.90579277E+02</rscale>
<asrwt>0</asrwt>
<pdfrwt beam="1">  1        2 0.79110390E-01 0.90579277E+02</pdfrwt>
<pdfrwt beam="2">  1       -2 0.61367364E-03 0.90579277E+02</pdfrwt>
<totfact> 0.22126655E+05</totfact>
</mgrwt>
</event>
<event>
 7    1  0.3056193E-009  0.9108986E+02  0.7818608E-02  0.1300234E+00
         -2   -1    0    0    0  501 -0.00000000000E+00  0.00000000000E+00  0.38278699186E+01  0.38278707680E+01  0.25500000000E-02 0.  1.
          2   -1    0    0  501    0  0.00000000000E+00 -0.00000000000E+00 -0.54190463484E+03  0.54190463484E+03  0.25500000000E-02 0. -1.
         23    2    1    2    0    0  0.00000000000E+00  0.00000000000E+00 -0.53807676492E+03  0.54573250561E+03  0.91089860772E+02 0.  0.
    9000005    2    3    3    0    0  0.39965251560E+02  0.18205219956E+02 -0.31954229262E+03  0.32282901316E+03  0.13514569789E+02 0.  0.
         22    1    3    3    0    0 -0.39965251560E+02 -0.18205219956E+02 -0.21853447229E+03  0.22290349245E+03  0.00000000000E+00 0.  1.
         22    1    4    4    0    0  0.28651190642E+02  0.95871473316E+01 -0.17501838412E+03  0.17760697875E+03  0.00000000000E+00 0.  1.
         22    1    4    4    0    0  0.11314060918E+02  0.86180726242E+01 -0.14452390850E+03  0.14522203441E+03  0.00000000000E+00 0.  1.
<mgrwt>
<rscale>  0 0.91089861E+02</rscale>
<asrwt>0</asrwt>
<pdfrwt beam="2">  1        2 0.83369883E-01 0.91089861E+02</pdfrwt>
<pdfrwt beam="1">  1       -2 0.58890356E-03 0.91089861E+02</pdfrwt>
<totfact> 0.22162326E+05</totfact>
</mgrwt>
</event>
<event>
 7    1  0.3056193E-009  0.9147851E+02  0.7818608E-02  0.1299310E+00
          2   -1    0    0  501    0  0.00000000000E+00  0.00000000000E+00  0.41755243579E+03  0.41755243580E+03  0.25500000000E-02 0.  1.
         -2   -1    0    0    0  501 -0.00000000000E+00 -0.00000000000E+00 -0.50103394849E+01  0.50103401338E+01  0.25500000000E-02 0. -1.
         23    2    1    2    0    0 -0.35527136788E-14 -0.35527136788E-14  0.41254209631E+03  0.42256277594E+03  0.91478513211E+02 0.  0.
    9000005    2    3    3    0    0 -0.26917203897E+02 -0.31868729658E+02  0.29195001176E+03  0.29495947405E+03  0.51117678807E+01 0.  0.
         22    1    3    3    0    0  0.26917203897E+02  0.31868729658E+02  0.12059208455E+03  0.12760330188E+03  0.00000000000E+00 0. -1.
         22    1    4    4    0    0 -0.26386252040E+02 -0.29569084585E+02  0.27816059149E+03  0.28096953521E+03  0.00000000000E+00 0. -1.
         22    1    4    4    0    0 -0.53095185758E+00 -0.22996450727E+01  0.13789420272E+02  0.13989938841E+02  0.00000000000E+00 0. -1.
<mgrwt>
<rscale>  0 0.91478513E+02</rscale>
<asrwt>0</asrwt>
<pdfrwt beam="1">  1        2 0.64238864E-01 0.91478513E+02</pdfrwt>
<pdfrwt beam="2">  1       -2 0.77082118E-03 0.91478513E+02</pdfrwt>
<totfact> 0.20092331E+05</totfact>
</mgrwt>
</event>
<event>
 7    1  0.3056193E-009  0.9059122E+02  0.7818608E-02  0.1301426E+00
         -2   -1    0    0    0  501 -0.00000000000E+00  0.00000000000E+00  0.21113522889E+01  0.21113538288E+01  0.25500000000E-02 0.  1.
          2   -1    0    0  501    0  0.00000000000E+00 -0.00000000000E+00 -0.97174293837E+03  0.97174293838E+03  0.25500000000E-02 0. -1.
         23    2    1    2    0    0 -0.44408920985E-15  0.00000000000E+00 -0.96963158609E+03  0.97385429221E+03  0.90591223164E+02 0.  0.
    9000005    2    3    3    0    0 -0.33478388072E+01 -0.15371999647E+02 -0.94123730133E+03  0.94139290276E+03  0.67404421018E+01 0.  0.
         22    1    3    3    0    0  0.33478388072E+01  0.15371999647E+02 -0.28394284755E+02  0.32461389443E+02  0.00000000000E+00 0.  1.
         22    1    4    4    0    0  0.14248294867E+01 -0.50232327793E+01 -0.41087454657E+03  0.41090772203E+03  0.00000000000E+00 0.  1.
         22    1    4    4    0    0 -0.47726682940E+01 -0.10348766867E+02 -0.53036275476E+03  0.53048518073E+03  0.00000000000E+00 0.  1.
<mgrwt>
<rscale>  0 0.90591223E+02</rscale>
<asrwt>0</asrwt>
<pdfrwt beam="2">  1        2 0.14949856E+00 0.90591223E+02</pdfrwt>
<pdfrwt beam="1">  1       -2 0.32482432E-03 0.90591223E+02</pdfrwt>
<totfact> 0.25390046E+05</totfact>
</mgrwt>
</event>
<event>
 7    1  0.3265786E-009  0.9315542E+02  0.7818608E-02  0.1295385E+00
         -2   -1    0    0    0  501 -0.00000000000E+00  0.00000000000E+00  0.53174041348E+02  0.53174041409E+02  0.25500000000E-02 0.  1.
          2   -1    0    0  501    0  0.00000000000E+00 -0.00000000000E+00 -0.40799664798E+02  0.40799664878E+02  0.25500000000E-02 0. -1.
         23    2    1    2    0    0  0.00000000000E+00  0.00000000000E+00  0.12374376549E+02  0.93973706287E+02  0.93155420016E+02 0.  0.
    9000005    2    3    3    0    0  0.20353370725E+02 -0.18756737101E+02  0.42493443140E+02  0.53068534745E+02  0.15636552804E+02 0.  0.
         22    1    3    3    0    0 -0.20353370725E+02  0.18756737101E+02 -0.30119066591E+02  0.40905171541E+02  0.00000000000E+00 0. -1.
         22    1    4    4    0    0  0.22977131121E+02 -0.16249957649E+02  0.38191675437E+02  0.47440633964E+02  0.00000000000E+00 0. -1.
         22    1    4    4    0    0 -0.26237603967E+01 -0.25067794520E+01  0.43017677029E+01  0.56279007818E+01  0.00000000000E+00 0. -1.
<mgrwt>
<rscale>  0 0.93155420E+02</rscale>
<asrwt>0</asrwt>
<pdfrwt beam="2">  1        2 0.62768716E-02 0.93155420E+02</pdfrwt>
<pdfrwt beam="1">  1       -2 0.81806217E-02 0.93155420E+02</pdfrwt>
<totfact> 0.90087706E+04</totfact>
</mgrwt>
</event>
<event>
 7    1  0.3056193E-009  0.9454659E+02  0.7818608E-02  0.1292201E+00
         -2   -1    0    0    0  501 -0.00000000000E+00  0.00000000000E+00  0.30610057498E+02  0.30610057604E+02  0.25500000000E-02 0.  1.
          2   -1    0    0  501    0  0.00000000000E+00 -0.00000000000E+00 -0.73007522023E+02  0.73007522067E+02  0.25500000000E-02 0. -1.
         23    2    1    2    0    0  0.00000000000E+00  0.00000000000E+00 -0.42397464525E+02  0.10361757967E+03  0.94546590731E+02 0.  0.
    9000005    2    3    3    0    0  0.37936306120E+02  0.12866604856E+02  0.38448466334E+01  0.42436993014E+02  0.13468581509E+02 0.  0.
         22    1    3    3    0    0 -0.37936306120E+02 -0.12866604856E+02 -0.46242311158E+02  0.61180586658E+02  0.00000000000E+00 0. -1.
         22    1    4    4    0    0  0.17798708196E+02  0.11442488216E+02 -0.24246958564E+01  0.21297974083E+02  0.00000000000E+00 0.  1.
         22    1    4    4    0    0  0.20137597924E+02  0.14241166404E+01  0.62695424898E+01  0.21139018931E+02  0.00000000000E+00 0.  1.
<mgrwt>
<rscale>  0 0.94546591E+02</rscale>
<asrwt>0</asrwt>
<pdfrwt beam="2">  1        2 0.11231926E-01 0.94546591E+02</pdfrwt>
<pdfrwt beam="1">  1       -2 0.47092396E-02 0.94546591E+02</pdfrwt>
<totfact> 0.10109815E+05</totfact>
</mgrwt>
</event>
<event>
 7    1  0.3056193E-009  0.9297598E+02  0.7818608E-02  0.1295801E+00
          2   -1    0    0  501    0  0.00000000000E+00  0.00000000000E+00  0.20401562130E+03  0.20401562131E+03  0.25500000000E-02 0. -1.
         -2   -1    0    0    0  501 -0.00000000000E+00 -0.00000000000E+00 -0.10592978746E+02  0.10592979053E+02  0.25500000000E-02 0.  1.
         23    2    1    2    0    0  0.35527136788E-14  0.00000000000E+00  0.19342264255E+03  0.21460860037E+03  0.92975979154E+02 0.  0.
    9000005    2    3    3    0    0  0.18847791524E+02 -0.27949700958E+02  0.16920700684E+03  0.17310170887E+03  0.14027309790E+02 0.  0.
         22    1    3    3    0    0 -0.18847791524E+02  0.27949700958E+02  0.24215635709E+02  0.41506891497E+02  0.00000000000E+00 0.  1.
         22    1    4    4    0    0  0.17242888056E+02 -0.20240009520E+02  0.10098688575E+03  0.10442857017E+03  0.00000000000E+00 0.  1.
         22    1    4    4    0    0  0.16049034678E+01 -0.77096914382E+01  0.68220121092E+02  0.68673138701E+02  0.00000000000E+00 0.  1.
<mgrwt>
<rscale>  0 0.92975979E+02</rscale>
<asrwt>0</asrwt>
<pdfrwt beam="1">  1        2 0.31387014E-01 0.92975979E+02</pdfrwt>
<pdfrwt beam="2">  1       -2 0.16296893E-02 0.92975979E+02</pdfrwt>
<totfact> 0.14780166E+05</totfact>
</mgrwt>
</event>
<event>
 7    1  0.3056193E-009  0.1032280E+03  0.7818608E-02  0.1273651E+00
          2   -1    0    0  501    0  0.00000000000E+00  0.00000000000E+00  0.91479338449E+01  0.91479342003E+01  0.25500000000E-02 0.  1.
         -2   -1    0    0    0  501 -0.00000000000E+00 -0.00000000000E+00 -0.29121364932E+03  0.29121364933E+03  0.25500000000E-02 0. -1.
         23    2    1    2    0    0  0.35527136788E-14  0.00000000000E+00 -0.28206571547E+03  0.30036158353E+03  0.10322796624E+03 0.  0.
    9000005    2    3    3    0    0  0.30112255418E+02  0.38160358960E+02 -0.19140097455E+03  0.19748760154E+03  0.20146423839E+01 0.  0.
         22    1    3    3    0    0 -0.30112255418E+02 -0.38160358960E+02 -0.90664740927E+02  0.10287398199E+03  0.00000000000E+00 0.  1.
         22    1    4    4    0    0  0.16430977207E+02  0.19518732492E+02 -0.97965931480E+02  0.10123379703E+03  0.00000000000E+00 0. -1.
         22    1    4    4    0    0  0.13681278210E+02  0.18641626468E+02 -0.93435043067E+02  0.96253804516E+02  0.00000000000E+00 0. -1.
<mgrwt>
<rscale>  0 0.10322797E+03</rscale>
<asrwt>0</asrwt>
<pdfrwt beam="1">  1        2 0.14073747E-02 0.10322797E+03</pdfrwt>
<pdfrwt beam="2">  1       -2 0.44802093E-01 0.10322797E+03</pdfrwt>
<totfact> 0.37635411E+04</totfact>
</mgrwt>
</event>
<event>
 7    1  0.3056193E-009  0.9159275E+02  0.7818608E-02  0.1299040E+00
          2   -1    0    0  501    0  0.00000000000E+00  0.00000000000E+00  0.39590543170E+03  0.39590543171E+03  0.25500000000E-02 0. -1.
         -2   -1    0    0    0  501 -0.00000000000E+00 -0.00000000000E+00 -0.52974965532E+01  0.52974971670E+01  0.25500000000E-02 0.  1.
         23    2    1    2    0    0  0.00000000000E+00  0.00000000000E+00  0.39060793515E+03  0.40120292888E+03  0.91592746102E+02 0.  0.
    9000005    2    3    3    0    0 -0.10739163883E+02 -0.39669397535E+02  0.27969003536E+03  0.28291611120E+03  0.11225834377E+02 0.  0.
         22    1    3    3    0    0  0.10739163883E+02  0.39669397535E+02  0.11091789979E+03  0.11828681768E+03  0.00000000000E+00 0.  1.
         22    1    4    4    0    0 -0.10606324917E+02 -0.29656508311E+02  0.23604600169E+03  0.23813802201E+03  0.00000000000E+00 0. -1.
         22    1    4    4    0    0 -0.13283896641E+00 -0.10012889224E+02  0.43644033671E+02  0.44778089195E+02  0.00000000000E+00 0. -1.
<mgrwt>
<rscale>  0 0.91592746E+02</rscale>
<asrwt>0</asrwt>
<pdfrwt beam="1">  1        2 0.60908541E-01 0.91592746E+02</pdfrwt>
<pdfrwt beam="2">  1       -2 0.81499934E-03 0.91592746E+02</pdfrwt>
<totfact> 0.19650001E+05</totfact>
</mgrwt>
</event>
<event>
 7    1  0.3056193E-009  0.9025144E+02  0.7818608E-02  0.1302244E+00
         -2   -1    0    0    0  501 -0.00000000000E+00  0.00000000000E+00  0.22631378914E+01  0.22631393281E+01  0.25500000000E-02 0.  1.
          2   -1    0    0  501    0  0.00000000000E+00 -0.00000000000E+00 -0.89978155505E+03  0.89978155505E+03  0.25500000000E-02 0. -1.
         23    2    1    2    0    0  0.00000000000E+00  0.00000000000E+00 -0.89751841716E+03  0.90204469438E+03  0.90251435021E+02 0.  0.
    9000005    2    3    3    0    0  0.74112140797E+01  0.33646698459E+02 -0.73667459206E+03  0.73755225540E+03  0.10336751948E+02 0.  0.
         22    1    3    3    0    0 -0.74112140797E+01 -0.33646698459E+02 -0.16084382510E+03  0.16449243899E+03  0.00000000000E+00 0.  1.
         22    1    4    4    0    0  0.42096121947E+01  0.31538566844E+02 -0.68314396280E+03  0.68388454869E+03  0.00000000000E+00 0.  1.
         22    1    4    4    0    0  0.32016018851E+01  0.21081316149E+01 -0.53530629262E+02  0.53667706703E+02  0.00000000000E+00 0.  1.
<mgrwt>
<rscale>  0 0.90251435E+02</rscale>
<asrwt>0</asrwt>
<pdfrwt beam="2">  1        2 0.13842765E+00 0.90251435E+02</pdfrwt>
<pdfrwt beam="1">  1       -2 0.34817589E-03 0.90251435E+02</pdfrwt>
<totfact> 0.25468291E+05</totfact>
</mgrwt>
</event>
<event>
 7    1  0.3056193E-009  0.8955724E+02  0.7818608E-02  0.1303927E+00
          2   -1    0    0  501    0  0.00000000000E+00  0.00000000000E+00  0.40208534424E+03  0.40208534425E+03  0.25500000000E-02 0. -1.
         -2   -1    0    0    0  501 -0.00000000000E+00 -0.00000000000E+00 -0.49868140194E+01  0.49868146714E+01  0.25500000000E-02 0.  1.
         23    2    1    2    0    0  0.66613381478E-15  0.17763568394E-14  0.39709853022E+03  0.40707215892E+03  0.89557243504E+02 0.  0.
    9000005    2    3    3    0    0  0.11513839068E+01  0.12913668233E+02  0.39292621339E+03  0.39345244013E+03  0.15675616795E+02 0.  0.
         22    1    3    3    0    0 -0.11513839068E+01 -0.12913668233E+02  0.41723168267E+01  0.13619718787E+02  0.00000000000E+00 0.  1.
         22    1    4    4    0    0 -0.29878756671E+01  0.14985941709E+02  0.26277372170E+03  0.26321765645E+03  0.00000000000E+00 0.  1.
         22    1    4    4    0    0  0.41392595739E+01 -0.20722734761E+01  0.13015249169E+03  0.13023478368E+03  0.00000000000E+00 0.  1.
<mgrwt>
<rscale>  0 0.89557244E+02</rscale>
<asrwt>0</asrwt>
<pdfrwt beam="1">  1        2 0.61859282E-01 0.89557244E+02</pdfrwt>
<pdfrwt beam="2">  1       -2 0.76720223E-03 0.89557244E+02</pdfrwt>
<totfact> 0.20972783E+05</totfact>
</mgrwt>
</event>
<event>
 7    1  0.3056193E-009  0.9997894E+02  0.7818608E-02  0.1280340E+00
          2   -1    0    0  501    0  0.00000000000E+00  0.00000000000E+00  0.82575308952E+02  0.82575308991E+02  0.25500000000E-02 0. -1.
         -2   -1    0    0    0  501 -0.00000000000E+00 -0.00000000000E+00 -0.30262640496E+02  0.30262640603E+02  0.25500000000E-02 0.  1.
         23    2    1    2    0    0  0.22204460493E-15  0.35527136788E-14  0.52312668456E+02  0.11283794959E+03  0.99978935719E+02 0.  0.
    9000005    2    3    3    0    0  0.18657833733E+01  0.20044400919E+02  0.77620372772E+02  0.80500060771E+02  0.70766064583E+01 0.  0.
         22    1    3    3    0    0 -0.18657833733E+01 -0.20044400919E+02 -0.25307704316E+02  0.32337888823E+02  0.00000000000E+00 0.  1.
         22    1    4    4    0    0  0.44767695729E+01  0.99482554593E+01  0.39257094064E+02  0.40744676791E+02  0.00000000000E+00 0. -1.
         22    1    4    4    0    0 -0.26109861997E+01  0.10096145460E+02  0.38363278709E+02  0.39755383979E+02  0.00000000000E+00 0. -1.
<mgrwt>
<rscale>  0 0.99978936E+02</rscale>
<asrwt>0</asrwt>
<pdfrwt beam="1">  1        2 0.12703893E-01 0.99978936E+02</pdfrwt>
<pdfrwt beam="2">  1       -2 0.46557909E-02 0.99978936E+02</pdfrwt>
<totfact> 0.89560148E+04</totfact>
</mgrwt>
</event>
<event>
 7    1  0.3056193E-009  0.9066556E+02  0.7818608E-02  0.1301248E+00
          2   -1    0    0  501    0  0.00000000000E+00  0.00000000000E+00  0.63124124878E+03  0.63124124878E+03  0.25500000000E-02 0. -1.
         -2   -1    0    0    0  501 -0.00000000000E+00 -0.00000000000E+00 -0.32555870466E+01  0.32555880453E+01  0.25500000000E-02 0.  1.
         23    2    1    2    0    0 -0.55511151231E-15  0.00000000000E+00  0.62798566173E+03  0.63449683683E+03  0.90665564604E+02 0.  0.
    9000005    2    3    3    0    0 -0.21346971313E-01  0.37215623298E+02  0.48735273408E+03  0.48902304739E+03  0.15679617099E+02 0.  0.
         22    1    3    3    0    0  0.21346971313E-01 -0.37215623298E+02  0.14063292766E+03  0.14547378944E+03  0.00000000000E+00 0.  1.
         22    1    4    4    0    0 -0.58799551431E+01  0.30291203237E+02  0.34276683424E+03  0.34415292171E+03  0.00000000000E+00 0. -1.
         22    1    4    4    0    0  0.58586081718E+01  0.69244200616E+01  0.14458589984E+03  0.14487012568E+03  0.00000000000E+00 0. -1.
<mgrwt>
<rscale>  0 0.90665565E+02</rscale>
<asrwt>0</asrwt>
<pdfrwt beam="1">  1        2 0.97114074E-01 0.90665565E+02</pdfrwt>
<pdfrwt beam="2">  1       -2 0.50085944E-03 0.90665565E+02</pdfrwt>
<totfact> 0.23451841E+05</totfact>
</mgrwt>
</event>
<event>
 7    1  0.3056193E-009  0.9066575E+02  0.7818608E-02  0.1301247E+00
         -2   -1    0    0    0  501 -0.00000000000E+00  0.00000000000E+00  0.27791621117E+02  0.27791621234E+02  0.25500000000E-02 0.  1.
          2   -1    0    0  501    0  0.00000000000E+00 -0.00000000000E+00 -0.73945656294E+02  0.73945656338E+02  0.25500000000E-02 0. -1.
         23    2    1    2    0    0  0.00000000000E+00  0.00000000000E+00 -0.46154035177E+02  0.10173727757E+03  0.90665752546E+02 0.  0.
    9000005    2    3    3    0    0 -0.26012129800E+02  0.93258089472E+01 -0.63380680926E+02  0.69174124577E+02  0.20849909103E+01 0.  0.
         22    1    3    3    0    0  0.26012129800E+02 -0.93258089472E+01  0.17226645749E+02  0.32563152995E+02  0.00000000000E+00 0.  1.
         22    1    4    4    0    0 -0.88585747801E+00  0.58752939621E+00 -0.17559111217E+01  0.20525978978E+01  0.00000000000E+00 0.  1.
         22    1    4    4    0    0 -0.25126272322E+02  0.87382795510E+01 -0.61624769804E+02  0.67121526679E+02  0.00000000000E+00 0.  1.
<mgrwt>
<rscale>  0 0.90665753E+02</rscale>
<asrwt>0</asrwt>
<pdfrwt beam="2">  1        2 0.11376255E-01 0.90665753E+02</pdfrwt>
<pdfrwt beam="1">  1       -2 0.42756341E-02 0.90665753E+02</pdfrwt>
<totfact> 0.11409773E+05</totfact>
</mgrwt>
</event>
<event>
 7    1  0.3056193E-009  0.7791059E+02  0.7818608E-02  0.1335088E+00
          2   -1    0    0  501    0  0.00000000000E+00  0.00000000000E+00  0.35151913552E+02  0.35151913644E+02  0.25500000000E-02 0. -1.
         -2   -1    0    0    0  501 -0.00000000000E+00 -0.00000000000E+00 -0.43170197092E+02  0.43170197167E+02  0.25500000000E-02 0.  1.
         23    2    1    2    0    0 -0.17763568394E-14  0.00000000000E+00 -0.80182835399E+01  0.78322110811E+02  0.77910590878E+02 0.  0.
    9000005    2    3    3    0    0  0.12043530729E+02  0.26501695850E+02  0.19547482713E+02  0.38231488660E+02  0.15236670547E+02 0.  0.
         22    1    3    3    0    0 -0.12043530729E+02 -0.26501695850E+02 -0.27565766253E+02  0.40090622151E+02  0.00000000000E+00 0.  1.
         22    1    4    4    0    0  0.11709484113E-01  0.13270237075E+02  0.24596114993E+01  0.13496259402E+02  0.00000000000E+00 0.  1.
         22    1    4    4    0    0  0.12031821245E+02  0.13231458776E+02  0.17087871214E+02  0.24735229258E+02  0.00000000000E+00 0.  1.
<mgrwt>
<rscale>  0 0.77910591E+02</rscale>
<asrwt>0</asrwt>
<pdfrwt beam="1">  1        2 0.54079867E-02 0.77910591E+02</pdfrwt>
<pdfrwt beam="2">  1       -2 0.66415688E-02 0.77910591E+02</pdfrwt>
<totfact> 0.14494828E+05</totfact>
</mgrwt>
</event>
<event>
 7    1  0.3056193E-009  0.9357325E+02  0.7818608E-02  0.1294422E+00
         -2   -1    0    0    0  501 -0.00000000000E+00  0.00000000000E+00  0.64200984433E+01  0.64200989497E+01  0.25500000000E-02 0.  1.
          2   -1    0    0  501    0  0.00000000000E+00 -0.00000000000E+00 -0.34095866778E+03  0.34095866779E+03  0.25500000000E-02 0. -1.
         23    2    1    2    0    0  0.00000000000E+00  0.00000000000E+00 -0.33453856934E+03  0.34737876674E+03  0.93573250491E+02 0.  0.
    9000005    2    3    3    0    0  0.15476223367E+02 -0.29847948954E+02 -0.28734606337E+03  0.28943442995E+03  0.86090394664E+01 0.  0.
         22    1    3    3    0    0 -0.15476223367E+02  0.29847948954E+02 -0.47192505971E+02  0.57944336792E+02  0.00000000000E+00 0.  1.
         22    1    4    4    0    0  0.93965516449E+01 -0.24780419896E+02 -0.20422555967E+03  0.20593796059E+03  0.00000000000E+00 0. -1.
         22    1    4    4    0    0  0.60796717219E+01 -0.50675290579E+01 -0.83120503700E+02  0.83496469353E+02  0.00000000000E+00 0. -1.
<mgrwt>
<rscale>  0 0.93573250E+02</rscale>
<asrwt>0</asrwt>
<pdfrwt beam="2">  1        2 0.52455166E-01 0.93573250E+02</pdfrwt>
<pdfrwt beam="1">  1       -2 0.98770776E-03 0.93573250E+02</pdfrwt>
<totfact> 0.17578567E+05</totfact>
</mgrwt>
</event>
<event>
 7    1  0.3056193E-009  0.9130879E+02  0.7818608E-02  0.1299713E+00
          2   -1    0    0  501    0  0.00000000000E+00  0.00000000000E+00  0.55649843548E+02  0.55649843606E+02  0.25500000000E-02 0.  1.
         -2   -1    0    0    0  501 -0.00000000000E+00 -0.00000000000E+00 -0.37454258737E+02  0.37454258824E+02  0.25500000000E-02 0. -1.
         23    2    1    2    0    0  0.00000000000E+00  0.00000000000E+00  0.18195584811E+02  0.93104102430E+02  0.91308786996E+02 0.  0.
    9000005    2    3    3    0    0 -0.82132937579E+01  0.36562619185E+02 -0.16824235213E+02  0.41814034088E+02  0.78150649523E+01 0.  0.
         22    1    3    3    0    0  0.82132937579E+01 -0.36562619185E+02  0.35019820024E+02  0.51290068342E+02  0.00000000000E+00 0.  1.
         22    1    4    4    0    0 -0.75571604510E+01  0.15894319578E+02 -0.79407095141E+01  0.19307898293E+02  0.00000000000E+00 0.  1.
         22    1    4    4    0    0 -0.65613330686E+00  0.20668299607E+02 -0.88835256987E+01  0.22506135795E+02  0.00000000000E+00 0.  1.
<mgrwt>
<rscale>  0 0.91308787E+02</rscale>
<asrwt>0</asrwt>
<pdfrwt beam="1">  1        2 0.85615144E-02 0.91308787E+02</pdfrwt>
<pdfrwt beam="2">  1       -2 0.57621937E-02 0.91308787E+02</pdfrwt>
<totfact> 0.10353761E+05</totfact>
</mgrwt>
</event>
<event>
 7    1  0.3056193E-009  0.9133702E+02  0.7818608E-02  0.1299646E+00
          2   -1    0    0  501    0  0.00000000000E+00  0.00000000000E+00  0.72201186007E+02  0.72201186052E+02  0.25500000000E-02 0. -1.
         -2   -1    0    0    0  501 -0.00000000000E+00 -0.00000000000E+00 -0.28886131434E+02  0.28886131546E+02  0.25500000000E-02 0.  1.
         23    2    1    2    0    0  0.00000000000E+00  0.00000000000E+00  0.43315054573E+02  0.10108731760E+03  0.91337023307E+02 0.  0.
    9000005    2    3    3    0    0  0.17105880383E+02  0.31799235221E+02 -0.72924430403E+01  0.38918826230E+02  0.12557579595E+02 0.  0.
         22    1    3    3    0    0 -0.17105880383E+02 -0.31799235221E+02  0.50607497614E+02  0.62168491369E+02  0.00000000000E+00 0. -1.
         22    1    4    4    0    0  0.27328302686E+01  0.10035765706E+02 -0.75227343380E+01  0.12836529379E+02  0.00000000000E+00 0. -1.
         22    1    4    4    0    0  0.14373050115E+02  0.21763469515E+02  0.23029129776E+00  0.26082296851E+02  0.00000000000E+00 0. -1.
<mgrwt>
<rscale>  0 0.91337023E+02</rscale>
<asrwt>0</asrwt>
<pdfrwt beam="1">  1        2 0.11107875E-01 0.91337023E+02</pdfrwt>
<pdfrwt beam="2">  1       -2 0.44440203E-02 0.91337023E+02</pdfrwt>
<totfact> 0.11102951E+05</totfact>
</mgrwt>
</event>
<event>
 7    1  0.3056193E-009  0.9078227E+02  0.7818608E-02  0.1300968E+00
          2   -1    0    0  501    0  0.00000000000E+00  0.00000000000E+00  0.13234710291E+03  0.13234710294E+03  0.25500000000E-02 0. -1.
         -2   -1    0    0    0  501 -0.00000000000E+00 -0.00000000000E+00 -0.15567812710E+02  0.15567812919E+02  0.25500000000E-02 0.  1.
         23    2    1    2    0    0 -0.35527136788E-14 -0.13322676296E-14  0.11677929020E+03  0.14791491585E+03  0.90782265408E+02 0.  0.
    9000005    2    3    3    0    0 -0.19626523308E+02 -0.37175173547E+01 -0.40244549213E+01  0.25470784971E+02  0.15282156169E+02 0.  0.
         22    1    3    3    0    0  0.19626523308E+02  0.37175173547E+01  0.12080374512E+03  0.12244413088E+03  0.00000000000E+00 0. -1.
         22    1    4    4    0    0 -0.11913138868E+02  0.53333226683E+01 -0.47707178415E+00  0.13061194657E+02  0.00000000000E+00 0. -1.
         22    1    4    4    0    0 -0.77133844396E+01 -0.90508400230E+01 -0.35473831371E+01  0.12409590314E+02  0.00000000000E+00 0. -1.
<mgrwt>
<rscale>  0 0.90782265E+02</rscale>
<asrwt>0</asrwt>
<pdfrwt beam="1">  1        2 0.20361092E-01 0.90782265E+02</pdfrwt>
<pdfrwt beam="2">  1       -2 0.23950482E-02 0.90782265E+02</pdfrwt>
<totfact> 0.13566020E+05</totfact>
</mgrwt>
</event>
<event>
 7    1  0.3056193E-009  0.9236668E+02  0.7818608E-02  0.1297220E+00
          2   -1    0    0  501    0  0.00000000000E+00  0.00000000000E+00  0.82133905966E+03  0.82133905966E+03  0.25500000000E-02 0. -1.
         -2   -1    0    0    0  501 -0.00000000000E+00 -0.00000000000E+00 -0.25968574873E+01  0.25968587393E+01  0.25500000000E-02 0.  1.
         23    2    1    2    0    0  0.00000000000E+00  0.00000000000E+00  0.81874220217E+03  0.82393591840E+03  0.92366682393E+02 0.  0.
    9000005    2    3    3    0    0 -0.81153948758E+01  0.12477791259E+02  0.79907959025E+03  0.79927475022E+03  0.95068329075E+01 0.  0.
         22    1    3    3    0    0  0.81153948758E+01 -0.12477791259E+02  0.19662611924E+02  0.24661168187E+02  0.00000000000E+00 0.  1.
         22    1    4    4    0    0 -0.75048949818E+01  0.42045553266E+01  0.52239349071E+03  0.52246431541E+03  0.00000000000E+00 0. -1.
         22    1    4    4    0    0 -0.61049989401E+00  0.82732359322E+01  0.27668609954E+03  0.27681043481E+03  0.00000000000E+00 0. -1.
<mgrwt>
<rscale>  0 0.92366682E+02</rscale>
<asrwt>0</asrwt>
<pdfrwt beam="1">  1        2 0.12635989E+00 0.92366682E+02</pdfrwt>
<pdfrwt beam="2">  1       -2 0.39951653E-03 0.92366682E+02</pdfrwt>
<totfact> 0.23659828E+05</totfact>
</mgrwt>
</event>
<event>
 7    1  0.3056193E-009  0.9277230E+02  0.7818608E-02  0.1296274E+00
         -2   -1    0    0    0  501 -0.00000000000E+00  0.00000000000E+00  0.70780319432E+02  0.70780319478E+02  0.25500000000E-02 0. -1.
          2   -1    0    0  501    0  0.00000000000E+00 -0.00000000000E+00 -0.30399337225E+02  0.30399337332E+02  0.25500000000E-02 0.  1.
         23    2    1    2    0    0  0.00000000000E+00  0.00000000000E+00  0.40380982207E+02  0.10117965681E+03  0.92772297741E+02 0.  0.
    9000005    2    3    3    0    0  0.92569918136E+01 -0.12640997847E+02  0.67162643037E+02  0.70151539225E+02  0.12842550830E+02 0.  0.
         22    1    3    3    0    0 -0.92569918136E+01  0.12640997847E+02 -0.26781660831E+02  0.31028117585E+02  0.00000000000E+00 0.  1.
         22    1    4    4    0    0  0.44452559425E+00  0.80127896240E-01  0.28544631368E+02  0.28548204907E+02  0.00000000000E+00 0.  1.
         22    1    4    4    0    0  0.88124662194E+01 -0.12721125743E+02  0.38618011670E+02  0.41603334318E+02  0.00000000000E+00 0.  1.
<mgrwt>
<rscale>  0 0.92772298E+02</rscale>
<asrwt>0</asrwt>
<pdfrwt beam="2">  1        2 0.46768211E-02 0.92772298E+02</pdfrwt>
<pdfrwt beam="1">  1       -2 0.10889280E-01 0.92772298E+02</pdfrwt>
<totfact> 0.84315648E+04</totfact>
</mgrwt>
</event>
<event>
 7    1  0.3056193E-009  0.9166462E+02  0.7818608E-02  0.1298870E+00
         -2   -1    0    0    0  501 -0.00000000000E+00  0.00000000000E+00  0.13080250527E+03  0.13080250529E+03  0.25500000000E-02 0.  1.
          2   -1    0    0  501    0  0.00000000000E+00 -0.00000000000E+00 -0.16059331898E+02  0.16059332100E+02  0.25500000000E-02 0. -1.
         23    2    1    2    0    0  0.00000000000E+00 -0.35527136788E-14  0.11474317337E+03  0.14686183739E+03  0.91664624843E+02 0.  0.
    9000005    2    3    3    0    0 -0.50495513729E+01  0.20315566905E+02  0.12261399019E+03  0.12449735696E+03  0.52135470295E+01 0.  0.
         22    1    3    3    0    0  0.50495513729E+01 -0.20315566905E+02 -0.78708168167E+01  0.22364480434E+02  0.00000000000E+00 0. -1.
         22    1    4    4    0    0 -0.36407470583E+01  0.19251660069E+02  0.10652978634E+03  0.10831655844E+03  0.00000000000E+00 0. -1.
         22    1    4    4    0    0 -0.14088043146E+01  0.10639068351E+01  0.16084203847E+02  0.16180798520E+02  0.00000000000E+00 0. -1.
<mgrwt>
<rscale>  0 0.91664625E+02</rscale>
<asrwt>0</asrwt>
<pdfrwt beam="2">  1        2 0.24706665E-02 0.91664625E+02</pdfrwt>
<pdfrwt beam="1">  1       -2 0.20123462E-01 0.91664625E+02</pdfrwt>
<totfact> 0.72315965E+04</totfact>
</mgrwt>
</event>
<event>
 7    1  0.3056193E-009  0.9082325E+02  0.7818608E-02  0.1300870E+00
         -2   -1    0    0    0  501 -0.00000000000E+00  0.00000000000E+00  0.84510405314E+01  0.84510409162E+01  0.25500000000E-02 0.  1.
          2   -1    0    0  501    0  0.00000000000E+00 -0.00000000000E+00 -0.24401915097E+03  0.24401915098E+03  0.25500000000E-02 0. -1.
         23    2    1    2    0    0  0.00000000000E+00  0.00000000000E+00 -0.23556811044E+03  0.25247019190E+03  0.90823252211E+02 0.  0.
    9000005    2    3    3    0    0  0.81093421633E+01 -0.41695401522E+02 -0.15575982100E+03  0.16206205620E+03  0.14096818151E+02 0.  0.
         22    1    3    3    0    0 -0.81093421633E+01  0.41695401522E+02 -0.79808289439E+02  0.90408135705E+02  0.00000000000E+00 0.  1.
         22    1    4    4    0    0  0.46938297428E+00 -0.96799236064E+01 -0.18201968107E+02  0.20621175630E+02  0.00000000000E+00 0.  1.
         22    1    4    4    0    0  0.76399591891E+01 -0.32015477915E+02 -0.13755785289E+03  0.14144088057E+03  0.00000000000E+00 0.  1.
<mgrwt>
<rscale>  0 0.90823252E+02</rscale>
<asrwt>0</asrwt>
<pdfrwt beam="2">  1        2 0.37541403E-01 0.90823252E+02</pdfrwt>
<pdfrwt beam="1">  1       -2 0.13001603E-02 0.90823252E+02</pdfrwt>
<totfact> 0.16810455E+05</totfact>
</mgrwt>
</event>
<event>
 7    1  0.3056193E-009  0.9118128E+02  0.7818608E-02  0.1300016E+00
          2   -1    0    0  501    0  0.00000000000E+00  0.00000000000E+00  0.88864850880E+03  0.88864850880E+03  0.25500000000E-02 0. -1.
         -2   -1    0    0    0  501 -0.00000000000E+00 -0.00000000000E+00 -0.23389514387E+01  0.23389528287E+01  0.25500000000E-02 0.  1.
         23    2    1    2    0    0  0.00000000000E+00  0.00000000000E+00  0.88630955736E+03  0.89098746163E+03  0.91181277224E+02 0.  0.
    9000005    2    3    3    0    0 -0.21199523128E+02 -0.10869329362E+02  0.82286137632E+03  0.82321406140E+03  0.36033520246E+01 0.  0.
         22    1    3    3    0    0  0.21199523128E+02  0.10869329362E+02  0.63448181042E+02  0.67773400234E+02  0.00000000000E+00 0.  1.
         22    1    4    4    0    0 -0.43477633937E+01 -0.16949476228E+01  0.21227726322E+03  0.21232854818E+03  0.00000000000E+00 0.  1.
         22    1    4    4    0    0 -0.16851759734E+02 -0.91743817390E+01  0.61058411310E+03  0.61088551322E+03  0.00000000000E+00 0.  1.
<mgrwt>
<rscale>  0 0.91181277E+02</rscale>
<asrwt>0</asrwt>
<pdfrwt beam="1">  1        2 0.13671485E+00 0.91181277E+02</pdfrwt>
<pdfrwt beam="2">  1       -2 0.35983961E-03 0.91181277E+02</pdfrwt>
<totfact> 0.24754455E+05</totfact>
</mgrwt>
</event>
<event>
 7    1  0.3056193E-009  0.9153443E+02  0.7818608E-02  0.1299178E+00
          2   -1    0    0  501    0  0.00000000000E+00  0.00000000000E+00  0.89320063327E+03  0.89320063327E+03  0.25500000000E-02 0. -1.
         -2   -1    0    0    0  501 -0.00000000000E+00 -0.00000000000E+00 -0.23450916235E+01  0.23450930099E+01  0.25500000000E-02 0.  1.
         23    2    1    2    0    0  0.00000000000E+00  0.22204460493E-15  0.89085554165E+03  0.89554572628E+03  0.91534429491E+02 0.  0.
    9000005    2    3    3    0    0 -0.36243368328E+02  0.52433973586E+00  0.71823362262E+03  0.71915926532E+03  0.40811230899E+01 0.  0.
         22    1    3    3    0    0  0.36243368328E+02 -0.52433973586E+00  0.17262191903E+03  0.17638646096E+03  0.00000000000E+00 0. -1.
         22    1    4    4    0    0 -0.29479568834E+02  0.19826249027E+01  0.57495402072E+03  0.57571269025E+03  0.00000000000E+00 0. -1.
         22    1    4    4    0    0 -0.67637994948E+01 -0.14582851668E+01  0.14327960190E+03  0.14344657507E+03  0.00000000000E+00 0. -1.
<mgrwt>
<rscale>  0 0.91534429E+02</rscale>
<asrwt>0</asrwt>
<pdfrwt beam="1">  1        2 0.13741542E+00 0.91534429E+02</pdfrwt>
<pdfrwt beam="2">  1       -2 0.36078359E-03 0.91534429E+02</pdfrwt>
<totfact> 0.24518449E+05</totfact>
</mgrwt>
</event>
<event>
 7    1  0.3056193E-009  0.1056226E+03  0.7818608E-02  0.1268898E+00
         -2   -1    0    0    0  501 -0.00000000000E+00  0.00000000000E+00  0.10764080939E+03  0.10764080942E+03  0.25500000000E-02 0. -1.
          2   -1    0    0  501    0  0.00000000000E+00 -0.00000000000E+00 -0.25910576277E+02  0.25910576403E+02  0.25500000000E-02 0.  1.
         23    2    1    2    0    0 -0.71054273576E-14  0.17763568394E-14  0.81730233115E+02  0.13355138583E+03  0.10562263797E+03 0.  0.
    9000005    2    3    3    0    0 -0.47147120548E+02  0.14729099947E+02  0.19263982602E+02  0.53915779377E+02  0.97986161777E+01 0.  0.
         22    1    3    3    0    0  0.47147120548E+02 -0.14729099947E+02  0.62466250514E+02  0.79635606449E+02  0.00000000000E+00 0. -1.
         22    1    4    4    0    0 -0.37148373264E+02  0.14832280473E+02  0.17905253079E+02  0.43824608019E+02  0.00000000000E+00 0. -1.
         22    1    4    4    0    0 -0.99987472836E+01 -0.10318052628E+00  0.13587295222E+01  0.10091171358E+02  0.00000000000E+00 0. -1.
<mgrwt>
<rscale>  0 0.10562264E+03</rscale>
<asrwt>0</asrwt>
<pdfrwt beam="2">  1        2 0.39862425E-02 0.10562264E+03</pdfrwt>
<pdfrwt beam="1">  1       -2 0.16560125E-01 0.10562264E+03</pdfrwt>
<totfact> 0.54081865E+04</totfact>
</mgrwt>
</event>
<event>
 7    1  0.3056193E-009  0.9042311E+02  0.7818608E-02  0.1301830E+00
         -2   -1    0    0    0  501 -0.00000000000E+00  0.00000000000E+00  0.15717134057E+02  0.15717134264E+02  0.25500000000E-02 0. -1.
          2   -1    0    0  501    0  0.00000000000E+00 -0.00000000000E+00 -0.13005454934E+03  0.13005454936E+03  0.25500000000E-02 0.  1.
         23    2    1    2    0    0  0.35527136788E-14  0.00000000000E+00 -0.11433741528E+03  0.14577168363E+03  0.90423112169E+02 0.  0.
    9000005    2    3    3    0    0  0.23238210656E+02  0.36170631757E+02 -0.73629353124E+02  0.86564628636E+02  0.14960757102E+02 0.  0.
         22    1    3    3    0    0 -0.23238210656E+02 -0.36170631757E+02 -0.40708062155E+02  0.59207054990E+02  0.00000000000E+00 0. -1.
         22    1    4    4    0    0 -0.21386514310E+01  0.20128721030E+01 -0.40080880733E+01  0.49689288634E+01  0.00000000000E+00 0.  1.
         22    1    4    4    0    0  0.25376862087E+02  0.34157759654E+02 -0.69621265051E+02  0.81595699772E+02  0.00000000000E+00 0.  1.
<mgrwt>
<rscale>  0 0.90423112E+02</rscale>
<asrwt>0</asrwt>
<pdfrwt beam="2">  1        2 0.20008392E-01 0.90423112E+02</pdfrwt>
<pdfrwt beam="1">  1       -2 0.24180207E-02 0.90423112E+02</pdfrwt>
<totfact> 0.13634681E+05</totfact>
</mgrwt>
</event>
<event>
 7    1  0.3056193E-009  0.8747322E+02  0.7818608E-02  0.1309089E+00
         -2   -1    0    0    0  501 -0.00000000000E+00  0.00000000000E+00  0.43962154315E+01  0.43962161710E+01  0.25500000000E-02 0.  1.
          2   -1    0    0  501    0  0.00000000000E+00 -0.00000000000E+00 -0.43512221655E+03  0.43512221656E+03  0.25500000000E-02 0. -1.
         23    2    1    2    0    0  0.00000000000E+00  0.00000000000E+00 -0.43072600112E+03  0.43951843273E+03  0.87473222581E+02 0.  0.
    9000005    2    3    3    0    0  0.41172494478E+02 -0.86353214334E+01 -0.27174391618E+03  0.27506465075E+03  0.67869750294E+01 0.  0.
         22    1    3    3    0    0 -0.41172494478E+02  0.86353214334E+01 -0.15898208494E+03  0.16445378198E+03  0.00000000000E+00 0.  1.
         22    1    4    4    0    0  0.24723619470E+02 -0.18935840903E+01 -0.16406410263E+03  0.16592731178E+03  0.00000000000E+00 0. -1.
         22    1    4    4    0    0  0.16448875007E+02 -0.67417373431E+01 -0.10767981355E+03  0.10913733897E+03  0.00000000000E+00 0. -1.
<mgrwt>
<rscale>  0 0.87473223E+02</rscale>
<asrwt>0</asrwt>
<pdfrwt beam="2">  1        2 0.66941846E-01 0.87473223E+02</pdfrwt>
<pdfrwt beam="1">  1       -2 0.67634124E-03 0.87473223E+02</pdfrwt>
<totfact> 0.22947605E+05</totfact>
</mgrwt>
</event>
<event>
 7    1  0.3056193E-009  0.9177818E+02  0.7818608E-02  0.1298602E+00
         -2   -1    0    0    0  501 -0.00000000000E+00  0.00000000000E+00  0.35281429665E+03  0.35281429666E+03  0.25500000000E-02 0.  1.
          2   -1    0    0  501    0  0.00000000000E+00 -0.00000000000E+00 -0.59686027569E+01  0.59686033016E+01  0.25500000000E-02 0. -1.
         23    2    1    2    0    0  0.00000000000E+00  0.00000000000E+00  0.34684569389E+03  0.35878289996E+03  0.91778177865E+02 0.  0.
    9000005    2    3    3    0    0  0.19668916905E+02  0.17257872027E+02  0.31983947183E+03  0.32117922369E+03  0.13194906166E+02 0.  0.
         22    1    3    3    0    0 -0.19668916905E+02 -0.17257872027E+02  0.27006222060E+02  0.37603676271E+02  0.00000000000E+00 0. -1.
         22    1    4    4    0    0  0.11524875811E+02  0.12286475473E+02  0.26346409493E+03  0.26400210143E+03  0.00000000000E+00 0.  1.
         22    1    4    4    0    0  0.81440410936E+01  0.49713965543E+01  0.56375376899E+02  0.57177122257E+02  0.00000000000E+00 0.  1.
<mgrwt>
<rscale>  0 0.91778178E+02</rscale>
<asrwt>0</asrwt>
<pdfrwt beam="2">  1        2 0.91824624E-03 0.91778178E+02</pdfrwt>
<pdfrwt beam="1">  1       -2 0.54279145E-01 0.91778178E+02</pdfrwt>
<totfact> 0.45544103E+04</totfact>
</mgrwt>
</event>
<event>
 7    1  0.3056193E-009  0.9088523E+02  0.7818608E-02  0.1300722E+00
          2   -1    0    0  501    0  0.00000000000E+00  0.00000000000E+00  0.24874956564E+03  0.24874956565E+03  0.25500000000E-02 0. -1.
         -2   -1    0    0    0  501 -0.00000000000E+00 -0.00000000000E+00 -0.83016466178E+01  0.83016470094E+01  0.25500000000E-02 0.  1.
         23    2    1    2    0    0  0.00000000000E+00  0.00000000000E+00  0.24044791902E+03  0.25705121266E+03  0.90885225252E+02 0.  0.
    9000005    2    3    3    0    0 -0.29493071043E+02  0.33003022877E+02  0.92287066096E+02  0.10242042951E+03  0.37417982060E+01 0.  0.
         22    1    3    3    0    0  0.29493071043E+02 -0.33003022877E+02  0.14816085293E+03  0.15463078315E+03  0.00000000000E+00 0. -1.
         22    1    4    4    0    0 -0.19266338153E+02  0.24059175495E+02  0.63027950937E+02  0.70160945765E+02  0.00000000000E+00 0. -1.
         22    1    4    4    0    0 -0.10226732891E+02  0.89438473817E+01  0.29259115159E+02  0.32259483745E+02  0.00000000000E+00 0. -1.
<mgrwt>
<rscale>  0 0.90885225E+02</rscale>
<asrwt>0</asrwt>
<pdfrwt beam="1">  1        2 0.38269162E-01 0.90885225E+02</pdfrwt>
<pdfrwt beam="2">  1       -2 0.12771765E-02 0.90885225E+02</pdfrwt>
<totfact> 0.16899274E+05</totfact>
</mgrwt>
</event>
<event>
 7    1  0.3056193E-009  0.9228114E+02  0.7818608E-02  0.1297420E+00
          2   -1    0    0  501    0  0.00000000000E+00  0.00000000000E+00  0.39503271111E+02  0.39503271193E+02  0.25500000000E-02 0. -1.
         -2   -1    0    0    0  501 -0.00000000000E+00 -0.00000000000E+00 -0.53893063465E+02  0.53893063526E+02  0.25500000000E-02 0.  1.
         23    2    1    2    0    0  0.00000000000E+00 -0.71054273576E-14 -0.14389792354E+02  0.93396334719E+02  0.92281142250E+02 0.  0.
    9000005    2    3    3    0    0  0.70311355191E+01 -0.44891740614E+02 -0.69517663320E+01  0.47352556929E+02  0.11368040750E+02 0.  0.
         22    1    3    3    0    0 -0.70311355191E+01  0.44891740614E+02 -0.74380260225E+01  0.46043777790E+02  0.00000000000E+00 0.  1.
         22    1    4    4    0    0  0.97140158735E+01 -0.38881346715E+02 -0.44980702186E+01  0.40328077842E+02  0.00000000000E+00 0. -1.
         22    1    4    4    0    0 -0.26828803545E+01 -0.60103938993E+01 -0.24536961134E+01  0.70244790866E+01  0.00000000000E+00 0. -1.
<mgrwt>
<rscale>  0 0.92281142E+02</rscale>
<asrwt>0</asrwt>
<pdfrwt beam="1">  1        2 0.60774263E-02 0.92281142E+02</pdfrwt>
<pdfrwt beam="2">  1       -2 0.82912405E-02 0.92281142E+02</pdfrwt>
<totfact> 0.91811529E+04</totfact>
</mgrwt>
</event>
<event>
 7    1  0.3056193E-009  0.8964500E+02  0.7818608E-02  0.1303714E+00
         -2   -1    0    0    0  501 -0.00000000000E+00  0.00000000000E+00  0.84933024944E+01  0.84933028772E+01  0.25500000000E-02 0.  1.
          2   -1    0    0  501    0  0.00000000000E+00 -0.00000000000E+00 -0.23654594305E+03  0.23654594306E+03  0.25500000000E-02 0. -1.
         23    2    1    2    0    0  0.00000000000E+00 -0.71054273576E-14 -0.22805264056E+03  0.24503924594E+03  0.89644995326E+02 0.  0.
    9000005    2    3    3    0    0 -0.17787480875E+02 -0.40562942213E+02 -0.11094220250E+03  0.11983301024E+03  0.94884820082E+01 0.  0.
         22    1    3    3    0    0  0.17787480875E+02  0.40562942213E+02 -0.11711043806E+03  0.12520623570E+03  0.00000000000E+00 0.  1.
         22    1    4    4    0    0 -0.14510165700E+02 -0.25972656338E+02 -0.82478558394E+02  0.87680307827E+02  0.00000000000E+00 0. -1.
         22    1    4    4    0    0 -0.32773151747E+01 -0.14590285875E+02 -0.28463644105E+02  0.32152702412E+02  0.00000000000E+00 0. -1.
<mgrwt>
<rscale>  0 0.89644995E+02</rscale>
<asrwt>0</asrwt>
<pdfrwt beam="2">  1        2 0.36391679E-01 0.89644995E+02</pdfrwt>
<pdfrwt beam="1">  1       -2 0.13066621E-02 0.89644995E+02</pdfrwt>
<totfact> 0.17209704E+05</totfact>
</mgrwt>
</event>
<event>
 7    1  0.3056193E-009  0.9197301E+02  0.7818608E-02  0.1298143E+00
          2   -1    0    0  501    0  0.00000000000E+00  0.00000000000E+00  0.10919068677E+03  0.10919068680E+03  0.25500000000E-02 0. -1.
         -2   -1    0    0    0  501 -0.00000000000E+00 -0.00000000000E+00 -0.19367574521E+02  0.19367574689E+02  0.25500000000E-02 0.  1.
         23    2    1    2    0    0  0.00000000000E+00 -0.17763568394E-14  0.89823112248E+02  0.12855826149E+03  0.91973012904E+02 0.  0.
    9000005    2    3    3    0    0  0.12356962668E+01  0.10735607996E+02  0.10710436124E+03  0.10817636287E+03  0.10677128019E+02 0.  0.
         22    1    3    3    0    0 -0.12356962668E+01 -0.10735607996E+02 -0.17281248995E+02  0.20381898615E+02  0.00000000000E+00 0.  1.
         22    1    4    4    0    0 -0.46954414213E+01  0.43358526124E+01  0.40066917263E+02  0.40573447561E+02  0.00000000000E+00 0. -1.
         22    1    4    4    0    0  0.59311376881E+01  0.63997553839E+01  0.67037443980E+02  0.67602915311E+02  0.00000000000E+00 0. -1.
<mgrwt>
<rscale>  0 0.91973013E+02</rscale>
<asrwt>0</asrwt>
<pdfrwt beam="1">  1        2 0.16798567E-01 0.91973013E+02</pdfrwt>
<pdfrwt beam="2">  1       -2 0.29796269E-02 0.91973013E+02</pdfrwt>
<totfact> 0.12307125E+05</totfact>
</mgrwt>
</event>
<event>
 7    1  0.3056193E-009  0.8818248E+02  0.7818608E-02  0.1307314E+00
         -2   -1    0    0    0  501 -0.00000000000E+00  0.00000000000E+00  0.55044944303E+02  0.55044944362E+02  0.25500000000E-02 0.  1.
          2   -1    0    0  501    0  0.00000000000E+00 -0.00000000000E+00 -0.35317271749E+02  0.35317271841E+02  0.25500000000E-02 0. -1.
         23    2    1    2    0    0  0.00000000000E+00 -0.88817841970E-15  0.19727672554E+02  0.90362216203E+02  0.88182475882E+02 0.  0.
    9000005    2    3    3    0    0  0.40516144480E+02 -0.62685082878E+01  0.24888629908E+02  0.49040458732E+02  0.10230861851E+02 0.  0.
         22    1    3    3    0    0 -0.40516144480E+02  0.62685082878E+01 -0.51609573544E+01  0.41321757471E+02  0.00000000000E+00 0. -1.
         22    1    4    4    0    0  0.58933201800E+01 -0.11802083538E+01 -0.14744908216E+00  0.60121423581E+01  0.00000000000E+00 0. -1.
         22    1    4    4    0    0  0.34622824300E+02 -0.50882999340E+01  0.25036078990E+02  0.43028316373E+02  0.00000000000E+00 0. -1.
<mgrwt>
<rscale>  0 0.88182476E+02</rscale>
<asrwt>0</asrwt>
<pdfrwt beam="2">  1        2 0.54334264E-02 0.88182476E+02</pdfrwt>
<pdfrwt beam="1">  1       -2 0.84684530E-02 0.88182476E+02</pdfrwt>
<totfact> 0.10178592E+05</totfact>
</mgrwt>
</event>
<event>
 7    1  0.3056193E-009  0.9043100E+02  0.7818608E-02  0.1301811E+00
         -2   -1    0    0    0  501 -0.00000000000E+00  0.00000000000E+00  0.43146032056E+01  0.43146039592E+01  0.25500000000E-02 0.  1.
          2   -1    0    0  501    0  0.00000000000E+00 -0.00000000000E+00 -0.47384224489E+03  0.47384224490E+03  0.25500000000E-02 0. -1.
         23    2    1    2    0    0  0.00000000000E+00  0.00000000000E+00 -0.46952764168E+03  0.47815684886E+03  0.90431000228E+02 0.  0.
    9000005    2    3    3    0    0 -0.28815407551E+02 -0.34512167094E+02 -0.24231211727E+03  0.24653579643E+03  0.65817442961E+01 0.  0.
         22    1    3    3    0    0  0.28815407551E+02  0.34512167094E+02 -0.22721552442E+03  0.23162105242E+03  0.00000000000E+00 0.  1.
         22    1    4    4    0    0 -0.15803038882E+02 -0.14838396604E+02 -0.12685586593E+03  0.12869469598E+03  0.00000000000E+00 0.  1.
         22    1    4    4    0    0 -0.13012368669E+02 -0.19673770490E+02 -0.11545625134E+03  0.11784110046E+03  0.00000000000E+00 0.  1.
<mgrwt>
<rscale>  0 0.90431000E+02</rscale>
<asrwt>0</asrwt>
<pdfrwt beam="2">  1        2 0.72898766E-01 0.90431000E+02</pdfrwt>
<pdfrwt beam="1">  1       -2 0.66378554E-03 0.90431000E+02</pdfrwt>
<totfact> 0.21636341E+05</totfact>
</mgrwt>
</event>
<event>
 7    1  0.3056193E-009  0.9303800E+02  0.7818608E-02  0.1295657E+00
          2   -1    0    0  501    0  0.00000000000E+00  0.00000000000E+00  0.10114521673E+04  0.10114521673E+04  0.25500000000E-02 0. -1.
         -2   -1    0    0    0  501 -0.00000000000E+00 -0.00000000000E+00 -0.21395143391E+01  0.21395158587E+01  0.25500000000E-02 0.  1.
         23    2    1    2    0    0  0.35527136788E-14 -0.17763568394E-14  0.10093126529E+04  0.10135916831E+04  0.93037996258E+02 0.  0.
    9000005    2    3    3    0    0  0.27344028027E+02 -0.13666350383E+02  0.88318420486E+03  0.88381167537E+03  0.13201242618E+02 0.  0.
         22    1    3    3    0    0 -0.27344028027E+02  0.13666350383E+02  0.12612844806E+03  0.12978000775E+03  0.00000000000E+00 0.  1.
         22    1    4    4    0    0  0.21294356679E+02 -0.51629344019E+01  0.49102157750E+03  0.49151021870E+03  0.00000000000E+00 0. -1.
         22    1    4    4    0    0  0.60496713481E+01 -0.85034159807E+01  0.39216262737E+03  0.39230145667E+03  0.00000000000E+00 0. -1.
<mgrwt>
<rscale>  0 0.93037996E+02</rscale>
<asrwt>0</asrwt>
<pdfrwt beam="1">  1        2 0.15560815E+00 0.93037996E+02</pdfrwt>
<pdfrwt beam="2">  1       -2 0.32915591E-03 0.93037996E+02</pdfrwt>
<totfact> 0.23715323E+05</totfact>
</mgrwt>
</event>
<event>
 7    1  0.3056193E-009  0.8989746E+02  0.7818608E-02  0.1303100E+00
          2   -1    0    0  501    0  0.00000000000E+00  0.00000000000E+00  0.19639996023E+03  0.19639996025E+03  0.25500000000E-02 0. -1.
         -2   -1    0    0    0  501 -0.00000000000E+00 -0.00000000000E+00 -0.10287111433E+02  0.10287111749E+02  0.25500000000E-02 0.  1.
         23    2    1    2    0    0  0.00000000000E+00  0.00000000000E+00  0.18611284880E+03  0.20668707200E+03  0.89897459603E+02 0.  0.
    9000005    2    3    3    0    0  0.24947641859E+02  0.27736360790E+02  0.14835193068E+03  0.15360621404E+03  0.13960054143E+02 0.  0.
         22    1    3    3    0    0 -0.24947641859E+02 -0.27736360790E+02  0.37760918122E+02  0.53080857959E+02  0.00000000000E+00 0.  1.
         22    1    4    4    0    0  0.13638011585E+02  0.14426790992E+02  0.10514252345E+03  0.10700036400E+03  0.00000000000E+00 0.  1.
         22    1    4    4    0    0  0.11309630274E+02  0.13309569799E+02  0.43209407231E+02  0.46605850045E+02  0.00000000000E+00 0.  1.
<mgrwt>
<rscale>  0 0.89897460E+02</rscale>
<asrwt>0</asrwt>
<pdfrwt beam="1">  1        2 0.30215375E-01 0.89897460E+02</pdfrwt>
<pdfrwt beam="2">  1       -2 0.15826327E-02 0.89897460E+02</pdfrwt>
<totfact> 0.15962144E+05</totfact>
</mgrwt>
</event>
<event>
 7    1  0.3056193E-009  0.9619050E+02  0.7818608E-02  0.1288517E+00
         -2   -1    0    0    0  501 -0.00000000000E+00  0.00000000000E+00  0.37118054433E+01  0.37118063193E+01  0.25500000000E-02 0.  1.
          2   -1    0    0  501    0  0.00000000000E+00 -0.00000000000E+00 -0.62318805213E+03  0.62318805213E+03  0.25500000000E-02 0. -1.
         23    2    1    2    0    0  0.17763568394E-14 -0.44408920985E-15 -0.61947624668E+03  0.62689985845E+03  0.96190500161E+02 0.  0.
    9000005    2    3    3    0    0  0.15261185565E+02 -0.39227370855E+01 -0.60557624552E+03  0.60588791700E+03  0.11370452166E+02 0.  0.
         22    1    3    3    0    0 -0.15261185565E+02  0.39227370855E+01 -0.13900001167E+02  0.21011941450E+02  0.00000000000E+00 0.  1.
         22    1    4    4    0    0 -0.35158947612E+00 -0.37422889150E+01 -0.13727599761E+03  0.13732744758E+03  0.00000000000E+00 0.  1.
         22    1    4    4    0    0  0.15612775041E+02 -0.18044817056E+00 -0.46830024791E+03  0.46856046942E+03  0.00000000000E+00 0.  1.
<mgrwt>
<rscale>  0 0.96190500E+02</rscale>
<asrwt>0</asrwt>
<pdfrwt beam="2">  1        2 0.95875002E-01 0.96190500E+02</pdfrwt>
<pdfrwt beam="1">  1       -2 0.57104755E-03 0.96190500E+02</pdfrwt>
<totfact> 0.19982961E+05</totfact>
</mgrwt>
</event>
<event>
 7    1  0.3056193E-009  0.9021818E+02  0.7818608E-02  0.1302324E+00
          2   -1    0    0  501    0  0.00000000000E+00  0.00000000000E+00  0.84142751130E+01  0.84142754994E+01  0.25500000000E-02 0.  1.
         -2   -1    0    0    0  501 -0.00000000000E+00 -0.00000000000E+00 -0.24183067004E+03  0.24183067005E+03  0.25500000000E-02 0. -1.
         23    2    1    2    0    0  0.00000000000E+00  0.00000000000E+00 -0.23341639492E+03  0.25024494555E+03  0.90218176405E+02 0.  0.
    9000005    2    3    3    0    0 -0.32201401878E+02  0.26813910242E+02 -0.75624425289E+02  0.86983738441E+02  0.95499208138E+01 0.  0.
         22    1    3    3    0    0  0.32201401878E+02 -0.26813910242E+02 -0.15779196963E+03  0.16326120711E+03  0.00000000000E+00 0.  1.
         22    1    4    4    0    0 -0.12591024322E+02  0.10934694337E+02 -0.21026403997E+02  0.26836749035E+02  0.00000000000E+00 0.  1.
         22    1    4    4    0    0 -0.19610377556E+02  0.15879215905E+02 -0.54598021291E+02  0.60146989406E+02  0.00000000000E+00 0.  1.
<mgrwt>
<rscale>  0 0.90218176E+02</rscale>
<asrwt>0</asrwt>
<pdfrwt beam="1">  1        2 0.12945041E-02 0.90218176E+02</pdfrwt>
<pdfrwt beam="2">  1       -2 0.37204713E-01 0.90218176E+02</pdfrwt>
<totfact> 0.58674148E+04</totfact>
</mgrwt>
</event>
<event>
 7    1  0.3056193E-009  0.9006855E+02  0.7818608E-02  0.1302686E+00
         -2   -1    0    0    0  501 -0.00000000000E+00  0.00000000000E+00  0.42016355361E+02  0.42016355439E+02  0.25500000000E-02 0.  1.
          2   -1    0    0  501    0  0.00000000000E+00 -0.00000000000E+00 -0.48268961385E+02  0.48268961452E+02  0.25500000000E-02 0. -1.
         23    2    1    2    0    0  0.00000000000E+00  0.17763568394E-14 -0.62526060231E+01  0.90285316891E+02  0.90068548140E+02 0.  0.
    9000005    2    3    3    0    0 -0.39235068587E+02 -0.15965314525E+02  0.11001188812E+02  0.44547200280E+02  0.83153486189E+01 0.  0.
         22    1    3    3    0    0  0.39235068587E+02  0.15965314525E+02 -0.17253794835E+02  0.45738116611E+02  0.00000000000E+00 0. -1.
         22    1    4    4    0    0 -0.11411181059E+02 -0.41397736736E+01  0.71028847278E+01  0.14064272135E+02  0.00000000000E+00 0. -1.
         22    1    4    4    0    0 -0.27823887527E+02 -0.11825540851E+02  0.38983040839E+01  0.30482928145E+02  0.00000000000E+00 0. -1.
<mgrwt>
<rscale>  0 0.90068548E+02</rscale>
<asrwt>0</asrwt>
<pdfrwt beam="2">  1        2 0.74259940E-02 0.90068548E+02</pdfrwt>
<pdfrwt beam="1">  1       -2 0.64640547E-02 0.90068548E+02</pdfrwt>
<totfact> 0.10370822E+05</totfact>
</mgrwt>
</event>
<event>
 7    1  0.3056193E-009  0.9647937E+02  0.7818608E-02  0.1287879E+00
          2   -1    0    0  501    0  0.00000000000E+00  0.00000000000E+00  0.14761185006E+03  0.14761185008E+03  0.25500000000E-02 0. -1.
         -2   -1    0    0    0  501 -0.00000000000E+00 -0.00000000000E+00 -0.15764773767E+02  0.15764773973E+02  0.25500000000E-02 0.  1.
         23    2    1    2    0    0  0.00000000000E+00  0.17763568394E-14  0.13184707629E+03  0.16337662405E+03  0.96479374794E+02 0.  0.
    9000005    2    3    3    0    0 -0.32614590678E+02 -0.14186538148E+02  0.11989851538E+03  0.12585679599E+03  0.14117709389E+02 0.  0.
         22    1    3    3    0    0  0.32614590678E+02  0.14186538148E+02  0.11948560914E+02  0.37519828060E+02  0.00000000000E+00 0.  1.
         22    1    4    4    0    0 -0.99529938395E+01  0.50869283089E+00  0.19639302514E+02  0.22023239044E+02  0.00000000000E+00 0.  1.
         22    1    4    4    0    0 -0.22661596839E+02 -0.14695230979E+02  0.10025921286E+03  0.10383355695E+03  0.00000000000E+00 0.  1.
<mgrwt>
<rscale>  0 0.96479375E+02</rscale>
<asrwt>0</asrwt>
<pdfrwt beam="1">  1        2 0.22709515E-01 0.96479375E+02</pdfrwt>
<pdfrwt beam="2">  1       -2 0.24253499E-02 0.96479375E+02</pdfrwt>
<totfact> 0.11918195E+05</totfact>
</mgrwt>
</event>
<event>
 7    1  0.3056193E-009  0.9596728E+02  0.7818608E-02  0.1289012E+00
          2   -1    0    0  501    0  0.00000000000E+00  0.00000000000E+00  0.21239320432E+03  0.21239320434E+03  0.25500000000E-02 0. -1.
         -2   -1    0    0    0  501 -0.00000000000E+00 -0.00000000000E+00 -0.10840410382E+02  0.10840410682E+02  0.25500000000E-02 0.  1.
         23    2    1    2    0    0  0.00000000000E+00  0.00000000000E+00  0.20155279394E+03  0.22323361502E+03  0.95967276346E+02 0.  0.
    9000005    2    3    3    0    0  0.21275082388E+02 -0.39299066227E+02  0.67775700622E+02  0.82189804684E+02  0.12828587698E+02 0.  0.
         22    1    3    3    0    0 -0.21275082388E+02  0.39299066227E+02  0.13377709332E+03  0.14104381033E+03  0.00000000000E+00 0. -1.
         22    1    4    4    0    0  0.83079242276E+01 -0.27692824213E+02  0.38760234976E+02  0.48355660819E+02  0.00000000000E+00 0. -1.
         22    1    4    4    0    0  0.12967158160E+02 -0.11606242014E+02  0.29015465646E+02  0.33834143866E+02  0.00000000000E+00 0. -1.
<mgrwt>
<rscale>  0 0.95967276E+02</rscale>
<asrwt>0</asrwt>
<pdfrwt beam="1">  1        2 0.32675877E-01 0.95967276E+02</pdfrwt>
<pdfrwt beam="2">  1       -2 0.16677555E-02 0.95967276E+02</pdfrwt>
<totfact> 0.13769209E+05</totfact>
</mgrwt>
</event>
<event>
 7    1  0.3056193E-009  0.9206027E+02  0.7818608E-02  0.1297938E+00
          2   -1    0    0  501    0  0.00000000000E+00  0.00000000000E+00  0.19608587632E+03  0.19608587633E+03  0.25500000000E-02 0. -1.
         -2   -1    0    0    0  501 -0.00000000000E+00 -0.00000000000E+00 -0.10805334563E+02  0.10805334864E+02  0.25500000000E-02 0.  1.
         23    2    1    2    0    0  0.00000000000E+00  0.71054273576E-14  0.18528054175E+03  0.20689121120E+03  0.92060274376E+02 0.  0.
    9000005    2    3    3    0    0  0.16783920877E+02  0.40470813928E+02  0.74630858944E+02  0.87883064057E+02  0.15299707883E+02 0.  0.
         22    1    3    3    0    0 -0.16783920877E+02 -0.40470813928E+02  0.11064968281E+03  0.11900814714E+03  0.00000000000E+00 0. -1.
         22    1    4    4    0    0  0.26456923910E+01  0.13494397553E+02  0.36990953017E+02  0.39464275727E+02  0.00000000000E+00 0.  1.
         22    1    4    4    0    0  0.14138228486E+02  0.26976416375E+02  0.37639905928E+02  0.48418788330E+02  0.00000000000E+00 0.  1.
<mgrwt>
<rscale>  0 0.92060274E+02</rscale>
<asrwt>0</asrwt>
<pdfrwt beam="1">  1        2 0.30167058E-01 0.92060274E+02</pdfrwt>
<pdfrwt beam="2">  1       -2 0.16623592E-02 0.92060274E+02</pdfrwt>
<totfact> 0.14963666E+05</totfact>
</mgrwt>
</event>
<event>
 7    1  0.3056193E-009  0.8707743E+02  0.7818608E-02  0.1310088E+00
         -2   -1    0    0    0  501 -0.00000000000E+00  0.00000000000E+00  0.24436189538E+03  0.24436189539E+03  0.25500000000E-02 0.  1.
          2   -1    0    0  501    0  0.00000000000E+00 -0.00000000000E+00 -0.77574280481E+01  0.77574284672E+01  0.25500000000E-02 0. -1.
         23    2    1    2    0    0 -0.71054273576E-14  0.00000000000E+00  0.23660446733E+03  0.25211932386E+03  0.87077433945E+02 0.  0.
    9000005    2    3    3    0    0  0.35488125953E+02  0.23192295307E+02  0.10217051835E+03  0.11115912989E+03  0.10965750897E+02 0.  0.
         22    1    3    3    0    0 -0.35488125953E+02 -0.23192295307E+02  0.13443394897E+03  0.14096019396E+03  0.00000000000E+00 0.  1.
         22    1    4    4    0    0  0.70853241513E+00  0.40074911090E+01  0.95531752377E+01  0.10383889459E+02  0.00000000000E+00 0. -1.
         22    1    4    4    0    0  0.34779593538E+02  0.19184804198E+02  0.92617343117E+02  0.10077524044E+03  0.00000000000E+00 0. -1.
<mgrwt>
<rscale>  0 0.87077434E+02</rscale>
<asrwt>0</asrwt>
<pdfrwt beam="2">  1        2 0.11934507E-02 0.87077434E+02</pdfrwt>
<pdfrwt beam="1">  1       -2 0.37594131E-01 0.87077434E+02</pdfrwt>
<totfact> 0.63920135E+04</totfact>
</mgrwt>
</event>
<event>
 7    1  0.3056193E-009  0.9081742E+02  0.7818608E-02  0.1300884E+00
         -2   -1    0    0    0  501 -0.00000000000E+00  0.00000000000E+00  0.25213522657E+03  0.25213522658E+03  0.25500000000E-02 0.  1.
          2   -1    0    0  501    0  0.00000000000E+00 -0.00000000000E+00 -0.81779556483E+01  0.81779560458E+01  0.25500000000E-02 0. -1.
         23    2    1    2    0    0  0.00000000000E+00  0.00000000000E+00  0.24395727092E+03  0.26031318263E+03  0.90817415811E+02 0.  0.
    9000005    2    3    3    0    0 -0.44541281380E+02  0.10899987179E+01  0.14199370523E+03  0.14904017345E+03  0.81022917424E+01 0.  0.
         22    1    3    3    0    0  0.44541281380E+02 -0.10899987179E+01  0.10196356569E+03  0.11127300918E+03  0.00000000000E+00 0.  1.
         22    1    4    4    0    0 -0.32511456583E+02 -0.15149434165E+01  0.11158881896E+03  0.11623835158E+03  0.00000000000E+00 0. -1.
         22    1    4    4    0    0 -0.12029824796E+02  0.26049421343E+01  0.30404886277E+02  0.32801821865E+02  0.00000000000E+00 0. -1.
<mgrwt>
<rscale>  0 0.90817416E+02</rscale>
<asrwt>0</asrwt>
<pdfrwt beam="2">  1        2 0.12581473E-02 0.90817416E+02</pdfrwt>
<pdfrwt beam="1">  1       -2 0.38790027E-01 0.90817416E+02</pdfrwt>
<totfact> 0.56508363E+04</totfact>
</mgrwt>
</event>
<event>
 7    1  0.3239619E-009  0.9134732E+02  0.7818608E-02  0.1299621E+00
          2   -1    0    0  501    0  0.00000000000E+00  0.00000000000E+00  0.17818062201E+04  0.17818062201E+04  0.25500000000E-02 0. -1.
         -2   -1    0    0    0  501 -0.00000000000E+00 -0.00000000000E+00 -0.11707673757E+01  0.11707701527E+01  0.25500000000E-02 0.  1.
         23    2    1    2    0    0  0.17763568394E-14  0.17763568394E-14  0.17806354528E+04  0.17829769903E+04  0.91347316755E+02 0.  0.
    9000005    2    3    3    0    0  0.14199606571E+02  0.92694812339E+01  0.17167167456E+04  0.17168471692E+04  0.12659610845E+02 0.  0.
         22    1    3    3    0    0 -0.14199606571E+02 -0.92694812339E+01  0.63918707193E+02  0.66129821097E+02  0.00000000000E+00 0.  1.
         22    1    4    4    0    0 -0.35166199649E+00 -0.72645579653E+00  0.82861047369E+01  0.83253189665E+01  0.00000000000E+00 0. -1.
         22    1    4    4    0    0  0.14551268568E+02  0.99959370304E+01  0.17084306408E+04  0.17085218502E+04  0.00000000000E+00 0. -1.
<mgrwt>
<rscale>  0 0.91347317E+02</rscale>
<asrwt>0</asrwt>
<pdfrwt beam="1">  1        2 0.27412521E+00 0.91347317E+02</pdfrwt>
<pdfrwt beam="2">  1       -2 0.18011750E-03 0.91347317E+02</pdfrwt>
<totfact> 0.21476275E+05</totfact>
</mgrwt>
</event>
<event>
 7    1  0.3056193E-009  0.9228066E+02  0.7818608E-02  0.1297421E+00
          2   -1    0    0  501    0  0.00000000000E+00  0.00000000000E+00  0.28236819191E+03  0.28236819192E+03  0.25500000000E-02 0.  1.
         -2   -1    0    0    0  501 -0.00000000000E+00 -0.00000000000E+00 -0.75395531338E+01  0.75395535650E+01  0.25500000000E-02 0. -1.
         23    2    1    2    0    0  0.00000000000E+00  0.00000000000E+00  0.27482863877E+03  0.28990774548E+03  0.92280659953E+02 0.  0.
    9000005    2    3    3    0    0 -0.46548959485E+01 -0.45692762013E+02  0.13210044323E+03  0.13997164456E+03  0.56601787047E+01 0.  0.
         22    1    3    3    0    0  0.46548959485E+01  0.45692762013E+02  0.14272819555E+03  0.14993610093E+03  0.00000000000E+00 0. -1.
         22    1    4    4    0    0 -0.54948763907E+01 -0.41128682990E+02  0.12180115589E+03  0.12867510951E+03  0.00000000000E+00 0.  1.
         22    1    4    4    0    0  0.83998044223E+00 -0.45640790231E+01  0.10299287337E+02  0.11296535049E+02  0.00000000000E+00 0.  1.
<mgrwt>
<rscale>  0 0.92280660E+02</rscale>
<asrwt>0</asrwt>
<pdfrwt beam="1">  1        2 0.43441255E-01 0.92280660E+02</pdfrwt>
<pdfrwt beam="2">  1       -2 0.11599314E-02 0.92280660E+02</pdfrwt>
<totfact> 0.17008439E+05</totfact>
</mgrwt>
</event>
<event>
 7    1  0.3056193E-009  0.9541668E+02  0.7818608E-02  0.1290240E+00
          2   -1    0    0  501    0  0.00000000000E+00  0.00000000000E+00  0.30415480808E+02  0.30415480915E+02  0.25500000000E-02 0. -1.
         -2   -1    0    0    0  501 -0.00000000000E+00 -0.00000000000E+00 -0.74833129992E+02  0.74833130035E+02  0.25500000000E-02 0.  1.
         23    2    1    2    0    0  0.00000000000E+00  0.00000000000E+00 -0.44417649184E+02  0.10524861095E+03  0.95416678562E+02 0.  0.
    9000005    2    3    3    0    0 -0.38423994670E+02  0.27205560116E+02 -0.26193430537E+02  0.54764276618E+02  0.98226433588E+01 0.  0.
         22    1    3    3    0    0  0.38423994670E+02 -0.27205560116E+02 -0.18224218647E+02  0.50484334332E+02  0.00000000000E+00 0.  1.
         22    1    4    4    0    0 -0.26645515965E+02  0.18424673724E+02 -0.12633282375E+02  0.34771424280E+02  0.00000000000E+00 0. -1.
         22    1    4    4    0    0 -0.11778478705E+02  0.87808863921E+01 -0.13560148162E+02  0.19992852338E+02  0.00000000000E+00 0. -1.
<mgrwt>
<rscale>  0 0.95416679E+02</rscale>
<asrwt>0</asrwt>
<pdfrwt beam="1">  1        2 0.46793048E-02 0.95416679E+02</pdfrwt>
<pdfrwt beam="2">  1       -2 0.11512789E-01 0.95416679E+02</pdfrwt>
<totfact> 0.77531379E+04</totfact>
</mgrwt>
</event>
<event>
 7    1  0.3056193E-009  0.9216776E+02  0.7818608E-02  0.1297685E+00
          2   -1    0    0  501    0  0.00000000000E+00  0.00000000000E+00  0.37547552620E+01  0.37547561279E+01  0.25500000000E-02 0. -1.
         -2   -1    0    0    0  501 -0.00000000000E+00 -0.00000000000E+00 -0.56560910817E+03  0.56560910818E+03  0.25500000000E-02 0.  1.
         23    2    1    2    0    0  0.00000000000E+00 -0.35527136788E-14 -0.56185435291E+03  0.56936386430E+03  0.92167760595E+02 0.  0.
    9000005    2    3    3    0    0  0.37653598950E+02 -0.24516776628E+02 -0.32881562288E+03  0.33203304974E+03  0.10361776737E+02 0.  0.
         22    1    3    3    0    0 -0.37653598950E+02  0.24516776628E+02 -0.23303873003E+03  0.23733081457E+03  0.00000000000E+00 0. -1.
         22    1    4    4    0    0  0.23575895028E+02 -0.17111728013E+02 -0.24457739735E+03  0.24630618619E+03  0.00000000000E+00 0. -1.
         22    1    4    4    0    0  0.14077703922E+02 -0.74050486147E+01 -0.84238225531E+02  0.85726863546E+02  0.00000000000E+00 0. -1.
<mgrwt>
<rscale>  0 0.92167761E+02</rscale>
<asrwt>0</asrwt>
<pdfrwt beam="1">  1        2 0.57765517E-03 0.92167761E+02</pdfrwt>
<pdfrwt beam="2">  1       -2 0.87016718E-01 0.92167761E+02</pdfrwt>
<totfact> 0.31960626E+04</totfact>
</mgrwt>
</event>
<event>
 7    1  0.3056193E-009  0.9084684E+02  0.7818608E-02  0.1300814E+00
         -2   -1    0    0    0  501 -0.00000000000E+00  0.00000000000E+00  0.11376217824E+02  0.11376218110E+02  0.25500000000E-02 0. -1.
          2   -1    0    0  501    0  0.00000000000E+00 -0.00000000000E+00 -0.18136845732E+03  0.18136845734E+03  0.25500000000E-02 0.  1.
         23    2    1    2    0    0  0.00000000000E+00  0.00000000000E+00 -0.16999223950E+03  0.19274467545E+03  0.90846840477E+02 0.  0.
    9000005    2    3    3    0    0  0.21269256621E+02  0.38669330848E+02 -0.97429012440E+02  0.10781458451E+03  0.13560005281E+02 0.  0.
         22    1    3    3    0    0 -0.21269256621E+02 -0.38669330848E+02 -0.72563227058E+02  0.84930090937E+02  0.00000000000E+00 0.  1.
         22    1    4    4    0    0  0.15582216378E+02  0.32813446116E+02 -0.65927127097E+02  0.75272264484E+02  0.00000000000E+00 0.  1.
         22    1    4    4    0    0  0.56870402422E+01  0.58558847326E+01 -0.31501885343E+02  0.32542320030E+02  0.00000000000E+00 0.  1.
<mgrwt>
<rscale>  0 0.90846840E+02</rscale>
<asrwt>0</asrwt>
<pdfrwt beam="2">  1        2 0.27902838E-01 0.90846840E+02</pdfrwt>
<pdfrwt beam="1">  1       -2 0.17501875E-02 0.90846840E+02</pdfrwt>
<totfact> 0.15081628E+05</totfact>
</mgrwt>
</event>
<event>
 7    1  0.3056193E-009  0.9078334E+02  0.7818608E-02  0.1300966E+00
          2   -1    0    0  501    0  0.00000000000E+00  0.00000000000E+00  0.42648414344E+02  0.42648414420E+02  0.25500000000E-02 0. -1.
         -2   -1    0    0    0  501 -0.00000000000E+00 -0.00000000000E+00 -0.48311382811E+02  0.48311382879E+02  0.25500000000E-02 0.  1.
         23    2    1    2    0    0  0.00000000000E+00  0.00000000000E+00 -0.56629684675E+01  0.90959797299E+02  0.90783343807E+02 0.  0.
    9000005    2    3    3    0    0 -0.16745131729E+02  0.11420696459E+02 -0.43478597540E+02  0.48054628072E+02  0.28332121128E+01 0.  0.
         22    1    3    3    0    0  0.16745131729E+02 -0.11420696459E+02  0.37815629073E+02  0.42905169227E+02  0.00000000000E+00 0. -1.
         22    1    4    4    0    0 -0.14678616851E+02  0.88068436679E+01 -0.35667578748E+02  0.39562589169E+02  0.00000000000E+00 0. -1.
         22    1    4    4    0    0 -0.20665148777E+01  0.26138527910E+01 -0.78110187924E+01  0.84920389028E+01  0.00000000000E+00 0. -1.
<mgrwt>
<rscale>  0 0.90783344E+02</rscale>
<asrwt>0</asrwt>
<pdfrwt beam="1">  1        2 0.65612945E-02 0.90783344E+02</pdfrwt>
<pdfrwt beam="2">  1       -2 0.74325204E-02 0.90783344E+02</pdfrwt>
<totfact> 0.98200451E+04</totfact>
</mgrwt>
</event>
<event>
 7    1  0.3056193E-009  0.9331255E+02  0.7818608E-02  0.1295023E+00
          2   -1    0    0  501    0  0.00000000000E+00  0.00000000000E+00  0.70371338568E+02  0.70371338614E+02  0.25500000000E-02 0. -1.
         -2   -1    0    0    0  501 -0.00000000000E+00 -0.00000000000E+00 -0.30933158708E+02  0.30933158813E+02  0.25500000000E-02 0.  1.
         23    2    1    2    0    0  0.00000000000E+00 -0.17763568394E-14  0.39438179859E+02  0.10130449743E+03  0.93312545611E+02 0.  0.
    9000005    2    3    3    0    0 -0.22039206036E+02 -0.15733946476E+02 -0.20097326859E+02  0.35899908638E+02  0.12313294397E+02 0.  0.
         22    1    3    3    0    0  0.22039206036E+02  0.15733946476E+02  0.59535506719E+02  0.65404588789E+02  0.00000000000E+00 0. -1.
         22    1    4    4    0    0 -0.22325064186E+02 -0.11130848217E+02 -0.15398158524E+02  0.29315653820E+02  0.00000000000E+00 0. -1.
         22    1    4    4    0    0  0.28585815019E+00 -0.46030982594E+01 -0.46991683356E+01  0.65842548184E+01  0.00000000000E+00 0. -1.
<mgrwt>
<rscale>  0 0.93312546E+02</rscale>
<asrwt>0</asrwt>
<pdfrwt beam="1">  1        2 0.10826360E-01 0.93312546E+02</pdfrwt>
<pdfrwt beam="2">  1       -2 0.47589476E-02 0.93312546E+02</pdfrwt>
<totfact> 0.10381579E+05</totfact>
</mgrwt>
</event>
<event>
 7    1  0.3056193E-009  0.8938460E+02  0.7818608E-02  0.1304349E+00
          2   -1    0    0  501    0  0.00000000000E+00  0.00000000000E+00  0.50515040886E+03  0.50515040887E+03  0.25500000000E-02 0. -1.
         -2   -1    0    0    0  501 -0.00000000000E+00 -0.00000000000E+00 -0.39540727013E+01  0.39540735235E+01  0.25500000000E-02 0.  1.
         23    2    1    2    0    0  0.00000000000E+00  0.00000000000E+00  0.50119633616E+03  0.50910448239E+03  0.89384599405E+02 0.  0.
    9000005    2    3    3    0    0  0.14301766733E+02 -0.53551165529E+01  0.48973842436E+03  0.49001255876E+03  0.59469024505E+01 0.  0.
         22    1    3    3    0    0 -0.14301766733E+02  0.53551165529E+01  0.11457911805E+02  0.19091923630E+02  0.00000000000E+00 0.  1.
         22    1    4    4    0    0  0.29446189427E+01 -0.34533132276E+01  0.98161566002E+02  0.98266419458E+02  0.00000000000E+00 0.  1.
         22    1    4    4    0    0  0.11357147790E+02 -0.19018033253E+01  0.39157685836E+03  0.39174613931E+03  0.00000000000E+00 0.  1.
<mgrwt>
<rscale>  0 0.89384599E+02</rscale>
<asrwt>0</asrwt>
<pdfrwt beam="1">  1        2 0.77715440E-01 0.89384599E+02</pdfrwt>
<pdfrwt beam="2">  1       -2 0.60831900E-03 0.89384599E+02</pdfrwt>
<totfact> 0.22785926E+05</totfact>
</mgrwt>
</event>
<event>
 7    1  0.3056193E-009  0.9039750E+02  0.7818608E-02  0.1301892E+00
          2   -1    0    0  501    0  0.00000000000E+00  0.00000000000E+00  0.26472300915E+03  0.26472300916E+03  0.25500000000E-02 0. -1.
         -2   -1    0    0    0  501 -0.00000000000E+00 -0.00000000000E+00 -0.77172244287E+01  0.77172248500E+01  0.25500000000E-02 0.  1.
         23    2    1    2    0    0  0.00000000000E+00  0.00000000000E+00  0.25700578472E+03  0.27244023401E+03  0.90397498464E+02 0.  0.
    9000005    2    3    3    0    0 -0.23076345981E+02 -0.20996705298E+02  0.22699015110E+03  0.22914684377E+03  0.32199278485E+01 0.  0.
         22    1    3    3    0    0  0.23076345981E+02  0.20996705298E+02  0.30015633624E+02  0.43293390247E+02  0.00000000000E+00 0.  1.
         22    1    4    4    0    0 -0.11412056729E+02 -0.12548860415E+02  0.12204089767E+03  0.12321399937E+03  0.00000000000E+00 0. -1.
         22    1    4    4    0    0 -0.11664289252E+02 -0.84478448826E+01  0.10494925343E+03  0.10593284439E+03  0.00000000000E+00 0. -1.
<mgrwt>
<rscale>  0 0.90397498E+02</rscale>
<asrwt>0</asrwt>
<pdfrwt beam="1">  1        2 0.40726612E-01 0.90397498E+02</pdfrwt>
<pdfrwt beam="2">  1       -2 0.11872655E-02 0.90397498E+02</pdfrwt>
<totfact> 0.17544810E+05</totfact>
</mgrwt>
</event>
<event>
 7    1  0.3238791E-009  0.9181753E+02  0.7818608E-02  0.1298509E+00
         -2   -1    0    0    0  501 -0.00000000000E+00  0.00000000000E+00  0.50643269259E+01  0.50643275679E+01  0.25500000000E-02 0.  1.
          2   -1    0    0  501    0  0.00000000000E+00 -0.00000000000E+00 -0.41616870956E+03  0.41616870957E+03  0.25500000000E-02 0. -1.
         23    2    1    2    0    0  0.00000000000E+00  0.35527136788E-14 -0.41110438264E+03  0.42123303714E+03  0.91817526397E+02 0.  0.
    9000005    2    3    3    0    0  0.39032795028E+02 -0.22301381210E+02 -0.21076200445E+03  0.21590895382E+03  0.13234165248E+02 0.  0.
         22    1    3    3    0    0 -0.39032795028E+02  0.22301381210E+02 -0.20034237819E+03  0.20532408331E+03  0.00000000000E+00 0.  1.
         22    1    4    4    0    0  0.64076528896E+01 -0.10222361991E+02 -0.52536098660E+02  0.53903583950E+02  0.00000000000E+00 0. -1.
         22    1    4    4    0    0  0.32625142138E+02 -0.12079019219E+02 -0.15822590579E+03  0.16200536987E+03  0.00000000000E+00 0. -1.
<mgrwt>
<rscale>  0 0.91817526E+02</rscale>
<asrwt>0</asrwt>
<pdfrwt beam="2">  1        2 0.64025928E-01 0.91817526E+02</pdfrwt>
<pdfrwt beam="1">  1       -2 0.77912760E-03 0.91817526E+02</pdfrwt>
<totfact> 0.19872578E+05</totfact>
</mgrwt>
</event>
<event>
 7    1  0.3056193E-009  0.9155687E+02  0.7818608E-02  0.1299125E+00
         -2   -1    0    0    0  501 -0.00000000000E+00  0.00000000000E+00  0.29073457490E+01  0.29073468673E+01  0.25500000000E-02 0.  1.
          2   -1    0    0  501    0  0.00000000000E+00 -0.00000000000E+00 -0.72081711001E+03  0.72081711001E+03  0.25500000000E-02 0. -1.
         23    2    1    2    0    0  0.00000000000E+00  0.00000000000E+00 -0.71790976426E+03  0.72372445688E+03  0.91556866850E+02 0.  0.
    9000005    2    3    3    0    0 -0.13291625797E+02  0.36281260468E+02 -0.55166151083E+03  0.55304499431E+03  0.59452514084E+01 0.  0.
         22    1    3    3    0    0  0.13291625797E+02 -0.36281260468E+02 -0.16624825342E+03  0.17067946257E+03  0.00000000000E+00 0.  1.
         22    1    4    4    0    0 -0.84550794977E+01  0.15381164365E+02 -0.26700450607E+03  0.26758078191E+03  0.00000000000E+00 0.  1.
         22    1    4    4    0    0 -0.48365462989E+01  0.20900096103E+02 -0.28465700476E+03  0.28546421239E+03  0.00000000000E+00 0.  1.
<mgrwt>
<rscale>  0 0.91556867E+02</rscale>
<asrwt>0</asrwt>
<pdfrwt beam="2">  1        2 0.11089480E+00 0.91556867E+02</pdfrwt>
<pdfrwt beam="1">  1       -2 0.44728462E-03 0.91556867E+02</pdfrwt>
<totfact> 0.23612245E+05</totfact>
</mgrwt>
</event>
<event>
 7    1  0.3376830E-009  0.8874530E+02  0.7818608E-02  0.1305919E+00
          2   -1    0    0  501    0  0.00000000000E+00  0.00000000000E+00  0.61968594412E+03  0.61968594413E+03  0.25500000000E-02 0.  1.
         -2   -1    0    0    0  501 -0.00000000000E+00 -0.00000000000E+00 -0.31773061244E+01  0.31773071477E+01  0.25500000000E-02 0. -1.
         23    2    1    2    0    0  0.00000000000E+00  0.00000000000E+00  0.61650863800E+03  0.62286325128E+03  0.88745304457E+02 0.  0.
    9000005    2    3    3    0    0  0.80899942907E+01 -0.19685003656E+02  0.58004419793E+03  0.58064237059E+03  0.15535237126E+02 0.  0.
         22    1    3    3    0    0 -0.80899942907E+01  0.19685003656E+02  0.36464440065E+02  0.42220880685E+02  0.00000000000E+00 0. -1.
         22    1    4    4    0    0  0.51337183025E+01 -0.79112315096E+01  0.43147726621E+03  0.43158032150E+03  0.00000000000E+00 0.  1.
         22    1    4    4    0    0  0.29562759882E+01 -0.11773772146E+02  0.14856693172E+03  0.14906204909E+03  0.00000000000E+00 0.  1.
<mgrwt>
<rscale>  0 0.88745304E+02</rscale>
<asrwt>0</asrwt>
<pdfrwt beam="1">  1        2 0.95336281E-01 0.88745304E+02</pdfrwt>
<pdfrwt beam="2">  1       -2 0.48881650E-03 0.88745304E+02</pdfrwt>
<totfact> 0.24688943E+05</totfact>
</mgrwt>
</event>
<event>
 7    1  0.3056193E-009  0.9056874E+02  0.7818608E-02  0.1301480E+00
         -2   -1    0    0    0  501 -0.00000000000E+00  0.00000000000E+00  0.13358646545E+02  0.13358646788E+02  0.25500000000E-02 0. -1.
          2   -1    0    0  501    0  0.00000000000E+00 -0.00000000000E+00 -0.15350910942E+03  0.15350910944E+03  0.25500000000E-02 0.  1.
         23    2    1    2    0    0  0.17763568394E-14  0.00000000000E+00 -0.14015046287E+03  0.16686775622E+03  0.90568735359E+02 0.  0.
    9000005    2    3    3    0    0 -0.95751556567E+01 -0.34099725465E+02 -0.18738331712E+02  0.40394911412E+02  0.51136004873E+01 0.  0.
         22    1    3    3    0    0  0.95751556567E+01  0.34099725465E+02 -0.12141213116E+03  0.12647284481E+03  0.00000000000E+00 0.  1.
         22    1    4    4    0    0  0.34008651144E+00 -0.41507626478E+01 -0.30477363495E+01  0.51607350494E+01  0.00000000000E+00 0. -1.
         22    1    4    4    0    0 -0.99152421682E+01 -0.29948962817E+02 -0.15690595363E+02  0.35234176362E+02  0.00000000000E+00 0. -1.
<mgrwt>
<rscale>  0 0.90568735E+02</rscale>
<asrwt>0</asrwt>
<pdfrwt beam="2">  1        2 0.23616785E-01 0.90568735E+02</pdfrwt>
<pdfrwt beam="1">  1       -2 0.20551765E-02 0.90568735E+02</pdfrwt>
<totfact> 0.14349546E+05</totfact>
</mgrwt>
</event>
<event>
 7    1  0.3056193E-009  0.9147624E+02  0.7818608E-02  0.1299316E+00
         -2   -1    0    0    0  501 -0.00000000000E+00  0.00000000000E+00  0.11864564237E+03  0.11864564240E+03  0.25500000000E-02 0. -1.
          2   -1    0    0  501    0  0.00000000000E+00 -0.00000000000E+00 -0.17632132020E+02  0.17632132204E+02  0.25500000000E-02 0.  1.
         23    2    1    2    0    0  0.00000000000E+00  0.00000000000E+00  0.10101351035E+03  0.13627777460E+03  0.91476240505E+02 0.  0.
    9000005    2    3    3    0    0  0.23157872587E+02  0.25824395127E+02  0.93203585928E+02  0.10072244637E+03  0.15966099257E+02 0.  0.
         22    1    3    3    0    0 -0.23157872587E+02 -0.25824395127E+02  0.78099244204E+01  0.35555328235E+02  0.00000000000E+00 0.  1.
         22    1    4    4    0    0  0.13046780245E+02  0.80342420758E+01  0.58135957406E+02  0.60121186482E+02  0.00000000000E+00 0.  1.
         22    1    4    4    0    0  0.10111092342E+02  0.17790153051E+02  0.35067628522E+02  0.40601259883E+02  0.00000000000E+00 0.  1.
<mgrwt>
<rscale>  0 0.91476241E+02</rscale>
<asrwt>0</asrwt>
<pdfrwt beam="2">  1        2 0.27126356E-02 0.91476241E+02</pdfrwt>
<pdfrwt beam="1">  1       -2 0.18253176E-01 0.91476241E+02</pdfrwt>
<totfact> 0.75072761E+04</totfact>
</mgrwt>
</event>
<event>
 7    1  0.3056193E-009  0.9195214E+02  0.7818608E-02  0.1298192E+00
         -2   -1    0    0    0  501 -0.00000000000E+00  0.00000000000E+00  0.56953066037E+01  0.56953071746E+01  0.25500000000E-02 0.  1.
          2   -1    0    0  501    0  0.00000000000E+00 -0.00000000000E+00 -0.37114748440E+03  0.37114748441E+03  0.25500000000E-02 0. -1.
         23    2    1    2    0    0  0.00000000000E+00  0.17763568394E-14 -0.36545217780E+03  0.37684279159E+03  0.91952135986E+02 0.  0.
    9000005    2    3    3    0    0  0.26937523210E+02  0.13532534864E+02 -0.32325283296E+03  0.32498197438E+03  0.14564683250E+02 0.  0.
         22    1    3    3    0    0 -0.26937523210E+02 -0.13532534864E+02 -0.42199344841E+02  0.51860817209E+02  0.00000000000E+00 0.  1.
         22    1    4    4    0    0 -0.35848059811E+00  0.47018978116E+01 -0.38551741218E+02  0.38839066702E+02  0.00000000000E+00 0. -1.
         22    1    4    4    0    0  0.27296003808E+02  0.88306370524E+01 -0.28470109174E+03  0.28614290768E+03  0.00000000000E+00 0. -1.
<mgrwt>
<rscale>  0 0.91952136E+02</rscale>
<asrwt>0</asrwt>
<pdfrwt beam="2">  1        2 0.57099594E-01 0.91952136E+02</pdfrwt>
<pdfrwt beam="1">  1       -2 0.87620135E-03 0.91952136E+02</pdfrwt>
<totfact> 0.18997439E+05</totfact>
</mgrwt>
</event>
<event>
 7    1  0.3056193E-009  0.1133886E+03  0.7818608E-02  0.1254420E+00
          2   -1    0    0  501    0  0.00000000000E+00  0.00000000000E+00  0.10059119908E+02  0.10059120231E+02  0.25500000000E-02 0.  1.
         -2   -1    0    0    0  501 -0.00000000000E+00 -0.00000000000E+00 -0.31953529310E+03  0.31953529311E+03  0.25500000000E-02 0. -1.
         23    2    1    2    0    0  0.71054273576E-14 -0.35527136788E-14 -0.30947617320E+03  0.32959441335E+03  0.11338860407E+03 0.  0.
    9000005    2    3    3    0    0  0.41005442796E+02 -0.24246599808E+02 -0.69861521853E+02  0.85290248257E+02  0.11155728171E+02 0.  0.
         22    1    3    3    0    0 -0.41005442796E+02  0.24246599808E+02 -0.23961465134E+03  0.24430416509E+03  0.00000000000E+00 0. -1.
         22    1    4    4    0    0  0.38804903046E+01 -0.32194000980E+01 -0.26927822340E+01  0.57161016572E+01  0.00000000000E+00 0.  1.
         22    1    4    4    0    0  0.37124952492E+02 -0.21027199710E+02 -0.67168739619E+02  0.79574146600E+02  0.00000000000E+00 0.  1.
<mgrwt>
<rscale>  0 0.11338860E+03</rscale>
<asrwt>0</asrwt>
<pdfrwt beam="1">  1        2 0.15475572E-02 0.11338860E+03</pdfrwt>
<pdfrwt beam="2">  1       -2 0.49159268E-01 0.11338860E+03</pdfrwt>
<totfact> 0.27963754E+04</totfact>
</mgrwt>
</event>
<event>
 7    1  0.3056193E-009  0.9331181E+02  0.7818608E-02  0.1295024E+00
          2   -1    0    0  501    0  0.00000000000E+00  0.00000000000E+00  0.71997013513E+02  0.71997013558E+02  0.25500000000E-02 0. -1.
         -2   -1    0    0    0  501 -0.00000000000E+00 -0.00000000000E+00 -0.30234219714E+02  0.30234219821E+02  0.25500000000E-02 0.  1.
         23    2    1    2    0    0 -0.17763568394E-14 -0.22204460493E-15  0.41762793799E+02  0.10223123338E+03  0.93311811323E+02 0.  0.
    9000005    2    3    3    0    0  0.15136879119E+02  0.14551056068E+01 -0.27218886635E+02  0.31593320915E+02  0.51017345070E+01 0.  0.
         22    1    3    3    0    0 -0.15136879119E+02 -0.14551056068E+01  0.68981680435E+02  0.70637912465E+02  0.00000000000E+00 0. -1.
         22    1    4    4    0    0  0.36618069556E+00  0.11916177958E+01 -0.17230925259E+01  0.21267555397E+01  0.00000000000E+00 0. -1.
         22    1    4    4    0    0  0.14770698423E+02  0.26348781106E+00 -0.25495794109E+02  0.29466565375E+02  0.00000000000E+00 0. -1.
<mgrwt>
<rscale>  0 0.93311811E+02</rscale>
<asrwt>0</asrwt>
<pdfrwt beam="1">  1        2 0.11076464E-01 0.93311811E+02</pdfrwt>
<pdfrwt beam="2">  1       -2 0.46514185E-02 0.93311811E+02</pdfrwt>
<totfact> 0.10448746E+05</totfact>
</mgrwt>
</event>
<event>
 7    1  0.3056193E-009  0.9137547E+02  0.7818608E-02  0.1299555E+00
         -2   -1    0    0    0  501 -0.00000000000E+00  0.00000000000E+00  0.85721423846E+01  0.85721427639E+01  0.25500000000E-02 0.  1.
          2   -1    0    0  501    0  0.00000000000E+00 -0.00000000000E+00 -0.24350613642E+03  0.24350613643E+03  0.25500000000E-02 0. -1.
         23    2    1    2    0    0  0.00000000000E+00  0.00000000000E+00 -0.23493399404E+03  0.25207827920E+03  0.91375474224E+02 0.  0.
    9000005    2    3    3    0    0  0.42736638609E+02 -0.52004594534E+01 -0.15475414846E+03  0.16107128664E+03  0.11901590466E+02 0.  0.
         22    1    3    3    0    0 -0.42736638609E+02  0.52004594534E+01 -0.80179845574E+02  0.91006992557E+02  0.00000000000E+00 0.  1.
         22    1    4    4    0    0  0.24125166460E+02 -0.16700985535E+01 -0.65317454479E+02  0.69650432486E+02  0.00000000000E+00 0. -1.
         22    1    4    4    0    0  0.18611472148E+02 -0.35303608999E+01 -0.89436693983E+02  0.91420854154E+02  0.00000000000E+00 0. -1.
<mgrwt>
<rscale>  0 0.91375474E+02</rscale>
<asrwt>0</asrwt>
<pdfrwt beam="2">  1        2 0.37462477E-01 0.91375474E+02</pdfrwt>
<pdfrwt beam="1">  1       -2 0.13187914E-02 0.91375474E+02</pdfrwt>
<totfact> 0.16526738E+05</totfact>
</mgrwt>
</event>
<event>
 6    1  0.3056193E-009  0.8380291E+03  0.7818608E-02  0.9506546E-01
         -2   -1    0    0    0  501 -0.00000000000E+00  0.00000000000E+00  0.23165297067E+03  0.23165297069E+03  0.25500000000E-02 0.  1.
          2   -1    0    0  501    0  0.00000000000E+00 -0.00000000000E+00 -0.75791464599E+03  0.75791464600E+03  0.25500000000E-02 0. -1.
    9000005    2    1    2    0    0  0.23405893872E+03 -0.25090709345E+03  0.20798335551E+02  0.34380247995E+03  0.54422533833E+01 0.  0.
         22    1    1    2    0    0 -0.23405893872E+03  0.25090709345E+03 -0.54706001087E+03  0.64576513674E+03  0.00000000000E+00 0. -1.
         22    1    3    3    0    0  0.15022495315E+03 -0.15746939320E+03  0.12216743509E+02  0.21797567562E+03  0.00000000000E+00 0.  1.
         22    1    3    3    0    0  0.83833985570E+02 -0.93437700251E+02  0.85815920421E+01  0.12582680433E+03  0.00000000000E+00 0.  1.
<mgrwt>
<rscale>  0 0.83802907E+03</rscale>
<asrwt>0</asrwt>
<pdfrwt beam="2">  1        2 0.11660225E+00 0.83802907E+03</pdfrwt>
<pdfrwt beam="1">  1       -2 0.35638919E-01 0.83802907E+03</pdfrwt>
<totfact> 0.27482112E+02</totfact>
</mgrwt>
</event>
<event>
 7    1  0.3056193E-009  0.9047755E+02  0.7818608E-02  0.1301699E+00
         -2   -1    0    0    0  501 -0.00000000000E+00  0.00000000000E+00  0.13714878728E+01  0.13714902434E+01  0.25500000000E-02 0.  1.
          2   -1    0    0  501    0  0.00000000000E+00 -0.00000000000E+00 -0.14922080223E+04  0.14922080223E+04  0.25500000000E-02 0. -1.
         23    2    1    2    0    0  0.17763568394E-14  0.00000000000E+00 -0.14908365345E+04  0.14935795126E+04  0.90477554747E+02 0.  0.
    9000005    2    3    3    0    0 -0.12553572529E+02  0.10099033946E+02 -0.14427534482E+04  0.14428689037E+04  0.85777769511E+01 0.  0.
         22    1    3    3    0    0  0.12553572529E+02 -0.10099033946E+02 -0.48083086226E+02  0.50710608859E+02  0.00000000000E+00 0.  1.
         22    1    4    4    0    0 -0.88454897908E+01  0.90112941505E+01 -0.13055030291E+04  0.13055640946E+04  0.00000000000E+00 0.  1.
         22    1    4    4    0    0 -0.37080827383E+01  0.10877397958E+01 -0.13725041914E+03  0.13730480912E+03  0.00000000000E+00 0.  1.
<mgrwt>
<rscale>  0 0.90477555E+02</rscale>
<asrwt>0</asrwt>
<pdfrwt beam="2">  1        2 0.22956917E+00 0.90477555E+02</pdfrwt>
<pdfrwt beam="1">  1       -2 0.21099951E-03 0.90477555E+02</pdfrwt>
<totfact> 0.24127045E+05</totfact>
</mgrwt>
</event>
<event>
 7    1  0.3056193E-009  0.8400365E+02  0.7818608E-02  0.1318059E+00
         -2   -1    0    0    0  501 -0.00000000000E+00  0.00000000000E+00  0.10815710256E+02  0.10815710556E+02  0.25500000000E-02 0.  1.
          2   -1    0    0  501    0  0.00000000000E+00 -0.00000000000E+00 -0.16311025443E+03  0.16311025445E+03  0.25500000000E-02 0. -1.
         23    2    1    2    0    0  0.00000000000E+00  0.00000000000E+00 -0.15229454417E+03  0.17392596501E+03  0.84003649433E+02 0.  0.
    9000005    2    3    3    0    0 -0.57547786121E+01 -0.21726368043E+02 -0.14922133427E+03  0.15124123084E+03  0.10087158038E+02 0.  0.
         22    1    3    3    0    0  0.57547786121E+01  0.21726368043E+02 -0.30732098991E+01  0.22684734168E+02  0.00000000000E+00 0.  1.
         22    1    4    4    0    0 -0.33700182510E+01 -0.39053363229E+01 -0.15972090048E+02  0.16784407506E+02  0.00000000000E+00 0. -1.
         22    1    4    4    0    0 -0.23847603610E+01 -0.17821031720E+02 -0.13324924423E+03  0.13445682333E+03  0.00000000000E+00 0. -1.
<mgrwt>
<rscale>  0 0.84003649E+02</rscale>
<asrwt>0</asrwt>
<pdfrwt beam="2">  1        2 0.25093884E-01 0.84003649E+02</pdfrwt>
<pdfrwt beam="1">  1       -2 0.16639556E-02 0.84003649E+02</pdfrwt>
<totfact> 0.17939877E+05</totfact>
</mgrwt>
</event>
<event>
 7    1  0.3056193E-009  0.9331399E+02  0.7818608E-02  0.1295019E+00
          2   -1    0    0  501    0  0.00000000000E+00  0.00000000000E+00  0.40405180928E+03  0.40405180929E+03  0.25500000000E-02 0. -1.
         -2   -1    0    0    0  501 -0.00000000000E+00 -0.00000000000E+00 -0.53876142305E+01  0.53876148339E+01  0.25500000000E-02 0.  1.
         23    2    1    2    0    0  0.00000000000E+00 -0.44408920985E-15  0.39866419505E+03  0.40943942413E+03  0.93313994722E+02 0.  0.
    9000005    2    3    3    0    0 -0.37483505966E+02 -0.34386894168E+01  0.31885863249E+03  0.32120243857E+03  0.91291414674E+01 0.  0.
         22    1    3    3    0    0  0.37483505966E+02  0.34386894168E+01  0.79805562564E+02  0.88236985559E+02  0.00000000000E+00 0. -1.
         22    1    4    4    0    0 -0.23770579679E+02  0.22543630757E+01  0.19358466602E+03  0.19505164837E+03  0.00000000000E+00 0. -1.
         22    1    4    4    0    0 -0.13712926286E+02 -0.56930524925E+01  0.12527396647E+03  0.12615079020E+03  0.00000000000E+00 0. -1.
<mgrwt>
<rscale>  0 0.93313995E+02</rscale>
<asrwt>0</asrwt>
<pdfrwt beam="1">  1        2 0.62161795E-01 0.93313995E+02</pdfrwt>
<pdfrwt beam="2">  1       -2 0.82886406E-03 0.93313995E+02</pdfrwt>
<totfact> 0.18837409E+05</totfact>
</mgrwt>
</event>
<event>
 7    1  0.3056193E-009  0.9238398E+02  0.7818608E-02  0.1297179E+00
          2   -1    0    0  501    0  0.00000000000E+00  0.00000000000E+00  0.16152282626E+02  0.16152282828E+02  0.25500000000E-02 0. -1.
         -2   -1    0    0    0  501 -0.00000000000E+00 -0.00000000000E+00 -0.13209898157E+03  0.13209898160E+03  0.25500000000E-02 0.  1.
         23    2    1    2    0    0  0.88817841970E-15  0.00000000000E+00 -0.11594669895E+03  0.14825126443E+03  0.92383983499E+02 0.  0.
    9000005    2    3    3    0    0 -0.48201637249E+01 -0.19965017699E+02  0.80193306272E+01  0.22595335801E+02  0.49400026550E+01 0.  0.
         22    1    3    3    0    0  0.48201637249E+01  0.19965017699E+02 -0.12396602957E+03  0.12565592862E+03  0.00000000000E+00 0.  1.
         22    1    4    4    0    0 -0.17617904883E+01 -0.15917807273E+02  0.55148044200E+01  0.16937932633E+02  0.00000000000E+00 0.  1.
         22    1    4    4    0    0 -0.30583732366E+01 -0.40472104259E+01  0.25045262072E+01  0.56574031682E+01  0.00000000000E+00 0.  1.
<mgrwt>
<rscale>  0 0.92383983E+02</rscale>
<asrwt>0</asrwt>
<pdfrwt beam="1">  1        2 0.24849667E-02 0.92383983E+02</pdfrwt>
<pdfrwt beam="2">  1       -2 0.20322920E-01 0.92383983E+02</pdfrwt>
<totfact> 0.70666994E+04</totfact>
</mgrwt>
</event>
<event>
 7    1  0.3056193E-009  0.8744371E+02  0.7818608E-02  0.1309163E+00
         -2   -1    0    0    0  501 -0.00000000000E+00  0.00000000000E+00  0.74850534734E+02  0.74850534777E+02  0.25500000000E-02 0.  1.
          2   -1    0    0  501    0  0.00000000000E+00 -0.00000000000E+00 -0.25538905786E+02  0.25538905914E+02  0.25500000000E-02 0. -1.
         23    2    1    2    0    0  0.00000000000E+00  0.00000000000E+00  0.49311628947E+02  0.10038944069E+03  0.87443713626E+02 0.  0.
    9000005    2    3    3    0    0  0.28723521052E+02  0.18792161654E+02 -0.54151399047E+01  0.35789090613E+02  0.85644185701E+01 0.  0.
         22    1    3    3    0    0 -0.28723521052E+02 -0.18792161654E+02  0.54726768852E+02  0.64600350078E+02  0.00000000000E+00 0.  1.
         22    1    4    4    0    0  0.18836935921E+02  0.92397012547E+01  0.87600848124E-01  0.20981179855E+02  0.00000000000E+00 0. -1.
         22    1    4    4    0    0  0.98865851302E+01  0.95524603996E+01 -0.55027407528E+01  0.14807910758E+02  0.00000000000E+00 0. -1.
<mgrwt>
<rscale>  0 0.87443714E+02</rscale>
<asrwt>0</asrwt>
<pdfrwt beam="2">  1        2 0.39290625E-02 0.87443714E+02</pdfrwt>
<pdfrwt beam="1">  1       -2 0.11515467E-01 0.87443714E+02</pdfrwt>
<totfact> 0.95973281E+04</totfact>
</mgrwt>
</event>
<event>
 7    1  0.3056193E-009  0.9175549E+02  0.7818608E-02  0.1298655E+00
         -2   -1    0    0    0  501 -0.00000000000E+00  0.00000000000E+00  0.59851575558E+02  0.59851575612E+02  0.25500000000E-02 0.  1.
          2   -1    0    0  501    0  0.00000000000E+00 -0.00000000000E+00 -0.35166454308E+02  0.35166454400E+02  0.25500000000E-02 0. -1.
         23    2    1    2    0    0  0.00000000000E+00  0.00000000000E+00  0.24685121250E+02  0.95018030013E+02  0.91755494747E+02 0.  0.
    9000005    2    3    3    0    0 -0.25970430851E+02 -0.19829935929E+02 -0.19561421416E+02  0.40013974021E+02  0.12279221130E+02 0.  0.
         22    1    3    3    0    0  0.25970430851E+02  0.19829935929E+02  0.44246542667E+02  0.55004055992E+02  0.00000000000E+00 0.  1.
         22    1    4    4    0    0 -0.13264694963E+02 -0.28636345434E+01 -0.93980444495E+01  0.16506840241E+02  0.00000000000E+00 0.  1.
         22    1    4    4    0    0 -0.12705735888E+02 -0.16966301386E+02 -0.10163376967E+02  0.23507133780E+02  0.00000000000E+00 0.  1.
<mgrwt>
<rscale>  0 0.91755495E+02</rscale>
<asrwt>0</asrwt>
<pdfrwt beam="2">  1        2 0.54102237E-02 0.91755495E+02</pdfrwt>
<pdfrwt beam="1">  1       -2 0.92079347E-02 0.91755495E+02</pdfrwt>
<totfact> 0.90556525E+04</totfact>
</mgrwt>
</event>
<event>
 7    1  0.3896247E-009  0.8859073E+02  0.7818608E-02  0.1306301E+00
         -2   -1    0    0    0  501 -0.00000000000E+00  0.00000000000E+00  0.48468120402E+02  0.48468120469E+02  0.25500000000E-02 0. -1.
          2   -1    0    0  501    0  0.00000000000E+00 -0.00000000000E+00 -0.40481851175E+02  0.40481851255E+02  0.25500000000E-02 0.  1.
         23    2    1    2    0    0  0.00000000000E+00  0.00000000000E+00  0.79862692270E+01  0.88949971724E+02  0.88590727357E+02 0.  0.
    9000005    2    3    3    0    0  0.13603725191E+02  0.34048927895E+02  0.26735261378E+02  0.47768476650E+02  0.14921874232E+02 0.  0.
         22    1    3    3    0    0 -0.13603725191E+02 -0.34048927895E+02 -0.18748992151E+02  0.41181495075E+02  0.00000000000E+00 0.  1.
         22    1    4    4    0    0  0.96334397114E+01  0.15905333935E+02  0.21594049699E+02  0.28497118989E+02  0.00000000000E+00 0. -1.
         22    1    4    4    0    0  0.39702854800E+01  0.18143593960E+02  0.51412116794E+01  0.19271357661E+02  0.00000000000E+00 0. -1.
<mgrwt>
<rscale>  0 0.88590727E+02</rscale>
<asrwt>0</asrwt>
<pdfrwt beam="2">  1        2 0.62279771E-02 0.88590727E+02</pdfrwt>
<pdfrwt beam="1">  1       -2 0.74566339E-02 0.88590727E+02</pdfrwt>
<totfact> 0.10395993E+05</totfact>
</mgrwt>
</event>
<event>
 7    1  0.3056193E-009  0.9097583E+02  0.7818608E-02  0.1300506E+00
         -2   -1    0    0    0  501 -0.00000000000E+00  0.00000000000E+00  0.49214757244E+02  0.49214757310E+02  0.25500000000E-02 0.  1.
          2   -1    0    0  501    0  0.00000000000E+00 -0.00000000000E+00 -0.42043289849E+02  0.42043289927E+02  0.25500000000E-02 0. -1.
         23    2    1    2    0    0  0.00000000000E+00  0.00000000000E+00  0.71714673951E+01  0.91258047237E+02  0.90975827784E+02 0.  0.
    9000005    2    3    3    0    0  0.34252598621E+02 -0.18412574119E+02  0.24595912345E+02  0.48644966149E+02  0.15783232545E+02 0.  0.
         22    1    3    3    0    0 -0.34252598621E+02  0.18412574119E+02 -0.17424444950E+02  0.42613081088E+02  0.00000000000E+00 0.  1.
         22    1    4    4    0    0  0.30470939259E+02 -0.89975163156E+01  0.19654378138E+02  0.37359443507E+02  0.00000000000E+00 0. -1.
         22    1    4    4    0    0  0.37816593619E+01 -0.94150578037E+01  0.49415342071E+01  0.11285522642E+02  0.00000000000E+00 0. -1.
<mgrwt>
<rscale>  0 0.90975828E+02</rscale>
<asrwt>0</asrwt>
<pdfrwt beam="2">  1        2 0.64681985E-02 0.90975828E+02</pdfrwt>
<pdfrwt beam="1">  1       -2 0.75715011E-02 0.90975828E+02</pdfrwt>
<totfact> 0.97243881E+04</totfact>
</mgrwt>
</event>
<event>
 7    1  0.3056193E-009  0.9120866E+02  0.7818608E-02  0.1299951E+00
         -2   -1    0    0    0  501 -0.00000000000E+00  0.00000000000E+00  0.11572262067E+02  0.11572262348E+02  0.25500000000E-02 0. -1.
          2   -1    0    0  501    0  0.00000000000E+00 -0.00000000000E+00 -0.17971897386E+03  0.17971897388E+03  0.25500000000E-02 0.  1.
         23    2    1    2    0    0  0.00000000000E+00  0.00000000000E+00 -0.16814671179E+03  0.19129123623E+03  0.91208663899E+02 0.  0.
    9000005    2    3    3    0    0 -0.20630226776E+02 -0.10478805057E+02 -0.16612324713E+03  0.16806396731E+03  0.10637305037E+02 0.  0.
         22    1    3    3    0    0  0.20630226776E+02  0.10478805057E+02 -0.20234646666E+01  0.23227268921E+02  0.00000000000E+00 0. -1.
         22    1    4    4    0    0 -0.59910449305E+01 -0.87895007993E+01 -0.62641082182E+02  0.63537808592E+02  0.00000000000E+00 0. -1.
         22    1    4    4    0    0 -0.14639181845E+02 -0.16893042575E+01 -0.10348216495E+03  0.10452615872E+03  0.00000000000E+00 0. -1.
<mgrwt>
<rscale>  0 0.91208664E+02</rscale>
<asrwt>0</asrwt>
<pdfrwt beam="2">  1        2 0.27649071E-01 0.91208664E+02</pdfrwt>
<pdfrwt beam="1">  1       -2 0.17803482E-02 0.91208664E+02</pdfrwt>
<totfact> 0.14872361E+05</totfact>
</mgrwt>
</event>
<event>
 7    1  0.3056193E-009  0.9067013E+02  0.7818608E-02  0.1301237E+00
          2   -1    0    0  501    0  0.00000000000E+00  0.00000000000E+00  0.32472270485E+03  0.32472270486E+03  0.25500000000E-02 0. -1.
         -2   -1    0    0    0  501 -0.00000000000E+00 -0.00000000000E+00 -0.63293018356E+01  0.63293023493E+01  0.25500000000E-02 0.  1.
         23    2    1    2    0    0 -0.35527136788E-14  0.00000000000E+00  0.31839340301E+03  0.33105200721E+03  0.90670129559E+02 0.  0.
    9000005    2    3    3    0    0 -0.22104866714E+02 -0.37427457336E+02  0.13557498003E+03  0.14313709169E+03  0.14772004263E+02 0.  0.
         22    1    3    3    0    0  0.22104866714E+02  0.37427457336E+02  0.18281842298E+03  0.18791491552E+03  0.00000000000E+00 0. -1.
         22    1    4    4    0    0 -0.72121805855E+01 -0.26025999222E+02  0.74313328166E+02  0.79068571047E+02  0.00000000000E+00 0.  1.
         22    1    4    4    0    0 -0.14892686129E+02 -0.11401458114E+02  0.61261651867E+02  0.64068520638E+02  0.00000000000E+00 0.  1.
<mgrwt>
<rscale>  0 0.90670130E+02</rscale>
<asrwt>0</asrwt>
<pdfrwt beam="1">  1        2 0.49957347E-01 0.90670130E+02</pdfrwt>
<pdfrwt beam="2">  1       -2 0.97373864E-03 0.90670130E+02</pdfrwt>
<totfact> 0.18778690E+05</totfact>
</mgrwt>
</event>
<event>
 7    1  0.3056193E-009  0.9187508E+02  0.7818608E-02  0.1298373E+00
         -2   -1    0    0    0  501 -0.00000000000E+00  0.00000000000E+00  0.74079171897E+02  0.74079171941E+02  0.25500000000E-02 0.  1.
          2   -1    0    0  501    0  0.00000000000E+00 -0.00000000000E+00 -0.28486515940E+02  0.28486516054E+02  0.25500000000E-02 0. -1.
         23    2    1    2    0    0  0.00000000000E+00  0.00000000000E+00  0.45592655957E+02  0.10256568799E+03  0.91875078648E+02 0.  0.
    9000005    2    3    3    0    0  0.90356297544E+01  0.39126445519E+02  0.31356077502E+00  0.42045296353E+02  0.12457418714E+02 0.  0.
         22    1    3    3    0    0 -0.90356297544E+01 -0.39126445519E+02  0.45279095182E+02  0.60520391642E+02  0.00000000000E+00 0.  1.
         22    1    4    4    0    0  0.39430604836E+01  0.69517784094E+01 -0.44120188197E+01  0.91291214854E+01  0.00000000000E+00 0.  1.
         22    1    4    4    0    0  0.50925692708E+01  0.32174667110E+02  0.47255795947E+01  0.32916174867E+02  0.00000000000E+00 0.  1.
<mgrwt>
<rscale>  0 0.91875079E+02</rscale>
<asrwt>0</asrwt>
<pdfrwt beam="2">  1        2 0.43825410E-02 0.91875079E+02</pdfrwt>
<pdfrwt beam="1">  1       -2 0.11396795E-01 0.91875079E+02</pdfrwt>
<totfact> 0.85279282E+04</totfact>
</mgrwt>
</event>
<event>
 7    1  0.3056193E-009  0.9164971E+02  0.7818608E-02  0.1298905E+00
         -2   -1    0    0    0  501 -0.00000000000E+00  0.00000000000E+00  0.82936116991E+01  0.82936120911E+01  0.25500000000E-02 0.  1.
          2   -1    0    0  501    0  0.00000000000E+00 -0.00000000000E+00 -0.25319697234E+03  0.25319697235E+03  0.25500000000E-02 0. -1.
         23    2    1    2    0    0  0.00000000000E+00  0.00000000000E+00 -0.24490336064E+03  0.26149058444E+03  0.91649711945E+02 0.  0.
    9000005    2    3    3    0    0  0.41197972560E+02  0.16314871408E+02 -0.15558317991E+03  0.16178329957E+03  0.20645036181E+01 0.  0.
         22    1    3    3    0    0 -0.41197972560E+02 -0.16314871408E+02 -0.89320180729E+02  0.99707284877E+02  0.00000000000E+00 0.  1.
         22    1    4    4    0    0  0.11346000901E+02  0.47495204384E+01 -0.46512832474E+02  0.48111674940E+02  0.00000000000E+00 0. -1.
         22    1    4    4    0    0  0.29851971659E+02  0.11565350970E+02 -0.10907034744E+03  0.11367162463E+03  0.00000000000E+00 0. -1.
<mgrwt>
<rscale>  0 0.91649712E+02</rscale>
<asrwt>0</asrwt>
<pdfrwt beam="2">  1        2 0.38953374E-01 0.91649712E+02</pdfrwt>
<pdfrwt beam="1">  1       -2 0.12759405E-02 0.91649712E+02</pdfrwt>
<totfact> 0.16632993E+05</totfact>
</mgrwt>
</event>
<event>
 7    1  0.3056193E-009  0.9094670E+02  0.7818608E-02  0.1300575E+00
          2   -1    0    0  501    0  0.00000000000E+00  0.00000000000E+00  0.21587857215E+02  0.21587857365E+02  0.25500000000E-02 0. -1.
         -2   -1    0    0    0  501 -0.00000000000E+00 -0.00000000000E+00 -0.95786520375E+02  0.95786520409E+02  0.25500000000E-02 0.  1.
         23    2    1    2    0    0  0.00000000000E+00  0.00000000000E+00 -0.74198663161E+02  0.11737437777E+03  0.90946703861E+02 0.  0.
    9000005    2    3    3    0    0 -0.41196449363E+02 -0.97907231831E+01 -0.54064417522E+02  0.70487348139E+02  0.15890226719E+02 0.  0.
         22    1    3    3    0    0  0.41196449363E+02  0.97907231831E+01 -0.20134245639E+02  0.46887029635E+02  0.00000000000E+00 0.  1.
         22    1    4    4    0    0 -0.25203992387E+02 -0.12248640679E+02 -0.26751898594E+02  0.38741896044E+02  0.00000000000E+00 0. -1.
         22    1    4    4    0    0 -0.15992456976E+02  0.24579174954E+01 -0.27312518928E+02  0.31745452095E+02  0.00000000000E+00 0. -1.
<mgrwt>
<rscale>  0 0.90946704E+02</rscale>
<asrwt>0</asrwt>
<pdfrwt beam="1">  1        2 0.33212089E-02 0.90946704E+02</pdfrwt>
<pdfrwt beam="2">  1       -2 0.14736388E-01 0.90946704E+02</pdfrwt>
<totfact> 0.81338300E+04</totfact>
</mgrwt>
</event>
<event>
 7    1  0.3056193E-009  0.9243467E+02  0.7818608E-02  0.1297061E+00
         -2   -1    0    0    0  501 -0.00000000000E+00  0.00000000000E+00  0.20849444532E+02  0.20849444688E+02  0.25500000000E-02 0. -1.
          2   -1    0    0  501    0  0.00000000000E+00 -0.00000000000E+00 -0.10245078813E+03  0.10245078816E+03  0.25500000000E-02 0.  1.
         23    2    1    2    0    0  0.35527136788E-14  0.00000000000E+00 -0.81601343596E+02  0.12330023285E+03  0.92434669598E+02 0.  0.
    9000005    2    3    3    0    0  0.21141441042E+02  0.90576162514E+01 -0.94176365777E+02  0.97087027696E+02  0.52632817028E+01 0.  0.
         22    1    3    3    0    0 -0.21141441042E+02 -0.90576162514E+01  0.12575022181E+02  0.26213205152E+02  0.00000000000E+00 0. -1.
         22    1    4    4    0    0  0.79088338087E+01  0.19181435149E+01 -0.24840655163E+02  0.26139760437E+02  0.00000000000E+00 0.  1.
         22    1    4    4    0    0  0.13232607233E+02  0.71394727364E+01 -0.69335710614E+02  0.70947267259E+02  0.00000000000E+00 0.  1.
<mgrwt>
<rscale>  0 0.92434670E+02</rscale>
<asrwt>0</asrwt>
<pdfrwt beam="2">  1        2 0.15761659E-01 0.92434670E+02</pdfrwt>
<pdfrwt beam="1">  1       -2 0.32076069E-02 0.92434670E+02</pdfrwt>
<totfact> 0.11900801E+05</totfact>
</mgrwt>
</event>
<event>
 7    1  0.3056193E-009  0.8714580E+02  0.7818608E-02  0.1309915E+00
         -2   -1    0    0    0  501 -0.00000000000E+00  0.00000000000E+00  0.16404491402E+02  0.16404491600E+02  0.25500000000E-02 0.  1.
          2   -1    0    0  501    0  0.00000000000E+00 -0.00000000000E+00 -0.11573644071E+03  0.11573644074E+03  0.25500000000E-02 0. -1.
         23    2    1    2    0    0  0.17763568394E-14 -0.35527136788E-14 -0.99331949306E+02  0.13214093234E+03  0.87145796489E+02 0.  0.
    9000005    2    3    3    0    0  0.15229350372E+02 -0.29764567580E+02 -0.78526753756E+01  0.34743190294E+02  0.52499681209E+01 0.  0.
         22    1    3    3    0    0 -0.15229350372E+02  0.29764567580E+02 -0.91479273931E+02  0.97397742042E+02  0.00000000000E+00 0. -1.
         22    1    4    4    0    0  0.63883055556E+01 -0.15347056452E+02 -0.15542286736E+01  0.16696053916E+02  0.00000000000E+00 0.  1.
         22    1    4    4    0    0  0.88410448162E+01 -0.14417511129E+02 -0.62984467020E+01  0.18047136378E+02  0.00000000000E+00 0.  1.
<mgrwt>
<rscale>  0 0.87145796E+02</rscale>
<asrwt>0</asrwt>
<pdfrwt beam="2">  1        2 0.17805606E-01 0.87145796E+02</pdfrwt>
<pdfrwt beam="1">  1       -2 0.25237680E-02 0.87145796E+02</pdfrwt>
<totfact> 0.14522206E+05</totfact>
</mgrwt>
</event>
<event>
 7    1  0.3056193E-009  0.8806232E+02  0.7818608E-02  0.1307613E+00
          2   -1    0    0  501    0  0.00000000000E+00  0.00000000000E+00  0.31558208140E+02  0.31558208243E+02  0.25500000000E-02 0. -1.
         -2   -1    0    0    0  501 -0.00000000000E+00 -0.00000000000E+00 -0.61433870677E+02  0.61433870729E+02  0.25500000000E-02 0.  1.
         23    2    1    2    0    0  0.00000000000E+00  0.00000000000E+00 -0.29875662536E+02  0.92992078973E+02  0.88062316229E+02 0.  0.
    9000005    2    3    3    0    0 -0.19184763373E+02 -0.23368356576E+02  0.16805916626E+02  0.37374590106E+02  0.14152240714E+02 0.  0.
         22    1    3    3    0    0  0.19184763373E+02  0.23368356576E+02 -0.46681579163E+02  0.55617488867E+02  0.00000000000E+00 0.  1.
         22    1    4    4    0    0 -0.12038532073E+02 -0.16247717342E+02  0.18181016396E+02  0.27193086079E+02  0.00000000000E+00 0.  1.
         22    1    4    4    0    0 -0.71462312998E+01 -0.71206392334E+01 -0.13750997693E+01  0.10181504027E+02  0.00000000000E+00 0.  1.
<mgrwt>
<rscale>  0 0.88062316E+02</rscale>
<asrwt>0</asrwt>
<pdfrwt beam="1">  1        2 0.48551090E-02 0.88062316E+02</pdfrwt>
<pdfrwt beam="2">  1       -2 0.94513647E-02 0.88062316E+02</pdfrwt>
<totfact> 0.99309753E+04</totfact>
</mgrwt>
</event>
<event>
 7    1  0.3056193E-009  0.8986765E+02  0.7818608E-02  0.1303173E+00
          2   -1    0    0  501    0  0.00000000000E+00  0.00000000000E+00  0.17189693862E+02  0.17189694051E+02  0.25500000000E-02 0.  1.
         -2   -1    0    0    0  501 -0.00000000000E+00 -0.00000000000E+00 -0.11745693240E+03  0.11745693243E+03  0.25500000000E-02 0. -1.
         23    2    1    2    0    0  0.00000000000E+00 -0.17763568394E-14 -0.10026723854E+03  0.13464662648E+03  0.89867652122E+02 0.  0.
    9000005    2    3    3    0    0  0.37571091704E+02 -0.12543929671E+02 -0.23044772789E+02  0.47858111572E+02  0.13798557421E+02 0.  0.
         22    1    3    3    0    0 -0.37571091704E+02  0.12543929671E+02 -0.77222465749E+02  0.86788514907E+02  0.00000000000E+00 0. -1.
         22    1    4    4    0    0  0.64685007890E+01 -0.23202493671E+01  0.13825542180E+01  0.70097443425E+01  0.00000000000E+00 0. -1.
         22    1    4    4    0    0  0.31102590915E+02 -0.10223680304E+02 -0.24427327007E+02  0.40848367229E+02  0.00000000000E+00 0. -1.
<mgrwt>
<rscale>  0 0.89867652E+02</rscale>
<asrwt>0</asrwt>
<pdfrwt beam="1">  1        2 0.26445684E-02 0.89867652E+02</pdfrwt>
<pdfrwt beam="2">  1       -2 0.18070297E-01 0.89867652E+02</pdfrwt>
<totfact> 0.78740141E+04</totfact>
</mgrwt>
</event>
<event>
 7    1  0.3056193E-009  0.9107857E+02  0.7818608E-02  0.1300261E+00
         -2   -1    0    0    0  501 -0.00000000000E+00  0.00000000000E+00  0.67974882046E+01  0.67974886829E+01  0.25500000000E-02 0.  1.
          2   -1    0    0  501    0  0.00000000000E+00 -0.00000000000E+00 -0.30508715195E+03  0.30508715196E+03  0.25500000000E-02 0. -1.
         23    2    1    2    0    0  0.00000000000E+00 -0.35527136788E-14 -0.29828966374E+03  0.31188464064E+03  0.91078568126E+02 0.  0.
    9000005    2    3    3    0    0  0.27969519358E+02  0.30422077341E+02 -0.21236225250E+03  0.21653624367E+03  0.90786414736E+01 0.  0.
         22    1    3    3    0    0 -0.27969519358E+02 -0.30422077341E+02 -0.85927411239E+02  0.95348396972E+02  0.00000000000E+00 0.  1.
         22    1    4    4    0    0  0.33435525635E+01  0.83326964178E+01 -0.55732650552E+02  0.56451231261E+02  0.00000000000E+00 0.  1.
         22    1    4    4    0    0  0.24625966794E+02  0.22089380923E+02 -0.15662960195E+03  0.16008501241E+03  0.00000000000E+00 0.  1.
<mgrwt>
<rscale>  0 0.91078568E+02</rscale>
<asrwt>0</asrwt>
<pdfrwt beam="2">  1        2 0.46936474E-01 0.91078568E+02</pdfrwt>
<pdfrwt beam="1">  1       -2 0.10457677E-02 0.91078568E+02</pdfrwt>
<totfact> 0.18130914E+05</totfact>
</mgrwt>
</event>
<event>
 7    1  0.3056193E-009  0.9339006E+02  0.7818608E-02  0.1294844E+00
         -2   -1    0    0    0  501 -0.00000000000E+00  0.00000000000E+00  0.16161615918E+01  0.16161636035E+01  0.25500000000E-02 0. -1.
          2   -1    0    0  501    0  0.00000000000E+00 -0.00000000000E+00 -0.13491377852E+04  0.13491377852E+04  0.25500000000E-02 0.  1.
         23    2    1    2    0    0  0.00000000000E+00  0.00000000000E+00 -0.13475216236E+04  0.13507539488E+04  0.93390064371E+02 0.  0.
    9000005    2    3    3    0    0  0.21975248192E+02  0.81033640183E+01 -0.12556246000E+04  0.12559191504E+04  0.13827514759E+02 0.  0.
         22    1    3    3    0    0 -0.21975248192E+02 -0.81033640183E+01 -0.91897023625E+02  0.94834798427E+02  0.00000000000E+00 0. -1.
         22    1    4    4    0    0  0.12400764475E+02 -0.22741762642E+01 -0.70976893163E+03  0.70988089645E+03  0.00000000000E+00 0.  1.
         22    1    4    4    0    0  0.95744837175E+01  0.10377540283E+02 -0.54585566839E+03  0.54603825397E+03  0.00000000000E+00 0.  1.
<mgrwt>
<rscale>  0 0.93390064E+02</rscale>
<asrwt>0</asrwt>
<pdfrwt beam="2">  1        2 0.20755876E+00 0.93390064E+02</pdfrwt>
<pdfrwt beam="1">  1       -2 0.24864148E-03 0.93390064E+02</pdfrwt>
<totfact> 0.22880271E+05</totfact>
</mgrwt>
</event>
<event>
 7    1  0.3056193E-009  0.8833982E+02  0.7818608E-02  0.1306923E+00
         -2   -1    0    0    0  501 -0.00000000000E+00  0.00000000000E+00  0.77388991131E+01  0.77388995332E+01  0.25500000000E-02 0.  1.
          2   -1    0    0  501    0  0.00000000000E+00 -0.00000000000E+00 -0.25210057666E+03  0.25210057668E+03  0.25500000000E-02 0. -1.
         23    2    1    2    0    0  0.00000000000E+00  0.00000000000E+00 -0.24436167755E+03  0.25983947621E+03  0.88339820815E+02 0.  0.
    9000005    2    3    3    0    0 -0.57229958022E+01 -0.23132284892E+02 -0.23102125062E+03  0.23252972930E+03  0.11463048776E+02 0.  0.
         22    1    3    3    0    0  0.57229958022E+01  0.23132284892E+02 -0.13340426929E+02  0.27309746904E+02  0.00000000000E+00 0.  1.
         22    1    4    4    0    0  0.25758800890E+01 -0.70613925888E+01 -0.97446540578E+02  0.97736005106E+02  0.00000000000E+00 0. -1.
         22    1    4    4    0    0 -0.82988758912E+01 -0.16070892304E+02 -0.13357471004E+03  0.13479372420E+03  0.00000000000E+00 0. -1.
<mgrwt>
<rscale>  0 0.88339821E+02</rscale>
<asrwt>0</asrwt>
<pdfrwt beam="2">  1        2 0.38784698E-01 0.88339821E+02</pdfrwt>
<pdfrwt beam="1">  1       -2 0.11906001E-02 0.88339821E+02</pdfrwt>
<totfact> 0.18321578E+05</totfact>
</mgrwt>
</event>
<event>
 7    1  0.3056193E-009  0.9784288E+02  0.7818608E-02  0.1284899E+00
          2   -1    0    0  501    0  0.00000000000E+00  0.00000000000E+00  0.15612752012E+02  0.15612752221E+02  0.25500000000E-02 0. -1.
         -2   -1    0    0    0  501 -0.00000000000E+00 -0.00000000000E+00 -0.15329183652E+03  0.15329183654E+03  0.25500000000E-02 0.  1.
         23    2    1    2    0    0  0.71054273576E-14 -0.44408920985E-15 -0.13767908450E+03  0.16890458876E+03  0.97842883204E+02 0.  0.
    9000005    2    3    3    0    0 -0.48428683474E+02  0.21747742142E+01 -0.59732276482E+02  0.77112585257E+02  0.53234317291E+01 0.  0.
         22    1    3    3    0    0  0.48428683474E+02 -0.21747742142E+01 -0.77946808021E+02  0.91792003500E+02  0.00000000000E+00 0.  1.
         22    1    4    4    0    0 -0.47554953592E+02  0.24783604172E+01 -0.59396453414E+02  0.76128539718E+02  0.00000000000E+00 0.  1.
         22    1    4    4    0    0 -0.87372988193E+00 -0.30358620300E+00 -0.33582306854E+00  0.98404553889E+00  0.00000000000E+00 0.  1.
<mgrwt>
<rscale>  0 0.97842883E+02</rscale>
<asrwt>0</asrwt>
<pdfrwt beam="1">  1        2 0.24019620E-02 0.97842883E+02</pdfrwt>
<pdfrwt beam="2">  1       -2 0.23583358E-01 0.97842883E+02</pdfrwt>
<totfact> 0.57947617E+04</totfact>
</mgrwt>
</event>
<event>
 7    1  0.3056193E-009  0.1003654E+03  0.7818608E-02  0.1279529E+00
         -2   -1    0    0    0  501 -0.00000000000E+00  0.00000000000E+00  0.42402389609E+02  0.42402389685E+02  0.25500000000E-02 0.  1.
          2   -1    0    0  501    0  0.00000000000E+00 -0.00000000000E+00 -0.59390565937E+02  0.59390565992E+02  0.25500000000E-02 0. -1.
         23    2    1    2    0    0  0.00000000000E+00  0.35527136788E-14 -0.16988176329E+02  0.10179295568E+03  0.10036537097E+03 0.  0.
    9000005    2    3    3    0    0 -0.85996375326E+01  0.27177656144E+02 -0.49918285407E+02  0.58238726915E+02  0.93453376359E+01 0.  0.
         22    1    3    3    0    0  0.85996375326E+01 -0.27177656144E+02  0.32930109078E+02  0.43554228762E+02  0.00000000000E+00 0.  1.
         22    1    4    4    0    0  0.61412469414E+00  0.12893817001E+02 -0.23830287516E+02  0.27101849920E+02  0.00000000000E+00 0.  1.
         22    1    4    4    0    0 -0.92137622267E+01  0.14283839144E+02 -0.26087997891E+02  0.31136876995E+02  0.00000000000E+00 0.  1.
<mgrwt>
<rscale>  0 0.10036537E+03</rscale>
<asrwt>0</asrwt>
<pdfrwt beam="2">  1        2 0.91370102E-02 0.10036537E+03</pdfrwt>
<pdfrwt beam="1">  1       -2 0.65234446E-02 0.10036537E+03</pdfrwt>
<totfact> 0.80458697E+04</totfact>
</mgrwt>
</event>
<event>
 7    1  0.3056193E-009  0.9297912E+02  0.7818608E-02  0.1295794E+00
          2   -1    0    0  501    0  0.00000000000E+00  0.00000000000E+00  0.21286553789E+03  0.21286553790E+03  0.25500000000E-02 0. -1.
         -2   -1    0    0    0  501 -0.00000000000E+00 -0.00000000000E+00 -0.10153260504E+02  0.10153260824E+02  0.25500000000E-02 0.  1.
         23    2    1    2    0    0  0.00000000000E+00  0.00000000000E+00  0.20271227738E+03  0.22301879873E+03  0.92979122300E+02 0.  0.
    9000005    2    3    3    0    0  0.26020645697E+02 -0.38106952617E+02  0.11303213878E+03  0.12216374878E+03  0.43015436859E+01 0.  0.
         22    1    3    3    0    0 -0.26020645697E+02  0.38106952617E+02  0.89680138603E+02  0.10085504995E+03  0.00000000000E+00 0.  1.
         22    1    4    4    0    0  0.10887928161E+02 -0.12373873045E+02  0.41336927532E+02  0.44501699873E+02  0.00000000000E+00 0. -1.
         22    1    4    4    0    0  0.15132717536E+02 -0.25733079572E+02  0.71695211249E+02  0.77662048906E+02  0.00000000000E+00 0. -1.
<mgrwt>
<rscale>  0 0.92979122E+02</rscale>
<asrwt>0</asrwt>
<pdfrwt beam="1">  1        2 0.32748542E-01 0.92979122E+02</pdfrwt>
<pdfrwt beam="2">  1       -2 0.15620402E-02 0.92979122E+02</pdfrwt>
<totfact> 0.15009699E+05</totfact>
</mgrwt>
</event>
<event>
 6    1  0.3056193E-009  0.2447187E+03  0.7818608E-02  0.1116689E+00
          2   -1    0    0  501    0  0.00000000000E+00  0.00000000000E+00  0.81314456986E+02  0.81314457026E+02  0.25500000000E-02 0.  1.
         -2   -1    0    0    0  501 -0.00000000000E+00 -0.00000000000E+00 -0.18412236453E+03  0.18412236454E+03  0.25500000000E-02 0. -1.
    9000005    2    1    2    0    0  0.11044906377E+03 -0.50050149819E+02 -0.68756759038E+02  0.13948645874E+03  0.49967062741E+01 0.  0.
         22    1    1    2    0    0 -0.11044906377E+03  0.50050149819E+02 -0.34051148502E+02  0.12595036283E+03  0.00000000000E+00 0.  1.
         22    1    3    3    0    0  0.48954444849E+02 -0.24541312244E+02 -0.29591785633E+02  0.62245380986E+02  0.00000000000E+00 0. -1.
         22    1    3    3    0    0  0.61494618917E+02 -0.25508837575E+02 -0.39164973405E+02  0.77241077750E+02  0.00000000000E+00 0. -1.
<mgrwt>
<rscale>  0 0.24471870E+03</rscale>
<asrwt>0</asrwt>
<pdfrwt beam="1">  1        2 0.12509916E-01 0.24471870E+03</pdfrwt>
<pdfrwt beam="2">  1       -2 0.28326518E-01 0.24471870E+03</pdfrwt>
<totfact> 0.54399818E+03</totfact>
</mgrwt>
</event>
<event>
 7    1  0.3056193E-009  0.9069292E+02  0.7818608E-02  0.1301182E+00
          2   -1    0    0  501    0  0.00000000000E+00  0.00000000000E+00  0.27424285321E+02  0.27424285439E+02  0.25500000000E-02 0. -1.
         -2   -1    0    0    0  501 -0.00000000000E+00 -0.00000000000E+00 -0.74981046560E+02  0.74981046604E+02  0.25500000000E-02 0.  1.
         23    2    1    2    0    0  0.00000000000E+00  0.00000000000E+00 -0.47556761240E+02  0.10240533204E+03  0.90692924152E+02 0.  0.
    9000005    2    3    3    0    0 -0.40076340313E+02  0.43983231445E+01 -0.45682584549E+02  0.62044821173E+02  0.11713368603E+02 0.  0.
         22    1    3    3    0    0  0.40076340313E+02 -0.43983231445E+01 -0.18741766911E+01  0.40360510869E+02  0.00000000000E+00 0. -1.
         22    1    4    4    0    0 -0.22974505959E+02  0.51672724519E+00 -0.17639141115E+02  0.28969539699E+02  0.00000000000E+00 0.  1.
         22    1    4    4    0    0 -0.17101834355E+02  0.38815958993E+01 -0.28043443434E+02  0.33075281475E+02  0.00000000000E+00 0.  1.
<mgrwt>
<rscale>  0 0.90692924E+02</rscale>
<asrwt>0</asrwt>
<pdfrwt beam="1">  1        2 0.42191209E-02 0.90692924E+02</pdfrwt>
<pdfrwt beam="2">  1       -2 0.11535546E-01 0.90692924E+02</pdfrwt>
<totfact> 0.87736375E+04</totfact>
</mgrwt>
</event>
<event>
 7    1  0.3056193E-009  0.9132915E+02  0.7818608E-02  0.1299665E+00
         -2   -1    0    0    0  501 -0.00000000000E+00  0.00000000000E+00  0.17435472180E+01  0.17435490827E+01  0.25500000000E-02 0.  1.
          2   -1    0    0  501    0  0.00000000000E+00 -0.00000000000E+00 -0.11959827268E+04  0.11959827268E+04  0.25500000000E-02 0. -1.
         23    2    1    2    0    0  0.00000000000E+00  0.00000000000E+00 -0.11942391796E+04  0.11977262759E+04  0.91329151412E+02 0.  0.
    9000005    2    3    3    0    0 -0.20234191594E+02 -0.26213018969E+02 -0.10045291357E+04  0.10051478616E+04  0.12120002986E+02 0.  0.
         22    1    3    3    0    0  0.20234191594E+02  0.26213018969E+02 -0.18971004389E+03  0.19257841423E+03  0.00000000000E+00 0.  1.
         22    1    4    4    0    0 -0.20382503557E+02 -0.21897415950E+02 -0.93911108833E+03  0.93958745176E+03  0.00000000000E+00 0.  1.
         22    1    4    4    0    0  0.14831196365E+00 -0.43156030187E+01 -0.65418047345E+02  0.65560409885E+02  0.00000000000E+00 0.  1.
<mgrwt>
<rscale>  0 0.91329151E+02</rscale>
<asrwt>0</asrwt>
<pdfrwt beam="2">  1        2 0.18399669E+00 0.91329151E+02</pdfrwt>
<pdfrwt beam="1">  1       -2 0.26823913E-03 0.91329151E+02</pdfrwt>
<totfact> 0.24768410E+05</totfact>
</mgrwt>
</event>
<event>
 7    1  0.3056193E-009  0.9150920E+02  0.7818608E-02  0.1299238E+00
         -2   -1    0    0    0  501 -0.00000000000E+00  0.00000000000E+00  0.19190849164E+02  0.19190849333E+02  0.25500000000E-02 0.  1.
          2   -1    0    0  501    0  0.00000000000E+00 -0.00000000000E+00 -0.10908758827E+03  0.10908758830E+03  0.25500000000E-02 0. -1.
         23    2    1    2    0    0  0.00000000000E+00 -0.17763568394E-14 -0.89896739110E+02  0.12827843764E+03  0.91509200958E+02 0.  0.
    9000005    2    3    3    0    0  0.41000608919E+02  0.92665049598E+01 -0.19766284065E+02  0.46515372805E+02  0.24608688735E+01 0.  0.
         22    1    3    3    0    0 -0.41000608919E+02 -0.92665049598E+01 -0.70130455045E+02  0.81763064832E+02  0.00000000000E+00 0. -1.
         22    1    4    4    0    0  0.97579627411E+01  0.31234421013E+01 -0.41988819000E+01  0.11072684256E+02  0.00000000000E+00 0. -1.
         22    1    4    4    0    0  0.31242646177E+02  0.61430628585E+01 -0.15567402165E+02  0.35442688549E+02  0.00000000000E+00 0. -1.
<mgrwt>
<rscale>  0 0.91509201E+02</rscale>
<asrwt>0</asrwt>
<pdfrwt beam="2">  1        2 0.16782706E-01 0.91509201E+02</pdfrwt>
<pdfrwt beam="1">  1       -2 0.29524384E-02 0.91509201E+02</pdfrwt>
<totfact> 0.12475656E+05</totfact>
</mgrwt>
</event>
<event>
 7    1  0.3056193E-009  0.9079706E+02  0.7818608E-02  0.1300933E+00
         -2   -1    0    0    0  501 -0.00000000000E+00  0.00000000000E+00  0.50877258197E+02  0.50877258261E+02  0.25500000000E-02 0.  1.
          2   -1    0    0  501    0  0.00000000000E+00 -0.00000000000E+00 -0.40509776498E+02  0.40509776579E+02  0.25500000000E-02 0. -1.
         23    2    1    2    0    0  0.00000000000E+00  0.35527136788E-14  0.10367481698E+02  0.91387034839E+02  0.90797056450E+02 0.  0.
    9000005    2    3    3    0    0 -0.36926363043E+02  0.22088524457E+02 -0.49317837000E+01  0.45719467333E+02  0.14645408922E+02 0.  0.
         22    1    3    3    0    0  0.36926363043E+02 -0.22088524457E+02  0.15299265398E+02  0.45667567506E+02  0.00000000000E+00 0.  1.
         22    1    4    4    0    0 -0.16871556200E+02  0.18062630126E+02 -0.16781931626E+00  0.24717123195E+02  0.00000000000E+00 0. -1.
         22    1    4    4    0    0 -0.20054806843E+02  0.40258943304E+01 -0.47639643837E+01  0.21002344138E+02  0.00000000000E+00 0. -1.
<mgrwt>
<rscale>  0 0.90797056E+02</rscale>
<asrwt>0</asrwt>
<pdfrwt beam="2">  1        2 0.62322733E-02 0.90797056E+02</pdfrwt>
<pdfrwt beam="1">  1       -2 0.78272705E-02 0.90797056E+02</pdfrwt>
<totfact> 0.96863821E+04</totfact>
</mgrwt>
</event>
<event>
 7    1  0.3056193E-009  0.9923692E+02  0.7818608E-02  0.1281909E+00
         -2   -1    0    0    0  501 -0.00000000000E+00  0.00000000000E+00  0.28316822720E+02  0.28316822834E+02  0.25500000000E-02 0.  1.
          2   -1    0    0  501    0  0.00000000000E+00 -0.00000000000E+00 -0.86944483467E+02  0.86944483504E+02  0.25500000000E-02 0. -1.
         23    2    1    2    0    0 -0.17763568394E-14  0.00000000000E+00 -0.58627660747E+02  0.11526130634E+03  0.99236919209E+02 0.  0.
    9000005    2    3    3    0    0  0.14679030325E+02  0.99432969897E+01 -0.82518369632E+02  0.85510523873E+02  0.13726808805E+02 0.  0.
         22    1    3    3    0    0 -0.14679030325E+02 -0.99432969897E+01  0.23890708885E+02  0.29750782466E+02  0.00000000000E+00 0.  1.
         22    1    4    4    0    0  0.12057455830E+02  0.10638439249E+02 -0.80600400865E+02  0.82188705127E+02  0.00000000000E+00 0. -1.
         22    1    4    4    0    0  0.26215744946E+01 -0.69514225961E+00 -0.19179687670E+01  0.33218187463E+01  0.00000000000E+00 0. -1.
<mgrwt>
<rscale>  0 0.99236919E+02</rscale>
<asrwt>0</asrwt>
<pdfrwt beam="2">  1        2 0.13376074E-01 0.99236919E+02</pdfrwt>
<pdfrwt beam="1">  1       -2 0.43564343E-02 0.99236919E+02</pdfrwt>
<totfact> 0.92895069E+04</totfact>
</mgrwt>
</event>
<event>
 7    1  0.3056193E-009  0.8972544E+02  0.7818608E-02  0.1303518E+00
          2   -1    0    0  501    0  0.00000000000E+00  0.00000000000E+00  0.19297135519E+02  0.19297135687E+02  0.25500000000E-02 0. -1.
         -2   -1    0    0    0  501 -0.00000000000E+00 -0.00000000000E+00 -0.10429855863E+03  0.10429855867E+03  0.25500000000E-02 0.  1.
         23    2    1    2    0    0  0.00000000000E+00 -0.17763568394E-14 -0.85001423115E+02  0.12359569435E+03  0.89725435250E+02 0.  0.
    9000005    2    3    3    0    0 -0.18395692900E+02  0.11005607597E+02 -0.95927532388E+02  0.99535254213E+02  0.15673239788E+02 0.  0.
         22    1    3    3    0    0  0.18395692900E+02 -0.11005607597E+02  0.10926109272E+02  0.24060440139E+02  0.00000000000E+00 0. -1.
         22    1    4    4    0    0 -0.29354294459E+01  0.32119580970E+01 -0.37451209100E+01  0.57410235568E+01  0.00000000000E+00 0.  1.
         22    1    4    4    0    0 -0.15460263454E+02  0.77936494997E+01 -0.92182411478E+02  0.93794230657E+02  0.00000000000E+00 0.  1.
<mgrwt>
<rscale>  0 0.89725435E+02</rscale>
<asrwt>0</asrwt>
<pdfrwt beam="1">  1        2 0.29687901E-02 0.89725435E+02</pdfrwt>
<pdfrwt beam="2">  1       -2 0.16045932E-01 0.89725435E+02</pdfrwt>
<totfact> 0.82016692E+04</totfact>
</mgrwt>
</event>
<event>
 7    1  0.3056193E-009  0.9044356E+02  0.7818608E-02  0.1301781E+00
          2   -1    0    0  501    0  0.00000000000E+00  0.00000000000E+00  0.10386090301E+03  0.10386090304E+03  0.25500000000E-02 0. -1.
         -2   -1    0    0    0  501 -0.00000000000E+00 -0.00000000000E+00 -0.19689887259E+02  0.19689887424E+02  0.25500000000E-02 0.  1.
         23    2    1    2    0    0  0.00000000000E+00  0.00000000000E+00  0.84171015748E+02  0.12355079046E+03  0.90443562135E+02 0.  0.
    9000005    2    3    3    0    0  0.21643774906E+01  0.18417689313E+02  0.98384787595E+02  0.10018570712E+03  0.37031973858E+01 0.  0.
         22    1    3    3    0    0 -0.21643774906E+01 -0.18417689313E+02 -0.14213771848E+02  0.23365083344E+02  0.00000000000E+00 0.  1.
         22    1    4    4    0    0  0.74590100698E+00  0.64729129252E+00  0.79048427645E+01  0.79662973496E+01  0.00000000000E+00 0.  1.
         22    1    4    4    0    0  0.14184764836E+01  0.17770398020E+02  0.90479944831E+02  0.92219409768E+02  0.00000000000E+00 0.  1.
<mgrwt>
<rscale>  0 0.90443562E+02</rscale>
<asrwt>0</asrwt>
<pdfrwt beam="1">  1        2 0.15978600E-01 0.90443562E+02</pdfrwt>
<pdfrwt beam="2">  1       -2 0.30292135E-02 0.90443562E+02</pdfrwt>
<totfact> 0.12688949E+05</totfact>
</mgrwt>
</event>
<event>
 7    1  0.3056193E-009  0.9255833E+02  0.7818608E-02  0.1296772E+00
          2   -1    0    0  501    0  0.00000000000E+00  0.00000000000E+00  0.14130424546E+04  0.14130424546E+04  0.25500000000E-02 0. -1.
         -2   -1    0    0    0  501 -0.00000000000E+00 -0.00000000000E+00 -0.15157079444E+01  0.15157100894E+01  0.25500000000E-02 0.  1.
         23    2    1    2    0    0  0.00000000000E+00  0.00000000000E+00  0.14115267467E+04  0.14145581647E+04  0.92558331725E+02 0.  0.
    9000005    2    3    3    0    0  0.20503179719E+02  0.22678451974E+02  0.12332628349E+04  0.12336915984E+04  0.11092677373E+02 0.  0.
         22    1    3    3    0    0 -0.20503179719E+02 -0.22678451974E+02  0.17826391178E+03  0.18086656630E+03  0.00000000000E+00 0.  1.
         22    1    4    4    0    0  0.15827324133E+02  0.11567752263E+02  0.61855406901E+03  0.61886464867E+03  0.00000000000E+00 0.  1.
         22    1    4    4    0    0  0.46758555855E+01  0.11110699710E+02  0.61470876586E+03  0.61482694972E+03  0.00000000000E+00 0.  1.
<mgrwt>
<rscale>  0 0.92558332E+02</rscale>
<asrwt>0</asrwt>
<pdfrwt beam="1">  1        2 0.21739168E+00 0.92558332E+02</pdfrwt>
<pdfrwt beam="2">  1       -2 0.23318543E-03 0.92558332E+02</pdfrwt>
<totfact> 0.23139656E+05</totfact>
</mgrwt>
</event>
<event>
 7    1  0.3056193E-009  0.9678623E+02  0.7818608E-02  0.1287203E+00
          2   -1    0    0  501    0  0.00000000000E+00  0.00000000000E+00  0.26755468930E+03  0.26755468931E+03  0.25500000000E-02 0.  1.
         -2   -1    0    0    0  501 -0.00000000000E+00 -0.00000000000E+00 -0.87529521090E+01  0.87529524804E+01  0.25500000000E-02 0. -1.
         23    2    1    2    0    0  0.00000000000E+00  0.00000000000E+00  0.25880173719E+03  0.27630764179E+03  0.96786227015E+02 0.  0.
    9000005    2    3    3    0    0  0.19673771734E+02  0.42795700493E+02  0.11305459898E+03  0.12313859279E+03  0.12776596157E+02 0.  0.
         22    1    3    3    0    0 -0.19673771734E+02 -0.42795700493E+02  0.14574713821E+03  0.15316904900E+03  0.00000000000E+00 0.  1.
         22    1    4    4    0    0  0.75893331202E+01  0.10614930037E+02  0.19450135926E+02  0.23421838195E+02  0.00000000000E+00 0. -1.
         22    1    4    4    0    0  0.12084438614E+02  0.32180770456E+02  0.93604463050E+02  0.99716754593E+02  0.00000000000E+00 0. -1.
<mgrwt>
<rscale>  0 0.96786227E+02</rscale>
<asrwt>0</asrwt>
<pdfrwt beam="1">  1        2 0.41162264E-01 0.96786227E+02</pdfrwt>
<pdfrwt beam="2">  1       -2 0.13466079E-02 0.96786227E+02</pdfrwt>
<totfact> 0.14665481E+05</totfact>
</mgrwt>
</event>
<event>
 7    1  0.3056193E-009  0.9179903E+02  0.7818608E-02  0.1298553E+00
         -2   -1    0    0    0  501 -0.00000000000E+00  0.00000000000E+00  0.47143024646E+01  0.47143031543E+01  0.25500000000E-02 0.  1.
          2   -1    0    0  501    0  0.00000000000E+00 -0.00000000000E+00 -0.44688803500E+03  0.44688803501E+03  0.25500000000E-02 0. -1.
         23    2    1    2    0    0 -0.44408920985E-15  0.00000000000E+00 -0.44217373253E+03  0.45160233816E+03  0.91799030979E+02 0.  0.
    9000005    2    3    3    0    0 -0.25650207835E+01  0.35407157359E+02 -0.36259113057E+03  0.36446086320E+03  0.99572440194E+01 0.  0.
         22    1    3    3    0    0  0.25650207835E+01 -0.35407157359E+02 -0.79582601962E+02  0.87141474964E+02  0.00000000000E+00 0.  1.
         22    1    4    4    0    0  0.17933680197E+01  0.25384172086E+02 -0.22442884355E+03  0.22586694795E+03  0.00000000000E+00 0.  1.
         22    1    4    4    0    0 -0.43583888031E+01  0.10022985272E+02 -0.13816228702E+03  0.13859391524E+03  0.00000000000E+00 0.  1.
<mgrwt>
<rscale>  0 0.91799031E+02</rscale>
<asrwt>0</asrwt>
<pdfrwt beam="2">  1        2 0.68751972E-01 0.91799031E+02</pdfrwt>
<pdfrwt beam="1">  1       -2 0.72527771E-03 0.91799031E+02</pdfrwt>
<totfact> 0.20383419E+05</totfact>
</mgrwt>
</event>
<event>
 7    1  0.3056193E-009  0.9105858E+02  0.7818608E-02  0.1300308E+00
         -2   -1    0    0    0  501 -0.00000000000E+00  0.00000000000E+00  0.66023151630E+01  0.66023156555E+01  0.25500000000E-02 0.  1.
          2   -1    0    0  501    0  0.00000000000E+00 -0.00000000000E+00 -0.31396808764E+03  0.31396808765E+03  0.25500000000E-02 0. -1.
         23    2    1    2    0    0 -0.35527136788E-14  0.71054273576E-14 -0.30736577248E+03  0.32057040330E+03  0.91058582161E+02 0.  0.
    9000005    2    3    3    0    0  0.27042856033E+02 -0.35244272537E+02 -0.15564265897E+03  0.16247746235E+03  0.14170874003E+02 0.  0.
         22    1    3    3    0    0 -0.27042856033E+02  0.35244272537E+02 -0.15172311350E+03  0.15809294096E+03  0.00000000000E+00 0. -1.
         22    1    4    4    0    0 -0.16554536711E+01 -0.11817838189E+01 -0.85842856208E+01  0.88219668709E+01  0.00000000000E+00 0. -1.
         22    1    4    4    0    0  0.28698309704E+02 -0.34062488718E+02 -0.14705837335E+03  0.15365549548E+03  0.00000000000E+00 0. -1.
<mgrwt>
<rscale>  0 0.91058582E+02</rscale>
<asrwt>0</asrwt>
<pdfrwt beam="2">  1        2 0.48302771E-01 0.91058582E+02</pdfrwt>
<pdfrwt beam="1">  1       -2 0.10157411E-02 0.91058582E+02</pdfrwt>
<totfact> 0.18335969E+05</totfact>
</mgrwt>
</event>
<event>
 7    1  0.3056193E-009  0.9046647E+02  0.7818608E-02  0.1301726E+00
         -2   -1    0    0    0  501 -0.00000000000E+00  0.00000000000E+00  0.57343169192E+01  0.57343174862E+01  0.25500000000E-02 0.  1.
          2   -1    0    0  501    0  0.00000000000E+00 -0.00000000000E+00 -0.35680720394E+03  0.35680720395E+03  0.25500000000E-02 0. -1.
         23    2    1    2    0    0  0.00000000000E+00  0.00000000000E+00 -0.35107288703E+03  0.36254152144E+03  0.90466473147E+02 0.  0.
    9000005    2    3    3    0    0  0.20888032308E+02  0.35293687609E+02 -0.24388829329E+03  0.24777876000E+03  0.15194078627E+02 0.  0.
         22    1    3    3    0    0 -0.20888032308E+02 -0.35293687609E+02 -0.10718459374E+03  0.11476276144E+03  0.00000000000E+00 0.  1.
         22    1    4    4    0    0  0.80054268820E+01  0.87867728396E+01 -0.38689318289E+02  0.40474159487E+02  0.00000000000E+00 0.  1.
         22    1    4    4    0    0  0.12882605426E+02  0.26506914769E+02 -0.20519897500E+03  0.20730460052E+03  0.00000000000E+00 0.  1.
<mgrwt>
<rscale>  0 0.90466473E+02</rscale>
<asrwt>0</asrwt>
<pdfrwt beam="2">  1        2 0.54893399E-01 0.90466473E+02</pdfrwt>
<pdfrwt beam="1">  1       -2 0.88220293E-03 0.90466473E+02</pdfrwt>
<totfact> 0.19556337E+05</totfact>
</mgrwt>
</event>
<event>
 7    1  0.3056193E-009  0.9199642E+02  0.7818608E-02  0.1298088E+00
          2   -1    0    0  501    0  0.00000000000E+00  0.00000000000E+00  0.21823729446E+02  0.21823729595E+02  0.25500000000E-02 0. -1.
         -2   -1    0    0    0  501 -0.00000000000E+00 -0.00000000000E+00 -0.96951142593E+02  0.96951142626E+02  0.25500000000E-02 0.  1.
         23    2    1    2    0    0  0.00000000000E+00  0.00000000000E+00 -0.75127413147E+02  0.11877487222E+03  0.91996424197E+02 0.  0.
    9000005    2    3    3    0    0  0.92543836194E+01  0.44127161106E+02 -0.41642963786E+02  0.62613868736E+02  0.12389921782E+02 0.  0.
         22    1    3    3    0    0 -0.92543836194E+01 -0.44127161106E+02 -0.33484449361E+02  0.56161003485E+02  0.00000000000E+00 0.  1.
         22    1    4    4    0    0  0.44313597323E+01  0.37534788723E+02 -0.38236830097E+02  0.53763858580E+02  0.00000000000E+00 0.  1.
         22    1    4    4    0    0  0.48230238871E+01  0.65923723833E+01 -0.34061336891E+01  0.88500101562E+01  0.00000000000E+00 0.  1.
<mgrwt>
<rscale>  0 0.91996424E+02</rscale>
<asrwt>0</asrwt>
<pdfrwt beam="1">  1        2 0.33574969E-02 0.91996424E+02</pdfrwt>
<pdfrwt beam="2">  1       -2 0.14915560E-01 0.91996424E+02</pdfrwt>
<totfact> 0.78770043E+04</totfact>
</mgrwt>
</event>
<event>
 7    1  0.3056193E-009  0.9006819E+02  0.7818608E-02  0.1302687E+00
         -2   -1    0    0    0  501 -0.00000000000E+00  0.00000000000E+00  0.24034555369E+03  0.24034555371E+03  0.25500000000E-02 0.  1.
          2   -1    0    0  501    0  0.00000000000E+00 -0.00000000000E+00 -0.84381407536E+01  0.84381411389E+01  0.25500000000E-02 0. -1.
         23    2    1    2    0    0  0.00000000000E+00  0.00000000000E+00  0.23190741294E+03  0.24878369485E+03  0.90068188861E+02 0.  0.
    9000005    2    3    3    0    0  0.30998484207E+01  0.18743412921E+02  0.22813080575E+03  0.22941394136E+03  0.15038862018E+02 0.  0.
         22    1    3    3    0    0 -0.30998484207E+01 -0.18743412921E+02  0.37766071892E+01  0.19369753484E+02  0.00000000000E+00 0. -1.
         22    1    4    4    0    0 -0.37365421228E+01  0.49739624819E+00  0.67591202981E+02  0.67696232321E+02  0.00000000000E+00 0.  1.
         22    1    4    4    0    0  0.68363905436E+01  0.18246016673E+02  0.16053960277E+03  0.16171770904E+03  0.00000000000E+00 0.  1.
<mgrwt>
<rscale>  0 0.90068189E+02</rscale>
<asrwt>0</asrwt>
<pdfrwt beam="2">  1        2 0.12981758E-02 0.90068189E+02</pdfrwt>
<pdfrwt beam="1">  1       -2 0.36976231E-01 0.90068189E+02</pdfrwt>
<totfact> 0.59101739E+04</totfact>
</mgrwt>
</event>
<event>
 7    1  0.3056193E-009  0.9144516E+02  0.7818608E-02  0.1299389E+00
         -2   -1    0    0    0  501 -0.00000000000E+00  0.00000000000E+00  0.69109241326E+01  0.69109246031E+01  0.25500000000E-02 0.  1.
          2   -1    0    0  501    0  0.00000000000E+00 -0.00000000000E+00 -0.30249998872E+03  0.30249998873E+03  0.25500000000E-02 0. -1.
         23    2    1    2    0    0  0.00000000000E+00  0.17763568394E-14 -0.29558906459E+03  0.30941091334E+03  0.91445164916E+02 0.  0.
    9000005    2    3    3    0    0  0.41582780613E+02  0.15472107416E+02 -0.17839284635E+03  0.18409743712E+03  0.99671949077E+01 0.  0.
         22    1    3    3    0    0 -0.41582780613E+02 -0.15472107416E+02 -0.11719621824E+03  0.12531347621E+03  0.00000000000E+00 0.  1.
         22    1    4    4    0    0  0.17473371001E+02  0.11665457289E+02 -0.87095691312E+02  0.89593867162E+02  0.00000000000E+00 0.  1.
         22    1    4    4    0    0  0.24109409612E+02  0.38066501271E+01 -0.91297155038E+02  0.94503569959E+02  0.00000000000E+00 0.  1.
<mgrwt>
<rscale>  0 0.91445165E+02</rscale>
<asrwt>0</asrwt>
<pdfrwt beam="2">  1        2 0.46538450E-01 0.91445165E+02</pdfrwt>
<pdfrwt beam="1">  1       -2 0.10632194E-02 0.91445165E+02</pdfrwt>
<totfact> 0.17880764E+05</totfact>
</mgrwt>
</event>
<event>
 7    1  0.3056193E-009  0.8969741E+02  0.7818608E-02  0.1303586E+00
          2   -1    0    0  501    0  0.00000000000E+00  0.00000000000E+00  0.17278633991E+03  0.17278633993E+03  0.25500000000E-02 0. -1.
         -2   -1    0    0    0  501 -0.00000000000E+00 -0.00000000000E+00 -0.11641003654E+02  0.11641003934E+02  0.25500000000E-02 0.  1.
         23    2    1    2    0    0  0.00000000000E+00 -0.71054273576E-14  0.16114533626E+03  0.18442734386E+03  0.89697412266E+02 0.  0.
    9000005    2    3    3    0    0 -0.17917017836E+02 -0.37887471139E+02  0.59269985167E+02  0.74268063015E+02  0.15695032490E+02 0.  0.
         22    1    3    3    0    0  0.17917017836E+02  0.37887471139E+02  0.10187535109E+03  0.11015928085E+03  0.00000000000E+00 0. -1.
         22    1    4    4    0    0 -0.11115635054E+02 -0.16384765485E+02  0.39885658424E+02  0.44529581523E+02  0.00000000000E+00 0. -1.
         22    1    4    4    0    0 -0.68013827814E+01 -0.21502705654E+02  0.19384326742E+02  0.29738481492E+02  0.00000000000E+00 0. -1.
<mgrwt>
<rscale>  0 0.89697412E+02</rscale>
<asrwt>0</asrwt>
<pdfrwt beam="1">  1        2 0.26582515E-01 0.89697412E+02</pdfrwt>
<pdfrwt beam="2">  1       -2 0.17909236E-02 0.89697412E+02</pdfrwt>
<totfact> 0.15343748E+05</totfact>
</mgrwt>
</event>
<event>
 7    1  0.3056193E-009  0.9026504E+02  0.7818608E-02  0.1302211E+00
         -2   -1    0    0    0  501 -0.00000000000E+00  0.00000000000E+00  0.52785674157E+02  0.52785674219E+02  0.25500000000E-02 0.  1.
          2   -1    0    0  501    0  0.00000000000E+00 -0.00000000000E+00 -0.38588964365E+02  0.38588964449E+02  0.25500000000E-02 0. -1.
         23    2    1    2    0    0 -0.35527136788E-14  0.00000000000E+00  0.14196709793E+02  0.91374638668E+02  0.90265043194E+02 0.  0.
    9000005    2    3    3    0    0  0.19397360986E+02 -0.20509085064E+01  0.47156013858E+02  0.53076080426E+02  0.14591669934E+02 0.  0.
         22    1    3    3    0    0 -0.19397360986E+02  0.20509085064E+01 -0.32959304065E+02  0.38298558242E+02  0.00000000000E+00 0. -1.
         22    1    4    4    0    0  0.19692959464E+01  0.48679666654E+01  0.14470398024E+02  0.15393753439E+02  0.00000000000E+00 0. -1.
         22    1    4    4    0    0  0.17428065040E+02 -0.69188751718E+01  0.32685615834E+02  0.37682326987E+02  0.00000000000E+00 0. -1.
<mgrwt>
<rscale>  0 0.90265043E+02</rscale>
<asrwt>0</asrwt>
<pdfrwt beam="2">  1        2 0.59367638E-02 0.90265043E+02</pdfrwt>
<pdfrwt beam="1">  1       -2 0.81208729E-02 0.90265043E+02</pdfrwt>
<totfact> 0.97299940E+04</totfact>
</mgrwt>
</event>
<event>
 7    1  0.3056193E-009  0.8513505E+02  0.7818608E-02  0.1315080E+00
          2   -1    0    0  501    0  0.00000000000E+00  0.00000000000E+00  0.52016528899E+03  0.52016528899E+03  0.25500000000E-02 0. -1.
         -2   -1    0    0    0  501 -0.00000000000E+00 -0.00000000000E+00 -0.34834961161E+01  0.34834970494E+01  0.25500000000E-02 0.  1.
         23    2    1    2    0    0 -0.35527136788E-14 -0.35527136788E-14  0.51668179287E+03  0.52364878604E+03  0.85135045896E+02 0.  0.
    9000005    2    3    3    0    0  0.24379284037E+02  0.24350928645E+02  0.40713768110E+03  0.40881312242E+03  0.13407478331E+02 0.  0.
         22    1    3    3    0    0 -0.24379284037E+02 -0.24350928645E+02  0.10954411177E+03  0.11483566362E+03  0.00000000000E+00 0.  1.
         22    1    4    4    0    0  0.23051712641E+02  0.25284562450E+02  0.35376363767E+03  0.35541440867E+03  0.00000000000E+00 0. -1.
         22    1    4    4    0    0  0.13275713955E+01 -0.93363380468E+00  0.53374043427E+02  0.53398713745E+02  0.00000000000E+00 0. -1.
<mgrwt>
<rscale>  0 0.85135046E+02</rscale>
<asrwt>0</asrwt>
<pdfrwt beam="1">  1        2 0.80025435E-01 0.85135046E+02</pdfrwt>
<pdfrwt beam="2">  1       -2 0.53592251E-03 0.85135046E+02</pdfrwt>
<totfact> 0.26146908E+05</totfact>
</mgrwt>
</event>
<event>
 7    1  0.3056193E-009  0.9133130E+02  0.7818608E-02  0.1299659E+00
         -2   -1    0    0    0  501 -0.00000000000E+00  0.00000000000E+00  0.45512119511E+02  0.45512119582E+02  0.25500000000E-02 0.  1.
          2   -1    0    0  501    0  0.00000000000E+00 -0.00000000000E+00 -0.45819701411E+02  0.45819701482E+02  0.25500000000E-02 0. -1.
         23    2    1    2    0    0  0.00000000000E+00  0.00000000000E+00 -0.30758189993E+00  0.91331821064E+02  0.91331303134E+02 0.  0.
    9000005    2    3    3    0    0  0.15622107524E+02 -0.28491007653E+01 -0.42776452351E+02  0.45991192748E+02  0.57617112006E+01 0.  0.
         22    1    3    3    0    0 -0.15622107524E+02  0.28491007653E+01  0.42468870451E+02  0.45340628316E+02  0.00000000000E+00 0.  1.
         22    1    4    4    0    0  0.10440286021E+02 -0.13433761758E+01 -0.20192332092E+02  0.22771352772E+02  0.00000000000E+00 0.  1.
         22    1    4    4    0    0  0.51818215033E+01 -0.15057245896E+01 -0.22584120259E+02  0.23219839976E+02  0.00000000000E+00 0.  1.
<mgrwt>
<rscale>  0 0.91331303E+02</rscale>
<asrwt>0</asrwt>
<pdfrwt beam="2">  1        2 0.70491849E-02 0.91331303E+02</pdfrwt>
<pdfrwt beam="1">  1       -2 0.70018645E-02 0.91331303E+02</pdfrwt>
<totfact> 0.98325150E+04</totfact>
</mgrwt>
</event>
<event>
 7    1  0.3056193E-009  0.9528847E+02  0.7818608E-02  0.1290528E+00
         -2   -1    0    0    0  501 -0.00000000000E+00  0.00000000000E+00  0.33979122378E+02  0.33979122473E+02  0.25500000000E-02 0.  1.
          2   -1    0    0  501    0  0.00000000000E+00 -0.00000000000E+00 -0.66804933042E+02  0.66804933091E+02  0.25500000000E-02 0. -1.
         23    2    1    2    0    0  0.00000000000E+00  0.00000000000E+00 -0.32825810664E+02  0.10078405556E+03  0.95288467352E+02 0.  0.
    9000005    2    3    3    0    0  0.36300939264E+02  0.22105315067E+02  0.43309347481E+01  0.44330296829E+02  0.11832796603E+02 0.  0.
         22    1    3    3    0    0 -0.36300939264E+02 -0.22105315067E+02 -0.37156745413E+02  0.56453758735E+02  0.00000000000E+00 0. -1.
         22    1    4    4    0    0  0.15147192910E+02  0.11057823728E+02 -0.37678076153E+01  0.19128755654E+02  0.00000000000E+00 0. -1.
         22    1    4    4    0    0  0.21153746354E+02  0.11047491339E+02  0.80987423635E+01  0.25201541175E+02  0.00000000000E+00 0. -1.
<mgrwt>
<rscale>  0 0.95288467E+02</rscale>
<asrwt>0</asrwt>
<pdfrwt beam="2">  1        2 0.10277682E-01 0.95288467E+02</pdfrwt>
<pdfrwt beam="1">  1       -2 0.52275573E-02 0.95288467E+02</pdfrwt>
<totfact> 0.96442591E+04</totfact>
</mgrwt>
</event>
<event>
 7    1  0.4048741E-009  0.9126423E+02  0.7818608E-02  0.1299819E+00
         -2   -1    0    0    0  501 -0.00000000000E+00  0.00000000000E+00  0.15653620468E+02  0.15653620676E+02  0.25500000000E-02 0.  1.
          2   -1    0    0  501    0  0.00000000000E+00 -0.00000000000E+00 -0.13302288322E+03  0.13302288324E+03  0.25500000000E-02 0. -1.
         23    2    1    2    0    0  0.00000000000E+00  0.35527136788E-14 -0.11736926275E+03  0.14867650392E+03  0.91264226172E+02 0.  0.
    9000005    2    3    3    0    0  0.61513803840E+00 -0.22792511387E+02  0.27906884884E+01  0.26372412197E+02  0.12955277406E+02 0.  0.
         22    1    3    3    0    0 -0.61513803840E+00  0.22792511387E+02 -0.12015995124E+03  0.12230409172E+03  0.00000000000E+00 0. -1.
         22    1    4    4    0    0  0.25356174112E+01 -0.40420050218E+01 -0.41127608497E+01  0.62993620359E+01  0.00000000000E+00 0. -1.
         22    1    4    4    0    0 -0.19204793728E+01 -0.18750506366E+02  0.69034493381E+01  0.20073050161E+02  0.00000000000E+00 0. -1.
<mgrwt>
<rscale>  0 0.91264226E+02</rscale>
<asrwt>0</asrwt>
<pdfrwt beam="2">  1        2 0.20465058E-01 0.91264226E+02</pdfrwt>
<pdfrwt beam="1">  1       -2 0.24082494E-02 0.91264226E+02</pdfrwt>
<totfact> 0.13394232E+05</totfact>
</mgrwt>
</event>
<event>
 7    1  0.3056193E-009  0.8978262E+02  0.7818608E-02  0.1303379E+00
          2   -1    0    0  501    0  0.00000000000E+00  0.00000000000E+00  0.75451887671E+03  0.75451887672E+03  0.25500000000E-02 0. -1.
         -2   -1    0    0    0  501 -0.00000000000E+00 -0.00000000000E+00 -0.26708799390E+01  0.26708811563E+01  0.25500000000E-02 0.  1.
         23    2    1    2    0    0  0.00000000000E+00  0.00000000000E+00  0.75184799677E+03  0.75718975787E+03  0.89782621791E+02 0.  0.
    9000005    2    3    3    0    0 -0.92562242990E+01  0.24155095777E+02  0.68259184280E+03  0.68326032392E+03  0.15617299925E+02 0.  0.
         22    1    3    3    0    0  0.92562242990E+01 -0.24155095777E+02  0.69256153978E+02  0.73929433950E+02  0.00000000000E+00 0.  1.
         22    1    4    4    0    0  0.34833444991E+01  0.57130843627E+01  0.24861526121E+03  0.24870528971E+03  0.00000000000E+00 0. -1.
         22    1    4    4    0    0 -0.12739568798E+02  0.18442011414E+02  0.43397658159E+03  0.43455503422E+03  0.00000000000E+00 0. -1.
<mgrwt>
<rscale>  0 0.89782622E+02</rscale>
<asrwt>0</asrwt>
<pdfrwt beam="1">  1        2 0.11607967E+00 0.89782622E+02</pdfrwt>
<pdfrwt beam="2">  1       -2 0.41090525E-03 0.89782622E+02</pdfrwt>
<totfact> 0.25103792E+05</totfact>
</mgrwt>
</event>
<event>
 7    1  0.3056193E-009  0.9204680E+02  0.7818608E-02  0.1297969E+00
          2   -1    0    0  501    0  0.00000000000E+00  0.00000000000E+00  0.22447815053E+02  0.22447815198E+02  0.25500000000E-02 0. -1.
         -2   -1    0    0    0  501 -0.00000000000E+00 -0.00000000000E+00 -0.94358997453E+02  0.94358997488E+02  0.25500000000E-02 0.  1.
         23    2    1    2    0    0  0.00000000000E+00  0.00000000000E+00 -0.71911182400E+02  0.11680681269E+03  0.92046799703E+02 0.  0.
    9000005    2    3    3    0    0 -0.16096928116E+02  0.23476540032E+02 -0.81123622800E+02  0.86888121458E+02  0.12579524938E+02 0.  0.
         22    1    3    3    0    0  0.16096928116E+02 -0.23476540032E+02  0.92124403995E+01  0.29918691228E+02  0.00000000000E+00 0. -1.
         22    1    4    4    0    0 -0.11119769988E+02  0.62668890448E+01 -0.41136974642E+02  0.43071729308E+02  0.00000000000E+00 0.  1.
         22    1    4    4    0    0 -0.49771581277E+01  0.17209650987E+02 -0.39986648158E+02  0.43816392150E+02  0.00000000000E+00 0.  1.
<mgrwt>
<rscale>  0 0.92046800E+02</rscale>
<asrwt>0</asrwt>
<pdfrwt beam="1">  1        2 0.34535101E-02 0.92046800E+02</pdfrwt>
<pdfrwt beam="2">  1       -2 0.14516769E-01 0.92046800E+02</pdfrwt>
<totfact> 0.79293503E+04</totfact>
</mgrwt>
</event>
<event>
 7    1  0.3056193E-009  0.9032600E+02  0.7818608E-02  0.1302064E+00
         -2   -1    0    0    0  501 -0.00000000000E+00  0.00000000000E+00  0.56993756923E+01  0.56993762628E+01  0.25500000000E-02 0. -1.
          2   -1    0    0  501    0  0.00000000000E+00 -0.00000000000E+00 -0.35788064945E+03  0.35788064946E+03  0.25500000000E-02 0.  1.
         23    2    1    2    0    0  0.00000000000E+00  0.35527136788E-14 -0.35218127376E+03  0.36358002573E+03  0.90325995807E+02 0.  0.
    9000005    2    3    3    0    0 -0.54403737021E+01 -0.23336978164E+02 -0.32939069117E+03  0.33051005641E+03  0.12824107798E+02 0.  0.
         22    1    3    3    0    0  0.54403737021E+01  0.23336978164E+02 -0.22790582588E+02  0.33069969316E+02  0.00000000000E+00 0. -1.
         22    1    4    4    0    0 -0.73689954204E+01 -0.18463990640E+02 -0.29983336287E+03  0.30049170793E+03  0.00000000000E+00 0.  1.
         22    1    4    4    0    0  0.19286217183E+01 -0.48729875234E+01 -0.29557328301E+02  0.30018348479E+02  0.00000000000E+00 0.  1.
<mgrwt>
<rscale>  0 0.90325996E+02</rscale>
<asrwt>0</asrwt>
<pdfrwt beam="2">  1        2 0.55058544E-01 0.90325996E+02</pdfrwt>
<pdfrwt beam="1">  1       -2 0.87682735E-03 0.90325996E+02</pdfrwt>
<totfact> 0.19658711E+05</totfact>
</mgrwt>
</event>
<event>
 7    1  0.3056193E-009  0.9221098E+02  0.7818608E-02  0.1297584E+00
          2   -1    0    0  501    0  0.00000000000E+00  0.00000000000E+00  0.38672770838E+02  0.38672770922E+02  0.25500000000E-02 0. -1.
         -2   -1    0    0    0  501 -0.00000000000E+00 -0.00000000000E+00 -0.54966737637E+02  0.54966737696E+02  0.25500000000E-02 0.  1.
         23    2    1    2    0    0  0.00000000000E+00  0.00000000000E+00 -0.16293966799E+02  0.93639508618E+02  0.92210976680E+02 0.  0.
    9000005    2    3    3    0    0  0.21134407290E+02  0.39241830830E+02 -0.28357742511E+01  0.47080863824E+02  0.14899049112E+02 0.  0.
         22    1    3    3    0    0 -0.21134407290E+02 -0.39241830830E+02 -0.13458192548E+02  0.46558644794E+02  0.00000000000E+00 0.  1.
         22    1    4    4    0    0  0.11332071803E+02  0.32938143024E+02 -0.51128109482E+01  0.35206220374E+02  0.00000000000E+00 0. -1.
         22    1    4    4    0    0  0.98023354865E+01  0.63036878058E+01  0.22770366971E+01  0.11874643450E+02  0.00000000000E+00 0. -1.
<mgrwt>
<rscale>  0 0.92210977E+02</rscale>
<asrwt>0</asrwt>
<pdfrwt beam="1">  1        2 0.59496571E-02 0.92210977E+02</pdfrwt>
<pdfrwt beam="2">  1       -2 0.84564212E-02 0.92210977E+02</pdfrwt>
<totfact> 0.91505093E+04</totfact>
</mgrwt>
</event>
<event>
 7    1  0.3056193E-009  0.9250217E+02  0.7818608E-02  0.1296903E+00
          2   -1    0    0  501    0  0.00000000000E+00  0.00000000000E+00  0.22521482785E+01  0.22521497221E+01  0.25500000000E-02 0. -1.
         -2   -1    0    0    0  501 -0.00000000000E+00 -0.00000000000E+00 -0.94983178268E+03  0.94983178268E+03  0.25500000000E-02 0.  1.
         23    2    1    2    0    0  0.44408920985E-15  0.00000000000E+00 -0.94757963440E+03  0.95208393240E+03  0.92502166527E+02 0.  0.
    9000005    2    3    3    0    0 -0.21329420560E+01  0.37564782298E+02 -0.74353381812E+03  0.74459813180E+03  0.12968302934E+02 0.  0.
         22    1    3    3    0    0  0.21329420560E+01 -0.37564782298E+02 -0.20404581627E+03  0.20748580060E+03  0.00000000000E+00 0. -1.
         22    1    4    4    0    0 -0.34258516857E+01  0.29155638478E+02 -0.45941911205E+03  0.46035606680E+03  0.00000000000E+00 0. -1.
         22    1    4    4    0    0  0.12929096297E+01  0.84091438199E+01 -0.28411470607E+03  0.28424206501E+03  0.00000000000E+00 0. -1.
<mgrwt>
<rscale>  0 0.92502167E+02</rscale>
<asrwt>0</asrwt>
<pdfrwt beam="1">  1        2 0.34648522E-03 0.92502167E+02</pdfrwt>
<pdfrwt beam="2">  1       -2 0.14612765E+00 0.92502167E+02</pdfrwt>
<totfact> 0.19095004E+04</totfact>
</mgrwt>
</event>
<event>
 7    1  0.3056193E-009  0.9022984E+02  0.7818608E-02  0.1302296E+00
         -2   -1    0    0    0  501 -0.00000000000E+00  0.00000000000E+00  0.16129078665E+02  0.16129078866E+02  0.25500000000E-02 0.  1.
          2   -1    0    0  501    0  0.00000000000E+00 -0.00000000000E+00 -0.12619170488E+03  0.12619170491E+03  0.25500000000E-02 0. -1.
         23    2    1    2    0    0 -0.35527136788E-14 -0.35527136788E-14 -0.11006262622E+03  0.14232078378E+03  0.90229838769E+02 0.  0.
    9000005    2    3    3    0    0 -0.16809912484E+02 -0.31054365203E+02 -0.12422981787E+02  0.38491852736E+02  0.89635648433E+01 0.  0.
         22    1    3    3    0    0  0.16809912484E+02  0.31054365203E+02 -0.97639644432E+02  0.10382893104E+03  0.00000000000E+00 0. -1.
         22    1    4    4    0    0 -0.17227163429E+02 -0.30945633838E+02 -0.13037621084E+02  0.37741051614E+02  0.00000000000E+00 0.  1.
         22    1    4    4    0    0  0.41725094428E+00 -0.10873136562E+00  0.61463929676E+00  0.75080112247E+00  0.00000000000E+00 0.  1.
<mgrwt>
<rscale>  0 0.90229839E+02</rscale>
<asrwt>0</asrwt>
<pdfrwt beam="2">  1        2 0.19414108E-01 0.90229839E+02</pdfrwt>
<pdfrwt beam="1">  1       -2 0.24813968E-02 0.90229839E+02</pdfrwt>
<totfact> 0.13580192E+05</totfact>
</mgrwt>
</event>
<event>
 7    1  0.3056193E-009  0.9052832E+02  0.7818608E-02  0.1301577E+00
         -2   -1    0    0    0  501 -0.00000000000E+00  0.00000000000E+00  0.19227726713E+02  0.19227726882E+02  0.25500000000E-02 0.  1.
          2   -1    0    0  501    0  0.00000000000E+00 -0.00000000000E+00 -0.10655674685E+03  0.10655674688E+03  0.25500000000E-02 0. -1.
         23    2    1    2    0    0  0.00000000000E+00  0.00000000000E+00 -0.87329020141E+02  0.12578447377E+03  0.90528316466E+02 0.  0.
    9000005    2    3    3    0    0 -0.97142551285E+01  0.10088651224E+02 -0.10306256889E+03  0.10472047147E+03  0.12179343276E+02 0.  0.
         22    1    3    3    0    0  0.97142551285E+01 -0.10088651224E+02  0.15733548753E+02  0.21064002293E+02  0.00000000000E+00 0.  1.
         22    1    4    4    0    0  0.15068867177E+01  0.66574437565E+01 -0.37569093558E+02  0.38184146654E+02  0.00000000000E+00 0.  1.
         22    1    4    4    0    0 -0.11221141846E+02  0.34312074680E+01 -0.65493475336E+02  0.66536324820E+02  0.00000000000E+00 0.  1.
<mgrwt>
<rscale>  0 0.90528316E+02</rscale>
<asrwt>0</asrwt>
<pdfrwt beam="2">  1        2 0.16393345E-01 0.90528316E+02</pdfrwt>
<pdfrwt beam="1">  1       -2 0.29581119E-02 0.90528316E+02</pdfrwt>
<totfact> 0.12756710E+05</totfact>
</mgrwt>
</event>
<event>
 7    1  0.3056193E-009  0.9155776E+02  0.7818608E-02  0.1299123E+00
         -2   -1    0    0    0  501 -0.00000000000E+00  0.00000000000E+00  0.34230261293E+02  0.34230261388E+02  0.25500000000E-02 0.  1.
          2   -1    0    0  501    0  0.00000000000E+00 -0.00000000000E+00 -0.61223774171E+02  0.61223774224E+02  0.25500000000E-02 0. -1.
         23    2    1    2    0    0  0.00000000000E+00  0.00000000000E+00 -0.26993512878E+02  0.95454035612E+02  0.91557758695E+02 0.  0.
    9000005    2    3    3    0    0  0.41134719701E+02  0.12020135795E+02  0.20825058189E+01  0.43666356646E+02  0.81157281179E+01 0.  0.
         22    1    3    3    0    0 -0.41134719701E+02 -0.12020135795E+02 -0.29076018697E+02  0.51787678966E+02  0.00000000000E+00 0. -1.
         22    1    4    4    0    0  0.22989675464E+02  0.37170982697E+01 -0.17241924376E+01  0.23351977155E+02  0.00000000000E+00 0.  1.
         22    1    4    4    0    0  0.18145044237E+02  0.83030375252E+01  0.38066982566E+01  0.20314379492E+02  0.00000000000E+00 0.  1.
<mgrwt>
<rscale>  0 0.91557759E+02</rscale>
<asrwt>0</asrwt>
<pdfrwt beam="2">  1        2 0.94190422E-02 0.91557759E+02</pdfrwt>
<pdfrwt beam="1">  1       -2 0.52661941E-02 0.91557759E+02</pdfrwt>
<totfact> 0.10539952E+05</totfact>
</mgrwt>
</event>
<event>
 7    1  0.3056193E-009  0.9227103E+02  0.7818608E-02  0.1297443E+00
         -2   -1    0    0    0  501 -0.00000000000E+00  0.00000000000E+00  0.37501076835E+02  0.37501076922E+02  0.25500000000E-02 0.  1.
          2   -1    0    0  501    0  0.00000000000E+00 -0.00000000000E+00 -0.56757993396E+02  0.56757993453E+02  0.25500000000E-02 0. -1.
         23    2    1    2    0    0 -0.44408920985E-15  0.00000000000E+00 -0.19256916561E+02  0.94259070376E+02  0.92271032901E+02 0.  0.
    9000005    2    3    3    0    0 -0.24862665876E+01 -0.41235354244E+02 -0.28001361811E+02  0.52033470511E+02  0.14726500907E+02 0.  0.
         22    1    3    3    0    0  0.24862665876E+01  0.41235354244E+02  0.87444452504E+01  0.42225599864E+02  0.00000000000E+00 0.  1.
         22    1    4    4    0    0  0.88139048975E+00 -0.51007543911E+01  0.13602134987E+01  0.53520767293E+01  0.00000000000E+00 0.  1.
         22    1    4    4    0    0 -0.33676570774E+01 -0.36134599853E+02 -0.29361575310E+02  0.46681393782E+02  0.00000000000E+00 0.  1.
<mgrwt>
<rscale>  0 0.92271033E+02</rscale>
<asrwt>0</asrwt>
<pdfrwt beam="2">  1        2 0.87319989E-02 0.92271033E+02</pdfrwt>
<pdfrwt beam="1">  1       -2 0.57693965E-02 0.92271033E+02</pdfrwt>
<totfact> 0.10103223E+05</totfact>
</mgrwt>
</event>
<event>
 7    1  0.3056193E-009  0.7845539E+02  0.7818608E-02  0.1333493E+00
          2   -1    0    0  501    0  0.00000000000E+00  0.00000000000E+00  0.50419775271E+03  0.50419775272E+03  0.25500000000E-02 0. -1.
         -2   -1    0    0    0  501 -0.00000000000E+00 -0.00000000000E+00 -0.30520001690E+01  0.30520012343E+01  0.25500000000E-02 0.  1.
         23    2    1    2    0    0  0.00000000000E+00  0.00000000000E+00  0.50114575254E+03  0.50724975395E+03  0.78455386005E+02 0.  0.
    9000005    2    3    3    0    0  0.17086812010E+02  0.24435348003E+02  0.41260012461E+03  0.41381863707E+03  0.10860763238E+02 0.  0.
         22    1    3    3    0    0 -0.17086812010E+02 -0.24435348003E+02  0.88545627931E+02  0.93431116885E+02  0.00000000000E+00 0.  1.
         22    1    4    4    0    0 -0.11852159331E+01  0.44196422461E+01  0.68763777946E+02  0.68915855445E+02  0.00000000000E+00 0. -1.
         22    1    4    4    0    0  0.18272027943E+02  0.20015705757E+02  0.34383634666E+03  0.34490278162E+03  0.00000000000E+00 0. -1.
<mgrwt>
<rscale>  0 0.78455386E+02</rscale>
<asrwt>0</asrwt>
<pdfrwt beam="1">  1        2 0.77568876E-01 0.78455386E+02</pdfrwt>
<pdfrwt beam="2">  1       -2 0.46953863E-03 0.78455386E+02</pdfrwt>
<totfact> 0.32058998E+05</totfact>
</mgrwt>
</event>
<event>
 7    1  0.3056193E-009  0.8880731E+02  0.7818608E-02  0.1305766E+00
          2   -1    0    0  501    0  0.00000000000E+00  0.00000000000E+00  0.97589794504E+03  0.97589794505E+03  0.25500000000E-02 0.  1.
         -2   -1    0    0    0  501 -0.00000000000E+00 -0.00000000000E+00 -0.20203790591E+01  0.20203806683E+01  0.25500000000E-02 0. -1.
         23    2    1    2    0    0  0.17763568394E-14  0.35527136788E-14  0.97387756598E+03  0.97791832572E+03  0.88807309619E+02 0.  0.
    9000005    2    3    3    0    0 -0.13904367681E+02 -0.26356059621E+02  0.84742427384E+03  0.84800139682E+03  0.95129278568E+01 0.  0.
         22    1    3    3    0    0  0.13904367681E+02  0.26356059621E+02  0.12645329215E+03  0.12991692890E+03  0.00000000000E+00 0. -1.
         22    1    4    4    0    0 -0.14781538967E+02 -0.24785549316E+02  0.74070914605E+03  0.74127110856E+03  0.00000000000E+00 0.  1.
         22    1    4    4    0    0  0.87717128535E+00 -0.15705103044E+01  0.10671512779E+03  0.10673028825E+03  0.00000000000E+00 0.  1.
<mgrwt>
<rscale>  0 0.88807310E+02</rscale>
<asrwt>0</asrwt>
<pdfrwt beam="1">  1        2 0.15013789E+00 0.88807310E+02</pdfrwt>
<pdfrwt beam="2">  1       -2 0.31082821E-03 0.88807310E+02</pdfrwt>
<totfact> 0.26759905E+05</totfact>
</mgrwt>
</event>
<event>
 7    1  0.3056193E-009  0.8359760E+02  0.7818608E-02  0.1319141E+00
          2   -1    0    0  501    0  0.00000000000E+00  0.00000000000E+00  0.66241107299E+02  0.66241107348E+02  0.25500000000E-02 0. -1.
         -2   -1    0    0    0  501 -0.00000000000E+00 -0.00000000000E+00 -0.26375457106E+02  0.26375457229E+02  0.25500000000E-02 0.  1.
         23    2    1    2    0    0  0.00000000000E+00 -0.88817841970E-15  0.39865650193E+02  0.92616564577E+02  0.83597595472E+02 0.  0.
    9000005    2    3    3    0    0 -0.40366804645E+02 -0.52439584221E+01  0.29559054796E+02  0.50626042719E+02  0.56815898997E+01 0.  0.
         22    1    3    3    0    0  0.40366804645E+02  0.52439584221E+01  0.10306595398E+02  0.41990521858E+02  0.00000000000E+00 0.  1.
         22    1    4    4    0    0 -0.14235041169E+02 -0.42067770630E+01  0.89880438526E+01  0.17352760663E+02  0.00000000000E+00 0. -1.
         22    1    4    4    0    0 -0.26131763476E+02 -0.10371813592E+01  0.20571010943E+02  0.33273282056E+02  0.00000000000E+00 0. -1.
<mgrwt>
<rscale>  0 0.83597595E+02</rscale>
<asrwt>0</asrwt>
<pdfrwt beam="1">  1        2 0.10190940E-01 0.83597595E+02</pdfrwt>
<pdfrwt beam="2">  1       -2 0.40577627E-02 0.83597595E+02</pdfrwt>
<totfact> 0.13871483E+05</totfact>
</mgrwt>
</event>
<event>
 7    1  0.3056193E-009  0.9749144E+02  0.7818608E-02  0.1285661E+00
         -2   -1    0    0    0  501 -0.00000000000E+00  0.00000000000E+00  0.66652312576E+02  0.66652312625E+02  0.25500000000E-02 0.  1.
          2   -1    0    0  501    0  0.00000000000E+00 -0.00000000000E+00 -0.35649851726E+02  0.35649851817E+02  0.25500000000E-02 0. -1.
         23    2    1    2    0    0  0.00000000000E+00  0.00000000000E+00  0.31002460850E+02  0.10230216444E+03  0.97491436910E+02 0.  0.
    9000005    2    3    3    0    0  0.47995373713E+02  0.47982683126E+01  0.19360030218E+02  0.52682355216E+02  0.86046792156E+01 0.  0.
         22    1    3    3    0    0 -0.47995373713E+02 -0.47982683126E+01  0.11642430633E+02  0.49619809226E+02  0.00000000000E+00 0. -1.
         22    1    4    4    0    0  0.34072641102E+02  0.80622821375E-01  0.15796156344E+02  0.37556223545E+02  0.00000000000E+00 0.  1.
         22    1    4    4    0    0  0.13922732611E+02  0.47176454912E+01  0.35638738734E+01  0.15126131671E+02  0.00000000000E+00 0.  1.
<mgrwt>
<rscale>  0 0.97491437E+02</rscale>
<asrwt>0</asrwt>
<pdfrwt beam="2">  1        2 0.54845927E-02 0.97491437E+02</pdfrwt>
<pdfrwt beam="1">  1       -2 0.10254202E-01 0.97491437E+02</pdfrwt>
<totfact> 0.75990440E+04</totfact>
</mgrwt>
</event>
<event>
 7    1  0.3056193E-009  0.9106281E+02  0.7818608E-02  0.1300298E+00
          2   -1    0    0  501    0  0.00000000000E+00  0.00000000000E+00  0.82154673726E+02  0.82154673766E+02  0.25500000000E-02 0. -1.
         -2   -1    0    0    0  501 -0.00000000000E+00 -0.00000000000E+00 -0.25234217965E+02  0.25234218094E+02  0.25500000000E-02 0.  1.
         23    2    1    2    0    0  0.17763568394E-14  0.35527136788E-14  0.56920455761E+02  0.10738889186E+03  0.91062812447E+02 0.  0.
    9000005    2    3    3    0    0 -0.13670354333E+02 -0.19399171588E+02 -0.16739129904E+02  0.30000643357E+02  0.75255355977E+01 0.  0.
         22    1    3    3    0    0  0.13670354333E+02  0.19399171588E+02  0.73659585665E+02  0.77388248502E+02  0.00000000000E+00 0. -1.
         22    1    4    4    0    0 -0.55991175513E+01 -0.12963006473E+02 -0.68083271935E+01  0.15676191289E+02  0.00000000000E+00 0.  1.
         22    1    4    4    0    0 -0.80712367819E+01 -0.64361651150E+01 -0.99308027103E+01  0.14324452068E+02  0.00000000000E+00 0.  1.
<mgrwt>
<rscale>  0 0.91062812E+02</rscale>
<asrwt>0</asrwt>
<pdfrwt beam="1">  1        2 0.12639181E-01 0.91062812E+02</pdfrwt>
<pdfrwt beam="2">  1       -2 0.38821874E-02 0.91062812E+02</pdfrwt>
<totfact> 0.11613834E+05</totfact>
</mgrwt>
</event>
<event>
 7    1  0.3056193E-009  0.9715583E+02  0.7818608E-02  0.1286393E+00
          2   -1    0    0  501    0  0.00000000000E+00  0.00000000000E+00  0.19106029656E+03  0.19106029657E+03  0.25500000000E-02 0.  1.
         -2   -1    0    0    0  501 -0.00000000000E+00 -0.00000000000E+00 -0.12351145810E+02  0.12351146073E+02  0.25500000000E-02 0. -1.
         23    2    1    2    0    0 -0.71054273576E-14  0.35527136788E-14  0.17870915075E+03  0.20341144265E+03  0.97155825554E+02 0.  0.
    9000005    2    3    3    0    0  0.44378914025E+02 -0.19328311551E+02  0.95499433066E+02  0.10714655417E+03  0.41437563521E+01 0.  0.
         22    1    3    3    0    0 -0.44378914025E+02  0.19328311551E+02  0.83209717680E+02  0.96264888479E+02  0.00000000000E+00 0. -1.
         22    1    4    4    0    0  0.21725236795E+02 -0.75359015660E+01  0.42873729975E+02  0.48651129978E+02  0.00000000000E+00 0. -1.
         22    1    4    4    0    0  0.22653677230E+02 -0.11792409985E+02  0.52625703091E+02  0.58495424190E+02  0.00000000000E+00 0. -1.
<mgrwt>
<rscale>  0 0.97155826E+02</rscale>
<asrwt>0</asrwt>
<pdfrwt beam="1">  1        2 0.29393890E-01 0.97155826E+02</pdfrwt>
<pdfrwt beam="2">  1       -2 0.19001764E-02 0.97155826E+02</pdfrwt>
<totfact> 0.12811148E+05</totfact>
</mgrwt>
</event>
<event>
 7    1  0.3056193E-009  0.9200940E+02  0.7818608E-02  0.1298057E+00
          2   -1    0    0  501    0  0.00000000000E+00  0.00000000000E+00  0.17196197424E+02  0.17196197613E+02  0.25500000000E-02 0.  1.
         -2   -1    0    0    0  501 -0.00000000000E+00 -0.00000000000E+00 -0.12307561286E+03  0.12307561289E+03  0.25500000000E-02 0. -1.
         23    2    1    2    0    0  0.71054273576E-14  0.00000000000E+00 -0.10587941544E+03  0.14027181050E+03  0.92009402824E+02 0.  0.
    9000005    2    3    3    0    0 -0.27476886221E+02 -0.30879466225E+02 -0.82764894114E+02  0.92913582002E+02  0.86246919995E+01 0.  0.
         22    1    3    3    0    0  0.27476886221E+02  0.30879466225E+02 -0.23114521327E+02  0.47358228502E+02  0.00000000000E+00 0.  1.
         22    1    4    4    0    0 -0.27327017972E+02 -0.29770558390E+02 -0.82330031829E+02  0.91713064495E+02  0.00000000000E+00 0. -1.
         22    1    4    4    0    0 -0.14986824822E+00 -0.11089078348E+01 -0.43486228473E+00  0.12005175070E+01  0.00000000000E+00 0. -1.
<mgrwt>
<rscale>  0 0.92009403E+02</rscale>
<asrwt>0</asrwt>
<pdfrwt beam="1">  1        2 0.26455689E-02 0.92009403E+02</pdfrwt>
<pdfrwt beam="2">  1       -2 0.18934709E-01 0.92009403E+02</pdfrwt>
<totfact> 0.73107304E+04</totfact>
</mgrwt>
</event>
<event>
 7    1  0.3056193E-009  0.8564221E+02  0.7818608E-02  0.1313762E+00
         -2   -1    0    0    0  501 -0.00000000000E+00  0.00000000000E+00  0.23228496818E+03  0.23228496819E+03  0.25500000000E-02 0.  1.
          2   -1    0    0  501    0  0.00000000000E+00 -0.00000000000E+00 -0.78939543498E+01  0.78939547617E+01  0.25500000000E-02 0. -1.
         23    2    1    2    0    0 -0.44408920985E-15 -0.71054273576E-14  0.22439101383E+03  0.24017892295E+03  0.85642208894E+02 0.  0.
    9000005    2    3    3    0    0  0.31242913583E+01 -0.39009802363E+02  0.15487114932E+03  0.16040087185E+03  0.14554755959E+02 0.  0.
         22    1    3    3    0    0 -0.31242913583E+01  0.39009802363E+02  0.69519864504E+02  0.79778051101E+02  0.00000000000E+00 0. -1.
         22    1    4    4    0    0 -0.54923944333E+01 -0.13336224903E+02  0.62446637825E+02  0.64090591095E+02  0.00000000000E+00 0.  1.
         22    1    4    4    0    0  0.86166857916E+01 -0.25673577460E+02  0.92424511500E+02  0.96310280758E+02  0.00000000000E+00 0.  1.
<mgrwt>
<rscale>  0 0.85642209E+02</rscale>
<asrwt>0</asrwt>
<pdfrwt beam="2">  1        2 0.12144547E-02 0.85642209E+02</pdfrwt>
<pdfrwt beam="1">  1       -2 0.35736146E-01 0.85642209E+02</pdfrwt>
<totfact> 0.68340994E+04</totfact>
</mgrwt>
</event>
<event>
 7    1  0.3056193E-009  0.9298295E+02  0.7818608E-02  0.1295785E+00
         -2   -1    0    0    0  501 -0.00000000000E+00  0.00000000000E+00  0.31676151618E+03  0.31676151619E+03  0.25500000000E-02 0.  1.
          2   -1    0    0  501    0  0.00000000000E+00 -0.00000000000E+00 -0.68236107378E+01  0.68236112142E+01  0.25500000000E-02 0. -1.
         23    2    1    2    0    0  0.00000000000E+00  0.00000000000E+00  0.30993790544E+03  0.32358512741E+03  0.92982952456E+02 0.  0.
    9000005    2    3    3    0    0  0.23046666820E+02  0.30339507737E+02  0.24429830003E+03  0.24768919615E+03  0.14718828566E+02 0.  0.
         22    1    3    3    0    0 -0.23046666820E+02 -0.30339507737E+02  0.65639605417E+02  0.75895931252E+02  0.00000000000E+00 0. -1.
         22    1    4    4    0    0  0.23309714123E+02  0.27248906445E+02  0.19338358486E+03  0.19668008686E+03  0.00000000000E+00 0.  1.
         22    1    4    4    0    0 -0.26304730267E+00  0.30906012923E+01  0.50914715170E+02  0.51009109295E+02  0.00000000000E+00 0.  1.
<mgrwt>
<rscale>  0 0.92982952E+02</rscale>
<asrwt>0</asrwt>
<pdfrwt beam="2">  1        2 0.10497863E-02 0.92982952E+02</pdfrwt>
<pdfrwt beam="1">  1       -2 0.48732542E-01 0.92982952E+02</pdfrwt>
<totfact> 0.46998510E+04</totfact>
</mgrwt>
</event>
<event>
 7    1  0.3056193E-009  0.8975942E+02  0.7818608E-02  0.1303435E+00
         -2   -1    0    0    0  501 -0.00000000000E+00  0.00000000000E+00  0.72027919860E+01  0.72027924374E+01  0.25500000000E-02 0.  1.
          2   -1    0    0  501    0  0.00000000000E+00 -0.00000000000E+00 -0.27963996154E+03  0.27963996155E+03  0.25500000000E-02 0. -1.
         23    2    1    2    0    0  0.00000000000E+00 -0.35527136788E-14 -0.27243716956E+03  0.28684275399E+03  0.89759423803E+02 0.  0.
    9000005    2    3    3    0    0  0.33282203740E+02 -0.16137606471E+02 -0.63964435986E+02  0.75114135070E+02  0.13511357733E+02 0.  0.
         22    1    3    3    0    0 -0.33282203740E+02  0.16137606471E+02 -0.20847273357E+03  0.21172861892E+03  0.00000000000E+00 0. -1.
         22    1    4    4    0    0 -0.30237161207E+00  0.63187695720E+00 -0.60993787777E+01  0.61394721723E+01  0.00000000000E+00 0.  1.
         22    1    4    4    0    0  0.33584575352E+02 -0.16769483428E+02 -0.57865057209E+02  0.68974662897E+02  0.00000000000E+00 0.  1.
<mgrwt>
<rscale>  0 0.89759424E+02</rscale>
<asrwt>0</asrwt>
<pdfrwt beam="2">  1        2 0.43021524E-01 0.89759424E+02</pdfrwt>
<pdfrwt beam="1">  1       -2 0.11081221E-02 0.89759424E+02</pdfrwt>
<totfact> 0.18248405E+05</totfact>
</mgrwt>
</event>
<event>
 7    1  0.3056193E-009  0.9081892E+02  0.7818608E-02  0.1300881E+00
         -2   -1    0    0    0  501 -0.00000000000E+00  0.00000000000E+00  0.73097958623E+01  0.73097963071E+01  0.25500000000E-02 0.  1.
          2   -1    0    0  501    0  0.00000000000E+00 -0.00000000000E+00 -0.28208980962E+03  0.28208980963E+03  0.25500000000E-02 0. -1.
         23    2    1    2    0    0  0.00000000000E+00  0.00000000000E+00 -0.27478001376E+03  0.28939960594E+03  0.90818918496E+02 0.  0.
    9000005    2    3    3    0    0 -0.23362020150E+02 -0.32238622622E+02 -0.20354678205E+03  0.20779515708E+03  0.12744490923E+02 0.  0.
         22    1    3    3    0    0  0.23362020150E+02  0.32238622622E+02 -0.71233231708E+02  0.81604448859E+02  0.00000000000E+00 0.  1.
         22    1    4    4    0    0 -0.14618959270E+02 -0.25036175598E+02 -0.11838315984E+03  0.12188148585E+03  0.00000000000E+00 0.  1.
         22    1    4    4    0    0 -0.87430608793E+01 -0.72024470235E+01 -0.85163622206E+02  0.85913671228E+02  0.00000000000E+00 0.  1.
<mgrwt>
<rscale>  0 0.90818918E+02</rscale>
<asrwt>0</asrwt>
<pdfrwt beam="2">  1        2 0.43398424E-01 0.90818918E+02</pdfrwt>
<pdfrwt beam="1">  1       -2 0.11245842E-02 0.90818918E+02</pdfrwt>
<totfact> 0.17743758E+05</totfact>
</mgrwt>
</event>
<event>
 7    1  0.3056193E-009  0.8982474E+02  0.7818608E-02  0.1303277E+00
         -2   -1    0    0    0  501 -0.00000000000E+00  0.00000000000E+00  0.11991498577E+02  0.11991498848E+02  0.25500000000E-02 0.  1.
          2   -1    0    0  501    0  0.00000000000E+00 -0.00000000000E+00 -0.16821256880E+03  0.16821256881E+03  0.25500000000E-02 0. -1.
         23    2    1    2    0    0  0.00000000000E+00  0.00000000000E+00 -0.15622107022E+03  0.18020406766E+03  0.89824736137E+02 0.  0.
    9000005    2    3    3    0    0  0.42344336354E+02 -0.63077942317E+01 -0.97974883312E+02  0.10791679784E+03  0.14633058690E+02 0.  0.
         22    1    3    3    0    0 -0.42344336354E+02  0.63077942317E+01 -0.58246186906E+02  0.72287269823E+02  0.00000000000E+00 0. -1.
         22    1    4    4    0    0  0.90376158874E+01  0.34506360195E+01 -0.31134209028E+02  0.32602520787E+02  0.00000000000E+00 0. -1.
         22    1    4    4    0    0  0.33306720467E+02 -0.97584302512E+01 -0.66840674284E+02  0.75314277053E+02  0.00000000000E+00 0. -1.
<mgrwt>
<rscale>  0 0.89824736E+02</rscale>
<asrwt>0</asrwt>
<pdfrwt beam="2">  1        2 0.25878855E-01 0.89824736E+02</pdfrwt>
<pdfrwt beam="1">  1       -2 0.18448461E-02 0.89824736E+02</pdfrwt>
<totfact> 0.15142855E+05</totfact>
</mgrwt>
</event>
<event>
 6    1  0.3056193E-009  0.3938001E+03  0.7818608E-02  0.1045948E+00
         -2   -1    0    0    0  501 -0.00000000000E+00  0.00000000000E+00  0.16152408040E+02  0.16152408241E+02  0.25500000000E-02 0.  1.
          2   -1    0    0  501    0  0.00000000000E+00 -0.00000000000E+00 -0.24002387078E+04  0.24002387078E+04  0.25500000000E-02 0. -1.
    9000005    2    1    2    0    0 -0.63964042917E+02 -0.26449439143E+02 -0.23230994362E+04  0.23241394541E+04  0.64992015315E+01 0.  0.
         22    1    1    2    0    0  0.63964042917E+02  0.26449439143E+02 -0.60986863517E+02  0.92251661984E+02  0.00000000000E+00 0.  1.
         22    1    3    3    0    0 -0.54098493648E+02 -0.23907579962E+02 -0.19167172961E+04  0.19176296338E+04  0.00000000000E+00 0.  1.
         22    1    3    3    0    0 -0.98655492683E+01 -0.25418591812E+01 -0.40638214015E+03  0.40650982023E+03  0.00000000000E+00 0.  1.
<mgrwt>
<rscale>  0 0.39380013E+03</rscale>
<asrwt>0</asrwt>
<pdfrwt beam="2">  1        2 0.36926721E+00 0.39380013E+03</pdfrwt>
<pdfrwt beam="1">  1       -2 0.24849878E-02 0.39380013E+03</pdfrwt>
<totfact> 0.25268858E+03</totfact>
</mgrwt>
</event>
<event>
 7    1  0.3056193E-009  0.9305480E+02  0.7818608E-02  0.1295618E+00
          2   -1    0    0  501    0  0.00000000000E+00  0.00000000000E+00  0.24879479016E+03  0.24879479017E+03  0.25500000000E-02 0. -1.
         -2   -1    0    0    0  501 -0.00000000000E+00 -0.00000000000E+00 -0.87011421628E+01  0.87011425365E+01  0.25500000000E-02 0.  1.
         23    2    1    2    0    0  0.00000000000E+00  0.00000000000E+00  0.24009364800E+03  0.25749593271E+03  0.93054798659E+02 0.  0.
    9000005    2    3    3    0    0  0.34962790425E+02 -0.17645799734E+02  0.55515193745E+02  0.68808421897E+02  0.10903725276E+02 0.  0.
         22    1    3    3    0    0 -0.34962790425E+02  0.17645799734E+02  0.18457845425E+03  0.18868751081E+03  0.00000000000E+00 0. -1.
         22    1    4    4    0    0  0.12387834039E+02 -0.38588659585E+01  0.26744321264E+02  0.29725544546E+02  0.00000000000E+00 0.  1.
         22    1    4    4    0    0  0.22574956386E+02 -0.13786933775E+02  0.28770872481E+02  0.39082877351E+02  0.00000000000E+00 0.  1.
<mgrwt>
<rscale>  0 0.93054799E+02</rscale>
<asrwt>0</asrwt>
<pdfrwt beam="1">  1        2 0.38276124E-01 0.93054799E+02</pdfrwt>
<pdfrwt beam="2">  1       -2 0.13386372E-02 0.93054799E+02</pdfrwt>
<totfact> 0.15864020E+05</totfact>
</mgrwt>
</event>
<event>
 7    1  0.3056193E-009  0.9075477E+02  0.7818608E-02  0.1301034E+00
          2   -1    0    0  501    0  0.00000000000E+00  0.00000000000E+00  0.14718919597E+03  0.14718919599E+03  0.25500000000E-02 0. -1.
         -2   -1    0    0    0  501 -0.00000000000E+00 -0.00000000000E+00 -0.13989525131E+02  0.13989525364E+02  0.25500000000E-02 0.  1.
         23    2    1    2    0    0  0.00000000000E+00  0.00000000000E+00  0.13319967084E+03  0.16117872136E+03  0.90754767955E+02 0.  0.
    9000005    2    3    3    0    0  0.34890437026E+02  0.17168042843E+02  0.10621200689E+03  0.11384566424E+03  0.12952241769E+02 0.  0.
         22    1    3    3    0    0 -0.34890437026E+02 -0.17168042843E+02  0.26987663950E+02  0.47333057121E+02  0.00000000000E+00 0.  1.
         22    1    4    4    0    0  0.31356683268E+02  0.14879609344E+02  0.10255541403E+03  0.10826937382E+03  0.00000000000E+00 0.  1.
         22    1    4    4    0    0  0.35337537577E+01  0.22884334984E+01  0.36565928602E+01  0.55762904195E+01  0.00000000000E+00 0.  1.
<mgrwt>
<rscale>  0 0.90754768E+02</rscale>
<asrwt>0</asrwt>
<pdfrwt beam="1">  1        2 0.22644491E-01 0.90754768E+02</pdfrwt>
<pdfrwt beam="2">  1       -2 0.21522347E-02 0.90754768E+02</pdfrwt>
<totfact> 0.14067545E+05</totfact>
</mgrwt>
</event>
<event>
 7    1  0.3056193E-009  0.9007432E+02  0.7818608E-02  0.1302672E+00
         -2   -1    0    0    0  501 -0.00000000000E+00  0.00000000000E+00  0.99833117023E+02  0.99833117056E+02  0.25500000000E-02 0.  1.
          2   -1    0    0  501    0  0.00000000000E+00 -0.00000000000E+00 -0.20317364013E+02  0.20317364173E+02  0.25500000000E-02 0. -1.
         23    2    1    2    0    0  0.00000000000E+00  0.00000000000E+00  0.79515753010E+02  0.12015048123E+03  0.90074320218E+02 0.  0.
    9000005    2    3    3    0    0  0.16426752828E+02  0.34786461255E+02  0.70459058629E+02  0.80628844013E+02  0.75229946706E+01 0.  0.
         22    1    3    3    0    0 -0.16426752828E+02 -0.34786461255E+02  0.90566943811E+01  0.39521637216E+02  0.00000000000E+00 0.  1.
         22    1    4    4    0    0  0.13004772872E+02  0.32690454774E+02  0.62913659374E+02  0.72082719751E+02  0.00000000000E+00 0. -1.
         22    1    4    4    0    0  0.34219799562E+01  0.20960064808E+01  0.75453992553E+01  0.85461242625E+01  0.00000000000E+00 0. -1.
<mgrwt>
<rscale>  0 0.90074320E+02</rscale>
<asrwt>0</asrwt>
<pdfrwt beam="2">  1        2 0.31257484E-02 0.90074320E+02</pdfrwt>
<pdfrwt beam="1">  1       -2 0.15358941E-01 0.90074320E+02</pdfrwt>
<totfact> 0.82298224E+04</totfact>
</mgrwt>
</event>
<event>
 7    1  0.3056193E-009  0.8908519E+02  0.7818608E-02  0.1305082E+00
         -2   -1    0    0    0  501 -0.00000000000E+00  0.00000000000E+00  0.15461709410E+01  0.15461730437E+01  0.25500000000E-02 0. -1.
          2   -1    0    0  501    0  0.00000000000E+00 -0.00000000000E+00 -0.12831965502E+04  0.12831965502E+04  0.25500000000E-02 0.  1.
         23    2    1    2    0    0  0.35527136788E-14  0.00000000000E+00 -0.12816503792E+04  0.12847427232E+04  0.89085185521E+02 0.  0.
    9000005    2    3    3    0    0  0.19276971388E+02 -0.59837454064E+00 -0.12185867562E+04  0.12187959248E+04  0.11741555676E+02 0.  0.
         22    1    3    3    0    0 -0.19276971388E+02  0.59837454064E+00 -0.63063623020E+02  0.65946798454E+02  0.00000000000E+00 0. -1.
         22    1    4    4    0    0 -0.33834353606E+00 -0.65391789081E+00 -0.29488595065E+03  0.29488686980E+03  0.00000000000E+00 0. -1.
         22    1    4    4    0    0  0.19615314924E+02  0.55543350162E-01 -0.92370080557E+03  0.92390905498E+03  0.00000000000E+00 0. -1.
<mgrwt>
<rscale>  0 0.89085186E+02</rscale>
<asrwt>0</asrwt>
<pdfrwt beam="2">  1        2 0.19741400E+00 0.89085186E+02</pdfrwt>
<pdfrwt beam="1">  1       -2 0.23787364E-03 0.89085186E+02</pdfrwt>
<totfact> 0.26179789E+05</totfact>
</mgrwt>
</event>
<event>
 7    1  0.3056193E-009  0.9071145E+02  0.7818608E-02  0.1301138E+00
          2   -1    0    0  501    0  0.00000000000E+00  0.00000000000E+00  0.10217320453E+03  0.10217320456E+03  0.25500000000E-02 0. -1.
         -2   -1    0    0    0  501 -0.00000000000E+00 -0.00000000000E+00 -0.20133866729E+02  0.20133866891E+02  0.25500000000E-02 0.  1.
         23    2    1    2    0    0  0.00000000000E+00  0.00000000000E+00  0.82039337797E+02  0.12230707145E+03  0.90711447901E+02 0.  0.
    9000005    2    3    3    0    0  0.28351984259E+02  0.23126216708E+02  0.75737165289E+01  0.39338489073E+02  0.12308477966E+02 0.  0.
         22    1    3    3    0    0 -0.28351984259E+02 -0.23126216708E+02  0.74465621268E+02  0.82968582376E+02  0.00000000000E+00 0. -1.
         22    1    4    4    0    0  0.18825282524E+02  0.90826103033E+01  0.37607835657E+00  0.20905178951E+02  0.00000000000E+00 0.  1.
         22    1    4    4    0    0  0.95267017345E+01  0.14043606405E+02  0.71976381724E+01  0.18433310122E+02  0.00000000000E+00 0.  1.
<mgrwt>
<rscale>  0 0.90711448E+02</rscale>
<asrwt>0</asrwt>
<pdfrwt beam="1">  1        2 0.15718954E-01 0.90711448E+02</pdfrwt>
<pdfrwt beam="2">  1       -2 0.30975181E-02 0.90711448E+02</pdfrwt>
<totfact> 0.12523355E+05</totfact>
</mgrwt>
</event>
<event>
 7    1  0.3056193E-009  0.9099471E+02  0.7818608E-02  0.1300461E+00
          2   -1    0    0  501    0  0.00000000000E+00  0.00000000000E+00  0.18816709349E+02  0.18816709522E+02  0.25500000000E-02 0.  1.
         -2   -1    0    0    0  501 -0.00000000000E+00 -0.00000000000E+00 -0.11000909288E+03  0.11000909291E+03  0.25500000000E-02 0. -1.
         23    2    1    2    0    0  0.00000000000E+00  0.00000000000E+00 -0.91192383530E+02  0.12882580243E+03  0.90994706208E+02 0.  0.
    9000005    2    3    3    0    0  0.12494623440E+02 -0.42509199250E+02 -0.44953568224E+02  0.64785380222E+02  0.14600498572E+02 0.  0.
         22    1    3    3    0    0 -0.12494623440E+02  0.42509199250E+02 -0.46238815306E+02  0.64040422209E+02  0.00000000000E+00 0. -1.
         22    1    4    4    0    0 -0.23334429622E+01 -0.15956582204E+02 -0.13471059978E+02  0.21012542174E+02  0.00000000000E+00 0. -1.
         22    1    4    4    0    0  0.14828066402E+02 -0.26552617046E+02 -0.31482508247E+02  0.43772838047E+02  0.00000000000E+00 0. -1.
<mgrwt>
<rscale>  0 0.90994706E+02</rscale>
<asrwt>0</asrwt>
<pdfrwt beam="1">  1        2 0.28948785E-02 0.90994706E+02</pdfrwt>
<pdfrwt beam="2">  1       -2 0.16924475E-01 0.90994706E+02</pdfrwt>
<totfact> 0.77911743E+04</totfact>
</mgrwt>
</event>
<event>
 7    1  0.3056193E-009  0.9100808E+02  0.7818608E-02  0.1300429E+00
         -2   -1    0    0    0  501 -0.00000000000E+00  0.00000000000E+00  0.52949118228E+02  0.52949118289E+02  0.25500000000E-02 0.  1.
          2   -1    0    0  501    0  0.00000000000E+00 -0.00000000000E+00 -0.39105802996E+02  0.39105803079E+02  0.25500000000E-02 0. -1.
         23    2    1    2    0    0 -0.44408920985E-15  0.00000000000E+00  0.13843315232E+02  0.92054921369E+02  0.91008083001E+02 0.  0.
    9000005    2    3    3    0    0  0.38753740932E+01  0.29085835169E+02  0.40846938705E+02  0.52177609367E+02  0.13893386405E+02 0.  0.
         22    1    3    3    0    0 -0.38753740932E+01 -0.29085835169E+02 -0.27003623473E+02  0.39877312002E+02  0.00000000000E+00 0. -1.
         22    1    4    4    0    0  0.57695589563E+01  0.25450320352E+02  0.40342792864E+02  0.48047346988E+02  0.00000000000E+00 0.  1.
         22    1    4    4    0    0 -0.18941848632E+01  0.36355148173E+01  0.50414584084E+00  0.41302623781E+01  0.00000000000E+00 0.  1.
<mgrwt>
<rscale>  0 0.91008083E+02</rscale>
<asrwt>0</asrwt>
<pdfrwt beam="2">  1        2 0.60162774E-02 0.91008083E+02</pdfrwt>
<pdfrwt beam="1">  1       -2 0.81460182E-02 0.91008083E+02</pdfrwt>
<totfact> 0.95343113E+04</totfact>
</mgrwt>
</event>
<event>
 7    1  0.3056193E-009  0.9253388E+02  0.7818608E-02  0.1296829E+00
          2   -1    0    0  501    0  0.00000000000E+00  0.00000000000E+00  0.60768339571E+03  0.60768339572E+03  0.25500000000E-02 0. -1.
         -2   -1    0    0    0  501 -0.00000000000E+00 -0.00000000000E+00 -0.35226066496E+01  0.35226075725E+01  0.25500000000E-02 0.  1.
         23    2    1    2    0    0 -0.88817841970E-15 -0.71054273576E-14  0.60416078906E+03  0.61120600329E+03  0.92533882535E+02 0.  0.
    9000005    2    3    3    0    0 -0.63041180877E+01 -0.36474502270E+02  0.47970883342E+03  0.48136602299E+03  0.14918177125E+02 0.  0.
         22    1    3    3    0    0  0.63041180877E+01  0.36474502270E+02  0.12445195564E+03  0.12983998030E+03  0.00000000000E+00 0.  1.
         22    1    4    4    0    0 -0.20554839617E+01 -0.34834317896E+02  0.39645430569E+03  0.39798702393E+03  0.00000000000E+00 0.  1.
         22    1    4    4    0    0 -0.42486341260E+01 -0.16401843737E+01  0.83254527730E+02  0.83378999060E+02  0.00000000000E+00 0.  1.
<mgrwt>
<rscale>  0 0.92533883E+02</rscale>
<asrwt>0</asrwt>
<pdfrwt beam="1">  1        2 0.93489624E-01 0.92533883E+02</pdfrwt>
<pdfrwt beam="2">  1       -2 0.54194031E-03 0.92533883E+02</pdfrwt>
<totfact> 0.21990801E+05</totfact>
</mgrwt>
</event>
<event>
 7    1  0.3056193E-009  0.7216692E+02  0.7818608E-02  0.1352876E+00
          2   -1    0    0  501    0  0.00000000000E+00  0.00000000000E+00  0.55624249045E+01  0.55624254890E+01  0.25500000000E-02 0. -1.
         -2   -1    0    0    0  501 -0.00000000000E+00 -0.00000000000E+00 -0.23407344144E+03  0.23407344145E+03  0.25500000000E-02 0.  1.
         23    2    1    2    0    0  0.00000000000E+00  0.00000000000E+00 -0.22851101653E+03  0.23963586694E+03  0.72166917956E+02 0.  0.
    9000005    2    3    3    0    0 -0.12040233969E+02 -0.97967206450E+01 -0.22226072178E+03  0.22290239289E+03  0.66862051928E+01 0.  0.
         22    1    3    3    0    0  0.12040233969E+02  0.97967206450E+01 -0.62502947570E+01  0.16733474056E+02  0.00000000000E+00 0. -1.
         22    1    4    4    0    0 -0.93577493459E+01 -0.10064032260E+02 -0.16216669740E+03  0.16274793383E+03  0.00000000000E+00 0.  1.
         22    1    4    4    0    0 -0.26824846231E+01  0.26731161482E+00 -0.60094024372E+02  0.60154459057E+02  0.00000000000E+00 0.  1.
<mgrwt>
<rscale>  0 0.72166918E+02</rscale>
<asrwt>0</asrwt>
<pdfrwt beam="1">  1        2 0.85575790E-03 0.72166918E+02</pdfrwt>
<pdfrwt beam="2">  1       -2 0.36011291E-01 0.72166918E+02</pdfrwt>
<totfact> 0.10527407E+05</totfact>
</mgrwt>
</event>
<event>
 7    1  0.3056193E-009  0.9243732E+02  0.7818608E-02  0.1297054E+00
          2   -1    0    0  501    0  0.00000000000E+00  0.00000000000E+00  0.27371210734E+03  0.27371210735E+03  0.25500000000E-02 0. -1.
         -2   -1    0    0    0  501 -0.00000000000E+00 -0.00000000000E+00 -0.78044200560E+01  0.78044204726E+01  0.25500000000E-02 0.  1.
         23    2    1    2    0    0  0.00000000000E+00  0.00000000000E+00  0.26590768728E+03  0.28151652782E+03  0.92437315417E+02 0.  0.
    9000005    2    3    3    0    0 -0.33955429870E+02  0.17428654790E+02  0.21142800082E+03  0.21499761726E+03  0.80899116968E+01 0.  0.
         22    1    3    3    0    0  0.33955429870E+02 -0.17428654790E+02  0.54479686464E+02  0.66518910564E+02  0.00000000000E+00 0.  1.
         22    1    4    4    0    0 -0.12913904583E+02  0.25276575772E+01  0.65364817642E+02  0.66676212923E+02  0.00000000000E+00 0.  1.
         22    1    4    4    0    0 -0.21041525287E+02  0.14900997213E+02  0.14606318317E+03  0.14832140433E+03  0.00000000000E+00 0.  1.
<mgrwt>
<rscale>  0 0.92437315E+02</rscale>
<asrwt>0</asrwt>
<pdfrwt beam="1">  1        2 0.42109550E-01 0.92437315E+02</pdfrwt>
<pdfrwt beam="2">  1       -2 0.12006802E-02 0.92437315E+02</pdfrwt>
<totfact> 0.16735393E+05</totfact>
</mgrwt>
</event>
<event>
 7    1  0.3056193E-009  0.9274831E+02  0.7818608E-02  0.1296330E+00
          2   -1    0    0  501    0  0.00000000000E+00  0.00000000000E+00  0.48903075434E+03  0.48903075434E+03  0.25500000000E-02 0. -1.
         -2   -1    0    0    0  501 -0.00000000000E+00 -0.00000000000E+00 -0.43976010084E+01  0.43976017477E+01  0.25500000000E-02 0.  1.
         23    2    1    2    0    0  0.00000000000E+00  0.00000000000E+00  0.48463315333E+03  0.49342835609E+03  0.92748311519E+02 0.  0.
    9000005    2    3    3    0    0  0.33123749595E+02  0.60098659137E+01  0.41108149590E+03  0.41253863124E+03  0.81746388943E+01 0.  0.
         22    1    3    3    0    0 -0.33123749595E+02 -0.60098659137E+01  0.73551657431E+02  0.80889724850E+02  0.00000000000E+00 0.  1.
         22    1    4    4    0    0  0.59711679365E+01  0.22081052785E+01  0.11999374629E+03  0.12016251381E+03  0.00000000000E+00 0.  1.
         22    1    4    4    0    0  0.27152581659E+02  0.38017606352E+01  0.29108774960E+03  0.29237611743E+03  0.00000000000E+00 0.  1.
<mgrwt>
<rscale>  0 0.92748312E+02</rscale>
<asrwt>0</asrwt>
<pdfrwt beam="1">  1        2 0.75235491E-01 0.92748312E+02</pdfrwt>
<pdfrwt beam="2">  1       -2 0.67655415E-03 0.92748312E+02</pdfrwt>
<totfact> 0.20446391E+05</totfact>
</mgrwt>
</event>
<event>
 7    1  0.3056193E-009  0.9464861E+02  0.7818608E-02  0.1291969E+00
          2   -1    0    0  501    0  0.00000000000E+00  0.00000000000E+00  0.45524319864E+03  0.45524319865E+03  0.25500000000E-02 0. -1.
         -2   -1    0    0    0  501 -0.00000000000E+00 -0.00000000000E+00 -0.49195455430E+01  0.49195462039E+01  0.25500000000E-02 0.  1.
         23    2    1    2    0    0  0.00000000000E+00  0.00000000000E+00  0.45032365310E+03  0.46016274485E+03  0.94648609130E+02 0.  0.
    9000005    2    3    3    0    0  0.44133836367E+02  0.13740115178E+02  0.25024661360E+03  0.25481570199E+03  0.13080064421E+02 0.  0.
         22    1    3    3    0    0 -0.44133836367E+02 -0.13740115178E+02  0.20007703951E+03  0.20534704287E+03  0.00000000000E+00 0.  1.
         22    1    4    4    0    0  0.39259038555E+02  0.16315033122E+02  0.22321932359E+03  0.22723186140E+03  0.00000000000E+00 0.  1.
         22    1    4    4    0    0  0.48747978124E+01 -0.25749179443E+01  0.27027290006E+02  0.27583840582E+02  0.00000000000E+00 0.  1.
<mgrwt>
<rscale>  0 0.94648609E+02</rscale>
<asrwt>0</asrwt>
<pdfrwt beam="1">  1        2 0.70037412E-01 0.94648609E+02</pdfrwt>
<pdfrwt beam="2">  1       -2 0.75685325E-03 0.94648609E+02</pdfrwt>
<totfact> 0.18912837E+05</totfact>
</mgrwt>
</event>
<event>
 7    1  0.3056193E-009  0.9206358E+02  0.7818608E-02  0.1297930E+00
         -2   -1    0    0    0  501 -0.00000000000E+00  0.00000000000E+00  0.62375027591E+01  0.62375032803E+01  0.25500000000E-02 0.  1.
          2   -1    0    0  501    0  0.00000000000E+00 -0.00000000000E+00 -0.33970738391E+03  0.33970738392E+03  0.25500000000E-02 0. -1.
         23    2    1    2    0    0  0.00000000000E+00  0.00000000000E+00 -0.33346988115E+03  0.34594488720E+03  0.92063583164E+02 0.  0.
    9000005    2    3    3    0    0 -0.28701987298E+02 -0.35411171854E+02 -0.17167688914E+03  0.17785346139E+03  0.90080129198E+01 0.  0.
         22    1    3    3    0    0  0.28701987298E+02  0.35411171854E+02 -0.16179299201E+03  0.16809142581E+03  0.00000000000E+00 0. -1.
         22    1    4    4    0    0 -0.28273085380E+02 -0.32943649629E+02 -0.16697384159E+03  0.17252511465E+03  0.00000000000E+00 0. -1.
         22    1    4    4    0    0 -0.42890191822E+00 -0.24675222243E+01 -0.47030475491E+01  0.53283467447E+01  0.00000000000E+00 0. -1.
<mgrwt>
<rscale>  0 0.92063583E+02</rscale>
<asrwt>0</asrwt>
<pdfrwt beam="2">  1        2 0.52262660E-01 0.92063583E+02</pdfrwt>
<pdfrwt beam="1">  1       -2 0.95961612E-03 0.92063583E+02</pdfrwt>
<totfact> 0.18333523E+05</totfact>
</mgrwt>
</event>
<event>
 7    1  0.3056193E-009  0.9168408E+02  0.7818608E-02  0.1298824E+00
          2   -1    0    0  501    0  0.00000000000E+00  0.00000000000E+00  0.38306904386E+03  0.38306904387E+03  0.25500000000E-02 0. -1.
         -2   -1    0    0    0  501 -0.00000000000E+00 -0.00000000000E+00 -0.54859370206E+01  0.54859376133E+01  0.25500000000E-02 0.  1.
         23    2    1    2    0    0  0.00000000000E+00  0.00000000000E+00  0.37758310684E+03  0.38855498148E+03  0.91684082936E+02 0.  0.
    9000005    2    3    3    0    0  0.10745921766E+02  0.11161665056E+02  0.37130094556E+03  0.37183603559E+03  0.12553389430E+02 0.  0.
         22    1    3    3    0    0 -0.10745921766E+02 -0.11161665056E+02  0.62821612765E+01  0.16718945891E+02  0.00000000000E+00 0.  1.
         22    1    4    4    0    0 -0.51987711431E+00  0.30011722630E+01  0.18167400923E+03  0.18169954028E+03  0.00000000000E+00 0.  1.
         22    1    4    4    0    0  0.11265798880E+02  0.81604927929E+01  0.18962693633E+03  0.19013649531E+03  0.00000000000E+00 0.  1.
<mgrwt>
<rscale>  0 0.91684083E+02</rscale>
<asrwt>0</asrwt>
<pdfrwt beam="1">  1        2 0.58933692E-01 0.91684083E+02</pdfrwt>
<pdfrwt beam="2">  1       -2 0.84399047E-03 0.91684083E+02</pdfrwt>
<totfact> 0.19366621E+05</totfact>
</mgrwt>
</event>
<event>
 7    1  0.3056193E-009  0.9079931E+02  0.7818608E-02  0.1300928E+00
          2   -1    0    0  501    0  0.00000000000E+00  0.00000000000E+00  0.46038603750E+02  0.46038603821E+02  0.25500000000E-02 0.  1.
         -2   -1    0    0    0  501 -0.00000000000E+00 -0.00000000000E+00 -0.44769577249E+02  0.44769577322E+02  0.25500000000E-02 0. -1.
         23    2    1    2    0    0 -0.17763568394E-14  0.00000000000E+00  0.12690265015E+01  0.90808181143E+02  0.90799313512E+02 0.  0.
    9000005    2    3    3    0    0  0.15441237478E+02  0.30982434555E+02  0.27843040037E+02  0.47167360101E+02  0.15848719649E+02 0.  0.
         22    1    3    3    0    0 -0.15441237478E+02 -0.30982434555E+02 -0.26574013536E+02  0.43640821042E+02  0.00000000000E+00 0. -1.
         22    1    4    4    0    0  0.17066289199E+02  0.31754880059E+02  0.27485153796E+02  0.45332817183E+02  0.00000000000E+00 0.  1.
         22    1    4    4    0    0 -0.16250517214E+01 -0.77244550372E+00  0.35788624131E+00  0.18345429172E+01  0.00000000000E+00 0.  1.
<mgrwt>
<rscale>  0 0.90799314E+02</rscale>
<asrwt>0</asrwt>
<pdfrwt beam="1">  1        2 0.70828621E-02 0.90799314E+02</pdfrwt>
<pdfrwt beam="2">  1       -2 0.68876273E-02 0.90799314E+02</pdfrwt>
<totfact> 0.10011009E+05</totfact>
</mgrwt>
</event>
<event>
 7    1  0.3056193E-009  0.9164411E+02  0.7818608E-02  0.1298918E+00
         -2   -1    0    0    0  501 -0.00000000000E+00  0.00000000000E+00  0.37027774446E+01  0.37027783226E+01  0.25500000000E-02 0.  1.
          2   -1    0    0  501    0  0.00000000000E+00 -0.00000000000E+00 -0.56705016673E+03  0.56705016674E+03  0.25500000000E-02 0. -1.
         23    2    1    2    0    0  0.00000000000E+00  0.00000000000E+00 -0.56334738929E+03  0.57075294506E+03  0.91644112076E+02 0.  0.
    9000005    2    3    3    0    0  0.63330395033E+01  0.30454343718E+02 -0.49091694373E+03  0.49192564088E+03  0.48801714955E+01 0.  0.
         22    1    3    3    0    0 -0.63330395033E+01 -0.30454343718E+02 -0.72430445557E+02  0.78827304180E+02  0.00000000000E+00 0.  1.
         22    1    4    4    0    0  0.47660828494E+00  0.99606433360E+01 -0.18343810305E+03  0.18370895248E+03  0.00000000000E+00 0. -1.
         22    1    4    4    0    0  0.58564312184E+01  0.20493700382E+02 -0.30747884068E+03  0.30821668840E+03  0.00000000000E+00 0. -1.
<mgrwt>
<rscale>  0 0.91644112E+02</rscale>
<asrwt>0</asrwt>
<pdfrwt beam="2">  1        2 0.87238419E-01 0.91644112E+02</pdfrwt>
<pdfrwt beam="1">  1       -2 0.56965858E-03 0.91644112E+02</pdfrwt>
<totfact> 0.22112468E+05</totfact>
</mgrwt>
</event>
<event>
 7    1  0.3056193E-009  0.9228250E+02  0.7818608E-02  0.1297417E+00
          2   -1    0    0  501    0  0.00000000000E+00  0.00000000000E+00  0.95866806467E+03  0.95866806467E+03  0.25500000000E-02 0. -1.
         -2   -1    0    0    0  501 -0.00000000000E+00 -0.00000000000E+00 -0.22208042509E+01  0.22208057149E+01  0.25500000000E-02 0.  1.
         23    2    1    2    0    0  0.00000000000E+00 -0.35527136788E-14  0.95644726042E+03  0.96088887039E+03  0.92282497111E+02 0.  0.
    9000005    2    3    3    0    0  0.27440252602E+02 -0.21325855115E+02  0.79276265582E+03  0.79355564194E+03  0.70829963548E+01 0.  0.
         22    1    3    3    0    0 -0.27440252602E+02  0.21325855115E+02  0.16368460460E+03  0.16733322845E+03  0.00000000000E+00 0.  1.
         22    1    4    4    0    0  0.23748287637E+02 -0.21082464670E+02  0.70374231242E+03  0.70445844006E+03  0.00000000000E+00 0.  1.
         22    1    4    4    0    0  0.36919649656E+01 -0.24339044467E+00  0.89020343398E+02  0.89097201880E+02  0.00000000000E+00 0.  1.
<mgrwt>
<rscale>  0 0.92282497E+02</rscale>
<asrwt>0</asrwt>
<pdfrwt beam="1">  1        2 0.14748750E+00 0.92282497E+02</pdfrwt>
<pdfrwt beam="2">  1       -2 0.34166206E-03 0.92282497E+02</pdfrwt>
<totfact> 0.24160339E+05</totfact>
</mgrwt>
</event>
<event>
 7    1  0.3056193E-009  0.9068910E+02  0.7818608E-02  0.1301191E+00
         -2   -1    0    0    0  501 -0.00000000000E+00  0.00000000000E+00  0.11742149647E+02  0.11742149924E+02  0.25500000000E-02 0.  1.
          2   -1    0    0  501    0  0.00000000000E+00 -0.00000000000E+00 -0.17510662707E+03  0.17510662709E+03  0.25500000000E-02 0. -1.
         23    2    1    2    0    0  0.17763568394E-14  0.00000000000E+00 -0.16336447742E+03  0.18684877701E+03  0.90689100707E+02 0.  0.
    9000005    2    3    3    0    0  0.14783618772E+02 -0.26084210202E+02 -0.15139733826E+03  0.15456636964E+03  0.84063777605E+01 0.  0.
         22    1    3    3    0    0 -0.14783618772E+02  0.26084210202E+02 -0.11967139167E+02  0.32282407371E+02  0.00000000000E+00 0.  1.
         22    1    4    4    0    0  0.15613066299E+02 -0.22203778435E+02 -0.13413301087E+03  0.13685189155E+03  0.00000000000E+00 0.  1.
         22    1    4    4    0    0 -0.82944752718E+00 -0.38804317666E+01 -0.17264327386E+02  0.17714478089E+02  0.00000000000E+00 0.  1.
<mgrwt>
<rscale>  0 0.90689101E+02</rscale>
<asrwt>0</asrwt>
<pdfrwt beam="2">  1        2 0.26939479E-01 0.90689101E+02</pdfrwt>
<pdfrwt beam="1">  1       -2 0.18064847E-02 0.90689101E+02</pdfrwt>
<totfact> 0.14965327E+05</totfact>
</mgrwt>
</event>
<event>
 7    1  0.3056193E-009  0.9224074E+02  0.7818608E-02  0.1297514E+00
         -2   -1    0    0    0  501 -0.00000000000E+00  0.00000000000E+00  0.13482208091E+02  0.13482208332E+02  0.25500000000E-02 0.  1.
          2   -1    0    0  501    0  0.00000000000E+00 -0.00000000000E+00 -0.15777002337E+03  0.15777002340E+03  0.25500000000E-02 0. -1.
         23    2    1    2    0    0  0.00000000000E+00 -0.35527136788E-14 -0.14428781528E+03  0.17125223173E+03  0.92240735212E+02 0.  0.
    9000005    2    3    3    0    0 -0.13538938103E+02  0.27312151565E+02 -0.99359061323E+01  0.33485428903E+02  0.96589466338E+01 0.  0.
         22    1    3    3    0    0  0.13538938103E+02 -0.27312151565E+02 -0.13435190915E+03  0.13776680283E+03  0.00000000000E+00 0. -1.
         22    1    4    4    0    0 -0.57400586860E+01  0.95185170919E+01  0.10532096932E+01  0.11165110479E+02  0.00000000000E+00 0. -1.
         22    1    4    4    0    0 -0.77988794166E+01  0.17793634473E+02 -0.10989115826E+02  0.22320318424E+02  0.00000000000E+00 0. -1.
<mgrwt>
<rscale>  0 0.92240735E+02</rscale>
<asrwt>0</asrwt>
<pdfrwt beam="2">  1        2 0.24272310E-01 0.92240735E+02</pdfrwt>
<pdfrwt beam="1">  1       -2 0.20741860E-02 0.92240735E+02</pdfrwt>
<totfact> 0.13783723E+05</totfact>
</mgrwt>
</event>
<event>
 7    1  0.3056193E-009  0.9204422E+02  0.7818608E-02  0.1297975E+00
          2   -1    0    0  501    0  0.00000000000E+00  0.00000000000E+00  0.51297426720E+03  0.51297426721E+03  0.25500000000E-02 0. -1.
         -2   -1    0    0    0  501 -0.00000000000E+00 -0.00000000000E+00 -0.41289294936E+01  0.41289302810E+01  0.25500000000E-02 0.  1.
         23    2    1    2    0    0  0.00000000000E+00 -0.17763568394E-14  0.50884533771E+03  0.51710319749E+03  0.92044223861E+02 0.  0.
    9000005    2    3    3    0    0 -0.26022131575E+02 -0.89140269847E+01  0.45961388725E+03  0.46070863283E+03  0.15840069540E+02 0.  0.
         22    1    3    3    0    0  0.26022131575E+02  0.89140269847E+01  0.49231450460E+02  0.56394564660E+02  0.00000000000E+00 0.  1.
         22    1    4    4    0    0 -0.11662755033E+02 -0.11397652443E+02  0.18879735656E+03  0.18950031182E+03  0.00000000000E+00 0. -1.
         22    1    4    4    0    0 -0.14359376542E+02  0.24836254580E+01  0.27081653069E+03  0.27120832101E+03  0.00000000000E+00 0. -1.
<mgrwt>
<rscale>  0 0.92044224E+02</rscale>
<asrwt>0</asrwt>
<pdfrwt beam="1">  1        2 0.78919059E-01 0.92044224E+02</pdfrwt>
<pdfrwt beam="2">  1       -2 0.63522045E-03 0.92044224E+02</pdfrwt>
<totfact> 0.21190409E+05</totfact>
</mgrwt>
</event>
<event>
 7    1  0.3056193E-009  0.9344293E+02  0.7818608E-02  0.1294722E+00
         -2   -1    0    0    0  501 -0.00000000000E+00  0.00000000000E+00  0.86063226348E+01  0.86063230126E+01  0.25500000000E-02 0.  1.
          2   -1    0    0  501    0  0.00000000000E+00 -0.00000000000E+00 -0.25363858177E+03  0.25363858179E+03  0.25500000000E-02 0. -1.
         23    2    1    2    0    0  0.00000000000E+00  0.00000000000E+00 -0.24503225914E+03  0.26224490480E+03  0.93442934855E+02 0.  0.
    9000005    2    3    3    0    0  0.20694472840E+02  0.99283135890E+00 -0.24003877092E+03  0.24093336227E+03  0.10132083326E+01 0.  0.
         22    1    3    3    0    0 -0.20694472840E+02 -0.99283135890E+00 -0.49934882187E+01  0.21311542526E+02  0.00000000000E+00 0.  1.
         22    1    4    4    0    0  0.62619388706E+01  0.54185888406E+00 -0.77508746769E+02  0.77763174544E+02  0.00000000000E+00 0.  1.
         22    1    4    4    0    0  0.14432533970E+02  0.45097247483E+00 -0.16253002415E+03  0.16317018773E+03  0.00000000000E+00 0.  1.
<mgrwt>
<rscale>  0 0.93442935E+02</rscale>
<asrwt>0</asrwt>
<pdfrwt beam="2">  1        2 0.39021315E-01 0.93442935E+02</pdfrwt>
<pdfrwt beam="1">  1       -2 0.13240499E-02 0.93442935E+02</pdfrwt>
<totfact> 0.15800403E+05</totfact>
</mgrwt>
</event>
<event>
 7    1  0.3056193E-009  0.8954278E+02  0.7818608E-02  0.1303963E+00
          2   -1    0    0  501    0  0.00000000000E+00  0.00000000000E+00  0.19575269421E+02  0.19575269587E+02  0.25500000000E-02 0. -1.
         -2   -1    0    0    0  501 -0.00000000000E+00 -0.00000000000E+00 -0.10239846281E+03  0.10239846284E+03  0.25500000000E-02 0.  1.
         23    2    1    2    0    0  0.00000000000E+00  0.33306690739E-15 -0.82823193387E+02  0.12197373243E+03  0.89542783289E+02 0.  0.
    9000005    2    3    3    0    0 -0.43730042085E+02 -0.25227553331E+00 -0.36627636383E+02  0.58362336351E+02  0.12336868875E+02 0.  0.
         22    1    3    3    0    0  0.43730042085E+02  0.25227553331E+00 -0.46195557005E+02  0.63611396076E+02  0.00000000000E+00 0. -1.
         22    1    4    4    0    0 -0.18506583767E+02 -0.58785812589E+01 -0.13190410161E+02  0.23474204578E+02  0.00000000000E+00 0. -1.
         22    1    4    4    0    0 -0.25223458318E+02  0.56263057256E+01 -0.23437226222E+02  0.34888131773E+02  0.00000000000E+00 0. -1.
<mgrwt>
<rscale>  0 0.89542783E+02</rscale>
<asrwt>0</asrwt>
<pdfrwt beam="1">  1        2 0.30115800E-02 0.89542783E+02</pdfrwt>
<pdfrwt beam="2">  1       -2 0.15753609E-01 0.89542783E+02</pdfrwt>
<totfact> 0.82890350E+04</totfact>
</mgrwt>
</event>
<event>
 7    1  0.3056193E-009  0.9882796E+02  0.7818608E-02  0.1282780E+00
          2   -1    0    0  501    0  0.00000000000E+00  0.00000000000E+00  0.44120931241E+02  0.44120931315E+02  0.25500000000E-02 0. -1.
         -2   -1    0    0    0  501 -0.00000000000E+00 -0.00000000000E+00 -0.55342021307E+02  0.55342021366E+02  0.25500000000E-02 0.  1.
         23    2    1    2    0    0  0.00000000000E+00  0.00000000000E+00 -0.11221090066E+02  0.99462952680E+02  0.98827962104E+02 0.  0.
    9000005    2    3    3    0    0  0.37216525092E+02 -0.12059374003E+02 -0.35785916101E+02  0.53268484187E+02  0.51382268422E+01 0.  0.
         22    1    3    3    0    0 -0.37216525092E+02  0.12059374003E+02  0.24564826036E+02  0.46194468494E+02  0.00000000000E+00 0. -1.
         22    1    4    4    0    0  0.24297105986E+02 -0.82183046801E+01 -0.20096815387E+02  0.32584841258E+02  0.00000000000E+00 0. -1.
         22    1    4    4    0    0  0.12919419106E+02 -0.38410693226E+01 -0.15689100714E+02  0.20683642929E+02  0.00000000000E+00 0. -1.
<mgrwt>
<rscale>  0 0.98827962E+02</rscale>
<asrwt>0</asrwt>
<pdfrwt beam="1">  1        2 0.67878356E-02 0.98827962E+02</pdfrwt>
<pdfrwt beam="2">  1       -2 0.85141571E-02 0.98827962E+02</pdfrwt>
<totfact> 0.77433656E+04</totfact>
</mgrwt>
</event>
<event>
 7    1  0.3056193E-009  0.9164879E+02  0.7818608E-02  0.1298907E+00
          2   -1    0    0  501    0  0.00000000000E+00  0.00000000000E+00  0.55705022248E+03  0.55705022249E+03  0.25500000000E-02 0. -1.
         -2   -1    0    0    0  501 -0.00000000000E+00 -0.00000000000E+00 -0.37696330628E+01  0.37696339253E+01  0.25500000000E-02 0.  1.
         23    2    1    2    0    0  0.00000000000E+00  0.17763568394E-14  0.55328058942E+03  0.56081985641E+03  0.91648790058E+02 0.  0.
    9000005    2    3    3    0    0 -0.16905547545E+02 -0.15671028122E+02  0.51793844613E+03  0.51862452785E+03  0.13408514069E+02 0.  0.
         22    1    3    3    0    0  0.16905547545E+02  0.15671028122E+02  0.35342143294E+02  0.42195328566E+02  0.00000000000E+00 0.  1.
         22    1    4    4    0    0 -0.58468858016E+01 -0.90269105663E+01  0.12116360239E+03  0.12164000054E+03  0.00000000000E+00 0. -1.
         22    1    4    4    0    0 -0.11058661743E+02 -0.66441175560E+01  0.39677484373E+03  0.39698452730E+03  0.00000000000E+00 0. -1.
<mgrwt>
<rscale>  0 0.91648790E+02</rscale>
<asrwt>0</asrwt>
<pdfrwt beam="1">  1        2 0.85700069E-01 0.91648790E+02</pdfrwt>
<pdfrwt beam="2">  1       -2 0.57994338E-03 0.91648790E+02</pdfrwt>
<totfact> 0.21991452E+05</totfact>
</mgrwt>
</event>
<event>
 7    1  0.3056193E-009  0.9342040E+02  0.7818608E-02  0.1294774E+00
          2   -1    0    0  501    0  0.00000000000E+00  0.00000000000E+00  0.37162846911E+03  0.37162846912E+03  0.25500000000E-02 0. -1.
         -2   -1    0    0    0  501 -0.00000000000E+00 -0.00000000000E+00 -0.58710316980E+01  0.58710322517E+01  0.25500000000E-02 0.  1.
         23    2    1    2    0    0 -0.22204460493E-15  0.00000000000E+00  0.36575743741E+03  0.37749950137E+03  0.93420396663E+02 0.  0.
    9000005    2    3    3    0    0 -0.87481438129E+00 -0.13430178289E+02  0.36337010481E+03  0.36383076529E+03  0.12403939498E+02 0.  0.
         22    1    3    3    0    0  0.87481438129E+00  0.13430178289E+02  0.23873326054E+01  0.13668736081E+02  0.00000000000E+00 0.  1.
         22    1    4    4    0    0 -0.42715588561E+01 -0.15283488667E+01  0.46949663131E+02  0.47168346732E+02  0.00000000000E+00 0. -1.
         22    1    4    4    0    0  0.33967444748E+01 -0.11901829422E+02  0.31642044168E+03  0.31666241856E+03  0.00000000000E+00 0. -1.
<mgrwt>
<rscale>  0 0.93420397E+02</rscale>
<asrwt>0</asrwt>
<pdfrwt beam="1">  1        2 0.57173625E-01 0.93420397E+02</pdfrwt>
<pdfrwt beam="2">  1       -2 0.90323546E-03 0.93420397E+02</pdfrwt>
<totfact> 0.18220964E+05</totfact>
</mgrwt>
</event>
<event>
 7    1  0.3056193E-009  0.9027984E+02  0.7818608E-02  0.1302175E+00
         -2   -1    0    0    0  501 -0.00000000000E+00  0.00000000000E+00  0.69250328639E+01  0.69250333334E+01  0.25500000000E-02 0.  1.
          2   -1    0    0  501    0  0.00000000000E+00 -0.00000000000E+00 -0.29423867937E+03  0.29423867938E+03  0.25500000000E-02 0. -1.
         23    2    1    2    0    0  0.17763568394E-14 -0.17763568394E-14 -0.28731364651E+03  0.30116371271E+03  0.90279844857E+02 0.  0.
    9000005    2    3    3    0    0  0.14006293220E+02 -0.14319784451E+02 -0.27807430024E+03  0.27910474637E+03  0.13149544496E+02 0.  0.
         22    1    3    3    0    0 -0.14006293220E+02  0.14319784451E+02 -0.92393462706E+01  0.22058966341E+02  0.00000000000E+00 0.  1.
         22    1    4    4    0    0 -0.23688657040E+01 -0.11058446104E+01 -0.47666417940E+02  0.47738054174E+02  0.00000000000E+00 0.  1.
         22    1    4    4    0    0  0.16375158924E+02 -0.13213939841E+02 -0.23040788230E+03  0.23136669220E+03  0.00000000000E+00 0.  1.
<mgrwt>
<rscale>  0 0.90279845E+02</rscale>
<asrwt>0</asrwt>
<pdfrwt beam="2">  1        2 0.45267479E-01 0.90279845E+02</pdfrwt>
<pdfrwt beam="1">  1       -2 0.10653899E-02 0.90279845E+02</pdfrwt>
<totfact> 0.18313165E+05</totfact>
</mgrwt>
</event>
<event>
 7    1  0.3056193E-009  0.9425423E+02  0.7818608E-02  0.1292865E+00
         -2   -1    0    0    0  501 -0.00000000000E+00  0.00000000000E+00  0.21262515669E+02  0.21262515822E+02  0.25500000000E-02 0.  1.
          2   -1    0    0  501    0  0.00000000000E+00 -0.00000000000E+00 -0.10445446991E+03  0.10445446994E+03  0.25500000000E-02 0. -1.
         23    2    1    2    0    0  0.00000000000E+00  0.00000000000E+00 -0.83191954238E+02  0.12571698576E+03  0.94254226741E+02 0.  0.
    9000005    2    3    3    0    0  0.40826057607E+02 -0.19411622511E+02 -0.25150281676E+02  0.52147876603E+02  0.65792323002E+01 0.  0.
         22    1    3    3    0    0 -0.40826057607E+02  0.19411622511E+02 -0.58041672562E+02  0.73569109156E+02  0.00000000000E+00 0.  1.
         22    1    4    4    0    0  0.34176519456E+00 -0.51118704607E+00  0.34645279580E+00  0.70579400961E+00  0.00000000000E+00 0.  1.
         22    1    4    4    0    0  0.40484292412E+02 -0.18900435465E+02 -0.25496734471E+02  0.51442082594E+02  0.00000000000E+00 0.  1.
<mgrwt>
<rscale>  0 0.94254227E+02</rscale>
<asrwt>0</asrwt>
<pdfrwt beam="2">  1        2 0.16069918E-01 0.94254227E+02</pdfrwt>
<pdfrwt beam="1">  1       -2 0.32711563E-02 0.94254227E+02</pdfrwt>
<totfact> 0.11345119E+05</totfact>
</mgrwt>
</event>
<event>
 7    1  0.3056193E-009  0.8949633E+02  0.7818608E-02  0.1304076E+00
         -2   -1    0    0    0  501 -0.00000000000E+00  0.00000000000E+00  0.19043674003E+02  0.19043674174E+02  0.25500000000E-02 0. -1.
          2   -1    0    0  501    0  0.00000000000E+00 -0.00000000000E+00 -0.10514769533E+03  0.10514769536E+03  0.25500000000E-02 0.  1.
         23    2    1    2    0    0 -0.88817841970E-15  0.35527136788E-14 -0.86104021330E+02  0.12419136954E+03  0.89496333883E+02 0.  0.
    9000005    2    3    3    0    0  0.77171534423E+01  0.27569658042E+02 -0.89649540603E+02  0.95343298393E+02  0.15286069357E+02 0.  0.
         22    1    3    3    0    0 -0.77171534423E+01 -0.27569658042E+02  0.35455192729E+01  0.28848071144E+02  0.00000000000E+00 0. -1.
         22    1    4    4    0    0  0.90256258947E+01  0.25581879137E+02 -0.88743111080E+02  0.92796736080E+02  0.00000000000E+00 0.  1.
         22    1    4    4    0    0 -0.13084724524E+01  0.19877789053E+01 -0.90642952304E+00  0.25465623133E+01  0.00000000000E+00 0.  1.
<mgrwt>
<rscale>  0 0.89496334E+02</rscale>
<asrwt>0</asrwt>
<pdfrwt beam="2">  1        2 0.16176568E-01 0.89496334E+02</pdfrwt>
<pdfrwt beam="1">  1       -2 0.29297961E-02 0.89496334E+02</pdfrwt>
<totfact> 0.13109844E+05</totfact>
</mgrwt>
</event>
<event>
 7    1  0.3056193E-009  0.9222261E+02  0.7818608E-02  0.1297557E+00
          2   -1    0    0  501    0  0.00000000000E+00  0.00000000000E+00  0.14251752363E+03  0.14251752366E+03  0.25500000000E-02 0. -1.
         -2   -1    0    0    0  501 -0.00000000000E+00 -0.00000000000E+00 -0.14919233438E+02  0.14919233656E+02  0.25500000000E-02 0.  1.
         23    2    1    2    0    0 -0.35527136788E-14 -0.35527136788E-14  0.12759829019E+03  0.15743675731E+03  0.92222605103E+02 0.  0.
    9000005    2    3    3    0    0 -0.25873245718E+02 -0.29412113870E+02  0.22878450199E+02  0.45630039378E+02  0.49172882639E+01 0.  0.
         22    1    3    3    0    0  0.25873245718E+02  0.29412113870E+02  0.10471984000E+03  0.11180671793E+03  0.00000000000E+00 0. -1.
         22    1    4    4    0    0 -0.20606481094E+02 -0.20542482153E+02  0.18047761476E+02  0.34239484960E+02  0.00000000000E+00 0. -1.
         22    1    4    4    0    0 -0.52667646243E+01 -0.88696317171E+01  0.48306887227E+01  0.11390554418E+02  0.00000000000E+00 0. -1.
<mgrwt>
<rscale>  0 0.92222605E+02</rscale>
<asrwt>0</asrwt>
<pdfrwt beam="1">  1        2 0.21925773E-01 0.92222605E+02</pdfrwt>
<pdfrwt beam="2">  1       -2 0.22952667E-02 0.92222605E+02</pdfrwt>
<totfact> 0.13321055E+05</totfact>
</mgrwt>
</event>
<event>
 7    1  0.3056193E-009  0.9072151E+02  0.7818608E-02  0.1301114E+00
          2   -1    0    0  501    0  0.00000000000E+00  0.00000000000E+00  0.22808752702E+03  0.22808752703E+03  0.25500000000E-02 0. -1.
         -2   -1    0    0    0  501 -0.00000000000E+00 -0.00000000000E+00 -0.90210891277E+01  0.90210894882E+01  0.25500000000E-02 0.  1.
         23    2    1    2    0    0 -0.35527136788E-14  0.11102230246E-15  0.21906643789E+03  0.23710861652E+03  0.90721506923E+02 0.  0.
    9000005    2    3    3    0    0  0.29014418362E+02 -0.71312776852E+00  0.19993318118E+03  0.20234618656E+03  0.11329486184E+02 0.  0.
         22    1    3    3    0    0 -0.29014418362E+02  0.71312776852E+00  0.19133256714E+02  0.34762429958E+02  0.00000000000E+00 0.  1.
         22    1    4    4    0    0  0.15236454225E+02 -0.55351525113E+01  0.90026749553E+02  0.91474603502E+02  0.00000000000E+00 0.  1.
         22    1    4    4    0    0  0.13777964136E+02  0.48220247428E+01  0.10990643162E+03  0.11087158306E+03  0.00000000000E+00 0.  1.
<mgrwt>
<rscale>  0 0.90721507E+02</rscale>
<asrwt>0</asrwt>
<pdfrwt beam="1">  1        2 0.35090387E-01 0.90721507E+02</pdfrwt>
<pdfrwt beam="2">  1       -2 0.13878600E-02 0.90721507E+02</pdfrwt>
<totfact> 0.16446938E+05</totfact>
</mgrwt>
</event>
<event>
 7    1  0.3056193E-009  0.1041470E+03  0.7818608E-02  0.1271809E+00
         -2   -1    0    0    0  501 -0.00000000000E+00  0.00000000000E+00  0.12655766850E+02  0.12655767107E+02  0.25500000000E-02 0.  1.
          2   -1    0    0  501    0  0.00000000000E+00 -0.00000000000E+00 -0.21426177322E+03  0.21426177323E+03  0.25500000000E-02 0. -1.
         23    2    1    2    0    0  0.00000000000E+00  0.00000000000E+00 -0.20160600637E+03  0.22691754034E+03  0.10414695536E+03 0.  0.
    9000005    2    3    3    0    0 -0.50865470507E+02 -0.54204256163E+01 -0.88656337271E+02  0.10292437580E+03  0.10807584914E+02 0.  0.
         22    1    3    3    0    0  0.50865470507E+02  0.54204256163E+01 -0.11294966910E+03  0.12399316454E+03  0.00000000000E+00 0. -1.
         22    1    4    4    0    0 -0.10974055959E+00  0.10782334580E+01 -0.23756902523E+01  0.26112323825E+01  0.00000000000E+00 0. -1.
         22    1    4    4    0    0 -0.50755729947E+02 -0.64986590744E+01 -0.86280647019E+02  0.10031314342E+03  0.00000000000E+00 0. -1.
<mgrwt>
<rscale>  0 0.10414696E+03</rscale>
<asrwt>0</asrwt>
<pdfrwt beam="2">  1        2 0.32963347E-01 0.10414696E+03</pdfrwt>
<pdfrwt beam="1">  1       -2 0.19470412E-02 0.10414696E+03</pdfrwt>
<totfact> 0.11059762E+05</totfact>
</mgrwt>
</event>
<event>
 7    1  0.3056193E-009  0.9100548E+02  0.7818608E-02  0.1300435E+00
         -2   -1    0    0    0  501 -0.00000000000E+00  0.00000000000E+00  0.13919017149E+03  0.13919017152E+03  0.25500000000E-02 0.  1.
          2   -1    0    0  501    0  0.00000000000E+00 -0.00000000000E+00 -0.14875327539E+02  0.14875327758E+02  0.25500000000E-02 0. -1.
         23    2    1    2    0    0  0.00000000000E+00  0.00000000000E+00  0.12431484395E+03  0.15406549927E+03  0.91005481369E+02 0.  0.
    9000005    2    3    3    0    0  0.17481752727E+02  0.41009452462E+02  0.51495542988E+02  0.68683783065E+02  0.88478380889E+01 0.  0.
         22    1    3    3    0    0 -0.17481752727E+02 -0.41009452462E+02  0.72819300966E+02  0.85381716209E+02  0.00000000000E+00 0. -1.
         22    1    4    4    0    0  0.62373995041E+01  0.71398192202E+01  0.14112292981E+02  0.17001146557E+02  0.00000000000E+00 0.  1.
         22    1    4    4    0    0  0.11244353223E+02  0.33869633242E+02  0.37383250007E+02  0.51682636508E+02  0.00000000000E+00 0.  1.
<mgrwt>
<rscale>  0 0.91005481E+02</rscale>
<asrwt>0</asrwt>
<pdfrwt beam="2">  1        2 0.22885120E-02 0.91005481E+02</pdfrwt>
<pdfrwt beam="1">  1       -2 0.21413872E-01 0.91005481E+02</pdfrwt>
<totfact> 0.72087160E+04</totfact>
</mgrwt>
</event>
<event>
 7    1  0.3056193E-009  0.9097799E+02  0.7818608E-02  0.1300500E+00
          2   -1    0    0  501    0  0.00000000000E+00  0.00000000000E+00  0.20324410814E+02  0.20324410974E+02  0.25500000000E-02 0. -1.
         -2   -1    0    0    0  501 -0.00000000000E+00 -0.00000000000E+00 -0.10181101011E+03  0.10181101015E+03  0.25500000000E-02 0.  1.
         23    2    1    2    0    0  0.00000000000E+00  0.71054273576E-14 -0.81486599301E+02  0.12213542112E+03  0.90977993090E+02 0.  0.
    9000005    2    3    3    0    0 -0.17196883649E+02 -0.34887414680E+02 -0.71177850193E+02  0.81896946764E+02  0.11311897321E+02 0.  0.
         22    1    3    3    0    0  0.17196883649E+02  0.34887414680E+02 -0.10308749108E+02  0.40238474356E+02  0.00000000000E+00 0. -1.
         22    1    4    4    0    0 -0.12970002412E+01 -0.10491745851E+01 -0.20781332638E+00  0.16811196610E+01  0.00000000000E+00 0. -1.
         22    1    4    4    0    0 -0.15899883408E+02 -0.33838240095E+02 -0.70970036866E+02  0.80215827103E+02  0.00000000000E+00 0. -1.
<mgrwt>
<rscale>  0 0.90977993E+02</rscale>
<asrwt>0</asrwt>
<pdfrwt beam="1">  1        2 0.31268325E-02 0.90977993E+02</pdfrwt>
<pdfrwt beam="2">  1       -2 0.15663232E-01 0.90977993E+02</pdfrwt>
<totfact> 0.79811539E+04</totfact>
</mgrwt>
</event>
<event>
 7    1  0.3056193E-009  0.9092043E+02  0.7818608E-02  0.1300638E+00
          2   -1    0    0  501    0  0.00000000000E+00  0.00000000000E+00  0.12150354496E+03  0.12150354499E+03  0.25500000000E-02 0. -1.
         -2   -1    0    0    0  501 -0.00000000000E+00 -0.00000000000E+00 -0.17008812909E+02  0.17008813100E+02  0.25500000000E-02 0.  1.
         23    2    1    2    0    0  0.00000000000E+00  0.35527136788E-14  0.10449473206E+03  0.13851235809E+03  0.90920428488E+02 0.  0.
    9000005    2    3    3    0    0 -0.43353986855E+01 -0.26066942422E+02 -0.39293495064E+01  0.26914586466E+02  0.32671100492E+01 0.  0.
         22    1    3    3    0    0  0.43353986855E+01  0.26066942422E+02  0.10842408156E+03  0.11159777163E+03  0.00000000000E+00 0. -1.
         22    1    4    4    0    0 -0.35043652370E+01 -0.14532463282E+02 -0.98588750081E+00  0.14981489876E+02  0.00000000000E+00 0. -1.
         22    1    4    4    0    0 -0.83103344849E+00 -0.11534479141E+02 -0.29434620056E+01  0.11933096590E+02  0.00000000000E+00 0. -1.
<mgrwt>
<rscale>  0 0.90920428E+02</rscale>
<asrwt>0</asrwt>
<pdfrwt beam="1">  1        2 0.18692852E-01 0.90920428E+02</pdfrwt>
<pdfrwt beam="2">  1       -2 0.26167406E-02 0.90920428E+02</pdfrwt>
<totfact> 0.13139111E+05</totfact>
</mgrwt>
</event>
<event>
 7    1  0.3056193E-009  0.9689435E+02  0.7818608E-02  0.1286966E+00
         -2   -1    0    0    0  501 -0.00000000000E+00  0.00000000000E+00  0.57456590118E+02  0.57456590175E+02  0.25500000000E-02 0.  1.
          2   -1    0    0  501    0  0.00000000000E+00 -0.00000000000E+00 -0.40850468356E+02  0.40850468436E+02  0.25500000000E-02 0. -1.
         23    2    1    2    0    0  0.00000000000E+00  0.00000000000E+00  0.16606121762E+02  0.98307058610E+02  0.96894347062E+02 0.  0.
    9000005    2    3    3    0    0 -0.14169547041E+02 -0.45098908480E+02  0.92082986122E+01  0.50459222747E+02  0.15054992110E+02 0.  0.
         22    1    3    3    0    0  0.14169547041E+02  0.45098908480E+02  0.73978231498E+01  0.47847835863E+02  0.00000000000E+00 0. -1.
         22    1    4    4    0    0 -0.13008859624E+02 -0.26057273908E+02 -0.34013530427E+00  0.29126064689E+02  0.00000000000E+00 0.  1.
         22    1    4    4    0    0 -0.11606874166E+01 -0.19041634572E+02  0.95484339165E+01  0.21333158058E+02  0.00000000000E+00 0.  1.
<mgrwt>
<rscale>  0 0.96894347E+02</rscale>
<asrwt>0</asrwt>
<pdfrwt beam="2">  1        2 0.62846875E-02 0.96894347E+02</pdfrwt>
<pdfrwt beam="1">  1       -2 0.88394754E-02 0.96894347E+02</pdfrwt>
<totfact> 0.80333690E+04</totfact>
</mgrwt>
</event>
<event>
 7    1  0.3056193E-009  0.9306842E+02  0.7818608E-02  0.1295587E+00
          2   -1    0    0  501    0  0.00000000000E+00  0.00000000000E+00  0.13345711725E+03  0.13345711727E+03  0.25500000000E-02 0. -1.
         -2   -1    0    0    0  501 -0.00000000000E+00 -0.00000000000E+00 -0.16225682452E+02  0.16225682652E+02  0.25500000000E-02 0.  1.
         23    2    1    2    0    0  0.00000000000E+00  0.69388939039E-16  0.11723143480E+03  0.14968279992E+03  0.93068422619E+02 0.  0.
    9000005    2    3    3    0    0  0.10929496391E+02  0.41466275205E-02  0.13114619523E+03  0.13198888949E+03  0.10113778572E+02 0.  0.
         22    1    3    3    0    0 -0.10929496391E+02 -0.41466275205E-02 -0.13914760433E+02  0.17693910435E+02  0.00000000000E+00 0.  1.
         22    1    4    4    0    0  0.80242505394E+01  0.20576523174E+01  0.44177711676E+02  0.44947666666E+02  0.00000000000E+00 0.  1.
         22    1    4    4    0    0  0.29052458513E+01 -0.20535056899E+01  0.86968483553E+02  0.87041222823E+02  0.00000000000E+00 0.  1.
<mgrwt>
<rscale>  0 0.93068423E+02</rscale>
<asrwt>0</asrwt>
<pdfrwt beam="1">  1        2 0.20531864E-01 0.93068423E+02</pdfrwt>
<pdfrwt beam="2">  1       -2 0.24962589E-02 0.93068423E+02</pdfrwt>
<totfact> 0.12710784E+05</totfact>
</mgrwt>
</event>
<event>
 7    1  0.3056193E-009  0.9052216E+02  0.7818608E-02  0.1301592E+00
         -2   -1    0    0    0  501 -0.00000000000E+00  0.00000000000E+00  0.17636534380E+01  0.17636552814E+01  0.25500000000E-02 0. -1.
          2   -1    0    0  501    0  0.00000000000E+00 -0.00000000000E+00 -0.11615458913E+04  0.11615458913E+04  0.25500000000E-02 0.  1.
         23    2    1    2    0    0  0.00000000000E+00  0.00000000000E+00 -0.11597822379E+04  0.11633095466E+04  0.90522162557E+02 0.  0.
    9000005    2    3    3    0    0  0.14564269179E+02 -0.21672862544E+02 -0.10527432080E+04  0.10531315778E+04  0.11663065988E+02 0.  0.
         22    1    3    3    0    0 -0.14564269179E+02  0.21672862544E+02 -0.10703902984E+03  0.11017796884E+03  0.00000000000E+00 0. -1.
         22    1    4    4    0    0  0.64802394190E+01 -0.19014329453E+02 -0.73960588415E+03  0.73987864012E+03  0.00000000000E+00 0.  1.
         22    1    4    4    0    0  0.80840297602E+01 -0.26585330913E+01 -0.31313732389E+03  0.31325293765E+03  0.00000000000E+00 0.  1.
<mgrwt>
<rscale>  0 0.90522163E+02</rscale>
<asrwt>0</asrwt>
<pdfrwt beam="2">  1        2 0.17869876E+00 0.90522163E+02</pdfrwt>
<pdfrwt beam="1">  1       -2 0.27133237E-03 0.90522163E+02</pdfrwt>
<totfact> 0.25422563E+05</totfact>
</mgrwt>
</event>
<event>
 7    1  0.3056193E-009  0.9146141E+02  0.7818608E-02  0.1299351E+00
         -2   -1    0    0    0  501 -0.00000000000E+00  0.00000000000E+00  0.35663314225E+01  0.35663323341E+01  0.25500000000E-02 0. -1.
          2   -1    0    0  501    0  0.00000000000E+00 -0.00000000000E+00 -0.58640011352E+03  0.58640011352E+03  0.25500000000E-02 0.  1.
         23    2    1    2    0    0  0.35527136788E-14  0.00000000000E+00 -0.58283378209E+03  0.58996644586E+03  0.91461410913E+02 0.  0.
    9000005    2    3    3    0    0  0.18028788838E+02 -0.37667341117E+02 -0.40631585836E+03  0.40857613958E+03  0.99004676906E+01 0.  0.
         22    1    3    3    0    0 -0.18028788838E+02  0.37667341117E+02 -0.17651792373E+03  0.18139030628E+03  0.00000000000E+00 0.  1.
         22    1    4    4    0    0  0.86718109407E+01 -0.11643578622E+02 -0.10598669505E+03  0.10697641214E+03  0.00000000000E+00 0.  1.
         22    1    4    4    0    0  0.93569778969E+01 -0.26023762495E+02 -0.30032916332E+03  0.30159972743E+03  0.00000000000E+00 0.  1.
<mgrwt>
<rscale>  0 0.91461411E+02</rscale>
<asrwt>0</asrwt>
<pdfrwt beam="2">  1        2 0.90215325E-01 0.91461411E+02</pdfrwt>
<pdfrwt beam="1">  1       -2 0.54866691E-03 0.91461411E+02</pdfrwt>
<totfact> 0.22450063E+05</totfact>
</mgrwt>
</event>
<event>
 7    1  0.3056193E-009  0.9266664E+02  0.7818608E-02  0.1296520E+00
         -2   -1    0    0    0  501 -0.00000000000E+00  0.00000000000E+00  0.70055649670E+02  0.70055649716E+02  0.25500000000E-02 0.  1.
          2   -1    0    0  501    0  0.00000000000E+00 -0.00000000000E+00 -0.30643874186E+02  0.30643874292E+02  0.25500000000E-02 0. -1.
         23    2    1    2    0    0  0.00000000000E+00  0.00000000000E+00  0.39411775484E+02  0.10069952401E+03  0.92666639567E+02 0.  0.
    9000005    2    3    3    0    0  0.76557979781E+01  0.17945463195E+02  0.64966358297E+02  0.68548511664E+02  0.98802757586E+01 0.  0.
         22    1    3    3    0    0 -0.76557979781E+01 -0.17945463195E+02 -0.25554582813E+02  0.32151012344E+02  0.00000000000E+00 0. -1.
         22    1    4    4    0    0  0.48822788707E+01  0.57058185619E+01  0.38901214525E+02  0.39619408173E+02  0.00000000000E+00 0. -1.
         22    1    4    4    0    0  0.27735191073E+01  0.12239644633E+02  0.26065143772E+02  0.28929103492E+02  0.00000000000E+00 0. -1.
<mgrwt>
<rscale>  0 0.92666640E+02</rscale>
<asrwt>0</asrwt>
<pdfrwt beam="2">  1        2 0.47144422E-02 0.92666640E+02</pdfrwt>
<pdfrwt beam="1">  1       -2 0.10777792E-01 0.92666640E+02</pdfrwt>
<totfact> 0.84785981E+04</totfact>
</mgrwt>
</event>
<event>
 7    1  0.3056193E-009  0.9036222E+02  0.7818608E-02  0.1301977E+00
          2   -1    0    0  501    0  0.00000000000E+00  0.00000000000E+00  0.16606794302E+03  0.16606794304E+03  0.25500000000E-02 0. -1.
         -2   -1    0    0    0  501 -0.00000000000E+00 -0.00000000000E+00 -0.12292153119E+02  0.12292153384E+02  0.25500000000E-02 0.  1.
         23    2    1    2    0    0  0.00000000000E+00  0.35527136788E-14  0.15377578990E+03  0.17836009642E+03  0.90362217971E+02 0.  0.
    9000005    2    3    3    0    0 -0.27118946947E+02  0.29848561334E+02  0.41889739532E+02  0.59427921785E+02  0.12270033101E+02 0.  0.
         22    1    3    3    0    0  0.27118946947E+02 -0.29848561334E+02  0.11188605037E+03  0.11893217464E+03  0.00000000000E+00 0. -1.
         22    1    4    4    0    0 -0.71624773267E+01  0.49160909124E+01  0.31942743865E+01  0.92559397238E+01  0.00000000000E+00 0. -1.
         22    1    4    4    0    0 -0.19956469620E+02  0.24932470422E+02  0.38695465146E+02  0.50171982061E+02  0.00000000000E+00 0. -1.
<mgrwt>
<rscale>  0 0.90362218E+02</rscale>
<asrwt>0</asrwt>
<pdfrwt beam="1">  1        2 0.25548913E-01 0.90362218E+02</pdfrwt>
<pdfrwt beam="2">  1       -2 0.18911006E-02 0.90362218E+02</pdfrwt>
<totfact> 0.14834689E+05</totfact>
</mgrwt>
</event>
<event>
 7    1  0.3056193E-009  0.8947947E+02  0.7818608E-02  0.1304117E+00
          2   -1    0    0  501    0  0.00000000000E+00  0.00000000000E+00  0.17744483159E+03  0.17744483161E+03  0.25500000000E-02 0. -1.
         -2   -1    0    0    0  501 -0.00000000000E+00 -0.00000000000E+00 -0.11280371892E+02  0.11280372181E+02  0.25500000000E-02 0.  1.
         23    2    1    2    0    0  0.00000000000E+00  0.00000000000E+00  0.16616445970E+03  0.18872520379E+03  0.89479466241E+02 0.  0.
    9000005    2    3    3    0    0  0.31634278020E+02 -0.62870679142E+01  0.14790026858E+03  0.15165991752E+03  0.92728835449E+01 0.  0.
         22    1    3    3    0    0 -0.31634278020E+02  0.62870679142E+01  0.18264191126E+02  0.37065286270E+02  0.00000000000E+00 0.  1.
         22    1    4    4    0    0  0.11457600882E+02  0.10814778293E+00  0.36135575285E+02  0.37908681262E+02  0.00000000000E+00 0. -1.
         22    1    4    4    0    0  0.20176677139E+02 -0.63952156971E+01  0.11176469329E+03  0.11375123626E+03  0.00000000000E+00 0. -1.
<mgrwt>
<rscale>  0 0.89479466E+02</rscale>
<asrwt>0</asrwt>
<pdfrwt beam="1">  1        2 0.27299204E-01 0.89479466E+02</pdfrwt>
<pdfrwt beam="2">  1       -2 0.17354419E-02 0.89479466E+02</pdfrwt>
<totfact> 0.15589415E+05</totfact>
</mgrwt>
</event>
<event>
 7    1  0.3056193E-009  0.9220123E+02  0.7818608E-02  0.1297607E+00
         -2   -1    0    0    0  501 -0.00000000000E+00  0.00000000000E+00  0.12768721913E+02  0.12768722168E+02  0.25500000000E-02 0.  1.
          2   -1    0    0  501    0  0.00000000000E+00 -0.00000000000E+00 -0.16644318941E+03  0.16644318943E+03  0.25500000000E-02 0. -1.
         23    2    1    2    0    0  0.00000000000E+00  0.00000000000E+00 -0.15367446750E+03  0.17921191160E+03  0.92201232627E+02 0.  0.
    9000005    2    3    3    0    0  0.25563486169E+02  0.21616547593E+02 -0.13780239548E+03  0.14216208535E+03  0.99895623854E+01 0.  0.
         22    1    3    3    0    0 -0.25563486169E+02 -0.21616547593E+02 -0.15872072022E+02  0.37049826251E+02  0.00000000000E+00 0.  1.
         22    1    4    4    0    0  0.20778855331E+02  0.21218465320E+02 -0.10952505545E+03  0.11348005054E+03  0.00000000000E+00 0. -1.
         22    1    4    4    0    0  0.47846308380E+01  0.39808227341E+00 -0.28277340025E+02  0.28682034806E+02  0.00000000000E+00 0. -1.
<mgrwt>
<rscale>  0 0.92201233E+02</rscale>
<asrwt>0</asrwt>
<pdfrwt beam="2">  1        2 0.25606643E-01 0.92201233E+02</pdfrwt>
<pdfrwt beam="1">  1       -2 0.19644189E-02 0.92201233E+02</pdfrwt>
<totfact> 0.14058449E+05</totfact>
</mgrwt>
</event>
<event>
 7    1  0.3056193E-009  0.9438201E+02  0.7818608E-02  0.1292574E+00
         -2   -1    0    0    0  501 -0.00000000000E+00  0.00000000000E+00  0.37830579233E+01  0.37830587828E+01  0.25500000000E-02 0. -1.
          2   -1    0    0  501    0  0.00000000000E+00 -0.00000000000E+00 -0.58867478653E+03  0.58867478653E+03  0.25500000000E-02 0.  1.
         23    2    1    2    0    0  0.88817841970E-15  0.00000000000E+00 -0.58489172860E+03  0.59245784532E+03  0.94382012517E+02 0.  0.
    9000005    2    3    3    0    0 -0.62656940097E+01 -0.46111277867E+02 -0.30407431616E+03  0.30781082179E+03  0.10991059886E+02 0.  0.
         22    1    3    3    0    0  0.62656940097E+01  0.46111277867E+02 -0.28081741244E+03  0.28464702352E+03  0.00000000000E+00 0. -1.
         22    1    4    4    0    0 -0.63068062193E+01 -0.41887796040E+02 -0.29111105213E+03  0.29417683106E+03  0.00000000000E+00 0. -1.
         22    1    4    4    0    0  0.41112209608E-01 -0.42234818271E+01 -0.12963264032E+02  0.13633990734E+02  0.00000000000E+00 0. -1.
<mgrwt>
<rscale>  0 0.94382013E+02</rscale>
<asrwt>0</asrwt>
<pdfrwt beam="2">  1        2 0.90565279E-01 0.94382013E+02</pdfrwt>
<pdfrwt beam="1">  1       -2 0.58200945E-03 0.94382013E+02</pdfrwt>
<totfact> 0.20680422E+05</totfact>
</mgrwt>
</event>
<event>
 6    1  0.3056193E-009  0.1393450E+03  0.7818608E-02  0.1214213E+00
          2   -1    0    0  501    0  0.00000000000E+00  0.00000000000E+00  0.77031960361E+02  0.77031960403E+02  0.25500000000E-02 0.  1.
         -2   -1    0    0    0  501 -0.00000000000E+00 -0.00000000000E+00 -0.63016111800E+02  0.63016111851E+02  0.25500000000E-02 0. -1.
    9000005    2    1    2    0    0  0.38697317911E+02 -0.44997734050E+02 -0.28994962112E+02  0.66752722348E+02  0.96405201999E+01 0.  0.
         22    1    1    2    0    0 -0.38697317911E+02  0.44997734050E+02  0.43010810674E+02  0.73295349907E+02  0.00000000000E+00 0.  1.
         22    1    3    3    0    0  0.37161839675E+01 -0.41719183362E+01 -0.62318023065E+01  0.83696048814E+01  0.00000000000E+00 0. -1.
         22    1    3    3    0    0  0.34981133944E+02 -0.40825815714E+02 -0.22763159806E+02  0.58383117466E+02  0.00000000000E+00 0. -1.
<mgrwt>
<rscale>  0 0.13934496E+03</rscale>
<asrwt>0</asrwt>
<pdfrwt beam="1">  1        2 0.11851071E-01 0.13934496E+03</pdfrwt>
<pdfrwt beam="2">  1       -2 0.96947865E-02 0.13934496E+03</pdfrwt>
<totfact> 0.33258452E+04</totfact>
</mgrwt>
</event>
<event>
 7    1  0.3056193E-009  0.9197724E+02  0.7818608E-02  0.1298133E+00
          2   -1    0    0  501    0  0.00000000000E+00  0.00000000000E+00  0.56984482086E+01  0.56984487791E+01  0.25500000000E-02 0. -1.
         -2   -1    0    0    0  501 -0.00000000000E+00 -0.00000000000E+00 -0.37114545348E+03  0.37114545349E+03  0.25500000000E-02 0.  1.
         23    2    1    2    0    0 -0.44408920985E-15  0.00000000000E+00 -0.36544700527E+03  0.37684390226E+03  0.91977241829E+02 0.  0.
    9000005    2    3    3    0    0 -0.39243481951E+01 -0.11452381525E+02 -0.36432519195E+03  0.36468594123E+03  0.10790398080E+02 0.  0.
         22    1    3    3    0    0  0.39243481951E+01  0.11452381525E+02 -0.11218133173E+01  0.12157961033E+02  0.00000000000E+00 0. -1.
         22    1    4    4    0    0  0.31820503886E+01 -0.76516287867E+00 -0.58364698041E+02  0.58456384565E+02  0.00000000000E+00 0.  1.
         22    1    4    4    0    0 -0.71063985837E+01 -0.10687218647E+02 -0.30596049391E+03  0.30622955667E+03  0.00000000000E+00 0.  1.
<mgrwt>
<rscale>  0 0.91977242E+02</rscale>
<asrwt>0</asrwt>
<pdfrwt beam="1">  1        2 0.87668468E-03 0.91977242E+02</pdfrwt>
<pdfrwt beam="2">  1       -2 0.57099282E-01 0.91977242E+02</pdfrwt>
<totfact> 0.43854750E+04</totfact>
</mgrwt>
</event>
<event>
 7    1  0.3056193E-009  0.9185564E+02  0.7818608E-02  0.1298419E+00
          2   -1    0    0  501    0  0.00000000000E+00  0.00000000000E+00  0.33239634262E+02  0.33239634360E+02  0.25500000000E-02 0. -1.
         -2   -1    0    0    0  501 -0.00000000000E+00 -0.00000000000E+00 -0.63459317381E+02  0.63459317433E+02  0.25500000000E-02 0.  1.
         23    2    1    2    0    0 -0.35527136788E-14  0.00000000000E+00 -0.30219683119E+02  0.96698951793E+02  0.91855636898E+02 0.  0.
    9000005    2    3    3    0    0 -0.18260143810E+02 -0.19832584555E+02 -0.53903283560E+02  0.60814732532E+02  0.81304029584E+01 0.  0.
         22    1    3    3    0    0  0.18260143810E+02  0.19832584555E+02  0.23683600441E+02  0.35884219260E+02  0.00000000000E+00 0. -1.
         22    1    4    4    0    0 -0.15332436648E+02 -0.14055129533E+02 -0.46730142995E+02  0.51150137284E+02  0.00000000000E+00 0. -1.
         22    1    4    4    0    0 -0.29277071617E+01 -0.57774550213E+01 -0.71731405651E+01  0.96645952483E+01  0.00000000000E+00 0. -1.
<mgrwt>
<rscale>  0 0.91855637E+02</rscale>
<asrwt>0</asrwt>
<pdfrwt beam="1">  1        2 0.51137899E-02 0.91855637E+02</pdfrwt>
<pdfrwt beam="2">  1       -2 0.97629719E-02 0.91855637E+02</pdfrwt>
<totfact> 0.88935600E+04</totfact>
</mgrwt>
</event>
<event>
 7    1  0.3056193E-009  0.8933542E+02  0.7818608E-02  0.1304469E+00
          2   -1    0    0  501    0  0.00000000000E+00  0.00000000000E+00  0.11111761204E+02  0.11111761497E+02  0.25500000000E-02 0. -1.
         -2   -1    0    0    0  501 -0.00000000000E+00 -0.00000000000E+00 -0.17955789570E+03  0.17955789572E+03  0.25500000000E-02 0.  1.
         23    2    1    2    0    0  0.35527136788E-14  0.00000000000E+00 -0.16844613450E+03  0.19066965721E+03  0.89335423857E+02 0.  0.
    9000005    2    3    3    0    0  0.27005254387E+02 -0.33840183049E+02 -0.87522754070E+02  0.98892561745E+02  0.15654537209E+02 0.  0.
         22    1    3    3    0    0 -0.27005254387E+02  0.33840183049E+02 -0.80923380426E+02  0.91777095469E+02  0.00000000000E+00 0. -1.
         22    1    4    4    0    0  0.19095073409E+02 -0.13625979724E+02 -0.35817668651E+02  0.42815821136E+02  0.00000000000E+00 0. -1.
         22    1    4    4    0    0  0.79101809771E+01 -0.20214203325E+02 -0.51705085419E+02  0.56076740609E+02  0.00000000000E+00 0. -1.
<mgrwt>
<rscale>  0 0.89335424E+02</rscale>
<asrwt>0</asrwt>
<pdfrwt beam="1">  1        2 0.17095019E-02 0.89335424E+02</pdfrwt>
<pdfrwt beam="2">  1       -2 0.27624290E-01 0.89335424E+02</pdfrwt>
<totfact> 0.68671261E+04</totfact>
</mgrwt>
</event>
<event>
 7    1  0.3056193E-009  0.9458881E+02  0.7818608E-02  0.1292105E+00
         -2   -1    0    0    0  501 -0.00000000000E+00  0.00000000000E+00  0.17844717957E+02  0.17844718140E+02  0.25500000000E-02 0. -1.
          2   -1    0    0  501    0  0.00000000000E+00 -0.00000000000E+00 -0.12534580393E+03  0.12534580395E+03  0.25500000000E-02 0.  1.
         23    2    1    2    0    0  0.00000000000E+00  0.00000000000E+00 -0.10750108597E+03  0.14319052209E+03  0.94588805535E+02 0.  0.
    9000005    2    3    3    0    0 -0.26378365909E+02 -0.80047665009E+01 -0.11191054244E+03  0.11527390014E+03  0.20513580243E+01 0.  0.
         22    1    3    3    0    0  0.26378365909E+02  0.80047665009E+01  0.44094564713E+01  0.27916621951E+02  0.00000000000E+00 0. -1.
         22    1    4    4    0    0 -0.17227750592E+01 -0.85137606419E+00 -0.97062355168E+01  0.98946350623E+01  0.00000000000E+00 0. -1.
         22    1    4    4    0    0 -0.24655590850E+02 -0.71533904367E+01 -0.10220430692E+03  0.10537926508E+03  0.00000000000E+00 0. -1.
<mgrwt>
<rscale>  0 0.94588806E+02</rscale>
<asrwt>0</asrwt>
<pdfrwt beam="2">  1        2 0.19283969E-01 0.94588806E+02</pdfrwt>
<pdfrwt beam="1">  1       -2 0.27453413E-02 0.94588806E+02</pdfrwt>
<totfact> 0.11909600E+05</totfact>
</mgrwt>
</event>
<event>
 7    1  0.3056193E-009  0.8712649E+02  0.7818608E-02  0.1309963E+00
          2   -1    0    0  501    0  0.00000000000E+00  0.00000000000E+00  0.78545003002E+02  0.78545003043E+02  0.25500000000E-02 0. -1.
         -2   -1    0    0    0  501 -0.00000000000E+00 -0.00000000000E+00 -0.24161387649E+02  0.24161387784E+02  0.25500000000E-02 0.  1.
         23    2    1    2    0    0  0.00000000000E+00  0.00000000000E+00  0.54383615353E+02  0.10270639083E+03  0.87126489071E+02 0.  0.
    9000005    2    3    3    0    0  0.51104704399E+01 -0.40619518268E+02  0.14759404219E+02  0.45731481609E+02  0.14052267605E+02 0.  0.
         22    1    3    3    0    0 -0.51104704399E+01  0.40619518268E+02  0.39624211134E+02  0.56974909218E+02  0.00000000000E+00 0. -1.
         22    1    4    4    0    0  0.76436175241E+01 -0.25562889402E+02  0.38301654965E+01  0.26954709629E+02  0.00000000000E+00 0. -1.
         22    1    4    4    0    0 -0.25331470842E+01 -0.15056628866E+02  0.10929238722E+02  0.18776771980E+02  0.00000000000E+00 0. -1.
<mgrwt>
<rscale>  0 0.87126489E+02</rscale>
<asrwt>0</asrwt>
<pdfrwt beam="1">  1        2 0.12083847E-01 0.87126489E+02</pdfrwt>
<pdfrwt beam="2">  1       -2 0.37171366E-02 0.87126489E+02</pdfrwt>
<totfact> 0.12957708E+05</totfact>
</mgrwt>
</event>
<event>
 6    1  0.3056193E-009  0.1447739E+03  0.7818608E-02  0.1207046E+00
         -2   -1    0    0    0  501 -0.00000000000E+00  0.00000000000E+00  0.60296550523E+02  0.60296550576E+02  0.25500000000E-02 0. -1.
          2   -1    0    0  501    0  0.00000000000E+00 -0.00000000000E+00 -0.86901660558E+02  0.86901660595E+02  0.25500000000E-02 0.  1.
    9000005    2    1    2    0    0  0.56523284600E+02  0.30810834615E+02 -0.46111738625E+02  0.79932337279E+02  0.10894809416E+02 0.  0.
         22    1    1    2    0    0 -0.56523284600E+02 -0.30810834615E+02  0.19506628590E+02  0.67265873893E+02  0.00000000000E+00 0. -1.
         22    1    3    3    0    0  0.91811735184E+01  0.94082188594E+01 -0.69417780097E+01  0.14865961497E+02  0.00000000000E+00 0.  1.
         22    1    3    3    0    0  0.47342111081E+02  0.21402615756E+02 -0.39169960616E+02  0.65066375782E+02  0.00000000000E+00 0.  1.
<mgrwt>
<rscale>  0 0.14477390E+03</rscale>
<asrwt>0</asrwt>
<pdfrwt beam="2">  1        2 0.13369486E-01 0.14477390E+03</pdfrwt>
<pdfrwt beam="1">  1       -2 0.92763924E-02 0.14477390E+03</pdfrwt>
<totfact> 0.30978064E+04</totfact>
</mgrwt>
</event>
<event>
 7    1  0.3056193E-009  0.9075136E+02  0.7818608E-02  0.1301042E+00
         -2   -1    0    0    0  501 -0.00000000000E+00  0.00000000000E+00  0.51721567203E+02  0.51721567266E+02  0.25500000000E-02 0.  1.
          2   -1    0    0  501    0  0.00000000000E+00 -0.00000000000E+00 -0.39808394561E+02  0.39808394642E+02  0.25500000000E-02 0. -1.
         23    2    1    2    0    0  0.22204460493E-15 -0.35527136788E-14  0.11913172642E+02  0.91529961908E+02  0.90751364973E+02 0.  0.
    9000005    2    3    3    0    0 -0.19623777827E+01  0.29174054616E+02 -0.28209019659E+02  0.41883545075E+02  0.10173798143E+02 0.  0.
         22    1    3    3    0    0  0.19623777827E+01 -0.29174054616E+02  0.40122192301E+02  0.49646416833E+02  0.00000000000E+00 0.  1.
         22    1    4    4    0    0  0.24392117409E+01  0.10112014270E+02 -0.50372009784E+01  0.11557507525E+02  0.00000000000E+00 0.  1.
         22    1    4    4    0    0 -0.44015895236E+01  0.19062040346E+02 -0.23171818681E+02  0.30326037550E+02  0.00000000000E+00 0.  1.
<mgrwt>
<rscale>  0 0.90751365E+02</rscale>
<asrwt>0</asrwt>
<pdfrwt beam="2">  1        2 0.61243684E-02 0.90751365E+02</pdfrwt>
<pdfrwt beam="1">  1       -2 0.79571642E-02 0.90751365E+02</pdfrwt>
<totfact> 0.96568919E+04</totfact>
</mgrwt>
</event>
<event>
 7    1  0.3056193E-009  0.9034730E+02  0.7818608E-02  0.1302013E+00
          2   -1    0    0  501    0  0.00000000000E+00  0.00000000000E+00  0.24984781465E+03  0.24984781466E+03  0.25500000000E-02 0. -1.
         -2   -1    0    0    0  501 -0.00000000000E+00 -0.00000000000E+00 -0.81676064767E+01  0.81676068747E+01  0.25500000000E-02 0.  1.
         23    2    1    2    0    0  0.00000000000E+00  0.00000000000E+00  0.24168020817E+03  0.25801542154E+03  0.90347300616E+02 0.  0.
    9000005    2    3    3    0    0 -0.13850968826E+02  0.14491779088E+02  0.23638704185E+03  0.23728190741E+03  0.46913780398E+01 0.  0.
         22    1    3    3    0    0  0.13850968826E+02 -0.14491779088E+02  0.52931663202E+01  0.20733514131E+02  0.00000000000E+00 0.  1.
         22    1    4    4    0    0 -0.51026858664E+01  0.81135868376E+01  0.95638921806E+02  0.96118005902E+02  0.00000000000E+00 0.  1.
         22    1    4    4    0    0 -0.87482829593E+01  0.63781922499E+01  0.14074812005E+03  0.14116390150E+03  0.00000000000E+00 0.  1.
<mgrwt>
<rscale>  0 0.90347301E+02</rscale>
<asrwt>0</asrwt>
<pdfrwt beam="1">  1        2 0.38438127E-01 0.90347301E+02</pdfrwt>
<pdfrwt beam="2">  1       -2 0.12565548E-02 0.90347301E+02</pdfrwt>
<totfact> 0.17197688E+05</totfact>
</mgrwt>
</event>
<event>
 7    1  0.3056193E-009  0.9105355E+02  0.7818608E-02  0.1300320E+00
          2   -1    0    0  501    0  0.00000000000E+00  0.00000000000E+00  0.70872642399E+03  0.70872642400E+03  0.25500000000E-02 0.  1.
         -2   -1    0    0    0  501 -0.00000000000E+00 -0.00000000000E+00 -0.29245232097E+01  0.29245243214E+01  0.25500000000E-02 0. -1.
         23    2    1    2    0    0  0.00000000000E+00 -0.71054273576E-14  0.70580190078E+03  0.71165094832E+03  0.91053550695E+02 0.  0.
    9000005    2    3    3    0    0 -0.14662015569E+02 -0.36393263949E+02  0.53163484038E+03  0.53311913242E+03  0.64001153684E+01 0.  0.
         22    1    3    3    0    0  0.14662015569E+02  0.36393263949E+02  0.17416706040E+03  0.17853181590E+03  0.00000000000E+00 0. -1.
         22    1    4    4    0    0 -0.74230112765E+01 -0.26305217270E+02  0.36153481204E+03  0.36256652613E+03  0.00000000000E+00 0.  1.
         22    1    4    4    0    0 -0.72390042920E+01 -0.10088046679E+02  0.17010002834E+03  0.17055260628E+03  0.00000000000E+00 0.  1.
<mgrwt>
<rscale>  0 0.91053551E+02</rscale>
<asrwt>0</asrwt>
<pdfrwt beam="1">  1        2 0.10903480E+00 0.91053551E+02</pdfrwt>
<pdfrwt beam="2">  1       -2 0.44992689E-03 0.91053551E+02</pdfrwt>
<totfact> 0.23867195E+05</totfact>
</mgrwt>
</event>
<event>
 7    1  0.3056193E-009  0.8891406E+02  0.7818608E-02  0.1305503E+00
          2   -1    0    0  501    0  0.00000000000E+00  0.00000000000E+00  0.20838600206E+03  0.20838600207E+03  0.25500000000E-02 0. -1.
         -2   -1    0    0    0  501 -0.00000000000E+00 -0.00000000000E+00 -0.94844544979E+01  0.94844548407E+01  0.25500000000E-02 0.  1.
         23    2    1    2    0    0  0.88817841970E-15  0.35527136788E-14  0.19890154756E+03  0.21787045691E+03  0.88914061735E+02 0.  0.
    9000005    2    3    3    0    0 -0.76480472699E+01 -0.20419715980E+02  0.19408208120E+03  0.19553920787E+03  0.96057349838E+01 0.  0.
         22    1    3    3    0    0  0.76480472699E+01  0.20419715980E+02  0.48194663592E+01  0.22331249041E+02  0.00000000000E+00 0.  1.
         22    1    4    4    0    0 -0.32758165070E+01 -0.18749401971E+02  0.14762130401E+03  0.14884327477E+03  0.00000000000E+00 0.  1.
         22    1    4    4    0    0 -0.43722307629E+01 -0.16703140090E+01  0.46460777191E+02  0.46695933098E+02  0.00000000000E+00 0.  1.
<mgrwt>
<rscale>  0 0.88914062E+02</rscale>
<asrwt>0</asrwt>
<pdfrwt beam="1">  1        2 0.32059385E-01 0.88914062E+02</pdfrwt>
<pdfrwt beam="2">  1       -2 0.14591469E-02 0.88914062E+02</pdfrwt>
<totfact> 0.16795587E+05</totfact>
</mgrwt>
</event>
<event>
 7    1  0.3056193E-009  0.9176280E+02  0.7818608E-02  0.1298638E+00
         -2   -1    0    0    0  501 -0.00000000000E+00  0.00000000000E+00  0.16967556086E+03  0.16967556088E+03  0.25500000000E-02 0.  1.
          2   -1    0    0  501    0  0.00000000000E+00 -0.00000000000E+00 -0.12406636466E+02  0.12406636728E+02  0.25500000000E-02 0. -1.
         23    2    1    2    0    0  0.00000000000E+00  0.00000000000E+00  0.15726892439E+03  0.18208219760E+03  0.91762803495E+02 0.  0.
    9000005    2    3    3    0    0  0.34423663835E+02  0.29948950999E+02  0.83413584704E+02  0.95268952658E+02  0.60348098375E+01 0.  0.
         22    1    3    3    0    0 -0.34423663835E+02 -0.29948950999E+02  0.73855339688E+02  0.86813244947E+02  0.00000000000E+00 0.  1.
         22    1    4    4    0    0  0.64523966653E-03  0.69561418298E+00  0.53158075776E+00  0.87547564781E+00  0.00000000000E+00 0.  1.
         22    1    4    4    0    0  0.34423018595E+02  0.29253336816E+02  0.82882003946E+02  0.94393477010E+02  0.00000000000E+00 0.  1.
<mgrwt>
<rscale>  0 0.91762803E+02</rscale>
<asrwt>0</asrwt>
<pdfrwt beam="2">  1        2 0.19087134E-02 0.91762803E+02</pdfrwt>
<pdfrwt beam="1">  1       -2 0.26103931E-01 0.91762803E+02</pdfrwt>
<totfact> 0.65605423E+04</totfact>
</mgrwt>
</event>
<event>
 7    1  0.3056193E-009  0.9146258E+02  0.7818608E-02  0.1299348E+00
         -2   -1    0    0    0  501 -0.00000000000E+00  0.00000000000E+00  0.54603955091E+02  0.54603955151E+02  0.25500000000E-02 0.  1.
          2   -1    0    0  501    0  0.00000000000E+00 -0.00000000000E+00 -0.38300359421E+02  0.38300359506E+02  0.25500000000E-02 0. -1.
         23    2    1    2    0    0  0.00000000000E+00  0.00000000000E+00  0.16303595670E+02  0.92904314657E+02  0.91462584974E+02 0.  0.
    9000005    2    3    3    0    0 -0.94189033992E+01 -0.33197480401E+02 -0.21480985702E+02  0.41733394834E+02  0.94580680602E+01 0.  0.
         22    1    3    3    0    0  0.94189033992E+01  0.33197480401E+02  0.37784581371E+02  0.51170919824E+02  0.00000000000E+00 0.  1.
         22    1    4    4    0    0 -0.13162118691E+01 -0.10192160083E+02 -0.18900299602E+01  0.10449150879E+02  0.00000000000E+00 0.  1.
         22    1    4    4    0    0 -0.81026915301E+01 -0.23005320318E+02 -0.19590955741E+02  0.31284243954E+02  0.00000000000E+00 0.  1.
<mgrwt>
<rscale>  0 0.91462585E+02</rscale>
<asrwt>0</asrwt>
<pdfrwt beam="2">  1        2 0.58923630E-02 0.91462585E+02</pdfrwt>
<pdfrwt beam="1">  1       -2 0.84006085E-02 0.91462585E+02</pdfrwt>
<totfact> 0.93466804E+04</totfact>
</mgrwt>
</event>
<event>
 7    1  0.3056193E-009  0.9304059E+02  0.7818608E-02  0.1295651E+00
          2   -1    0    0  501    0  0.00000000000E+00  0.00000000000E+00  0.10383858357E+04  0.10383858357E+04  0.25500000000E-02 0. -1.
         -2   -1    0    0    0  501 -0.00000000000E+00 -0.00000000000E+00 -0.20841358687E+01  0.20841374287E+01  0.25500000000E-02 0.  1.
         23    2    1    2    0    0  0.00000000000E+00  0.00000000000E+00  0.10363016998E+04  0.10404699731E+04  0.93040592838E+02 0.  0.
    9000005    2    3    3    0    0  0.48897687183E+01  0.17486557914E+02  0.99699045135E+03  0.99716796621E+03  0.49298294012E+01 0.  0.
         22    1    3    3    0    0 -0.48897687183E+01 -0.17486557914E+02  0.39311248479E+02  0.43302006913E+02  0.00000000000E+00 0.  1.
         22    1    4    4    0    0  0.32483936544E+01  0.92051594600E+01  0.65799636031E+03  0.65806876328E+03  0.00000000000E+00 0. -1.
         22    1    4    4    0    0  0.16413750639E+01  0.82813984536E+01  0.33899409103E+03  0.33909920293E+03  0.00000000000E+00 0. -1.
<mgrwt>
<rscale>  0 0.93040593E+02</rscale>
<asrwt>0</asrwt>
<pdfrwt beam="1">  1        2 0.15975157E+00 0.93040593E+02</pdfrwt>
<pdfrwt beam="2">  1       -2 0.32063660E-03 0.93040593E+02</pdfrwt>
<totfact> 0.23729585E+05</totfact>
</mgrwt>
</event>
<event>
 7    1  0.3056193E-009  0.1061898E+03  0.7818608E-02  0.1267793E+00
         -2   -1    0    0    0  501 -0.00000000000E+00  0.00000000000E+00  0.21802282401E+02  0.21802282550E+02  0.25500000000E-02 0.  1.
          2   -1    0    0  501    0  0.00000000000E+00 -0.00000000000E+00 -0.12930146548E+03  0.12930146550E+03  0.25500000000E-02 0. -1.
         23    2    1    2    0    0  0.00000000000E+00 -0.35527136788E-14 -0.10749918308E+03  0.15110374805E+03  0.10618977499E+03 0.  0.
    9000005    2    3    3    0    0 -0.45794274236E+02  0.24365775018E+02 -0.46297793840E+02  0.70876467221E+02  0.13754321001E+02 0.  0.
         22    1    3    3    0    0  0.45794274236E+02 -0.24365775018E+02 -0.61201389235E+02  0.80227280830E+02  0.00000000000E+00 0. -1.
         22    1    4    4    0    0 -0.30462576164E+02  0.22116852089E+02 -0.37113775053E+02  0.52863560148E+02  0.00000000000E+00 0.  1.
         22    1    4    4    0    0 -0.15331698072E+02  0.22489229294E+01 -0.91840187865E+01  0.18012907072E+02  0.00000000000E+00 0.  1.
<mgrwt>
<rscale>  0 0.10618977E+03</rscale>
<asrwt>0</asrwt>
<pdfrwt beam="2">  1        2 0.19892533E-01 0.10618977E+03</pdfrwt>
<pdfrwt beam="1">  1       -2 0.33541974E-02 0.10618977E+03</pdfrwt>
<totfact> 0.87391220E+04</totfact>
</mgrwt>
</event>
<event>
 7    1  0.3056193E-009  0.8194864E+02  0.7818608E-02  0.1323611E+00
         -2   -1    0    0    0  501 -0.00000000000E+00  0.00000000000E+00  0.35061534348E+01  0.35061543621E+01  0.25500000000E-02 0.  1.
          2   -1    0    0  501    0  0.00000000000E+00 -0.00000000000E+00 -0.47884235548E+03  0.47884235548E+03  0.25500000000E-02 0. -1.
         23    2    1    2    0    0  0.00000000000E+00  0.00000000000E+00 -0.47533620204E+03  0.48234850985E+03  0.81948642324E+02 0.  0.
    9000005    2    3    3    0    0  0.85619722632E+01 -0.10323933138E+02 -0.46541201484E+03  0.46566377263E+03  0.73834012235E+01 0.  0.
         22    1    3    3    0    0 -0.85619722632E+01  0.10323933138E+02 -0.99241871997E+01  0.16684737218E+02  0.00000000000E+00 0.  1.
         22    1    4    4    0    0 -0.55292773773E+00 -0.33540890208E+01 -0.66567432914E+02  0.66654172915E+02  0.00000000000E+00 0.  1.
         22    1    4    4    0    0  0.91149000009E+01 -0.69698441169E+01 -0.39884458193E+03  0.39900959971E+03  0.00000000000E+00 0.  1.
<mgrwt>
<rscale>  0 0.81948642E+02</rscale>
<asrwt>0</asrwt>
<pdfrwt beam="2">  1        2 0.73668003E-01 0.81948642E+02</pdfrwt>
<pdfrwt beam="1">  1       -2 0.53940867E-03 0.81948642E+02</pdfrwt>
<totfact> 0.28136450E+05</totfact>
</mgrwt>
</event>
<event>
 7    1  0.3056193E-009  0.8807206E+02  0.7818608E-02  0.1307589E+00
         -2   -1    0    0    0  501 -0.00000000000E+00  0.00000000000E+00  0.29979658618E+01  0.29979669463E+01  0.25500000000E-02 0. -1.
          2   -1    0    0  501    0  0.00000000000E+00 -0.00000000000E+00 -0.64682913232E+03  0.64682913233E+03  0.25500000000E-02 0.  1.
         23    2    1    2    0    0  0.44408920985E-15  0.00000000000E+00 -0.64383116646E+03  0.64982709927E+03  0.88072061657E+02 0.  0.
    9000005    2    3    3    0    0  0.23417199385E+01  0.42932805536E+02 -0.39024898502E+03  0.39262555926E+03  0.34423869865E+01 0.  0.
         22    1    3    3    0    0 -0.23417199385E+01 -0.42932805536E+02 -0.25358218144E+03  0.25720154001E+03  0.00000000000E+00 0.  1.
         22    1    4    4    0    0  0.25106381346E+01  0.26708465441E+02 -0.25477103613E+03  0.25617948060E+03  0.00000000000E+00 0. -1.
         22    1    4    4    0    0 -0.16891819603E+00  0.16224340095E+02 -0.13547794889E+03  0.13644607866E+03  0.00000000000E+00 0. -1.
<mgrwt>
<rscale>  0 0.88072062E+02</rscale>
<asrwt>0</asrwt>
<pdfrwt beam="2">  1        2 0.99512063E-01 0.88072062E+02</pdfrwt>
<pdfrwt beam="1">  1       -2 0.46122612E-03 0.88072062E+02</pdfrwt>
<totfact> 0.25478178E+05</totfact>
</mgrwt>
</event>
<event>
 7    1  0.3056193E-009  0.9220257E+02  0.7818608E-02  0.1297604E+00
         -2   -1    0    0    0  501 -0.00000000000E+00  0.00000000000E+00  0.30396567026E+02  0.30396567133E+02  0.25500000000E-02 0.  1.
          2   -1    0    0  501    0  0.00000000000E+00 -0.00000000000E+00 -0.69920009830E+02  0.69920009876E+02  0.25500000000E-02 0. -1.
         23    2    1    2    0    0  0.00000000000E+00  0.00000000000E+00 -0.39523442804E+02  0.10031657701E+03  0.92202565538E+02 0.  0.
    9000005    2    3    3    0    0  0.26431408006E+02 -0.15571055147E+02  0.16363445171E+02  0.36563762679E+02  0.11316771439E+02 0.  0.
         22    1    3    3    0    0 -0.26431408006E+02  0.15571055147E+02 -0.55886887975E+02  0.63752814331E+02  0.00000000000E+00 0. -1.
         22    1    4    4    0    0 -0.80169574835E+00 -0.73074996128E+00  0.22325073661E+01  0.24820960333E+01  0.00000000000E+00 0.  1.
         22    1    4    4    0    0  0.27233103754E+02 -0.14840305186E+02  0.14130937805E+02  0.34081666645E+02  0.00000000000E+00 0.  1.
<mgrwt>
<rscale>  0 0.92202566E+02</rscale>
<asrwt>0</asrwt>
<pdfrwt beam="2">  1        2 0.10756925E-01 0.92202566E+02</pdfrwt>
<pdfrwt beam="1">  1       -2 0.46763950E-02 0.92202566E+02</pdfrwt>
<totfact> 0.10717049E+05</totfact>
</mgrwt>
</event>
<event>
 7    1  0.3056193E-009  0.8954602E+02  0.7818608E-02  0.1303955E+00
          2   -1    0    0  501    0  0.00000000000E+00  0.00000000000E+00  0.77129987299E+02  0.77129987341E+02  0.25500000000E-02 0. -1.
         -2   -1    0    0    0  501 -0.00000000000E+00 -0.00000000000E+00 -0.25990181407E+02  0.25990181532E+02  0.25500000000E-02 0.  1.
         23    2    1    2    0    0  0.00000000000E+00 -0.22204460493E-15  0.51139805892E+02  0.10312016887E+03  0.89546018793E+02 0.  0.
    9000005    2    3    3    0    0  0.27523808913E+02  0.15323469724E+01 -0.13962261886E+02  0.32422309122E+02  0.98159679885E+01 0.  0.
         22    1    3    3    0    0 -0.27523808913E+02 -0.15323469724E+01  0.65102067778E+02  0.70697859750E+02  0.00000000000E+00 0. -1.
         22    1    4    4    0    0  0.23740316253E+02  0.41732342248E+01 -0.92247150081E+01  0.25809181828E+02  0.00000000000E+00 0. -1.
         22    1    4    4    0    0  0.37834926601E+01 -0.26408872523E+01 -0.47375468776E+01  0.66131272939E+01  0.00000000000E+00 0. -1.
<mgrwt>
<rscale>  0 0.89546019E+02</rscale>
<asrwt>0</asrwt>
<pdfrwt beam="1">  1        2 0.11866152E-01 0.89546019E+02</pdfrwt>
<pdfrwt beam="2">  1       -2 0.39984896E-02 0.89546019E+02</pdfrwt>
<totfact> 0.11951102E+05</totfact>
</mgrwt>
</event>
<event>
 7    1  0.3056193E-009  0.9018712E+02  0.7818608E-02  0.1302399E+00
         -2   -1    0    0    0  501 -0.00000000000E+00  0.00000000000E+00  0.14512882956E+03  0.14512882959E+03  0.25500000000E-02 0.  1.
          2   -1    0    0  501    0  0.00000000000E+00 -0.00000000000E+00 -0.14011200884E+02  0.14011201116E+02  0.25500000000E-02 0. -1.
         23    2    1    2    0    0  0.00000000000E+00  0.88817841970E-15  0.13111762868E+03  0.15914003070E+03  0.90187121151E+02 0.  0.
    9000005    2    3    3    0    0  0.35553980257E+02 -0.63457897343E+01  0.19464888205E+02  0.41791451611E+02  0.79554381014E+01 0.  0.
         22    1    3    3    0    0 -0.35553980257E+02  0.63457897343E+01  0.11165274047E+03  0.11734857909E+03  0.00000000000E+00 0.  1.
         22    1    4    4    0    0  0.17794407882E+02 -0.69258781040E+01  0.11746283255E+02  0.22418383298E+02  0.00000000000E+00 0.  1.
         22    1    4    4    0    0  0.17759572375E+02  0.58008836975E+00  0.77186049503E+01  0.19373068313E+02  0.00000000000E+00 0.  1.
<mgrwt>
<rscale>  0 0.90187121E+02</rscale>
<asrwt>0</asrwt>
<pdfrwt beam="2">  1        2 0.21555693E-02 0.90187121E+02</pdfrwt>
<pdfrwt beam="1">  1       -2 0.22327513E-01 0.90187121E+02</pdfrwt>
<totfact> 0.72670215E+04</totfact>
</mgrwt>
</event>
<event>
 7    1  0.3056193E-009  0.9290467E+02  0.7818608E-02  0.1295966E+00
         -2   -1    0    0    0  501 -0.00000000000E+00  0.00000000000E+00  0.60630473413E+01  0.60630478775E+01  0.25500000000E-02 0. -1.
          2   -1    0    0  501    0  0.00000000000E+00 -0.00000000000E+00 -0.35589682124E+03  0.35589682125E+03  0.25500000000E-02 0.  1.
         23    2    1    2    0    0  0.00000000000E+00  0.00000000000E+00 -0.34983377390E+03  0.36195986912E+03  0.92904668871E+02 0.  0.
    9000005    2    3    3    0    0 -0.35530615152E+02  0.50628374441E+01 -0.28925462609E+03  0.29154758266E+03  0.66103936770E+01 0.  0.
         22    1    3    3    0    0  0.35530615152E+02 -0.50628374441E+01 -0.60579147804E+02  0.70412286461E+02  0.00000000000E+00 0. -1.
         22    1    4    4    0    0 -0.15326267261E+02  0.68387847724E+00 -0.14704360802E+03  0.14784175600E+03  0.00000000000E+00 0. -1.
         22    1    4    4    0    0 -0.20204347892E+02  0.43789589668E+01 -0.14221101807E+03  0.14370582666E+03  0.00000000000E+00 0. -1.
<mgrwt>
<rscale>  0 0.92904669E+02</rscale>
<asrwt>0</asrwt>
<pdfrwt beam="2">  1        2 0.54753341E-01 0.92904669E+02</pdfrwt>
<pdfrwt beam="1">  1       -2 0.93277683E-03 0.92904669E+02</pdfrwt>
<totfact> 0.18202698E+05</totfact>
</mgrwt>
</event>
<event>
 7    1  0.3056193E-009  0.9402815E+02  0.7818608E-02  0.1293380E+00
         -2   -1    0    0    0  501 -0.00000000000E+00  0.00000000000E+00  0.14016906984E+02  0.14016907216E+02  0.25500000000E-02 0.  1.
          2   -1    0    0  501    0  0.00000000000E+00 -0.00000000000E+00 -0.15768980234E+03  0.15768980236E+03  0.25500000000E-02 0. -1.
         23    2    1    2    0    0  0.00000000000E+00  0.00000000000E+00 -0.14367289536E+03  0.17170670958E+03  0.94028151389E+02 0.  0.
    9000005    2    3    3    0    0 -0.21764307292E+01  0.34977776877E+02 -0.17790644887E+02  0.41037192439E+02  0.11805184952E+02 0.  0.
         22    1    3    3    0    0  0.21764307292E+01 -0.34977776877E+02 -0.12588225047E+03  0.13066951714E+03  0.00000000000E+00 0. -1.
         22    1    4    4    0    0 -0.37069591652E+01  0.25935397585E+02 -0.18129256774E+02  0.31859948922E+02  0.00000000000E+00 0.  1.
         22    1    4    4    0    0  0.15305284360E+01  0.90423792919E+01  0.33861188642E+00  0.91772435165E+01  0.00000000000E+00 0.  1.
<mgrwt>
<rscale>  0 0.94028151E+02</rscale>
<asrwt>0</asrwt>
<pdfrwt beam="2">  1        2 0.24259968E-01 0.94028151E+02</pdfrwt>
<pdfrwt beam="1">  1       -2 0.21564474E-02 0.94028151E+02</pdfrwt>
<totfact> 0.13080452E+05</totfact>
</mgrwt>
</event>
<event>
 7    1  0.3056193E-009  0.1010118E+03  0.7818608E-02  0.1278183E+00
          2   -1    0    0  501    0  0.00000000000E+00  0.00000000000E+00  0.20515249539E+03  0.20515249540E+03  0.25500000000E-02 0. -1.
         -2   -1    0    0    0  501 -0.00000000000E+00 -0.00000000000E+00 -0.12433890612E+02  0.12433890874E+02  0.25500000000E-02 0.  1.
         23    2    1    2    0    0  0.00000000000E+00  0.00000000000E+00  0.19271860478E+03  0.21758638628E+03  0.10101175608E+03 0.  0.
    9000005    2    3    3    0    0  0.35843019888E+02  0.84632115067E+01  0.25841328481E+02  0.46693515252E+02  0.12496482915E+02 0.  0.
         22    1    3    3    0    0 -0.35843019888E+02 -0.84632115067E+01  0.16687727630E+03  0.17089287103E+03  0.00000000000E+00 0. -1.
         22    1    4    4    0    0  0.10220866219E+02  0.32109318124E+01  0.12369966146E+01  0.10784542179E+02  0.00000000000E+00 0.  1.
         22    1    4    4    0    0  0.25622153668E+02  0.52522796944E+01  0.24604331867E+02  0.35908973074E+02  0.00000000000E+00 0.  1.
<mgrwt>
<rscale>  0 0.10101176E+03</rscale>
<asrwt>0</asrwt>
<pdfrwt beam="1">  1        2 0.31561924E-01 0.10101176E+03</pdfrwt>
<pdfrwt beam="2">  1       -2 0.19129062E-02 0.10101176E+03</pdfrwt>
<totfact> 0.11828592E+05</totfact>
</mgrwt>
</event>
<event>
 6    1  0.3056193E-009  0.1443452E+03  0.7818608E-02  0.1207599E+00
         -2   -1    0    0    0  501 -0.00000000000E+00  0.00000000000E+00  0.19078303971E+02  0.19078304142E+02  0.25500000000E-02 0.  1.
          2   -1    0    0  501    0  0.00000000000E+00 -0.00000000000E+00 -0.27302674787E+03  0.27302674788E+03  0.25500000000E-02 0. -1.
    9000005    2    1    2    0    0 -0.24408487913E+02  0.20610693744E+02 -0.25777246973E+03  0.25993055665E+03  0.98322505844E+01 0.  0.
         22    1    1    2    0    0  0.24408487913E+02 -0.20610693744E+02  0.38240258331E+01  0.32174495371E+02  0.00000000000E+00 0.  1.
         22    1    3    3    0    0 -0.57388024012E+01  0.10391424422E+02 -0.77040347299E+02  0.77949539232E+02  0.00000000000E+00 0.  1.
         22    1    3    3    0    0 -0.18669685512E+02  0.10219269322E+02 -0.18073212243E+03  0.18198101742E+03  0.00000000000E+00 0.  1.
<mgrwt>
<rscale>  0 0.14434524E+03</rscale>
<asrwt>0</asrwt>
<pdfrwt beam="2">  1        2 0.42004112E-01 0.14434524E+03</pdfrwt>
<pdfrwt beam="1">  1       -2 0.29351239E-02 0.14434524E+03</pdfrwt>
<totfact> 0.49077314E+04</totfact>
</mgrwt>
</event>
<event>
 7    1  0.3056193E-009  0.9184888E+02  0.7818608E-02  0.1298435E+00
         -2   -1    0    0    0  501 -0.00000000000E+00  0.00000000000E+00  0.21185989579E+03  0.21185989581E+03  0.25500000000E-02 0.  1.
          2   -1    0    0  501    0  0.00000000000E+00 -0.00000000000E+00 -0.99549478092E+01  0.99549481358E+01  0.25500000000E-02 0. -1.
         23    2    1    2    0    0  0.00000000000E+00  0.00000000000E+00  0.20190494798E+03  0.22181484395E+03  0.91848881178E+02 0.  0.
    9000005    2    3    3    0    0 -0.12216636927E+02 -0.70152266376E+01  0.20642306020E+03  0.20702048824E+03  0.69672912114E+01 0.  0.
         22    1    3    3    0    0  0.12216636927E+02  0.70152266376E+01 -0.45181122180E+01  0.14794355701E+02  0.00000000000E+00 0. -1.
         22    1    4    4    0    0 -0.66628321701E+01 -0.64238344780E+01  0.15910112387E+03  0.15937009318E+03  0.00000000000E+00 0. -1.
         22    1    4    4    0    0 -0.55538047572E+01 -0.59139215962E+00  0.47321936330E+02  0.47650395067E+02  0.00000000000E+00 0. -1.
<mgrwt>
<rscale>  0 0.91848881E+02</rscale>
<asrwt>0</asrwt>
<pdfrwt beam="2">  1        2 0.15315306E-02 0.91848881E+02</pdfrwt>
<pdfrwt beam="1">  1       -2 0.32593828E-01 0.91848881E+02</pdfrwt>
<totfact> 0.59624930E+04</totfact>
</mgrwt>
</event>
<event>
 7    1  0.3056193E-009  0.9138449E+02  0.7818608E-02  0.1299533E+00
          2   -1    0    0  501    0  0.00000000000E+00  0.00000000000E+00  0.69989573185E+03  0.69989573186E+03  0.25500000000E-02 0. -1.
         -2   -1    0    0    0  501 -0.00000000000E+00 -0.00000000000E+00 -0.29829881793E+01  0.29829892693E+01  0.25500000000E-02 0.  1.
         23    2    1    2    0    0  0.00000000000E+00  0.35527136788E-14  0.69691274367E+03  0.70287872113E+03  0.91384486201E+02 0.  0.
    9000005    2    3    3    0    0  0.32437517317E+02  0.19684496409E+02  0.53868156221E+03  0.54016185440E+03  0.12543187801E+02 0.  0.
         22    1    3    3    0    0 -0.32437517317E+02 -0.19684496409E+02  0.15823118147E+03  0.16271686672E+03  0.00000000000E+00 0. -1.
         22    1    4    4    0    0  0.91645114879E-01  0.14907687739E+01  0.69083177737E+02  0.69099321535E+02  0.00000000000E+00 0. -1.
         22    1    4    4    0    0  0.32345872202E+02  0.18193727635E+02  0.46959838447E+03  0.47106253287E+03  0.00000000000E+00 0. -1.
<mgrwt>
<rscale>  0 0.91384486E+02</rscale>
<asrwt>0</asrwt>
<pdfrwt beam="1">  1        2 0.10767625E+00 0.91384486E+02</pdfrwt>
<pdfrwt beam="2">  1       -2 0.45892141E-03 0.91384486E+02</pdfrwt>
<totfact> 0.23571584E+05</totfact>
</mgrwt>
</event>
<event>
 7    1  0.3056193E-009  0.9068406E+02  0.7818608E-02  0.1301204E+00
          2   -1    0    0  501    0  0.00000000000E+00  0.00000000000E+00  0.11548969263E+02  0.11548969544E+02  0.25500000000E-02 0. -1.
         -2   -1    0    0    0  501 -0.00000000000E+00 -0.00000000000E+00 -0.17801584005E+03  0.17801584007E+03  0.25500000000E-02 0.  1.
         23    2    1    2    0    0  0.00000000000E+00 -0.17763568394E-14 -0.16646687079E+03  0.18956480962E+03  0.90684055787E+02 0.  0.
    9000005    2    3    3    0    0  0.31783456553E+02  0.15854268788E+02 -0.28472535928E+02  0.47072766317E+02  0.11983909100E+02 0.  0.
         22    1    3    3    0    0 -0.31783456553E+02 -0.15854268788E+02 -0.13799433486E+03  0.14249204330E+03  0.00000000000E+00 0. -1.
         22    1    4    4    0    0  0.72663745958E+01  0.39507591687E+01 -0.92641841881E+00  0.83226767847E+01  0.00000000000E+00 0.  1.
         22    1    4    4    0    0  0.24517081957E+02  0.11903509620E+02 -0.27546117509E+02  0.38750089532E+02  0.00000000000E+00 0.  1.
<mgrwt>
<rscale>  0 0.90684056E+02</rscale>
<asrwt>0</asrwt>
<pdfrwt beam="1">  1        2 0.17767646E-02 0.90684056E+02</pdfrwt>
<pdfrwt beam="2">  1       -2 0.27387050E-01 0.90684056E+02</pdfrwt>
<totfact> 0.66334610E+04</totfact>
</mgrwt>
</event>
<event>
 7    1  0.3056193E-009  0.1004216E+03  0.7818608E-02  0.1279412E+00
         -2   -1    0    0    0  501 -0.00000000000E+00  0.00000000000E+00  0.69721147310E+02  0.69721147356E+02  0.25500000000E-02 0.  1.
          2   -1    0    0  501    0  0.00000000000E+00 -0.00000000000E+00 -0.36160139173E+02  0.36160139263E+02  0.25500000000E-02 0. -1.
         23    2    1    2    0    0  0.00000000000E+00  0.00000000000E+00  0.33561008137E+02  0.10588128662E+03  0.10042163905E+03 0.  0.
    9000005    2    3    3    0    0  0.37315376074E+02 -0.14915015923E+02 -0.13321339546E+02  0.44133011212E+02  0.12464734248E+02 0.  0.
         22    1    3    3    0    0 -0.37315376074E+02  0.14915015923E+02  0.46882347682E+02  0.61748275407E+02  0.00000000000E+00 0.  1.
         22    1    4    4    0    0  0.10546026792E+02  0.13052500672E+01 -0.50096657930E+01  0.11748153480E+02  0.00000000000E+00 0. -1.
         22    1    4    4    0    0  0.26769349282E+02 -0.16220265990E+02 -0.83116737525E+01  0.32384857732E+02  0.00000000000E+00 0. -1.
<mgrwt>
<rscale>  0 0.10042164E+03</rscale>
<asrwt>0</asrwt>
<pdfrwt beam="2">  1        2 0.55630984E-02 0.10042164E+03</pdfrwt>
<pdfrwt beam="1">  1       -2 0.10726330E-01 0.10042164E+03</pdfrwt>
<totfact> 0.69849342E+04</totfact>
</mgrwt>
</event>
<event>
 7    1  0.3056193E-009  0.9240206E+02  0.7818608E-02  0.1297137E+00
          2   -1    0    0  501    0  0.00000000000E+00  0.00000000000E+00  0.13109371166E+04  0.13109371166E+04  0.25500000000E-02 0. -1.
         -2   -1    0    0    0  501 -0.00000000000E+00 -0.00000000000E+00 -0.16282503549E+01  0.16282523517E+01  0.25500000000E-02 0.  1.
         23    2    1    2    0    0  0.00000000000E+00  0.35527136788E-14  0.13093088663E+04  0.13125653690E+04  0.92402059229E+02 0.  0.
    9000005    2    3    3    0    0 -0.12761021500E+02 -0.29239841566E+02  0.11280422275E+04  0.11285126419E+04  0.66108970213E+01 0.  0.
         22    1    3    3    0    0  0.12761021500E+02  0.29239841566E+02  0.18126663874E+03  0.18405272703E+03  0.00000000000E+00 0.  1.
         22    1    4    4    0    0 -0.14642722843E-01  0.21355089587E-01  0.81828994705E-02  0.27155276233E-01  0.00000000000E+00 0.  1.
         22    1    4    4    0    0 -0.12746378777E+02 -0.29261196655E+02  0.11280340446E+04  0.11284854867E+04  0.00000000000E+00 0.  1.
<mgrwt>
<rscale>  0 0.92402059E+02</rscale>
<asrwt>0</asrwt>
<pdfrwt beam="1">  1        2 0.20168342E+00 0.92402059E+02</pdfrwt>
<pdfrwt beam="2">  1       -2 0.25049923E-03 0.92402059E+02</pdfrwt>
<totfact> 0.23680867E+05</totfact>
</mgrwt>
</event>
<event>
 7    1  0.3056193E-009  0.9447761E+02  0.7818608E-02  0.1292357E+00
          2   -1    0    0  501    0  0.00000000000E+00  0.00000000000E+00  0.11536575935E+02  0.11536576217E+02  0.25500000000E-02 0. -1.
         -2   -1    0    0    0  501 -0.00000000000E+00 -0.00000000000E+00 -0.19342866520E+03  0.19342866522E+03  0.25500000000E-02 0.  1.
         23    2    1    2    0    0  0.00000000000E+00  0.00000000000E+00 -0.18189208926E+03  0.20496524143E+03  0.94477606123E+02 0.  0.
    9000005    2    3    3    0    0 -0.27371873994E+02 -0.37977137292E+02 -0.10139309293E+03  0.11184397182E+03  0.60854167094E+01 0.  0.
         22    1    3    3    0    0  0.27371873994E+02  0.37977137292E+02 -0.80498996339E+02  0.93121269613E+02  0.00000000000E+00 0. -1.
         22    1    4    4    0    0 -0.38028606851E+01 -0.78571942158E+01 -0.23482366940E+02  0.25052321398E+02  0.00000000000E+00 0. -1.
         22    1    4    4    0    0 -0.23569013309E+02 -0.30119943077E+02 -0.77910725987E+02  0.86791650422E+02  0.00000000000E+00 0. -1.
<mgrwt>
<rscale>  0 0.94477606E+02</rscale>
<asrwt>0</asrwt>
<pdfrwt beam="1">  1        2 0.17748580E-02 0.94477606E+02</pdfrwt>
<pdfrwt beam="2">  1       -2 0.29758254E-01 0.94477606E+02</pdfrwt>
<totfact> 0.57728133E+04</totfact>
</mgrwt>
</event>
<event>
 7    1  0.3056193E-009  0.9235127E+02  0.7818608E-02  0.1297256E+00
          2   -1    0    0  501    0  0.00000000000E+00  0.00000000000E+00  0.10803829446E+02  0.10803829747E+02  0.25500000000E-02 0.  1.
         -2   -1    0    0    0  501 -0.00000000000E+00 -0.00000000000E+00 -0.19735495019E+03  0.19735495021E+03  0.25500000000E-02 0. -1.
         23    2    1    2    0    0  0.00000000000E+00  0.00000000000E+00 -0.18655112075E+03  0.20815877996E+03  0.92351269732E+02 0.  0.
    9000005    2    3    3    0    0 -0.13512864775E+02 -0.35838874252E+02 -0.14954888842E+03  0.15490291061E+03  0.12767899898E+02 0.  0.
         22    1    3    3    0    0  0.13512864775E+02  0.35838874252E+02 -0.37002232333E+02  0.53255869345E+02  0.00000000000E+00 0.  1.
         22    1    4    4    0    0 -0.12115410951E+02 -0.18442615537E+02 -0.67383967659E+02  0.70904952915E+02  0.00000000000E+00 0.  1.
         22    1    4    4    0    0 -0.13974538233E+01 -0.17396258715E+02 -0.82164920756E+02  0.83997957697E+02  0.00000000000E+00 0.  1.
<mgrwt>
<rscale>  0 0.92351270E+02</rscale>
<asrwt>0</asrwt>
<pdfrwt beam="1">  1        2 0.16621278E-02 0.92351270E+02</pdfrwt>
<pdfrwt beam="2">  1       -2 0.30362298E-01 0.92351270E+02</pdfrwt>
<totfact> 0.60661279E+04</totfact>
</mgrwt>
</event>
<event>
 7    1  0.3056193E-009  0.9287209E+02  0.7818608E-02  0.1296042E+00
         -2   -1    0    0    0  501 -0.00000000000E+00  0.00000000000E+00  0.36663793236E+01  0.36663802104E+01  0.25500000000E-02 0.  1.
          2   -1    0    0  501    0  0.00000000000E+00 -0.00000000000E+00 -0.58812960686E+03  0.58812960686E+03  0.25500000000E-02 0. -1.
         23    2    1    2    0    0  0.00000000000E+00  0.88817841970E-15 -0.58446322754E+03  0.59179598707E+03  0.92872094716E+02 0.  0.
    9000005    2    3    3    0    0  0.71021609229E+01  0.73161620249E+01 -0.58075175189E+03  0.58094508997E+03  0.10983320183E+02 0.  0.
         22    1    3    3    0    0 -0.71021609229E+01 -0.73161620249E+01 -0.37114756502E+01  0.10850897108E+02  0.00000000000E+00 0.  1.
         22    1    4    4    0    0  0.34970382198E+01  0.63770314478E+01 -0.53252411342E+03  0.53257377628E+03  0.00000000000E+00 0.  1.
         22    1    4    4    0    0  0.36051227031E+01  0.93913057713E+00 -0.48227638466E+02  0.48371313689E+02  0.00000000000E+00 0.  1.
<mgrwt>
<rscale>  0 0.92872095E+02</rscale>
<asrwt>0</asrwt>
<pdfrwt beam="2">  1        2 0.90481403E-01 0.92872095E+02</pdfrwt>
<pdfrwt beam="1">  1       -2 0.56405890E-03 0.92872095E+02</pdfrwt>
<totfact> 0.21577516E+05</totfact>
</mgrwt>
</event>
<event>
 7    1  0.3056193E-009  0.9115503E+02  0.7818608E-02  0.1300078E+00
          2   -1    0    0  501    0  0.00000000000E+00  0.00000000000E+00  0.21013255522E+02  0.21013255677E+02  0.25500000000E-02 0. -1.
         -2   -1    0    0    0  501 -0.00000000000E+00 -0.00000000000E+00 -0.98857126242E+02  0.98857126275E+02  0.25500000000E-02 0.  1.
         23    2    1    2    0    0  0.00000000000E+00  0.00000000000E+00 -0.77843870720E+02  0.11987038195E+03  0.91155034203E+02 0.  0.
    9000005    2    3    3    0    0 -0.26868853121E+02 -0.16339893207E+02 -0.81121418594E+02  0.88252828312E+02  0.14796951452E+02 0.  0.
         22    1    3    3    0    0  0.26868853121E+02  0.16339893207E+02  0.32775478742E+01  0.31617553639E+02  0.00000000000E+00 0. -1.
         22    1    4    4    0    0 -0.14530955630E+02 -0.10741100519E+02 -0.27199316853E+02  0.32654597673E+02  0.00000000000E+00 0. -1.
         22    1    4    4    0    0 -0.12337897491E+02 -0.55987926880E+01 -0.53922101740E+02  0.55598230639E+02  0.00000000000E+00 0. -1.
<mgrwt>
<rscale>  0 0.91155034E+02</rscale>
<asrwt>0</asrwt>
<pdfrwt beam="1">  1        2 0.32328086E-02 0.91155034E+02</pdfrwt>
<pdfrwt beam="2">  1       -2 0.15208788E-01 0.91155034E+02</pdfrwt>
<totfact> 0.80127529E+04</totfact>
</mgrwt>
</event>
<event>
 7    1  0.3056193E-009  0.9027541E+02  0.7818608E-02  0.1302186E+00
         -2   -1    0    0    0  501 -0.00000000000E+00  0.00000000000E+00  0.85544969572E+02  0.85544969610E+02  0.25500000000E-02 0.  1.
          2   -1    0    0  501    0  0.00000000000E+00 -0.00000000000E+00 -0.23816857776E+02  0.23816857913E+02  0.25500000000E-02 0. -1.
         23    2    1    2    0    0  0.00000000000E+00  0.00000000000E+00  0.61728111795E+02  0.10936182752E+03  0.90275409350E+02 0.  0.
    9000005    2    3    3    0    0 -0.22661384601E+02  0.20404534787E+02 -0.91429687681E+01  0.32208775398E+02  0.48916196530E+01 0.  0.
         22    1    3    3    0    0  0.22661384601E+02 -0.20404534787E+02  0.70871080564E+02  0.77153052125E+02  0.00000000000E+00 0.  1.
         22    1    4    4    0    0 -0.20019052663E+02  0.16361246747E+02 -0.90013341934E+01  0.27376575424E+02  0.00000000000E+00 0.  1.
         22    1    4    4    0    0 -0.26423319382E+01  0.40432880391E+01 -0.14163457466E+00  0.48321999743E+01  0.00000000000E+00 0.  1.
<mgrwt>
<rscale>  0 0.90275409E+02</rscale>
<asrwt>0</asrwt>
<pdfrwt beam="2">  1        2 0.36641320E-02 0.90275409E+02</pdfrwt>
<pdfrwt beam="1">  1       -2 0.13160764E-01 0.90275409E+02</pdfrwt>
<totfact> 0.85573229E+04</totfact>
</mgrwt>
</event>
<event>
 7    1  0.3056193E-009  0.9196207E+02  0.7818608E-02  0.1298169E+00
          2   -1    0    0  501    0  0.00000000000E+00  0.00000000000E+00  0.23704041250E+03  0.23704041251E+03  0.25500000000E-02 0. -1.
         -2   -1    0    0    0  501 -0.00000000000E+00 -0.00000000000E+00 -0.89193881446E+01  0.89193885092E+01  0.25500000000E-02 0.  1.
         23    2    1    2    0    0  0.00000000000E+00  0.00000000000E+00  0.22812102436E+03  0.24595980102E+03  0.91962068084E+02 0.  0.
    9000005    2    3    3    0    0 -0.43363011077E+02 -0.11558737122E+02  0.96797872664E+02  0.10718038863E+03  0.10190800824E+02 0.  0.
         22    1    3    3    0    0  0.43363011077E+02  0.11558737122E+02  0.13132315169E+03  0.13877941239E+03  0.00000000000E+00 0. -1.
         22    1    4    4    0    0 -0.26742712496E+02 -0.34860154449E+01  0.48928691565E+02  0.55868970221E+02  0.00000000000E+00 0.  1.
         22    1    4    4    0    0 -0.16620298581E+02 -0.80727216774E+01  0.47869181099E+02  0.51311418411E+02  0.00000000000E+00 0.  1.
<mgrwt>
<rscale>  0 0.91962068E+02</rscale>
<asrwt>0</asrwt>
<pdfrwt beam="1">  1        2 0.36467752E-01 0.91962068E+02</pdfrwt>
<pdfrwt beam="2">  1       -2 0.13722137E-02 0.91962068E+02</pdfrwt>
<totfact> 0.16084618E+05</totfact>
</mgrwt>
</event>
<event>
 7    1  0.3056193E-009  0.9175392E+02  0.7818608E-02  0.1298659E+00
         -2   -1    0    0    0  501 -0.00000000000E+00  0.00000000000E+00  0.63006960411E+03  0.63006960411E+03  0.25500000000E-02 0.  1.
          2   -1    0    0  501    0  0.00000000000E+00 -0.00000000000E+00 -0.33404170460E+01  0.33404180193E+01  0.25500000000E-02 0. -1.
         23    2    1    2    0    0  0.35527136788E-14  0.00000000000E+00  0.62672918706E+03  0.63341002213E+03  0.91753922109E+02 0.  0.
    9000005    2    3    3    0    0 -0.30728763427E+02  0.25239855805E+02  0.46643597285E+03  0.46825790514E+03  0.11029131424E+02 0.  0.
         22    1    3    3    0    0  0.30728763427E+02 -0.25239855805E+02  0.16029321421E+03  0.16515211699E+03  0.00000000000E+00 0. -1.
         22    1    4    4    0    0 -0.31205578632E+02  0.25202027993E+02  0.46529492376E+03  0.46702065953E+03  0.00000000000E+00 0. -1.
         22    1    4    4    0    0  0.47681520477E+00  0.37827812333E-01  0.11410490896E+01  0.12372456134E+01  0.00000000000E+00 0. -1.
<mgrwt>
<rscale>  0 0.91753922E+02</rscale>
<asrwt>0</asrwt>
<pdfrwt beam="2">  1        2 0.51391038E-03 0.91753922E+02</pdfrwt>
<pdfrwt beam="1">  1       -2 0.96933788E-01 0.91753922E+02</pdfrwt>
<totfact> 0.29463948E+04</totfact>
</mgrwt>
</event>
<event>
 7    1  0.3056193E-009  0.9632358E+02  0.7818608E-02  0.1288223E+00
         -2   -1    0    0    0  501 -0.00000000000E+00  0.00000000000E+00  0.15547970418E+02  0.15547970627E+02  0.25500000000E-02 0.  1.
          2   -1    0    0  501    0  0.00000000000E+00 -0.00000000000E+00 -0.14918718238E+03  0.14918718240E+03  0.25500000000E-02 0. -1.
         23    2    1    2    0    0  0.88817841970E-15 -0.35527136788E-14 -0.13363921196E+03  0.16473515303E+03  0.96323577954E+02 0.  0.
    9000005    2    3    3    0    0 -0.74099432206E+01  0.19768381864E+02 -0.14071870230E+03  0.14246824118E+03  0.70533954348E+01 0.  0.
         22    1    3    3    0    0  0.74099432206E+01 -0.19768381864E+02  0.70794903365E+01  0.22266911853E+02  0.00000000000E+00 0.  1.
         22    1    4    4    0    0  0.27348004986E+00  0.44523129147E+01 -0.17305825076E+02  0.17871470650E+02  0.00000000000E+00 0. -1.
         22    1    4    4    0    0 -0.76834232705E+01  0.15316068950E+02 -0.12341287722E+03  0.12459677052E+03  0.00000000000E+00 0. -1.
<mgrwt>
<rscale>  0 0.96323578E+02</rscale>
<asrwt>0</asrwt>
<pdfrwt beam="2">  1        2 0.22951873E-01 0.96323578E+02</pdfrwt>
<pdfrwt beam="1">  1       -2 0.23919956E-02 0.96323578E+02</pdfrwt>
<totfact> 0.12014828E+05</totfact>
</mgrwt>
</event>
<event>
 7    1  0.3056193E-009  0.9453132E+02  0.7818608E-02  0.1292235E+00
         -2   -1    0    0    0  501 -0.00000000000E+00  0.00000000000E+00  0.36057095164E+02  0.36057095254E+02  0.25500000000E-02 0.  1.
          2   -1    0    0  501    0  0.00000000000E+00 -0.00000000000E+00 -0.61958474266E+02  0.61958474319E+02  0.25500000000E-02 0. -1.
         23    2    1    2    0    0  0.00000000000E+00  0.35527136788E-14 -0.25901379103E+02  0.98015569573E+02  0.94531319885E+02 0.  0.
    9000005    2    3    3    0    0 -0.76313413841E+01  0.29038999947E+02  0.22819591623E+02  0.40785910498E+02  0.15532412693E+02 0.  0.
         22    1    3    3    0    0  0.76313413841E+01 -0.29038999947E+02 -0.48720970726E+02  0.57229659074E+02  0.00000000000E+00 0. -1.
         22    1    4    4    0    0  0.47959159328E+01  0.67720890617E+01  0.52651692100E+01  0.98277162507E+01  0.00000000000E+00 0. -1.
         22    1    4    4    0    0 -0.12427257317E+02  0.22266910886E+02  0.17554422413E+02  0.30958194248E+02  0.00000000000E+00 0. -1.
<mgrwt>
<rscale>  0 0.94531320E+02</rscale>
<asrwt>0</asrwt>
<pdfrwt beam="2">  1        2 0.95320730E-02 0.94531320E+02</pdfrwt>
<pdfrwt beam="1">  1       -2 0.55472454E-02 0.94531320E+02</pdfrwt>
<totfact> 0.96600902E+04</totfact>
</mgrwt>
</event>
<event>
 7    1  0.3056193E-009  0.9221863E+02  0.7818608E-02  0.1297566E+00
         -2   -1    0    0    0  501 -0.00000000000E+00  0.00000000000E+00  0.10927107691E+02  0.10927107989E+02  0.25500000000E-02 0.  1.
          2   -1    0    0  501    0  0.00000000000E+00 -0.00000000000E+00 -0.19456833192E+03  0.19456833194E+03  0.25500000000E-02 0. -1.
         23    2    1    2    0    0 -0.35527136788E-14  0.00000000000E+00 -0.18364122423E+03  0.20549543993E+03  0.92218634744E+02 0.  0.
    9000005    2    3    3    0    0 -0.28100963455E+02  0.29348587014E+02 -0.43650926089E+02  0.59727517254E+02  0.33119876359E+01 0.  0.
         22    1    3    3    0    0  0.28100963455E+02 -0.29348587014E+02 -0.13999029814E+03  0.14576792267E+03  0.00000000000E+00 0.  1.
         22    1    4    4    0    0 -0.94665182869E+01  0.11512886461E+02 -0.14346909394E+02  0.20688048055E+02  0.00000000000E+00 0.  1.
         22    1    4    4    0    0 -0.18634445168E+02  0.17835700553E+02 -0.29304016695E+02  0.39039469200E+02  0.00000000000E+00 0.  1.
<mgrwt>
<rscale>  0 0.92218635E+02</rscale>
<asrwt>0</asrwt>
<pdfrwt beam="2">  1        2 0.29933587E-01 0.92218635E+02</pdfrwt>
<pdfrwt beam="1">  1       -2 0.16810937E-02 0.92218635E+02</pdfrwt>
<totfact> 0.14852685E+05</totfact>
</mgrwt>
</event>
<event>
 7    1  0.3056193E-009  0.8944964E+02  0.7818608E-02  0.1304190E+00
          2   -1    0    0  501    0  0.00000000000E+00  0.00000000000E+00  0.33831648995E+02  0.33831649091E+02  0.25500000000E-02 0. -1.
         -2   -1    0    0    0  501 -0.00000000000E+00 -0.00000000000E+00 -0.59125389978E+02  0.59125390033E+02  0.25500000000E-02 0.  1.
         23    2    1    2    0    0 -0.17763568394E-14 -0.71054273576E-14 -0.25293740982E+02  0.92957039124E+02  0.89449638288E+02 0.  0.
    9000005    2    3    3    0    0  0.10988917970E+02  0.41675283832E+02 -0.18931498936E+02  0.49390265954E+02  0.14946943448E+02 0.  0.
         22    1    3    3    0    0 -0.10988917970E+02 -0.41675283832E+02 -0.63622420463E+01  0.43566773170E+02  0.00000000000E+00 0.  1.
         22    1    4    4    0    0  0.94330387588E+01  0.33363602857E+02 -0.80222246417E+01  0.35587473976E+02  0.00000000000E+00 0. -1.
         22    1    4    4    0    0  0.15558792114E+01  0.83116809745E+01 -0.10909274294E+02  0.13802791977E+02  0.00000000000E+00 0. -1.
<mgrwt>
<rscale>  0 0.89449638E+02</rscale>
<asrwt>0</asrwt>
<pdfrwt beam="1">  1        2 0.52048691E-02 0.89449638E+02</pdfrwt>
<pdfrwt beam="2">  1       -2 0.90962138E-02 0.89449638E+02</pdfrwt>
<totfact> 0.96581786E+04</totfact>
</mgrwt>
</event>
<event>
 7    1  0.3056193E-009  0.9090788E+02  0.7818608E-02  0.1300668E+00
         -2   -1    0    0    0  501 -0.00000000000E+00  0.00000000000E+00  0.71342596793E+01  0.71342601350E+01  0.25500000000E-02 0.  1.
          2   -1    0    0  501    0  0.00000000000E+00 -0.00000000000E+00 -0.28959706314E+03  0.28959706316E+03  0.25500000000E-02 0. -1.
         23    2    1    2    0    0  0.00000000000E+00  0.00000000000E+00 -0.28246280346E+03  0.29673132329E+03  0.90907881289E+02 0.  0.
    9000005    2    3    3    0    0 -0.26901151031E+02 -0.30662482751E+02 -0.77855583965E+02  0.88097735278E+02  0.59882577939E+01 0.  0.
         22    1    3    3    0    0  0.26901151031E+02  0.30662482751E+02 -0.20460721950E+03  0.20863358801E+03  0.00000000000E+00 0. -1.
         22    1    4    4    0    0 -0.23734159866E+02 -0.24515375742E+02 -0.61319368031E+02  0.70173918859E+02  0.00000000000E+00 0.  1.
         22    1    4    4    0    0 -0.31669911651E+01 -0.61471070090E+01 -0.16536215934E+02  0.17923816420E+02  0.00000000000E+00 0.  1.
<mgrwt>
<rscale>  0 0.90907881E+02</rscale>
<asrwt>0</asrwt>
<pdfrwt beam="2">  1        2 0.44553385E-01 0.90907881E+02</pdfrwt>
<pdfrwt beam="1">  1       -2 0.10975787E-02 0.90907881E+02</pdfrwt>
<totfact> 0.17871655E+05</totfact>
</mgrwt>
</event>
<event>
 7    1  0.3056193E-009  0.8997498E+02  0.7818608E-02  0.1302912E+00
          2   -1    0    0  501    0  0.00000000000E+00  0.00000000000E+00  0.78783826028E+03  0.78783826029E+03  0.25500000000E-02 0. -1.
         -2   -1    0    0    0  501 -0.00000000000E+00 -0.00000000000E+00 -0.25688949263E+01  0.25688961920E+01  0.25500000000E-02 0.  1.
         23    2    1    2    0    0  0.35527136788E-14 -0.35527136788E-14  0.78526936536E+03  0.79040715648E+03  0.89974978998E+02 0.  0.
    9000005    2    3    3    0    0 -0.26113155495E+02  0.28187920737E+02  0.58613303415E+03  0.58759755569E+03  0.15572346221E+02 0.  0.
         22    1    3    3    0    0  0.26113155495E+02 -0.28187920737E+02  0.19913633121E+03  0.20280960079E+03  0.00000000000E+00 0.  1.
         22    1    4    4    0    0  0.22329932221E+00 -0.44467732463E-01  0.36371029207E-01  0.23057063624E+00  0.00000000000E+00 0. -1.
         22    1    4    4    0    0 -0.26336454817E+02  0.28232388469E+02  0.58609666312E+03  0.58736698505E+03  0.00000000000E+00 0. -1.
<mgrwt>
<rscale>  0 0.89974979E+02</rscale>
<asrwt>0</asrwt>
<pdfrwt beam="1">  1        2 0.12120586E+00 0.89974979E+02</pdfrwt>
<pdfrwt beam="2">  1       -2 0.39521478E-03 0.89974979E+02</pdfrwt>
<totfact> 0.25171487E+05</totfact>
</mgrwt>
</event>
<event>
 7    1  0.3056193E-009  0.9551709E+02  0.7818608E-02  0.1290016E+00
         -2   -1    0    0    0  501 -0.00000000000E+00  0.00000000000E+00  0.92486459293E+01  0.92486462809E+01  0.25500000000E-02 0.  1.
          2   -1    0    0  501    0  0.00000000000E+00 -0.00000000000E+00 -0.24661755887E+03  0.24661755888E+03  0.25500000000E-02 0. -1.
         23    2    1    2    0    0  0.00000000000E+00  0.00000000000E+00 -0.23736891294E+03  0.25586620516E+03  0.95517088075E+02 0.  0.
    9000005    2    3    3    0    0 -0.26041115540E+02  0.23564197324E+02 -0.32283349377E+02  0.47795305045E+02  0.29606491235E+01 0.  0.
         22    1    3    3    0    0  0.26041115540E+02 -0.23564197324E+02 -0.20508556356E+03  0.20807090012E+03  0.00000000000E+00 0. -1.
         22    1    4    4    0    0 -0.21752263633E+02  0.19889003658E+02 -0.25551387740E+02  0.39007779418E+02  0.00000000000E+00 0. -1.
         22    1    4    4    0    0 -0.42888519076E+01  0.36751936660E+01 -0.67319616372E+01  0.87875256274E+01  0.00000000000E+00 0. -1.
<mgrwt>
<rscale>  0 0.95517088E+02</rscale>
<asrwt>0</asrwt>
<pdfrwt beam="2">  1        2 0.37941158E-01 0.95517088E+02</pdfrwt>
<pdfrwt beam="1">  1       -2 0.14228688E-02 0.95517088E+02</pdfrwt>
<totfact> 0.14739281E+05</totfact>
</mgrwt>
</event>
<event>
 7    1  0.3056193E-009  0.8978365E+02  0.7818608E-02  0.1303376E+00
          2   -1    0    0  501    0  0.00000000000E+00  0.00000000000E+00  0.65476615136E+03  0.65476615137E+03  0.25500000000E-02 0. -1.
         -2   -1    0    0    0  501 -0.00000000000E+00 -0.00000000000E+00 -0.30778554663E+01  0.30778565226E+01  0.25500000000E-02 0.  1.
         23    2    1    2    0    0  0.71054273576E-14 -0.35527136788E-14  0.65168829590E+03  0.65784400789E+03  0.89783649451E+02 0.  0.
    9000005    2    3    3    0    0 -0.35189716141E+02  0.20843033187E+02  0.46131422951E+03  0.46312617792E+03  0.15133323690E+01 0.  0.
         22    1    3    3    0    0  0.35189716141E+02 -0.20843033187E+02  0.19037406639E+03  0.19471782997E+03  0.00000000000E+00 0. -1.
         22    1    4    4    0    0 -0.27601052026E+02  0.16052549807E+02  0.35347773716E+03  0.35491691013E+03  0.00000000000E+00 0. -1.
         22    1    4    4    0    0 -0.75886641154E+01  0.47904833802E+01  0.10783649236E+03  0.10820926780E+03  0.00000000000E+00 0. -1.
<mgrwt>
<rscale>  0 0.89783649E+02</rscale>
<asrwt>0</asrwt>
<pdfrwt beam="1">  1        2 0.10073337E+00 0.89783649E+02</pdfrwt>
<pdfrwt beam="2">  1       -2 0.47351576E-03 0.89783649E+02</pdfrwt>
<totfact> 0.24295982E+05</totfact>
</mgrwt>
</event>
<event>
 7    1  0.3056193E-009  0.7762916E+02  0.7818608E-02  0.1335917E+00
          2   -1    0    0  501    0  0.00000000000E+00  0.00000000000E+00  0.11321927798E+03  0.11321927801E+03  0.25500000000E-02 0. -1.
         -2   -1    0    0    0  501 -0.00000000000E+00 -0.00000000000E+00 -0.13306669566E+02  0.13306669811E+02  0.25500000000E-02 0.  1.
         23    2    1    2    0    0  0.00000000000E+00  0.35527136788E-14  0.99912608410E+02  0.12652594782E+03  0.77629157869E+02 0.  0.
    9000005    2    3    3    0    0  0.13512333663E+01 -0.26569614960E+02  0.72571199872E+01  0.30126726836E+02  0.12131925182E+02 0.  0.
         22    1    3    3    0    0 -0.13512333663E+01  0.26569614960E+02  0.92655488423E+02  0.96399220981E+02  0.00000000000E+00 0. -1.
         22    1    4    4    0    0 -0.42090737765E+01 -0.20489940272E+02  0.62189361882E+01  0.21822674486E+02  0.00000000000E+00 0. -1.
         22    1    4    4    0    0  0.55603071427E+01 -0.60796746880E+01  0.10381837991E+01  0.83040523502E+01  0.00000000000E+00 0. -1.
<mgrwt>
<rscale>  0 0.77629158E+02</rscale>
<asrwt>0</asrwt>
<pdfrwt beam="1">  1        2 0.17418351E-01 0.77629158E+02</pdfrwt>
<pdfrwt beam="2">  1       -2 0.20471799E-02 0.77629158E+02</pdfrwt>
<totfact> 0.19708994E+05</totfact>
</mgrwt>
</event>
<event>
 7    1  0.3056193E-009  0.9067358E+02  0.7818608E-02  0.1301229E+00
         -2   -1    0    0    0  501 -0.00000000000E+00  0.00000000000E+00  0.38315764587E+02  0.38315764672E+02  0.25500000000E-02 0.  1.
          2   -1    0    0  501    0  0.00000000000E+00 -0.00000000000E+00 -0.53644361657E+02  0.53644361717E+02  0.25500000000E-02 0. -1.
         23    2    1    2    0    0  0.00000000000E+00  0.00000000000E+00 -0.15328597070E+02  0.91960126390E+02  0.90673584673E+02 0.  0.
    9000005    2    3    3    0    0 -0.32056644796E+02  0.21131298849E+02 -0.31085250906E+02  0.50457928776E+02  0.10273727938E+02 0.  0.
         22    1    3    3    0    0  0.32056644796E+02 -0.21131298849E+02  0.15756653837E+02  0.41502197614E+02  0.00000000000E+00 0.  1.
         22    1    4    4    0    0 -0.30707189092E+02  0.19970474940E+02 -0.31831013801E+02  0.48527979258E+02  0.00000000000E+00 0.  1.
         22    1    4    4    0    0 -0.13494557046E+01  0.11608239096E+01  0.74576289436E+00  0.19299495181E+01  0.00000000000E+00 0.  1.
<mgrwt>
<rscale>  0 0.90673585E+02</rscale>
<asrwt>0</asrwt>
<pdfrwt beam="2">  1        2 0.82529787E-02 0.90673585E+02</pdfrwt>
<pdfrwt beam="1">  1       -2 0.58947330E-02 0.90673585E+02</pdfrwt>
<totfact> 0.10458959E+05</totfact>
</mgrwt>
</event>
<event>
 7    1  0.3056193E-009  0.8802060E+02  0.7818608E-02  0.1307717E+00
          2   -1    0    0  501    0  0.00000000000E+00  0.00000000000E+00  0.23963004729E+04  0.23963004729E+04  0.25500000000E-02 0. -1.
         -2   -1    0    0    0  501 -0.00000000000E+00 -0.00000000000E+00 -0.80828828620E+00  0.80829230858E+00  0.25500000000E-02 0.  1.
         23    2    1    2    0    0  0.00000000000E+00  0.00000000000E+00  0.23954921847E+04  0.23971087653E+04  0.88020598161E+02 0.  0.
    9000005    2    3    3    0    0  0.15799751864E+01  0.14004952515E+02  0.23324744826E+04  0.23325342672E+04  0.89588515846E+01 0.  0.
         22    1    3    3    0    0 -0.15799751864E+01 -0.14004952515E+02  0.63017702097E+02  0.64574498017E+02  0.00000000000E+00 0.  1.
         22    1    4    4    0    0  0.29007639302E+01  0.78518513688E+01  0.18473907238E+04  0.18474096872E+04  0.00000000000E+00 0.  1.
         22    1    4    4    0    0 -0.13207887438E+01  0.61531011462E+01  0.48508375875E+03  0.48512458002E+03  0.00000000000E+00 0.  1.
<mgrwt>
<rscale>  0 0.88020598E+02</rscale>
<asrwt>0</asrwt>
<pdfrwt beam="1">  1        2 0.36865932E+00 0.88020598E+02</pdfrwt>
<pdfrwt beam="2">  1       -2 0.12435313E-03 0.88020598E+02</pdfrwt>
<totfact> 0.17424041E+05</totfact>
</mgrwt>
</event>
<event>
 7    1  0.3056193E-009  0.9192612E+02  0.7818608E-02  0.1298253E+00
         -2   -1    0    0    0  501 -0.00000000000E+00  0.00000000000E+00  0.46576999772E+01  0.46577006753E+01  0.25500000000E-02 0.  1.
          2   -1    0    0  501    0  0.00000000000E+00 -0.00000000000E+00 -0.45357212145E+03  0.45357212146E+03  0.25500000000E-02 0. -1.
         23    2    1    2    0    0  0.00000000000E+00  0.00000000000E+00 -0.44891442147E+03  0.45822982213E+03  0.91926122975E+02 0.  0.
    9000005    2    3    3    0    0  0.38758938021E+02  0.20106897529E+02 -0.27947923872E+03  0.28325889952E+03  0.14846436545E+02 0.  0.
         22    1    3    3    0    0 -0.38758938021E+02 -0.20106897529E+02 -0.16943518275E+03  0.17497092261E+03  0.00000000000E+00 0. -1.
         22    1    4    4    0    0  0.70798483301E+01  0.12526760488E+01 -0.85917325845E+02  0.86217633521E+02  0.00000000000E+00 0. -1.
         22    1    4    4    0    0  0.31679089691E+02  0.18854221480E+02 -0.19356191287E+03  0.19704126600E+03  0.00000000000E+00 0. -1.
<mgrwt>
<rscale>  0 0.91926123E+02</rscale>
<asrwt>0</asrwt>
<pdfrwt beam="2">  1        2 0.69780292E-01 0.91926123E+02</pdfrwt>
<pdfrwt beam="1">  1       -2 0.71656964E-03 0.91926123E+02</pdfrwt>
<totfact> 0.20412390E+05</totfact>
</mgrwt>
</event>
<event>
 7    1  0.3056193E-009  0.9047580E+02  0.7818608E-02  0.1301704E+00
          2   -1    0    0  501    0  0.00000000000E+00  0.00000000000E+00  0.16228427611E+03  0.16228427613E+03  0.25500000000E-02 0.  1.
         -2   -1    0    0    0  501 -0.00000000000E+00 -0.00000000000E+00 -0.12610388092E+02  0.12610388350E+02  0.25500000000E-02 0. -1.
         23    2    1    2    0    0  0.00000000000E+00  0.00000000000E+00  0.14967388802E+03  0.17489466448E+03  0.90475802892E+02 0.  0.
    9000005    2    3    3    0    0  0.39359004616E+02  0.16390504889E+02  0.10141204142E+03  0.11049757035E+03  0.10369716208E+02 0.  0.
         22    1    3    3    0    0 -0.39359004616E+02 -0.16390504889E+02  0.48261846600E+02  0.64397094127E+02  0.00000000000E+00 0.  1.
         22    1    4    4    0    0  0.24778922013E+02  0.14945013008E+02  0.73099529490E+02  0.78618633933E+02  0.00000000000E+00 0.  1.
         22    1    4    4    0    0  0.14580082603E+02  0.14454918813E+01  0.28312511928E+02  0.31878936418E+02  0.00000000000E+00 0.  1.
<mgrwt>
<rscale>  0 0.90475803E+02</rscale>
<asrwt>0</asrwt>
<pdfrwt beam="1">  1        2 0.24966811E-01 0.90475803E+02</pdfrwt>
<pdfrwt beam="2">  1       -2 0.19400598E-02 0.90475803E+02</pdfrwt>
<totfact> 0.14666868E+05</totfact>
</mgrwt>
</event>
<event>
 7    1  0.3056193E-009  0.9204210E+02  0.7818608E-02  0.1297980E+00
          2   -1    0    0  501    0  0.00000000000E+00  0.00000000000E+00  0.10732127447E+04  0.10732127447E+04  0.25500000000E-02 0. -1.
         -2   -1    0    0    0  501 -0.00000000000E+00 -0.00000000000E+00 -0.19734539666E+01  0.19734556141E+01  0.25500000000E-02 0.  1.
         23    2    1    2    0    0  0.00000000000E+00  0.44408920985E-15  0.10712392908E+04  0.10751862003E+04  0.92042095486E+02 0.  0.
    9000005    2    3    3    0    0  0.14185492993E+02  0.35282294567E+01  0.10453317864E+04  0.10454393451E+04  0.33472392493E+01 0.  0.
         22    1    3    3    0    0 -0.14185492993E+02 -0.35282294567E+01  0.25907504338E+02  0.29746855221E+02  0.00000000000E+00 0.  1.
         22    1    4    4    0    0  0.27960185722E+01  0.37968539159E+00  0.12583300075E+03  0.12586463347E+03  0.00000000000E+00 0. -1.
         22    1    4    4    0    0  0.11389474421E+02  0.31485440651E+01  0.91949878567E+03  0.91957471165E+03  0.00000000000E+00 0. -1.
<mgrwt>
<rscale>  0 0.92042095E+02</rscale>
<asrwt>0</asrwt>
<pdfrwt beam="1">  1        2 0.16510936E+00 0.92042095E+02</pdfrwt>
<pdfrwt beam="2">  1       -2 0.30360898E-03 0.92042095E+02</pdfrwt>
<totfact> 0.24416623E+05</totfact>
</mgrwt>
</event>
<event>
 7    1  0.3056193E-009  0.9007361E+02  0.7818608E-02  0.1302674E+00
         -2   -1    0    0    0  501 -0.00000000000E+00  0.00000000000E+00  0.27850930639E+02  0.27850930756E+02  0.25500000000E-02 0.  1.
          2   -1    0    0  501    0  0.00000000000E+00 -0.00000000000E+00 -0.72827512281E+02  0.72827512326E+02  0.25500000000E-02 0. -1.
         23    2    1    2    0    0 -0.35527136788E-14 -0.71054273576E-14 -0.44976581642E+02  0.10067844308E+03  0.90073614367E+02 0.  0.
    9000005    2    3    3    0    0  0.18582645429E+02  0.34008968795E+02 -0.47364727390E+02  0.61850258605E+02  0.89505541273E+01 0.  0.
         22    1    3    3    0    0 -0.18582645429E+02 -0.34008968795E+02  0.23881457476E+01  0.38828184477E+02  0.00000000000E+00 0.  1.
         22    1    4    4    0    0  0.18896231619E+02  0.28424894601E+02 -0.41725763135E+02  0.53908083918E+02  0.00000000000E+00 0.  1.
         22    1    4    4    0    0 -0.31358618974E+00  0.55840741937E+01 -0.56389642545E+01  0.79421746873E+01  0.00000000000E+00 0.  1.
<mgrwt>
<rscale>  0 0.90073614E+02</rscale>
<asrwt>0</asrwt>
<pdfrwt beam="2">  1        2 0.11204233E-01 0.90073614E+02</pdfrwt>
<pdfrwt beam="1">  1       -2 0.42847586E-02 0.90073614E+02</pdfrwt>
<totfact> 0.11570564E+05</totfact>
</mgrwt>
</event>
<event>
 7    1  0.3056193E-009  0.9124912E+02  0.7818608E-02  0.1299855E+00
         -2   -1    0    0    0  501 -0.00000000000E+00  0.00000000000E+00  0.36968684783E+02  0.36968684871E+02  0.25500000000E-02 0.  1.
          2   -1    0    0  501    0  0.00000000000E+00 -0.00000000000E+00 -0.56307132256E+02  0.56307132314E+02  0.25500000000E-02 0. -1.
         23    2    1    2    0    0  0.00000000000E+00  0.00000000000E+00 -0.19338447473E+02  0.93275817185E+02  0.91249123398E+02 0.  0.
    9000005    2    3    3    0    0 -0.37153446256E+02  0.24227655759E+02 -0.94297342780E+01  0.47827599734E+02  0.15205312737E+02 0.  0.
         22    1    3    3    0    0  0.37153446256E+02 -0.24227655759E+02 -0.99087131947E+01  0.45448217451E+02  0.00000000000E+00 0.  1.
         22    1    4    4    0    0 -0.68442369192E+01 -0.16333134768E+01 -0.17644057912E+01  0.72542690683E+01  0.00000000000E+00 0. -1.
         22    1    4    4    0    0 -0.30309209337E+02  0.25860969236E+02 -0.76653284869E+01  0.40573330665E+02  0.00000000000E+00 0. -1.
<mgrwt>
<rscale>  0 0.91249123E+02</rscale>
<asrwt>0</asrwt>
<pdfrwt beam="2">  1        2 0.86626357E-02 0.91249123E+02</pdfrwt>
<pdfrwt beam="1">  1       -2 0.56874900E-02 0.91249123E+02</pdfrwt>
<totfact> 0.10405317E+05</totfact>
</mgrwt>
</event>
<event>
 7    1  0.3056193E-009  0.9225182E+02  0.7818608E-02  0.1297488E+00
         -2   -1    0    0    0  501 -0.00000000000E+00  0.00000000000E+00  0.15891467350E+01  0.15891487809E+01  0.25500000000E-02 0.  1.
          2   -1    0    0  501    0  0.00000000000E+00 -0.00000000000E+00 -0.13388306529E+04  0.13388306529E+04  0.25500000000E-02 0. -1.
         23    2    1    2    0    0 -0.17763568394E-14 -0.35527136788E-14 -0.13372415061E+04  0.13404198017E+04  0.92251823474E+02 0.  0.
    9000005    2    3    3    0    0  0.11272827010E+02 -0.29547035347E+02 -0.11520999049E+04  0.11525967029E+04  0.12035974511E+02 0.  0.
         22    1    3    3    0    0 -0.11272827010E+02  0.29547035347E+02 -0.18514160123E+03  0.18782309877E+03  0.00000000000E+00 0.  1.
         22    1    4    4    0    0  0.76478143977E+01 -0.54925010263E+01 -0.36176578074E+03  0.36188829319E+03  0.00000000000E+00 0.  1.
         22    1    4    4    0    0  0.36250126126E+01 -0.24054534321E+02 -0.79033412418E+03  0.79070840970E+03  0.00000000000E+00 0.  1.
<mgrwt>
<rscale>  0 0.92251823E+02</rscale>
<asrwt>0</asrwt>
<pdfrwt beam="2">  1        2 0.20597305E+00 0.92251823E+02</pdfrwt>
<pdfrwt beam="1">  1       -2 0.24448534E-03 0.92251823E+02</pdfrwt>
<totfact> 0.23674739E+05</totfact>
</mgrwt>
</event>
<event>
 7    1  0.3056193E-009  0.8108451E+02  0.7818608E-02  0.1326002E+00
          2   -1    0    0  501    0  0.00000000000E+00  0.00000000000E+00  0.45583554706E+01  0.45583561839E+01  0.25500000000E-02 0. -1.
         -2   -1    0    0    0  501 -0.00000000000E+00 -0.00000000000E+00 -0.36058492773E+03  0.36058492773E+03  0.25500000000E-02 0.  1.
         23    2    1    2    0    0  0.11102230246E-15  0.00000000000E+00 -0.35602657226E+03  0.36514328392E+03  0.81084509243E+02 0.  0.
    9000005    2    3    3    0    0 -0.88937469089E+00 -0.32193890890E+02 -0.28770211084E+03  0.28960872477E+03  0.79668866940E+01 0.  0.
         22    1    3    3    0    0  0.88937469089E+00  0.32193890890E+02 -0.68324461416E+02  0.75534559149E+02  0.00000000000E+00 0. -1.
         22    1    4    4    0    0  0.29083553327E+01 -0.11607500991E+02 -0.87320396124E+02  0.88136508833E+02  0.00000000000E+00 0.  1.
         22    1    4    4    0    0 -0.37977300236E+01 -0.20586389899E+02 -0.20038171472E+03  0.20147221594E+03  0.00000000000E+00 0.  1.
<mgrwt>
<rscale>  0 0.81084509E+02</rscale>
<asrwt>0</asrwt>
<pdfrwt beam="1">  1        2 0.70128579E-03 0.81084509E+02</pdfrwt>
<pdfrwt beam="2">  1       -2 0.55474582E-01 0.81084509E+02</pdfrwt>
<totfact> 0.61786684E+04</totfact>
</mgrwt>
</event>
<event>
 7    1  0.3056193E-009  0.9185362E+02  0.7818608E-02  0.1298424E+00
         -2   -1    0    0    0  501 -0.00000000000E+00  0.00000000000E+00  0.20477918974E+02  0.20477919132E+02  0.25500000000E-02 0.  1.
          2   -1    0    0  501    0  0.00000000000E+00 -0.00000000000E+00 -0.10300225444E+03  0.10300225447E+03  0.25500000000E-02 0. -1.
         23    2    1    2    0    0  0.00000000000E+00  0.00000000000E+00 -0.82524335465E+02  0.12348017360E+03  0.91853619030E+02 0.  0.
    9000005    2    3    3    0    0 -0.42350604403E+02  0.11118884111E+02 -0.23161745697E+02  0.49716223456E+02  0.42465437581E+01 0.  0.
         22    1    3    3    0    0  0.42350604403E+02 -0.11118884111E+02 -0.59362589768E+02  0.73763950146E+02  0.00000000000E+00 0. -1.
         22    1    4    4    0    0 -0.29453371981E+02  0.78399162936E+01 -0.18286380532E+02  0.35543735334E+02  0.00000000000E+00 0. -1.
         22    1    4    4    0    0 -0.12897232421E+02  0.32789678175E+01 -0.48753651654E+01  0.14172488122E+02  0.00000000000E+00 0. -1.
<mgrwt>
<rscale>  0 0.91853619E+02</rscale>
<asrwt>0</asrwt>
<pdfrwt beam="2">  1        2 0.15846500E-01 0.91853619E+02</pdfrwt>
<pdfrwt beam="1">  1       -2 0.31504492E-02 0.91853619E+02</pdfrwt>
<totfact> 0.12129527E+05</totfact>
</mgrwt>
</event>
<event>
 7    1  0.3056193E-009  0.9025216E+02  0.7818608E-02  0.1302242E+00
          2   -1    0    0  501    0  0.00000000000E+00  0.00000000000E+00  0.68007407055E+02  0.68007407103E+02  0.25500000000E-02 0. -1.
         -2   -1    0    0    0  501 -0.00000000000E+00 -0.00000000000E+00 -0.29943254345E+02  0.29943254454E+02  0.25500000000E-02 0.  1.
         23    2    1    2    0    0  0.00000000000E+00 -0.71054273576E-14  0.38064152710E+02  0.97950661557E+02  0.90252159962E+02 0.  0.
    9000005    2    3    3    0    0  0.10450125123E+02  0.40399578102E+02  0.34771285525E+02  0.56091684022E+02  0.13996560059E+02 0.  0.
         22    1    3    3    0    0 -0.10450125123E+02 -0.40399578102E+02  0.32928671850E+01  0.41858977534E+02  0.00000000000E+00 0.  1.
         22    1    4    4    0    0  0.10159353887E+02  0.34968750366E+02  0.35186697494E+02  0.50637235846E+02  0.00000000000E+00 0. -1.
         22    1    4    4    0    0  0.29077123546E+00  0.54308277360E+01 -0.41541196865E+00  0.54544481768E+01  0.00000000000E+00 0. -1.
<mgrwt>
<rscale>  0 0.90252160E+02</rscale>
<asrwt>0</asrwt>
<pdfrwt beam="1">  1        2 0.10462678E-01 0.90252160E+02</pdfrwt>
<pdfrwt beam="2">  1       -2 0.46066546E-02 0.90252160E+02</pdfrwt>
<totfact> 0.11291527E+05</totfact>
</mgrwt>
</event>
<event>
 7    1  0.3056193E-009  0.9325286E+02  0.7818608E-02  0.1295160E+00
         -2   -1    0    0    0  501 -0.00000000000E+00  0.00000000000E+00  0.35075642367E+01  0.35075651636E+01  0.25500000000E-02 0.  1.
          2   -1    0    0  501    0  0.00000000000E+00 -0.00000000000E+00 -0.61981001794E+03  0.61981001795E+03  0.25500000000E-02 0. -1.
         23    2    1    2    0    0  0.00000000000E+00 -0.17763568394E-14 -0.61630245370E+03  0.62331758311E+03  0.93252855034E+02 0.  0.
    9000005    2    3    3    0    0  0.28104812994E+02 -0.92579264331E+01 -0.54706851694E+03  0.54802530120E+03  0.13121692477E+02 0.  0.
         22    1    3    3    0    0 -0.28104812994E+02  0.92579264331E+01 -0.69233936766E+02  0.75292281911E+02  0.00000000000E+00 0.  1.
         22    1    4    4    0    0  0.22106119347E+02 -0.94316891487E+01 -0.33009161097E+03  0.33096541950E+03  0.00000000000E+00 0. -1.
         22    1    4    4    0    0  0.59986936477E+01  0.17376271556E+00 -0.21697690597E+03  0.21705988170E+03  0.00000000000E+00 0. -1.
<mgrwt>
<rscale>  0 0.93252855E+02</rscale>
<asrwt>0</asrwt>
<pdfrwt beam="2">  1        2 0.95355301E-01 0.93252855E+02</pdfrwt>
<pdfrwt beam="1">  1       -2 0.53962583E-03 0.93252855E+02</pdfrwt>
<totfact> 0.21663328E+05</totfact>
</mgrwt>
</event>
<event>
 7    1  0.3056193E-009  0.8364245E+02  0.7818608E-02  0.1319021E+00
         -2   -1    0    0    0  501 -0.00000000000E+00  0.00000000000E+00  0.55624724824E+02  0.55624724883E+02  0.25500000000E-02 0.  1.
          2   -1    0    0  501    0  0.00000000000E+00 -0.00000000000E+00 -0.31443119018E+02  0.31443119121E+02  0.25500000000E-02 0. -1.
         23    2    1    2    0    0  0.00000000000E+00  0.35527136788E-14  0.24181605807E+02  0.87067844004E+02  0.83642449750E+02 0.  0.
    9000005    2    3    3    0    0 -0.32171457860E+02  0.21895285599E+02  0.27882407507E+02  0.47976896644E+02  0.31540023513E+01 0.  0.
         22    1    3    3    0    0  0.32171457860E+02 -0.21895285599E+02 -0.37008017008E+01  0.39090947360E+02  0.00000000000E+00 0. -1.
         22    1    4    4    0    0 -0.24038779057E+02  0.14651165894E+02  0.20062300870E+02  0.34568995889E+02  0.00000000000E+00 0.  1.
         22    1    4    4    0    0 -0.81326788034E+01  0.72441197045E+01  0.78201066375E+01  0.13407900754E+02  0.00000000000E+00 0.  1.
<mgrwt>
<rscale>  0 0.83642450E+02</rscale>
<asrwt>0</asrwt>
<pdfrwt beam="2">  1        2 0.48374030E-02 0.83642450E+02</pdfrwt>
<pdfrwt beam="1">  1       -2 0.85576499E-02 0.83642450E+02</pdfrwt>
<totfact> 0.11526004E+05</totfact>
</mgrwt>
</event>
<event>
 7    1  0.3056193E-009  0.9715068E+02  0.7818608E-02  0.1286404E+00
         -2   -1    0    0    0  501 -0.00000000000E+00  0.00000000000E+00  0.15978467898E+02  0.15978468102E+02  0.25500000000E-02 0.  1.
          2   -1    0    0  501    0  0.00000000000E+00 -0.00000000000E+00 -0.14767145687E+03  0.14767145689E+03  0.25500000000E-02 0. -1.
         23    2    1    2    0    0  0.00000000000E+00  0.00000000000E+00 -0.13169298897E+03  0.16364992499E+03  0.97150679905E+02 0.  0.
    9000005    2    3    3    0    0 -0.40224520513E+02  0.26011104141E+02 -0.71604801500E+02  0.86804756877E+02  0.10640894208E+02 0.  0.
         22    1    3    3    0    0  0.40224520513E+02 -0.26011104141E+02 -0.60088187470E+02  0.76845168115E+02  0.00000000000E+00 0. -1.
         22    1    4    4    0    0 -0.15706878588E+02  0.10571796551E+02 -0.37842152029E+02  0.42314269312E+02  0.00000000000E+00 0. -1.
         22    1    4    4    0    0 -0.24517641925E+02  0.15439307590E+02 -0.33762649471E+02  0.44490487565E+02  0.00000000000E+00 0. -1.
<mgrwt>
<rscale>  0 0.97150680E+02</rscale>
<asrwt>0</asrwt>
<pdfrwt beam="2">  1        2 0.22718685E-01 0.97150680E+02</pdfrwt>
<pdfrwt beam="1">  1       -2 0.24582259E-02 0.97150680E+02</pdfrwt>
<totfact> 0.11695653E+05</totfact>
</mgrwt>
</event>
<event>
 7    1  0.3056193E-009  0.9064239E+02  0.7818608E-02  0.1301303E+00
          2   -1    0    0  501    0  0.00000000000E+00  0.00000000000E+00  0.31051106616E+02  0.31051106721E+02  0.25500000000E-02 0. -1.
         -2   -1    0    0    0  501 -0.00000000000E+00 -0.00000000000E+00 -0.66149350104E+02  0.66149350153E+02  0.25500000000E-02 0.  1.
         23    2    1    2    0    0  0.00000000000E+00  0.00000000000E+00 -0.35098243487E+02  0.97200456874E+02  0.90642385894E+02 0.  0.
    9000005    2    3    3    0    0 -0.71190520619E+01 -0.37636038330E+02 -0.43026595748E+02  0.58085101156E+02  0.74457203274E+01 0.  0.
         22    1    3    3    0    0  0.71190520619E+01  0.37636038330E+02  0.79283522606E+01  0.39115355718E+02  0.00000000000E+00 0. -1.
         22    1    4    4    0    0 -0.50941460126E+00 -0.60935606294E+01 -0.33610323901E+01  0.69776445243E+01  0.00000000000E+00 0.  1.
         22    1    4    4    0    0 -0.66096374606E+01 -0.31542477700E+02 -0.39665563358E+02  0.51107456631E+02  0.00000000000E+00 0.  1.
<mgrwt>
<rscale>  0 0.90642386E+02</rscale>
<asrwt>0</asrwt>
<pdfrwt beam="1">  1        2 0.47770933E-02 0.90642386E+02</pdfrwt>
<pdfrwt beam="2">  1       -2 0.10176823E-01 0.90642386E+02</pdfrwt>
<totfact> 0.90845284E+04</totfact>
</mgrwt>
</event>
<event>
 7    1  0.3056193E-009  0.9099997E+02  0.7818608E-02  0.1300448E+00
          2   -1    0    0  501    0  0.00000000000E+00  0.00000000000E+00  0.61956596940E+03  0.61956596940E+03  0.25500000000E-02 0. -1.
         -2   -1    0    0    0  501 -0.00000000000E+00 -0.00000000000E+00 -0.33414492999E+01  0.33414502729E+01  0.25500000000E-02 0.  1.
         23    2    1    2    0    0  0.00000000000E+00  0.00000000000E+00  0.61622452010E+03  0.62290741967E+03  0.90999968777E+02 0.  0.
    9000005    2    3    3    0    0 -0.12150286740E+02 -0.16360167355E+02  0.58574502135E+03  0.58624293567E+03  0.12971701461E+02 0.  0.
         22    1    3    3    0    0  0.12150286740E+02  0.16360167355E+02  0.30479498747E+02  0.36664484008E+02  0.00000000000E+00 0.  1.
         22    1    4    4    0    0 -0.47052379074E+01 -0.14970809717E+02  0.46194166368E+03  0.46220814040E+03  0.00000000000E+00 0. -1.
         22    1    4    4    0    0 -0.74450488322E+01 -0.13893576382E+01  0.12380335767E+03  0.12403479527E+03  0.00000000000E+00 0. -1.
<mgrwt>
<rscale>  0 0.90999969E+02</rscale>
<asrwt>0</asrwt>
<pdfrwt beam="1">  1        2 0.95317851E-01 0.90999969E+02</pdfrwt>
<pdfrwt beam="2">  1       -2 0.51406914E-03 0.90999969E+02</pdfrwt>
<totfact> 0.23107904E+05</totfact>
</mgrwt>
</event>
<event>
 7    1  0.3056193E-009  0.8996945E+02  0.7818608E-02  0.1302926E+00
          2   -1    0    0  501    0  0.00000000000E+00  0.00000000000E+00  0.24611568730E+03  0.24611568731E+03  0.25500000000E-02 0. -1.
         -2   -1    0    0    0  501 -0.00000000000E+00 -0.00000000000E+00 -0.82222521494E+01  0.82222525448E+01  0.25500000000E-02 0.  1.
         23    2    1    2    0    0  0.00000000000E+00  0.88817841970E-15  0.23789343515E+03  0.25433793986E+03  0.89969445722E+02 0.  0.
    9000005    2    3    3    0    0  0.17604041117E+02 -0.55164894656E+01  0.23444941033E+03  0.23557107473E+03  0.13670088740E+02 0.  0.
         22    1    3    3    0    0 -0.17604041117E+02  0.55164894656E+01  0.34440248186E+01  0.18766865125E+02  0.00000000000E+00 0.  1.
         22    1    4    4    0    0  0.17579583520E+02 -0.78166747917E+01  0.17080499600E+03  0.17188510354E+03  0.00000000000E+00 0. -1.
         22    1    4    4    0    0  0.24457597006E-01  0.23001853262E+01  0.63644414334E+02  0.63685971192E+02  0.00000000000E+00 0. -1.
<mgrwt>
<rscale>  0 0.89969446E+02</rscale>
<asrwt>0</asrwt>
<pdfrwt beam="1">  1        2 0.37863955E-01 0.89969446E+02</pdfrwt>
<pdfrwt beam="2">  1       -2 0.12649618E-02 0.89969446E+02</pdfrwt>
<totfact> 0.17295064E+05</totfact>
</mgrwt>
</event>
<event>
 7    1  0.3056193E-009  0.9006040E+02  0.7818608E-02  0.1302705E+00
          2   -1    0    0  501    0  0.00000000000E+00  0.00000000000E+00  0.25234753491E+03  0.25234753492E+03  0.25500000000E-02 0. -1.
         -2   -1    0    0    0  501 -0.00000000000E+00 -0.00000000000E+00 -0.80354213770E+01  0.80354217817E+01  0.25500000000E-02 0.  1.
         23    2    1    2    0    0 -0.22204460493E-15  0.71054273576E-14  0.24431211353E+03  0.26038295670E+03  0.90060398196E+02 0.  0.
    9000005    2    3    3    0    0  0.15094867396E+01  0.44388850967E+02  0.11272317743E+03  0.12150064413E+03  0.91237686611E+01 0.  0.
         22    1    3    3    0    0 -0.15094867396E+01 -0.44388850967E+02  0.13158893610E+03  0.13888231257E+03  0.00000000000E+00 0.  1.
         22    1    4    4    0    0 -0.21260042307E+01  0.19423209186E+02  0.58936379012E+02  0.62090882746E+02  0.00000000000E+00 0. -1.
         22    1    4    4    0    0  0.36354909702E+01  0.24965641781E+02  0.53786798417E+02  0.59409761387E+02  0.00000000000E+00 0. -1.
<mgrwt>
<rscale>  0 0.90060398E+02</rscale>
<asrwt>0</asrwt>
<pdfrwt beam="1">  1        2 0.38822689E-01 0.90060398E+02</pdfrwt>
<pdfrwt beam="2">  1       -2 0.12362190E-02 0.90060398E+02</pdfrwt>
<totfact> 0.17408428E+05</totfact>
</mgrwt>
</event>
<event>
 7    1  0.3056193E-009  0.9284680E+02  0.7818608E-02  0.1296101E+00
         -2   -1    0    0    0  501 -0.00000000000E+00  0.00000000000E+00  0.10714326915E+02  0.10714327218E+02  0.25500000000E-02 0.  1.
          2   -1    0    0  501    0  0.00000000000E+00 -0.00000000000E+00 -0.20114487009E+03  0.20114487010E+03  0.25500000000E-02 0. -1.
         23    2    1    2    0    0  0.71054273576E-14 -0.55511151231E-16 -0.19043054317E+03  0.21185919732E+03  0.92846797020E+02 0.  0.
    9000005    2    3    3    0    0 -0.42549983146E+02 -0.39685874529E+00 -0.54093202746E+02  0.69035778524E+02  0.54042178428E+01 0.  0.
         22    1    3    3    0    0  0.42549983146E+02  0.39685874529E+00 -0.13633734043E+03  0.14282341880E+03  0.00000000000E+00 0.  1.
         22    1    4    4    0    0 -0.25476830222E+02  0.21508138565E+01 -0.30426575932E+02  0.39742564102E+02  0.00000000000E+00 0.  1.
         22    1    4    4    0    0 -0.17073152924E+02 -0.25476726018E+01 -0.23666626814E+02  0.29293214422E+02  0.00000000000E+00 0.  1.
<mgrwt>
<rscale>  0 0.92846797E+02</rscale>
<asrwt>0</asrwt>
<pdfrwt beam="2">  1        2 0.30945362E-01 0.92846797E+02</pdfrwt>
<pdfrwt beam="1">  1       -2 0.16483582E-02 0.92846797E+02</pdfrwt>
<totfact> 0.14759500E+05</totfact>
</mgrwt>
</event>
<event>
 7    1  0.3056193E-009  0.9264788E+02  0.7818608E-02  0.1296563E+00
          2   -1    0    0  501    0  0.00000000000E+00  0.00000000000E+00  0.11862818600E+04  0.11862818600E+04  0.25500000000E-02 0.  1.
         -2   -1    0    0    0  501 -0.00000000000E+00 -0.00000000000E+00 -0.18089345555E+01  0.18089363528E+01  0.25500000000E-02 0. -1.
         23    2    1    2    0    0  0.00000000000E+00  0.00000000000E+00  0.11844729255E+04  0.11880907964E+04  0.92647877870E+02 0.  0.
    9000005    2    3    3    0    0  0.18015202422E+02 -0.16457957622E+02  0.10971274794E+04  0.10974010018E+04  0.22001973257E+01 0.  0.
         22    1    3    3    0    0 -0.18015202422E+02  0.16457957622E+02  0.87345446110E+02  0.90689794594E+02  0.00000000000E+00 0. -1.
         22    1    4    4    0    0  0.10111044821E+02 -0.88889441522E+01  0.65239353512E+03  0.65253242925E+03  0.00000000000E+00 0.  1.
         22    1    4    4    0    0  0.79041576008E+01 -0.75690134697E+01  0.44473394424E+03  0.44486857254E+03  0.00000000000E+00 0.  1.
<mgrwt>
<rscale>  0 0.92647878E+02</rscale>
<asrwt>0</asrwt>
<pdfrwt beam="1">  1        2 0.18250443E+00 0.92647878E+02</pdfrwt>
<pdfrwt beam="2">  1       -2 0.27829848E-03 0.92647878E+02</pdfrwt>
<totfact> 0.23870290E+05</totfact>
</mgrwt>
</event>
<event>
 7    1  0.3056193E-009  0.6902833E+02  0.7818608E-02  0.1363429E+00
         -2   -1    0    0    0  501 -0.00000000000E+00  0.00000000000E+00  0.64168171542E+01  0.64168176609E+01  0.25500000000E-02 0.  1.
          2   -1    0    0  501    0  0.00000000000E+00 -0.00000000000E+00 -0.18564150760E+03  0.18564150762E+03  0.25500000000E-02 0. -1.
         23    2    1    2    0    0  0.00000000000E+00 -0.55511151231E-16 -0.17922469044E+03  0.19205832528E+03  0.69028332178E+02 0.  0.
    9000005    2    3    3    0    0  0.17966435610E+02 -0.26740343167E+00 -0.17154325677E+03  0.17251686329E+03  0.34806413906E+01 0.  0.
         22    1    3    3    0    0 -0.17966435610E+02  0.26740343167E+00 -0.76814336739E+01  0.19541461982E+02  0.00000000000E+00 0.  1.
         22    1    4    4    0    0  0.11848973080E+02 -0.16385746883E+01 -0.11958151480E+03  0.12017829160E+03  0.00000000000E+00 0.  1.
         22    1    4    4    0    0  0.61174625295E+01  0.13711712566E+01 -0.51961741968E+02  0.52338571692E+02  0.00000000000E+00 0.  1.
<mgrwt>
<rscale>  0 0.69028332E+02</rscale>
<asrwt>0</asrwt>
<pdfrwt beam="2">  1        2 0.28560228E-01 0.69028332E+02</pdfrwt>
<pdfrwt beam="1">  1       -2 0.98720282E-03 0.69028332E+02</pdfrwt>
<totfact> 0.31494635E+05</totfact>
</mgrwt>
</event>
<event>
 7    1  0.3056193E-009  0.9213579E+02  0.7818608E-02  0.1297760E+00
         -2   -1    0    0    0  501 -0.00000000000E+00  0.00000000000E+00  0.39438426455E+01  0.39438434699E+01  0.25500000000E-02 0.  1.
          2   -1    0    0  501    0  0.00000000000E+00 -0.00000000000E+00 -0.53811753737E+03  0.53811753738E+03  0.25500000000E-02 0. -1.
         23    2    1    2    0    0  0.00000000000E+00  0.00000000000E+00 -0.53417369473E+03  0.54206138085E+03  0.92135793636E+02 0.  0.
    9000005    2    3    3    0    0 -0.60836533181E+01  0.35969954855E+02 -0.42861421569E+03  0.43037587550E+03  0.13505548215E+02 0.  0.
         22    1    3    3    0    0  0.60836533181E+01 -0.35969954855E+02 -0.10555947904E+03  0.11168550535E+03  0.00000000000E+00 0.  1.
         22    1    4    4    0    0 -0.13121873777E+01 -0.74682783249E-01 -0.50607119998E+02  0.50624184020E+02  0.00000000000E+00 0.  1.
         22    1    4    4    0    0 -0.47714659405E+01  0.36044637638E+02 -0.37800709569E+03  0.37975169148E+03  0.00000000000E+00 0.  1.
<mgrwt>
<rscale>  0 0.92135794E+02</rscale>
<asrwt>0</asrwt>
<pdfrwt beam="2">  1        2 0.82787255E-01 0.92135794E+02</pdfrwt>
<pdfrwt beam="1">  1       -2 0.60674551E-03 0.92135794E+02</pdfrwt>
<totfact> 0.21456012E+05</totfact>
</mgrwt>
</event>
<event>
 7    1  0.3056193E-009  0.9154424E+02  0.7818608E-02  0.1299155E+00
         -2   -1    0    0    0  501 -0.00000000000E+00  0.00000000000E+00  0.62114470443E+02  0.62114470496E+02  0.25500000000E-02 0.  1.
          2   -1    0    0  501    0  0.00000000000E+00 -0.00000000000E+00 -0.33729447940E+02  0.33729448036E+02  0.25500000000E-02 0. -1.
         23    2    1    2    0    0  0.00000000000E+00  0.00000000000E+00  0.28385022504E+02  0.95843918532E+02  0.91544236395E+02 0.  0.
    9000005    2    3    3    0    0 -0.38730514203E+02 -0.15884094915E+02 -0.24386982052E+01  0.43858738336E+02  0.12856301093E+02 0.  0.
         22    1    3    3    0    0  0.38730514203E+02  0.15884094915E+02  0.30823720709E+02  0.51985180196E+02  0.00000000000E+00 0. -1.
         22    1    4    4    0    0 -0.33518303361E+02 -0.17848435907E+02 -0.36796277792E+01  0.38152103285E+02  0.00000000000E+00 0.  1.
         22    1    4    4    0    0 -0.52122108420E+01  0.19643409915E+01  0.12409295740E+01  0.57066350505E+01  0.00000000000E+00 0.  1.
<mgrwt>
<rscale>  0 0.91544236E+02</rscale>
<asrwt>0</asrwt>
<pdfrwt beam="2">  1        2 0.51891459E-02 0.91544236E+02</pdfrwt>
<pdfrwt beam="1">  1       -2 0.95560723E-02 0.91544236E+02</pdfrwt>
<totfact> 0.90177252E+04</totfact>
</mgrwt>
</event>
<event>
 6    1  0.3056193E-009  0.1323511E+03  0.7818608E-02  0.1224008E+00
         -2   -1    0    0    0  501 -0.00000000000E+00  0.00000000000E+00  0.19879494326E+02  0.19879494489E+02  0.25500000000E-02 0.  1.
          2   -1    0    0  501    0  0.00000000000E+00 -0.00000000000E+00 -0.22028753506E+03  0.22028753507E+03  0.25500000000E-02 0. -1.
    9000005    2    1    2    0    0  0.69130955047E+01 -0.38624807651E+02 -0.35221008079E+01  0.39409115657E+02  0.10032682713E+01 0.  0.
         22    1    1    2    0    0 -0.69130955047E+01  0.38624807651E+02 -0.19688593992E+03  0.20075791390E+03  0.00000000000E+00 0. -1.
         22    1    3    3    0    0  0.44146535434E+00 -0.14521253106E+01 -0.62736413129E-01  0.15190442503E+01  0.00000000000E+00 0.  1.
         22    1    3    3    0    0  0.64716301503E+01 -0.37172682340E+02 -0.34593643947E+01  0.37890071406E+02  0.00000000000E+00 0.  1.
<mgrwt>
<rscale>  0 0.13235112E+03</rscale>
<asrwt>0</asrwt>
<pdfrwt beam="2">  1        2 0.33890388E-01 0.13235112E+03</pdfrwt>
<pdfrwt beam="1">  1       -2 0.30583839E-02 0.13235112E+03</pdfrwt>
<totfact> 0.57503659E+04</totfact>
</mgrwt>
</event>
<event>
 7    1  0.3056193E-009  0.9045921E+02  0.7818608E-02  0.1301743E+00
         -2   -1    0    0    0  501 -0.00000000000E+00  0.00000000000E+00  0.44194428232E+03  0.44194428233E+03  0.25500000000E-02 0.  1.
          2   -1    0    0  501    0  0.00000000000E+00 -0.00000000000E+00 -0.46289021734E+01  0.46289028758E+01  0.25500000000E-02 0. -1.
         23    2    1    2    0    0  0.00000000000E+00  0.00000000000E+00  0.43731538014E+03  0.44657318520E+03  0.90459206440E+02 0.  0.
    9000005    2    3    3    0    0  0.41721384830E+02  0.15526654594E+02  0.25329308847E+03  0.25724290557E+03  0.58968500338E+01 0.  0.
         22    1    3    3    0    0 -0.41721384830E+02 -0.15526654594E+02  0.18402229167E+03  0.18933027963E+03  0.00000000000E+00 0. -1.
         22    1    4    4    0    0  0.32357390175E+02  0.97521600882E+01  0.19850353519E+03  0.20135977455E+03  0.00000000000E+00 0. -1.
         22    1    4    4    0    0  0.93639946550E+01  0.57744945058E+01  0.54789553286E+02  0.55883131015E+02  0.00000000000E+00 0. -1.
<mgrwt>
<rscale>  0 0.90459206E+02</rscale>
<asrwt>0</asrwt>
<pdfrwt beam="2">  1        2 0.71213888E-03 0.90459206E+02</pdfrwt>
<pdfrwt beam="1">  1       -2 0.67991426E-01 0.90459206E+02</pdfrwt>
<totfact> 0.40642754E+04</totfact>
</mgrwt>
</event>
<event>
 7    1  0.3056193E-009  0.8703803E+02  0.7818608E-02  0.1310187E+00
         -2   -1    0    0    0  501 -0.00000000000E+00  0.00000000000E+00  0.15580458323E+03  0.15580458325E+03  0.25500000000E-02 0.  1.
          2   -1    0    0  501    0  0.00000000000E+00 -0.00000000000E+00 -0.12155640687E+02  0.12155640955E+02  0.25500000000E-02 0. -1.
         23    2    1    2    0    0  0.35527136788E-14  0.00000000000E+00  0.14364894254E+03  0.16796022421E+03  0.87038027446E+02 0.  0.
    9000005    2    3    3    0    0 -0.30552259030E+02 -0.99228051431E+01  0.12686149253E+03  0.13171493387E+03  0.14935960742E+02 0.  0.
         22    1    3    3    0    0  0.30552259030E+02  0.99228051431E+01  0.16787450014E+02  0.36245290339E+02  0.00000000000E+00 0. -1.
         22    1    4    4    0    0 -0.21488442000E+02 -0.62767244555E+00  0.92939879862E+02  0.95393754413E+02  0.00000000000E+00 0.  1.
         22    1    4    4    0    0 -0.90638170298E+01 -0.92951326976E+01  0.33921612667E+02  0.36321179454E+02  0.00000000000E+00 0.  1.
<mgrwt>
<rscale>  0 0.87038027E+02</rscale>
<asrwt>0</asrwt>
<pdfrwt beam="2">  1        2 0.18700986E-02 0.87038027E+02</pdfrwt>
<pdfrwt beam="1">  1       -2 0.23969936E-01 0.87038027E+02</pdfrwt>
<totfact> 0.77485449E+04</totfact>
</mgrwt>
</event>
<event>
 7    1  0.3056193E-009  0.9151647E+02  0.7818608E-02  0.1299220E+00
          2   -1    0    0  501    0  0.00000000000E+00  0.00000000000E+00  0.50898124077E+01  0.50898130465E+01  0.25500000000E-02 0.  1.
         -2   -1    0    0    0  501 -0.00000000000E+00 -0.00000000000E+00 -0.41137391250E+03  0.41137391251E+03  0.25500000000E-02 0. -1.
         23    2    1    2    0    0  0.00000000000E+00  0.00000000000E+00 -0.40628410010E+03  0.41646372556E+03  0.91516472369E+02 0.  0.
    9000005    2    3    3    0    0 -0.22722458984E+02  0.23683637926E+02 -0.34583567679E+03  0.34767973957E+03  0.14200743705E+02 0.  0.
         22    1    3    3    0    0  0.22722458984E+02 -0.23683637926E+02 -0.60448423308E+02  0.68783985986E+02  0.00000000000E+00 0.  1.
         22    1    4    4    0    0 -0.14710754864E+02  0.20629607522E+02 -0.20103105751E+03  0.20262150206E+03  0.00000000000E+00 0. -1.
         22    1    4    4    0    0 -0.80117041202E+01  0.30540304039E+01 -0.14480461928E+03  0.14505823751E+03  0.00000000000E+00 0. -1.
<mgrwt>
<rscale>  0 0.91516472E+02</rscale>
<asrwt>0</asrwt>
<pdfrwt beam="1">  1        2 0.78304844E-03 0.91516472E+02</pdfrwt>
<pdfrwt beam="2">  1       -2 0.63288268E-01 0.91516472E+02</pdfrwt>
<totfact> 0.41482204E+04</totfact>
</mgrwt>
</event>
<event>
 7    1  0.3056193E-009  0.8548185E+02  0.7818608E-02  0.1314177E+00
         -2   -1    0    0    0  501 -0.00000000000E+00  0.00000000000E+00  0.27838566954E+01  0.27838578633E+01  0.25500000000E-02 0.  1.
          2   -1    0    0  501    0  0.00000000000E+00 -0.00000000000E+00 -0.65620697701E+03  0.65620697701E+03  0.25500000000E-02 0. -1.
         23    2    1    2    0    0 -0.35527136788E-14  0.00000000000E+00 -0.65342312031E+03  0.65899083488E+03  0.85481847733E+02 0.  0.
    9000005    2    3    3    0    0 -0.18806320271E+02 -0.19441747480E+02 -0.57919367789E+03  0.57998659860E+03  0.13692290553E+02 0.  0.
         22    1    3    3    0    0  0.18806320271E+02  0.19441747480E+02 -0.74229442418E+02  0.79004236271E+02  0.00000000000E+00 0.  1.
         22    1    4    4    0    0 -0.16217007835E+02 -0.19645601241E+02 -0.56380978093E+03  0.56438498391E+03  0.00000000000E+00 0. -1.
         22    1    4    4    0    0 -0.25893124358E+01  0.20385376121E+00 -0.15383896966E+02  0.15601614696E+02  0.00000000000E+00 0. -1.
<mgrwt>
<rscale>  0 0.85481848E+02</rscale>
<asrwt>0</asrwt>
<pdfrwt beam="2">  1        2 0.10095480E+00 0.85481848E+02</pdfrwt>
<pdfrwt beam="1">  1       -2 0.42828626E-03 0.85481848E+02</pdfrwt>
<totfact> 0.27657492E+05</totfact>
</mgrwt>
</event>
<event>
 7    1  0.3056193E-009  0.9536595E+02  0.7818608E-02  0.1290354E+00
          2   -1    0    0  501    0  0.00000000000E+00  0.00000000000E+00  0.88875458875E+02  0.88875458911E+02  0.25500000000E-02 0. -1.
         -2   -1    0    0    0  501 -0.00000000000E+00 -0.00000000000E+00 -0.25582608967E+02  0.25582609094E+02  0.25500000000E-02 0.  1.
         23    2    1    2    0    0  0.00000000000E+00  0.00000000000E+00  0.63292849908E+02  0.11445806801E+03  0.95365950328E+02 0.  0.
    9000005    2    3    3    0    0  0.22416504724E+01  0.29932008701E+02  0.75725036529E+02  0.81969463759E+02  0.91521412727E+01 0.  0.
         22    1    3    3    0    0 -0.22416504724E+01 -0.29932008701E+02 -0.12432186620E+02  0.32488604247E+02  0.00000000000E+00 0.  1.
         22    1    4    4    0    0  0.40194672865E+01  0.27920545014E+02  0.72365969893E+02  0.77669469869E+02  0.00000000000E+00 0. -1.
         22    1    4    4    0    0 -0.17778168141E+01  0.20114636872E+01  0.33590666357E+01  0.42999938898E+01  0.00000000000E+00 0. -1.
<mgrwt>
<rscale>  0 0.95365950E+02</rscale>
<asrwt>0</asrwt>
<pdfrwt beam="1">  1        2 0.13673147E-01 0.95365950E+02</pdfrwt>
<pdfrwt beam="2">  1       -2 0.39357861E-02 0.95365950E+02</pdfrwt>
<totfact> 0.10452436E+05</totfact>
</mgrwt>
</event>
<event>
 7    1  0.3056193E-009  0.8992307E+02  0.7818608E-02  0.1303038E+00
          2   -1    0    0  501    0  0.00000000000E+00  0.00000000000E+00  0.44134564332E+02  0.44134564406E+02  0.25500000000E-02 0. -1.
         -2   -1    0    0    0  501 -0.00000000000E+00 -0.00000000000E+00 -0.45804002782E+02  0.45804002853E+02  0.25500000000E-02 0.  1.
         23    2    1    2    0    0  0.00000000000E+00  0.35527136788E-14 -0.16694384493E+01  0.89938567259E+02  0.89923071877E+02 0.  0.
    9000005    2    3    3    0    0 -0.67284071370E+01  0.20580649448E+02 -0.40164375688E+02  0.45771896710E+02  0.36131509398E+01 0.  0.
         22    1    3    3    0    0  0.67284071370E+01 -0.20580649448E+02  0.38494937239E+02  0.44166670548E+02  0.00000000000E+00 0. -1.
         22    1    4    4    0    0 -0.10678894154E+01  0.62020753518E+01 -0.89391481313E+01  0.10932268556E+02  0.00000000000E+00 0. -1.
         22    1    4    4    0    0 -0.56605177216E+01  0.14378574096E+02 -0.31225227557E+02  0.34839628154E+02  0.00000000000E+00 0. -1.
<mgrwt>
<rscale>  0 0.89923072E+02</rscale>
<asrwt>0</asrwt>
<pdfrwt beam="1">  1        2 0.67899330E-02 0.89923072E+02</pdfrwt>
<pdfrwt beam="2">  1       -2 0.70467697E-02 0.89923072E+02</pdfrwt>
<totfact> 0.10181523E+05</totfact>
</mgrwt>
</event>
<event>
 7    1  0.3056193E-009  0.9276053E+02  0.7818608E-02  0.1296301E+00
         -2   -1    0    0    0  501 -0.00000000000E+00  0.00000000000E+00  0.10828407859E+02  0.10828408159E+02  0.25500000000E-02 0.  1.
          2   -1    0    0  501    0  0.00000000000E+00 -0.00000000000E+00 -0.19865608786E+03  0.19865608788E+03  0.25500000000E-02 0. -1.
         23    2    1    2    0    0 -0.35527136788E-14  0.00000000000E+00 -0.18782768000E+03  0.20948449604E+03  0.92760534199E+02 0.  0.
    9000005    2    3    3    0    0 -0.21519079414E+02  0.14161869355E+02 -0.18077734734E+03  0.18277613568E+03  0.79395932186E+01 0.  0.
         22    1    3    3    0    0  0.21519079414E+02 -0.14161869355E+02 -0.70503326660E+01  0.26708360361E+02  0.00000000000E+00 0.  1.
         22    1    4    4    0    0  0.90124257508E-01  0.77785657224E+00 -0.13773056985E+01  0.15843466211E+01  0.00000000000E+00 0.  1.
         22    1    4    4    0    0 -0.21609203671E+02  0.13384012783E+02 -0.17940004164E+03  0.18119178906E+03  0.00000000000E+00 0.  1.
<mgrwt>
<rscale>  0 0.92760534E+02</rscale>
<asrwt>0</asrwt>
<pdfrwt beam="2">  1        2 0.30562472E-01 0.92760534E+02</pdfrwt>
<pdfrwt beam="1">  1       -2 0.16659091E-02 0.92760534E+02</pdfrwt>
<totfact> 0.14729903E+05</totfact>
</mgrwt>
</event>
<event>
 7    1  0.3056193E-009  0.9196816E+02  0.7818608E-02  0.1298154E+00
         -2   -1    0    0    0  501 -0.00000000000E+00  0.00000000000E+00  0.49366238660E+01  0.49366245246E+01  0.25500000000E-02 0. -1.
          2   -1    0    0  501    0  0.00000000000E+00 -0.00000000000E+00 -0.42833640010E+03  0.42833640011E+03  0.25500000000E-02 0.  1.
         23    2    1    2    0    0  0.00000000000E+00 -0.35527136788E-14 -0.42339977624E+03  0.43327302464E+03  0.91968164922E+02 0.  0.
    9000005    2    3    3    0    0  0.38045668166E+02  0.21485999790E+02 -0.27392719962E+03  0.27754514591E+03  0.92777298321E+01 0.  0.
         22    1    3    3    0    0 -0.38045668166E+02 -0.21485999790E+02 -0.14947257661E+03  0.15572787873E+03  0.00000000000E+00 0. -1.
         22    1    4    4    0    0  0.26027541230E+02  0.17459233000E+02 -0.17190415656E+03  0.17473779432E+03  0.00000000000E+00 0.  1.
         22    1    4    4    0    0  0.12018126936E+02  0.40267667897E+01 -0.10202304306E+03  0.10280735159E+03  0.00000000000E+00 0.  1.
<mgrwt>
<rscale>  0 0.91968165E+02</rscale>
<asrwt>0</asrwt>
<pdfrwt beam="2">  1        2 0.65897878E-01 0.91968165E+02</pdfrwt>
<pdfrwt beam="1">  1       -2 0.75948098E-03 0.91968165E+02</pdfrwt>
<totfact> 0.19987783E+05</totfact>
</mgrwt>
</event>
<event>
 7    1  0.3056193E-009  0.8876919E+02  0.7818608E-02  0.1305860E+00
          2   -1    0    0  501    0  0.00000000000E+00  0.00000000000E+00  0.73845068390E+02  0.73845068435E+02  0.25500000000E-02 0. -1.
         -2   -1    0    0    0  501 -0.00000000000E+00 -0.00000000000E+00 -0.26677372568E+02  0.26677372690E+02  0.25500000000E-02 0.  1.
         23    2    1    2    0    0  0.00000000000E+00  0.00000000000E+00  0.47167695823E+02  0.10052244112E+03  0.88769193082E+02 0.  0.
    9000005    2    3    3    0    0  0.39659709947E+02 -0.17556708227E+01  0.55410627269E+01  0.43000692577E+02  0.15568597009E+02 0.  0.
         22    1    3    3    0    0 -0.39659709947E+02  0.17556708227E+01  0.41626633096E+02  0.57521748548E+02  0.00000000000E+00 0. -1.
         22    1    4    4    0    0  0.20272438435E+02  0.79446699048E+00  0.10476335372E+02  0.22833233251E+02  0.00000000000E+00 0.  1.
         22    1    4    4    0    0  0.19387271512E+02 -0.25501378132E+01 -0.49352726452E+01  0.20167459325E+02  0.00000000000E+00 0.  1.
<mgrwt>
<rscale>  0 0.88769193E+02</rscale>
<asrwt>0</asrwt>
<pdfrwt beam="1">  1        2 0.11360780E-01 0.88769193E+02</pdfrwt>
<pdfrwt beam="2">  1       -2 0.41042112E-02 0.88769193E+02</pdfrwt>
<totfact> 0.12095788E+05</totfact>
</mgrwt>
</event>
<event>
 7    1  0.3056193E-009  0.9184287E+02  0.7818608E-02  0.1298449E+00
          2   -1    0    0  501    0  0.00000000000E+00  0.00000000000E+00  0.85884815725E+02  0.85884815763E+02  0.25500000000E-02 0.  1.
         -2   -1    0    0    0  501 -0.00000000000E+00 -0.00000000000E+00 -0.24553564496E+02  0.24553564629E+02  0.25500000000E-02 0. -1.
         23    2    1    2    0    0  0.00000000000E+00  0.00000000000E+00  0.61331251229E+02  0.11043838039E+03  0.91842873901E+02 0.  0.
    9000005    2    3    3    0    0 -0.28728432354E+02 -0.89244429441E+01  0.71274951628E+02  0.78754856519E+02  0.14739070130E+02 0.  0.
         22    1    3    3    0    0  0.28728432354E+02  0.89244429441E+01 -0.99437003994E+01  0.31683523873E+02  0.00000000000E+00 0. -1.
         22    1    4    4    0    0 -0.31781002204E+01 -0.77731633526E+00  0.82640503856E+00  0.33745350767E+01  0.00000000000E+00 0. -1.
         22    1    4    4    0    0 -0.25550332134E+02 -0.81471266088E+01  0.70448546590E+02  0.75380321442E+02  0.00000000000E+00 0. -1.
<mgrwt>
<rscale>  0 0.91842874E+02</rscale>
<asrwt>0</asrwt>
<pdfrwt beam="1">  1        2 0.13213049E-01 0.91842874E+02</pdfrwt>
<pdfrwt beam="2">  1       -2 0.37774714E-02 0.91842874E+02</pdfrwt>
<totfact> 0.11489137E+05</totfact>
</mgrwt>
</event>
<event>
 7    1  0.3056193E-009  0.9588376E+02  0.7818608E-02  0.1289198E+00
          2   -1    0    0  501    0  0.00000000000E+00  0.00000000000E+00  0.57990009521E+03  0.57990009521E+03  0.25500000000E-02 0. -1.
         -2   -1    0    0    0  501 -0.00000000000E+00 -0.00000000000E+00 -0.39634821997E+01  0.39634830200E+01  0.25500000000E-02 0.  1.
         23    2    1    2    0    0 -0.22204460493E-15  0.00000000000E+00  0.57593661301E+03  0.58386357823E+03  0.95883761839E+02 0.  0.
    9000005    2    3    3    0    0 -0.14797513036E+01 -0.29152111396E+02  0.51835409644E+03  0.51930522109E+03  0.11614994289E+02 0.  0.
         22    1    3    3    0    0  0.14797513036E+01  0.29152111396E+02  0.57582516566E+02  0.64558357142E+02  0.00000000000E+00 0.  1.
         22    1    4    4    0    0  0.34076962381E+01 -0.20118958668E+02  0.39383440849E+03  0.39436268358E+03  0.00000000000E+00 0. -1.
         22    1    4    4    0    0 -0.48874475417E+01 -0.90331527277E+01  0.12451968795E+03  0.12494253751E+03  0.00000000000E+00 0. -1.
<mgrwt>
<rscale>  0 0.95883762E+02</rscale>
<asrwt>0</asrwt>
<pdfrwt beam="1">  1        2 0.89215429E-01 0.95883762E+02</pdfrwt>
<pdfrwt beam="2">  1       -2 0.60976636E-03 0.95883762E+02</pdfrwt>
<totfact> 0.19745114E+05</totfact>
</mgrwt>
</event>
<event>
 7    1  0.3056193E-009  0.8941540E+02  0.7818608E-02  0.1304274E+00
          2   -1    0    0  501    0  0.00000000000E+00  0.00000000000E+00  0.92432861616E+02  0.92432861652E+02  0.25500000000E-02 0.  1.
         -2   -1    0    0    0  501 -0.00000000000E+00 -0.00000000000E+00 -0.21624108332E+02  0.21624108483E+02  0.25500000000E-02 0. -1.
         23    2    1    2    0    0  0.35527136788E-14  0.00000000000E+00  0.70808753284E+02  0.11405697013E+03  0.89415395177E+02 0.  0.
    9000005    2    3    3    0    0 -0.30640688557E+02 -0.22772199035E+02  0.64740909862E+02  0.75401523326E+02  0.60480960722E+01 0.  0.
         22    1    3    3    0    0  0.30640688557E+02  0.22772199035E+02  0.60678434224E+01  0.38655446808E+02  0.00000000000E+00 0.  1.
         22    1    4    4    0    0 -0.70193060572E+01 -0.43993957552E+01  0.97386662437E+01  0.12785419850E+02  0.00000000000E+00 0. -1.
         22    1    4    4    0    0 -0.23621382499E+02 -0.18372803280E+02  0.55002243618E+02  0.62616103476E+02  0.00000000000E+00 0. -1.
<mgrwt>
<rscale>  0 0.89415395E+02</rscale>
<asrwt>0</asrwt>
<pdfrwt beam="1">  1        2 0.14220440E-01 0.89415395E+02</pdfrwt>
<pdfrwt beam="2">  1       -2 0.33267859E-02 0.89415395E+02</pdfrwt>
<totfact> 0.12641938E+05</totfact>
</mgrwt>
</event>
<event>
 7    1  0.3056193E-009  0.9106334E+02  0.7818608E-02  0.1300297E+00
         -2   -1    0    0    0  501 -0.00000000000E+00  0.00000000000E+00  0.66439199903E+01  0.66439204796E+01  0.25500000000E-02 0. -1.
          2   -1    0    0  501    0  0.00000000000E+00 -0.00000000000E+00 -0.31203462102E+03  0.31203462103E+03  0.25500000000E-02 0.  1.
         23    2    1    2    0    0  0.00000000000E+00 -0.17763568394E-14 -0.30539070103E+03  0.31867854151E+03  0.91063343578E+02 0.  0.
    9000005    2    3    3    0    0 -0.69727048437E+01 -0.15554811818E+02 -0.30042588440E+03  0.30092410016E+03  0.30052045246E+01 0.  0.
         22    1    3    3    0    0  0.69727048437E+01  0.15554811818E+02 -0.49648166273E+01  0.17754441351E+02  0.00000000000E+00 0. -1.
         22    1    4    4    0    0 -0.19219059556E+01 -0.69752208674E+01 -0.10944405076E+03  0.10968294159E+03  0.00000000000E+00 0. -1.
         22    1    4    4    0    0 -0.50507988881E+01 -0.85795909506E+01 -0.19098183364E+03  0.19124115857E+03  0.00000000000E+00 0. -1.
<mgrwt>
<rscale>  0 0.91063344E+02</rscale>
<asrwt>0</asrwt>
<pdfrwt beam="2">  1        2 0.48005315E-01 0.91063344E+02</pdfrwt>
<pdfrwt beam="1">  1       -2 0.10221418E-02 0.91063344E+02</pdfrwt>
<totfact> 0.18291422E+05</totfact>
</mgrwt>
</event>
<event>
 7    1  0.3056193E-009  0.9207773E+02  0.7818608E-02  0.1297897E+00
          2   -1    0    0  501    0  0.00000000000E+00  0.00000000000E+00  0.18470743127E+02  0.18470743303E+02  0.25500000000E-02 0. -1.
         -2   -1    0    0    0  501 -0.00000000000E+00 -0.00000000000E+00 -0.11475321090E+03  0.11475321093E+03  0.25500000000E-02 0.  1.
         23    2    1    2    0    0  0.00000000000E+00  0.00000000000E+00 -0.96282467771E+02  0.13322395423E+03  0.92077730101E+02 0.  0.
    9000005    2    3    3    0    0  0.51411601547E+01 -0.11773077063E+02 -0.11195043915E+03  0.11296260683E+03  0.79128277905E+01 0.  0.
         22    1    3    3    0    0 -0.51411601547E+01  0.11773077063E+02  0.15667971383E+02  0.20261347401E+02  0.00000000000E+00 0. -1.
         22    1    4    4    0    0  0.16486409620E+01 -0.72417396687E+00 -0.39355358059E+01  0.43279194811E+01  0.00000000000E+00 0. -1.
         22    1    4    4    0    0  0.34925191927E+01 -0.11048903096E+02 -0.10801490335E+03  0.10863468735E+03  0.00000000000E+00 0. -1.
<mgrwt>
<rscale>  0 0.92077730E+02</rscale>
<asrwt>0</asrwt>
<pdfrwt beam="1">  1        2 0.28416529E-02 0.92077730E+02</pdfrwt>
<pdfrwt beam="2">  1       -2 0.17654340E-01 0.92077730E+02</pdfrwt>
<totfact> 0.74640578E+04</totfact>
</mgrwt>
</event>
<event>
 7    1  0.3056193E-009  0.9817284E+02  0.7818608E-02  0.1284186E+00
         -2   -1    0    0    0  501 -0.00000000000E+00  0.00000000000E+00  0.23468880928E+03  0.23468880930E+03  0.25500000000E-02 0.  1.
          2   -1    0    0  501    0  0.00000000000E+00 -0.00000000000E+00 -0.10266686145E+02  0.10266686461E+02  0.25500000000E-02 0. -1.
         23    2    1    2    0    0  0.17763568394E-14  0.00000000000E+00  0.22442212314E+03  0.24495549576E+03  0.98172835083E+02 0.  0.
    9000005    2    3    3    0    0 -0.11502846481E+02 -0.31566532641E+02  0.20069162352E+03  0.20382280715E+03  0.11740847636E+02 0.  0.
         22    1    3    3    0    0  0.11502846481E+02  0.31566532641E+02  0.23730499622E+02  0.41132688613E+02  0.00000000000E+00 0. -1.
         22    1    4    4    0    0 -0.32416594157E+01 -0.52890817449E+01  0.69170513059E+02  0.69448128977E+02  0.00000000000E+00 0. -1.
         22    1    4    4    0    0 -0.82611870656E+01 -0.26277450896E+02  0.13152111046E+03  0.13437467817E+03  0.00000000000E+00 0. -1.
<mgrwt>
<rscale>  0 0.98172835E+02</rscale>
<asrwt>0</asrwt>
<pdfrwt beam="2">  1        2 0.15794903E-02 0.98172835E+02</pdfrwt>
<pdfrwt beam="1">  1       -2 0.36105969E-01 0.98172835E+02</pdfrwt>
<totfact> 0.47921184E+04</totfact>
</mgrwt>
</event>
<event>
 7    1  0.3056193E-009  0.9143106E+02  0.7818608E-02  0.1299423E+00
          2   -1    0    0  501    0  0.00000000000E+00  0.00000000000E+00  0.17401261740E+03  0.17401261742E+03  0.25500000000E-02 0.  1.
         -2   -1    0    0    0  501 -0.00000000000E+00 -0.00000000000E+00 -0.12010105115E+02  0.12010105385E+02  0.25500000000E-02 0. -1.
         23    2    1    2    0    0  0.00000000000E+00  0.00000000000E+00  0.16200251229E+03  0.18602272280E+03  0.91431063719E+02 0.  0.
    9000005    2    3    3    0    0 -0.43357688576E+01 -0.43167946793E+02  0.57287305416E+02  0.72675711059E+02  0.10846801102E+02 0.  0.
         22    1    3    3    0    0  0.43357688576E+01  0.43167946793E+02  0.10471520687E+03  0.11334701175E+03  0.00000000000E+00 0. -1.
         22    1    4    4    0    0 -0.76788582531E+01 -0.28441071878E+02  0.40711032124E+02  0.50251841461E+02  0.00000000000E+00 0. -1.
         22    1    4    4    0    0  0.33430893955E+01 -0.14726874916E+02  0.16576273292E+02  0.22423869598E+02  0.00000000000E+00 0. -1.
<mgrwt>
<rscale>  0 0.91431064E+02</rscale>
<asrwt>0</asrwt>
<pdfrwt beam="1">  1        2 0.26771170E-01 0.91431064E+02</pdfrwt>
<pdfrwt beam="2">  1       -2 0.18477086E-02 0.91431064E+02</pdfrwt>
<totfact> 0.14607272E+05</totfact>
</mgrwt>
</event>
<event>
 7    1  0.3056193E-009  0.8660855E+02  0.7818608E-02  0.1311279E+00
          2   -1    0    0  501    0  0.00000000000E+00  0.00000000000E+00  0.19966001946E+02  0.19966002109E+02  0.25500000000E-02 0. -1.
         -2   -1    0    0    0  501 -0.00000000000E+00 -0.00000000000E+00 -0.93922664161E+02  0.93922664195E+02  0.25500000000E-02 0.  1.
         23    2    1    2    0    0 -0.17763568394E-14  0.00000000000E+00 -0.73956662214E+02  0.11388866630E+03  0.86608547077E+02 0.  0.
    9000005    2    3    3    0    0 -0.11121365603E+02 -0.12525544457E+02  0.12361311379E+02  0.25960476274E+02  0.15510327931E+02 0.  0.
         22    1    3    3    0    0  0.11121365603E+02  0.12525544457E+02 -0.86317973593E+02  0.87928190031E+02  0.00000000000E+00 0.  1.
         22    1    4    4    0    0 -0.15069807282E+01  0.25888733673E+01  0.64254883342E+01  0.70894397917E+01  0.00000000000E+00 0. -1.
         22    1    4    4    0    0 -0.96143848746E+01 -0.15114417825E+02  0.59358230446E+01  0.18871036482E+02  0.00000000000E+00 0. -1.
<mgrwt>
<rscale>  0 0.86608547E+02</rscale>
<asrwt>0</asrwt>
<pdfrwt beam="1">  1        2 0.30716927E-02 0.86608547E+02</pdfrwt>
<pdfrwt beam="2">  1       -2 0.14449640E-01 0.86608547E+02</pdfrwt>
<totfact> 0.92345276E+04</totfact>
</mgrwt>
</event>
<event>
 7    1  0.3056193E-009  0.9402003E+02  0.7818608E-02  0.1293399E+00
          2   -1    0    0  501    0  0.00000000000E+00  0.00000000000E+00  0.11427208259E+04  0.11427208259E+04  0.25500000000E-02 0. -1.
         -2   -1    0    0    0  501 -0.00000000000E+00 -0.00000000000E+00 -0.19339286463E+01  0.19339303275E+01  0.25500000000E-02 0.  1.
         23    2    1    2    0    0  0.00000000000E+00  0.00000000000E+00  0.11407868973E+04  0.11446547562E+04  0.94020029862E+02 0.  0.
    9000005    2    3    3    0    0 -0.35886113108E+02  0.65864345674E+01  0.92249174036E+03  0.92333153161E+03  0.14795674837E+02 0.  0.
         22    1    3    3    0    0  0.35886113108E+02 -0.65864345674E+01  0.21829515691E+03  0.22132322464E+03  0.00000000000E+00 0.  1.
         22    1    4    4    0    0 -0.11963111405E+02  0.76023836964E+01  0.23852063964E+03  0.23894143175E+03  0.00000000000E+00 0.  1.
         22    1    4    4    0    0 -0.23923001703E+02 -0.10159491290E+01  0.68397110073E+03  0.68439009986E+03  0.00000000000E+00 0.  1.
<mgrwt>
<rscale>  0 0.94020030E+02</rscale>
<asrwt>0</asrwt>
<pdfrwt beam="1">  1        2 0.17580274E+00 0.94020030E+02</pdfrwt>
<pdfrwt beam="2">  1       -2 0.29752840E-03 0.94020030E+02</pdfrwt>
<totfact> 0.23031907E+05</totfact>
</mgrwt>
</event>
<event>
 7    1  0.3056193E-009  0.9112779E+02  0.7818608E-02  0.1300143E+00
         -2   -1    0    0    0  501 -0.00000000000E+00  0.00000000000E+00  0.60920774338E+01  0.60920779675E+01  0.25500000000E-02 0.  1.
          2   -1    0    0  501    0  0.00000000000E+00 -0.00000000000E+00 -0.34078171303E+03  0.34078171304E+03  0.25500000000E-02 0. -1.
         23    2    1    2    0    0  0.35527136788E-14 -0.71054273576E-14 -0.33468963560E+03  0.34687379101E+03  0.91127793302E+02 0.  0.
    9000005    2    3    3    0    0 -0.31120701739E+02  0.32671414649E+02 -0.18832944547E+03  0.19371627514E+03  0.47006182957E+01 0.  0.
         22    1    3    3    0    0  0.31120701739E+02 -0.32671414649E+02 -0.14636019013E+03  0.15315751587E+03  0.00000000000E+00 0.  1.
         22    1    4    4    0    0 -0.29967572490E+02  0.30415796147E+02 -0.18074129146E+03  0.18571642494E+03  0.00000000000E+00 0.  1.
         22    1    4    4    0    0 -0.11531292489E+01  0.22556185017E+01 -0.75881540095E+01  0.79998501962E+01  0.00000000000E+00 0.  1.
<mgrwt>
<rscale>  0 0.91127793E+02</rscale>
<asrwt>0</asrwt>
<pdfrwt beam="2">  1        2 0.52427941E-01 0.91127793E+02</pdfrwt>
<pdfrwt beam="1">  1       -2 0.93724299E-03 0.91127793E+02</pdfrwt>
<totfact> 0.18861410E+05</totfact>
</mgrwt>
</event>
<event>
 7    1  0.3056193E-009  0.9156104E+02  0.7818608E-02  0.1299115E+00
          2   -1    0    0  501    0  0.00000000000E+00  0.00000000000E+00  0.24564293604E+02  0.24564293736E+02  0.25500000000E-02 0. -1.
         -2   -1    0    0    0  501 -0.00000000000E+00 -0.00000000000E+00 -0.85321234019E+02  0.85321234058E+02  0.25500000000E-02 0.  1.
         23    2    1    2    0    0  0.00000000000E+00 -0.88817841970E-15 -0.60756940416E+02  0.10988552779E+03  0.91561036526E+02 0.  0.
    9000005    2    3    3    0    0 -0.14530406876E+02 -0.72202192638E+01 -0.81521659827E+02  0.83533338844E+02  0.82929721674E+01 0.  0.
         22    1    3    3    0    0  0.14530406876E+02  0.72202192638E+01  0.20764719411E+02  0.26352188949E+02  0.00000000000E+00 0. -1.
         22    1    4    4    0    0 -0.10331873276E+02 -0.56043245822E+00 -0.46919165032E+02  0.48046537203E+02  0.00000000000E+00 0. -1.
         22    1    4    4    0    0 -0.41985336000E+01 -0.66597868055E+01 -0.34602494795E+02  0.35486801641E+02  0.00000000000E+00 0. -1.
<mgrwt>
<rscale>  0 0.91561037E+02</rscale>
<asrwt>0</asrwt>
<pdfrwt beam="1">  1        2 0.37791221E-02 0.91561037E+02</pdfrwt>
<pdfrwt beam="2">  1       -2 0.13126344E-01 0.91561037E+02</pdfrwt>
<totfact> 0.82701114E+04</totfact>
</mgrwt>
</event>
<event>
 7    1  0.3056193E-009  0.8990818E+02  0.7818608E-02  0.1303074E+00
          2   -1    0    0  501    0  0.00000000000E+00  0.00000000000E+00  0.22547023843E+02  0.22547023987E+02  0.25500000000E-02 0. -1.
         -2   -1    0    0    0  501 -0.00000000000E+00 -0.00000000000E+00 -0.89629129572E+02  0.89629129609E+02  0.25500000000E-02 0.  1.
         23    2    1    2    0    0  0.71054273576E-14  0.00000000000E+00 -0.67082105729E+02  0.11217615360E+03  0.89908178307E+02 0.  0.
    9000005    2    3    3    0    0 -0.35978663678E+02 -0.24048734915E+02 -0.48213932602E+02  0.64965838534E+02  0.48136252795E+01 0.  0.
         22    1    3    3    0    0  0.35978663678E+02  0.24048734915E+02 -0.18868173127E+02  0.47210315062E+02  0.00000000000E+00 0.  1.
         22    1    4    4    0    0 -0.56780388973E+01 -0.26178443731E+01 -0.50271876788E+01  0.80228330930E+01  0.00000000000E+00 0. -1.
         22    1    4    4    0    0 -0.30300624781E+02 -0.21430890542E+02 -0.43186744924E+02  0.56943005441E+02  0.00000000000E+00 0. -1.
<mgrwt>
<rscale>  0 0.89908178E+02</rscale>
<asrwt>0</asrwt>
<pdfrwt beam="1">  1        2 0.34687730E-02 0.89908178E+02</pdfrwt>
<pdfrwt beam="2">  1       -2 0.13789097E-01 0.89908178E+02</pdfrwt>
<totfact> 0.85306244E+04</totfact>
</mgrwt>
</event>
<event>
 7    1  0.3056193E-009  0.8887181E+02  0.7818608E-02  0.1305607E+00
          2   -1    0    0  501    0  0.00000000000E+00  0.00000000000E+00  0.24487440401E+02  0.24487440534E+02  0.25500000000E-02 0. -1.
         -2   -1    0    0    0  501 -0.00000000000E+00 -0.00000000000E+00 -0.80635197911E+02  0.80635197952E+02  0.25500000000E-02 0.  1.
         23    2    1    2    0    0  0.00000000000E+00  0.00000000000E+00 -0.56147757510E+02  0.10512263849E+03  0.88871809077E+02 0.  0.
    9000005    2    3    3    0    0 -0.16009276483E+02 -0.38244396598E+02 -0.45047172700E+02  0.62202319431E+02  0.10997725658E+02 0.  0.
         22    1    3    3    0    0  0.16009276483E+02  0.38244396598E+02 -0.11100584810E+02  0.42920319055E+02  0.00000000000E+00 0. -1.
         22    1    4    4    0    0  0.96721823840E+00 -0.52732954767E+00 -0.31120328073E+01  0.33012627533E+01  0.00000000000E+00 0. -1.
         22    1    4    4    0    0 -0.16976494721E+02 -0.37717067050E+02 -0.41935139893E+02  0.58901056677E+02  0.00000000000E+00 0. -1.
<mgrwt>
<rscale>  0 0.88871809E+02</rscale>
<asrwt>0</asrwt>
<pdfrwt beam="1">  1        2 0.37672986E-02 0.88871809E+02</pdfrwt>
<pdfrwt beam="2">  1       -2 0.12405415E-01 0.88871809E+02</pdfrwt>
<totfact> 0.90405471E+04</totfact>
</mgrwt>
</event>
<event>
 7    1  0.3056193E-009  0.9140445E+02  0.7818608E-02  0.1299486E+00
         -2   -1    0    0    0  501 -0.00000000000E+00  0.00000000000E+00  0.14247695289E+01  0.14247718109E+01  0.25500000000E-02 0. -1.
          2   -1    0    0  501    0  0.00000000000E+00 -0.00000000000E+00 -0.14659857343E+04  0.14659857343E+04  0.25500000000E-02 0.  1.
         23    2    1    2    0    0  0.00000000000E+00  0.35527136788E-14 -0.14645609648E+04  0.14674105061E+04  0.91404452409E+02 0.  0.
    9000005    2    3    3    0    0  0.12757373871E+02 -0.18404202855E+02 -0.13713980036E+04  0.13715940012E+04  0.60128787344E+01 0.  0.
         22    1    3    3    0    0 -0.12757373871E+02  0.18404202855E+02 -0.93162961247E+02  0.95816504941E+02  0.00000000000E+00 0. -1.
         22    1    4    4    0    0 -0.31419954050E+00 -0.22411669876E+01 -0.18576102260E+03  0.18577480741E+03  0.00000000000E+00 0.  1.
         22    1    4    4    0    0  0.13071573411E+02 -0.16163035867E+02 -0.11856369810E+04  0.11858191938E+04  0.00000000000E+00 0.  1.
<mgrwt>
<rscale>  0 0.91404452E+02</rscale>
<asrwt>0</asrwt>
<pdfrwt beam="2">  1        2 0.22553506E+00 0.91404452E+02</pdfrwt>
<pdfrwt beam="1">  1       -2 0.21919666E-03 0.91404452E+02</pdfrwt>
<totfact> 0.23637429E+05</totfact>
</mgrwt>
</event>
<event>
 7    1  0.3056193E-009  0.8795989E+02  0.7818608E-02  0.1307869E+00
          2   -1    0    0  501    0  0.00000000000E+00  0.00000000000E+00  0.12439282650E+04  0.12439282650E+04  0.25500000000E-02 0. -1.
         -2   -1    0    0    0  501 -0.00000000000E+00 -0.00000000000E+00 -0.15549401969E+01  0.15549422878E+01  0.25500000000E-02 0.  1.
         23    2    1    2    0    0  0.00000000000E+00  0.00000000000E+00  0.12423733248E+04  0.12454832073E+04  0.87959885516E+02 0.  0.
    9000005    2    3    3    0    0 -0.22289416778E+02 -0.13245571316E+02  0.11221422007E+04  0.11224881405E+04  0.10209977198E+02 0.  0.
         22    1    3    3    0    0  0.22289416778E+02  0.13245571316E+02  0.12023112404E+03  0.12299506676E+03  0.00000000000E+00 0.  1.
         22    1    4    4    0    0 -0.22782659560E+02 -0.10584607461E+02  0.99431892242E+03  0.99463621640E+03  0.00000000000E+00 0. -1.
         22    1    4    4    0    0  0.49324278193E+00 -0.26609638552E+01  0.12782327832E+03  0.12785192410E+03  0.00000000000E+00 0. -1.
<mgrwt>
<rscale>  0 0.87959886E+02</rscale>
<asrwt>0</asrwt>
<pdfrwt beam="1">  1        2 0.19137464E+00 0.87959886E+02</pdfrwt>
<pdfrwt beam="2">  1       -2 0.23922041E-03 0.87959886E+02</pdfrwt>
<totfact> 0.27205523E+05</totfact>
</mgrwt>
</event>
<event>
 7    1  0.3056193E-009  0.9201687E+02  0.7818608E-02  0.1298040E+00
         -2   -1    0    0    0  501 -0.00000000000E+00  0.00000000000E+00  0.42526661815E+01  0.42526669460E+01  0.25500000000E-02 0.  1.
          2   -1    0    0  501    0  0.00000000000E+00 -0.00000000000E+00 -0.49775263801E+03  0.49775263802E+03  0.25500000000E-02 0. -1.
         23    2    1    2    0    0  0.00000000000E+00  0.00000000000E+00 -0.49349997183E+03  0.50200530497E+03  0.92016868105E+02 0.  0.
    9000005    2    3    3    0    0  0.28582418107E+02  0.35092828342E+02 -0.23033008178E+03  0.23497187587E+03  0.10553418895E+02 0.  0.
         22    1    3    3    0    0 -0.28582418107E+02 -0.35092828342E+02 -0.26316989005E+03  0.26703342910E+03  0.00000000000E+00 0.  1.
         22    1    4    4    0    0  0.71959380920E+01  0.27586161355E+01 -0.37827183515E+02  0.38604239413E+02  0.00000000000E+00 0.  1.
         22    1    4    4    0    0  0.21386480015E+02  0.32334212206E+02 -0.19250289826E+03  0.19636763645E+03  0.00000000000E+00 0.  1.
<mgrwt>
<rscale>  0 0.92016868E+02</rscale>
<asrwt>0</asrwt>
<pdfrwt beam="2">  1        2 0.76577283E-01 0.92016868E+02</pdfrwt>
<pdfrwt beam="1">  1       -2 0.65425679E-03 0.92016868E+02</pdfrwt>
<totfact> 0.21001631E+05</totfact>
</mgrwt>
</event>
<event>
 7    1  0.3310987E-009  0.9021240E+02  0.7818608E-02  0.1302338E+00
          2   -1    0    0  501    0  0.00000000000E+00  0.00000000000E+00  0.27496326963E+03  0.27496326964E+03  0.25500000000E-02 0. -1.
         -2   -1    0    0    0  501 -0.00000000000E+00 -0.00000000000E+00 -0.73994222923E+01  0.73994227317E+01  0.25500000000E-02 0.  1.
         23    2    1    2    0    0  0.00000000000E+00  0.00000000000E+00  0.26756384734E+03  0.28236269237E+03  0.90212402930E+02 0.  0.
    9000005    2    3    3    0    0  0.93740556566E+01 -0.24960657311E+02  0.24668233995E+03  0.24849612060E+03  0.13683485603E+02 0.  0.
         22    1    3    3    0    0 -0.93740556566E+01  0.24960657311E+02  0.20881507390E+02  0.33866571774E+02  0.00000000000E+00 0.  1.
         22    1    4    4    0    0  0.78852315947E+01 -0.11964495188E+02  0.17823028414E+03  0.17880536963E+03  0.00000000000E+00 0. -1.
         22    1    4    4    0    0  0.14888240619E+01 -0.12996162123E+02  0.68452055807E+02  0.69690750973E+02  0.00000000000E+00 0. -1.
<mgrwt>
<rscale>  0 0.90212403E+02</rscale>
<asrwt>0</asrwt>
<pdfrwt beam="1">  1        2 0.42302043E-01 0.90212403E+02</pdfrwt>
<pdfrwt beam="2">  1       -2 0.11383726E-02 0.90212403E+02</pdfrwt>
<totfact> 0.17892319E+05</totfact>
</mgrwt>
</event>
<event>
 7    1  0.3056193E-009  0.8860130E+02  0.7818608E-02  0.1306275E+00
          2   -1    0    0  501    0  0.00000000000E+00  0.00000000000E+00  0.34569462757E+02  0.34569462851E+02  0.25500000000E-02 0. -1.
         -2   -1    0    0    0  501 -0.00000000000E+00 -0.00000000000E+00 -0.56771131721E+02  0.56771131778E+02  0.25500000000E-02 0.  1.
         23    2    1    2    0    0 -0.88817841970E-15  0.00000000000E+00 -0.22201668964E+02  0.91340594629E+02  0.88601298650E+02 0.  0.
    9000005    2    3    3    0    0  0.53360553136E+01  0.26333675542E+02  0.23668835483E+02  0.38180091132E+02  0.13250269125E+02 0.  0.
         22    1    3    3    0    0 -0.53360553136E+01 -0.26333675542E+02 -0.45870504447E+02  0.53160503497E+02  0.00000000000E+00 0.  1.
         22    1    4    4    0    0  0.33291062020E+00  0.56541600314E+01 -0.83859131651E+00  0.57256956379E+01  0.00000000000E+00 0.  1.
         22    1    4    4    0    0  0.50031446934E+01  0.20679515510E+02  0.24507426799E+02  0.32454395494E+02  0.00000000000E+00 0.  1.
<mgrwt>
<rscale>  0 0.88601299E+02</rscale>
<asrwt>0</asrwt>
<pdfrwt beam="1">  1        2 0.53183789E-02 0.88601299E+02</pdfrwt>
<pdfrwt beam="2">  1       -2 0.87340203E-02 0.88601299E+02</pdfrwt>
<totfact> 0.99851523E+04</totfact>
</mgrwt>
</event>
<event>
 7    1  0.3056193E-009  0.8958840E+02  0.7818608E-02  0.1303852E+00
         -2   -1    0    0    0  501 -0.00000000000E+00  0.00000000000E+00  0.54319572418E+01  0.54319578404E+01  0.25500000000E-02 0.  1.
          2   -1    0    0  501    0  0.00000000000E+00 -0.00000000000E+00 -0.36939179660E+03  0.36939179661E+03  0.25500000000E-02 0. -1.
         23    2    1    2    0    0  0.71054273576E-14  0.22204460493E-15 -0.36395983935E+03  0.37482375445E+03  0.89588404571E+02 0.  0.
    9000005    2    3    3    0    0 -0.44694041733E+02 -0.11800111437E+01 -0.17666221414E+03  0.18226376326E+03  0.34046588178E+01 0.  0.
         22    1    3    3    0    0  0.44694041733E+02  0.11800111437E+01 -0.18729762522E+03  0.19255999118E+03  0.00000000000E+00 0. -1.
         22    1    4    4    0    0 -0.18840184894E+02  0.83765367163E+00 -0.70257087604E+02  0.72744158454E+02  0.00000000000E+00 0. -1.
         22    1    4    4    0    0 -0.25853856839E+02 -0.20176648153E+01 -0.10640512653E+03  0.10951960481E+03  0.00000000000E+00 0. -1.
<mgrwt>
<rscale>  0 0.89588405E+02</rscale>
<asrwt>0</asrwt>
<pdfrwt beam="2">  1        2 0.56829488E-01 0.89588405E+02</pdfrwt>
<pdfrwt beam="1">  1       -2 0.83568606E-03 0.89588405E+02</pdfrwt>
<totfact> 0.20323276E+05</totfact>
</mgrwt>
</event>
<event>
 7    1  0.3056193E-009  0.8829178E+02  0.7818608E-02  0.1307042E+00
         -2   -1    0    0    0  501 -0.00000000000E+00  0.00000000000E+00  0.81236648806E+01  0.81236652808E+01  0.25500000000E-02 0. -1.
          2   -1    0    0  501    0  0.00000000000E+00 -0.00000000000E+00 -0.23989905146E+03  0.23989905147E+03  0.25500000000E-02 0.  1.
         23    2    1    2    0    0  0.00000000000E+00  0.00000000000E+00 -0.23177538658E+03  0.24802271675E+03  0.88291778791E+02 0.  0.
    9000005    2    3    3    0    0  0.37206723498E+02 -0.34660442370E+01 -0.51283956461E+02  0.63703672479E+02  0.56355976567E+01 0.  0.
         22    1    3    3    0    0 -0.37206723498E+02  0.34660442370E+01 -0.18049143012E+03  0.18431904427E+03  0.00000000000E+00 0.  1.
         22    1    4    4    0    0  0.33240225878E+02 -0.48277388030E+01 -0.45179816679E+02  0.56297739862E+02  0.00000000000E+00 0. -1.
         22    1    4    4    0    0  0.39664976198E+01  0.13616945660E+01 -0.61041397820E+01  0.74059326176E+01  0.00000000000E+00 0. -1.
<mgrwt>
<rscale>  0 0.88291779E+02</rscale>
<asrwt>0</asrwt>
<pdfrwt beam="2">  1        2 0.36907541E-01 0.88291779E+02</pdfrwt>
<pdfrwt beam="1">  1       -2 0.12497948E-02 0.88291779E+02</pdfrwt>
<totfact> 0.18016373E+05</totfact>
</mgrwt>
</event>
<event>
 7    1  0.3056193E-009  0.1100793E+03  0.7818608E-02  0.1260423E+00
         -2   -1    0    0    0  501 -0.00000000000E+00  0.00000000000E+00  0.38629117478E+02  0.38629117562E+02  0.25500000000E-02 0.  1.
          2   -1    0    0  501    0  0.00000000000E+00 -0.00000000000E+00 -0.78421683874E+02  0.78421683916E+02  0.25500000000E-02 0. -1.
         23    2    1    2    0    0  0.00000000000E+00 -0.35527136788E-14 -0.39792566396E+02  0.11705080148E+03  0.11007925230E+03 0.  0.
    9000005    2    3    3    0    0  0.16982473470E+02 -0.23804325096E+02  0.29340066892E+02  0.41988352252E+02  0.68652677425E+01 0.  0.
         22    1    3    3    0    0 -0.16982473470E+02  0.23804325096E+02 -0.69132633288E+02  0.75062449226E+02  0.00000000000E+00 0. -1.
         22    1    4    4    0    0  0.23981134457E+01 -0.27927682261E+01  0.75028137653E+01  0.83571955140E+01  0.00000000000E+00 0.  1.
         22    1    4    4    0    0  0.14584360024E+02 -0.21011556870E+02  0.21837253127E+02  0.33631156738E+02  0.00000000000E+00 0.  1.
<mgrwt>
<rscale>  0 0.11007925E+03</rscale>
<asrwt>0</asrwt>
<pdfrwt beam="2">  1        2 0.12064874E-01 0.11007925E+03</pdfrwt>
<pdfrwt beam="1">  1       -2 0.59429412E-02 0.11007925E+03</pdfrwt>
<totfact> 0.67035684E+04</totfact>
</mgrwt>
</event>
<event>
 7    1  0.3056193E-009  0.9194403E+02  0.7818608E-02  0.1298211E+00
          2   -1    0    0  501    0  0.00000000000E+00  0.00000000000E+00  0.24650332987E+03  0.24650332989E+03  0.25500000000E-02 0. -1.
         -2   -1    0    0    0  501 -0.00000000000E+00 -0.00000000000E+00 -0.85736200455E+01  0.85736204247E+01  0.25500000000E-02 0.  1.
         23    2    1    2    0    0  0.00000000000E+00  0.44408920985E-15  0.23792970983E+03  0.25507695031E+03  0.91944025153E+02 0.  0.
    9000005    2    3    3    0    0 -0.12100681351E+02 -0.27929680597E+01  0.24139581399E+03  0.24218350090E+03  0.15055960206E+02 0.  0.
         22    1    3    3    0    0  0.12100681351E+02  0.27929680597E+01 -0.34661041577E+01  0.12893449413E+02  0.00000000000E+00 0.  1.
         22    1    4    4    0    0 -0.96710037128E+01 -0.74194208243E+01  0.10805495743E+03  0.10874028666E+03  0.00000000000E+00 0. -1.
         22    1    4    4    0    0 -0.24296776382E+01  0.46264527646E+01  0.13334085655E+03  0.13344321423E+03  0.00000000000E+00 0. -1.
<mgrwt>
<rscale>  0 0.91944025E+02</rscale>
<asrwt>0</asrwt>
<pdfrwt beam="1">  1        2 0.37923587E-01 0.91944025E+02</pdfrwt>
<pdfrwt beam="2">  1       -2 0.13190186E-02 0.91944025E+02</pdfrwt>
<totfact> 0.16327716E+05</totfact>
</mgrwt>
</event>
<event>
 7    1  0.3056193E-009  0.9306488E+02  0.7818608E-02  0.1295595E+00
         -2   -1    0    0    0  501 -0.00000000000E+00  0.00000000000E+00  0.19352344616E+02  0.19352344784E+02  0.25500000000E-02 0.  1.
          2   -1    0    0  501    0  0.00000000000E+00 -0.00000000000E+00 -0.11188658645E+03  0.11188658648E+03  0.25500000000E-02 0. -1.
         23    2    1    2    0    0 -0.71054273576E-14 -0.35527136788E-14 -0.92534241835E+02  0.13123893126E+03  0.93064876121E+02 0.  0.
    9000005    2    3    3    0    0  0.40503602475E+02  0.21434558069E+02 -0.50328829896E+02  0.68939020430E+02  0.10936879177E+02 0.  0.
         22    1    3    3    0    0 -0.40503602475E+02 -0.21434558069E+02 -0.42205411940E+02  0.62299910835E+02  0.00000000000E+00 0.  1.
         22    1    4    4    0    0 -0.70496116432E+00  0.49235526389E+00 -0.12688690002E+01  0.15327793347E+01  0.00000000000E+00 0. -1.
         22    1    4    4    0    0  0.41208563639E+02  0.20942202805E+02 -0.49059960895E+02  0.67406241095E+02  0.00000000000E+00 0. -1.
<mgrwt>
<rscale>  0 0.93064876E+02</rscale>
<asrwt>0</asrwt>
<pdfrwt beam="2">  1        2 0.17213321E-01 0.93064876E+02</pdfrwt>
<pdfrwt beam="1">  1       -2 0.29772838E-02 0.93064876E+02</pdfrwt>
<totfact> 0.12005836E+05</totfact>
</mgrwt>
</event>
<event>
 7    1  0.3056193E-009  0.9345316E+02  0.7818608E-02  0.1294698E+00
          2   -1    0    0  501    0  0.00000000000E+00  0.00000000000E+00  0.12720765033E+01  0.12720790591E+01  0.25500000000E-02 0. -1.
         -2   -1    0    0    0  501 -0.00000000000E+00 -0.00000000000E+00 -0.17163835947E+04  0.17163835947E+04  0.25500000000E-02 0.  1.
         23    2    1    2    0    0  0.00000000000E+00  0.00000000000E+00 -0.17151115182E+04  0.17176556738E+04  0.93453163415E+02 0.  0.
    9000005    2    3    3    0    0  0.13515771213E+02  0.15497910535E+02 -0.16270265044E+04  0.16272021997E+04  0.12202114568E+02 0.  0.
         22    1    3    3    0    0 -0.13515771213E+02 -0.15497910535E+02 -0.88085013836E+02  0.90453474034E+02  0.00000000000E+00 0. -1.
         22    1    4    4    0    0  0.29312529180E+01  0.11427615651E+02 -0.62332893443E+03  0.62344056906E+03  0.00000000000E+00 0. -1.
         22    1    4    4    0    0  0.10584518295E+02  0.40702948839E+01 -0.10036975699E+04  0.10037616307E+04  0.00000000000E+00 0. -1.
<mgrwt>
<rscale>  0 0.93453163E+02</rscale>
<asrwt>0</asrwt>
<pdfrwt beam="1">  1        2 0.19570565E-03 0.93453163E+02</pdfrwt>
<pdfrwt beam="2">  1       -2 0.26405716E+00 0.93453163E+02</pdfrwt>
<totfact> 0.77276098E+03</totfact>
</mgrwt>
</event>
<event>
 7    1  0.3056193E-009  0.9145957E+02  0.7818608E-02  0.1299355E+00
         -2   -1    0    0    0  501 -0.00000000000E+00  0.00000000000E+00  0.89657253624E+02  0.89657253660E+02  0.25500000000E-02 0.  1.
          2   -1    0    0  501    0  0.00000000000E+00 -0.00000000000E+00 -0.23324531377E+02  0.23324531516E+02  0.25500000000E-02 0. -1.
         23    2    1    2    0    0  0.00000000000E+00  0.17763568394E-14  0.66332722247E+02  0.11298178518E+03  0.91459574354E+02 0.  0.
    9000005    2    3    3    0    0 -0.22690807759E+02  0.14205218737E+02  0.78019719958E+02  0.83771394703E+02  0.14625623819E+02 0.  0.
         22    1    3    3    0    0  0.22690807759E+02 -0.14205218737E+02 -0.11686997711E+02  0.29210390473E+02  0.00000000000E+00 0. -1.
         22    1    4    4    0    0 -0.10480448944E+02  0.13680324086E+02  0.55945898382E+02  0.58540025819E+02  0.00000000000E+00 0.  1.
         22    1    4    4    0    0 -0.12210358815E+02  0.52489465063E+00  0.22073821576E+02  0.25231368884E+02  0.00000000000E+00 0.  1.
<mgrwt>
<rscale>  0 0.91459574E+02</rscale>
<asrwt>0</asrwt>
<pdfrwt beam="2">  1        2 0.35883894E-02 0.91459574E+02</pdfrwt>
<pdfrwt beam="1">  1       -2 0.13793424E-01 0.91459574E+02</pdfrwt>
<totfact> 0.81765284E+04</totfact>
</mgrwt>
</event>
<event>
 7    1  0.3056193E-009  0.9132155E+02  0.7818608E-02  0.1299683E+00
          2   -1    0    0  501    0  0.00000000000E+00  0.00000000000E+00  0.99471756945E+03  0.99471756945E+03  0.25500000000E-02 0. -1.
         -2   -1    0    0    0  501 -0.00000000000E+00 -0.00000000000E+00 -0.20959776439E+01  0.20959791951E+01  0.25500000000E-02 0.  1.
         23    2    1    2    0    0 -0.71054273576E-14  0.00000000000E+00  0.99262159180E+03  0.99681354865E+03  0.91321554134E+02 0.  0.
    9000005    2    3    3    0    0 -0.37070079593E+02  0.64593576205E+01  0.76723462192E+03  0.76830709295E+03  0.15195719825E+02 0.  0.
         22    1    3    3    0    0  0.37070079593E+02 -0.64593576205E+01  0.22538696988E+03  0.22850645569E+03  0.00000000000E+00 0.  1.
         22    1    4    4    0    0 -0.91510629289E+01  0.46363330309E+01  0.34154047278E+03  0.34169450110E+03  0.00000000000E+00 0. -1.
         22    1    4    4    0    0 -0.27919016664E+02  0.18230245896E+01  0.42569414914E+03  0.42661259185E+03  0.00000000000E+00 0. -1.
<mgrwt>
<rscale>  0 0.91321554E+02</rscale>
<asrwt>0</asrwt>
<pdfrwt beam="1">  1        2 0.15303318E+00 0.91321554E+02</pdfrwt>
<pdfrwt beam="2">  1       -2 0.32245882E-03 0.91321554E+02</pdfrwt>
<totfact> 0.24891212E+05</totfact>
</mgrwt>
</event>
<event>
 7    1  0.3056193E-009  0.9158586E+02  0.7818608E-02  0.1299056E+00
         -2   -1    0    0    0  501 -0.00000000000E+00  0.00000000000E+00  0.50458935908E+01  0.50458942352E+01  0.25500000000E-02 0.  1.
          2   -1    0    0  501    0  0.00000000000E+00 -0.00000000000E+00 -0.41558394898E+03  0.41558394898E+03  0.25500000000E-02 0. -1.
         23    2    1    2    0    0  0.17763568394E-14  0.35527136788E-14 -0.41053805538E+03  0.42062984322E+03  0.91585861829E+02 0.  0.
    9000005    2    3    3    0    0  0.14717361197E+02  0.30879394647E+02 -0.34380757152E+03  0.34564254288E+03  0.97459470483E+01 0.  0.
         22    1    3    3    0    0 -0.14717361197E+02 -0.30879394647E+02 -0.66730483866E+02  0.74987300334E+02  0.00000000000E+00 0.  1.
         22    1    4    4    0    0  0.80219352553E+01  0.26068145231E+02 -0.25606988677E+03  0.25751832275E+03  0.00000000000E+00 0. -1.
         22    1    4    4    0    0  0.66954259412E+01  0.48112494160E+01 -0.87737684744E+02  0.88124220131E+02  0.00000000000E+00 0. -1.
<mgrwt>
<rscale>  0 0.91585862E+02</rscale>
<asrwt>0</asrwt>
<pdfrwt beam="2">  1        2 0.63935965E-01 0.91585862E+02</pdfrwt>
<pdfrwt beam="1">  1       -2 0.77629170E-03 0.91585862E+02</pdfrwt>
<totfact> 0.19996443E+05</totfact>
</mgrwt>
</event>
<event>
 7    1  0.3056193E-009  0.9144422E+02  0.7818608E-02  0.1299392E+00
         -2   -1    0    0    0  501 -0.00000000000E+00  0.00000000000E+00  0.54768522139E+01  0.54768528076E+01  0.25500000000E-02 0.  1.
          2   -1    0    0  501    0  0.00000000000E+00 -0.00000000000E+00 -0.38169943286E+03  0.38169943286E+03  0.25500000000E-02 0. -1.
         23    2    1    2    0    0 -0.17763568394E-14  0.71054273576E-14 -0.37622258064E+03  0.38717628567E+03  0.91444223447E+02 0.  0.
    9000005    2    3    3    0    0 -0.15905554719E+02  0.42596460155E+02 -0.18426117787E+03  0.18990331428E+03  0.66062103324E+01 0.  0.
         22    1    3    3    0    0  0.15905554719E+02 -0.42596460155E+02 -0.19196140277E+03  0.19727297140E+03  0.00000000000E+00 0.  1.
         22    1    4    4    0    0 -0.86386542818E+00  0.56540149749E+01 -0.31829716331E+02  0.32339526752E+02  0.00000000000E+00 0.  1.
         22    1    4    4    0    0 -0.15041689291E+02  0.36942445180E+02 -0.15243146154E+03  0.15756378752E+03  0.00000000000E+00 0.  1.
<mgrwt>
<rscale>  0 0.91444223E+02</rscale>
<asrwt>0</asrwt>
<pdfrwt beam="2">  1        2 0.58722969E-01 0.91444223E+02</pdfrwt>
<pdfrwt beam="1">  1       -2 0.84259300E-03 0.91444223E+02</pdfrwt>
<totfact> 0.19476741E+05</totfact>
</mgrwt>
</event>
<event>
 7    1  0.3056193E-009  0.9087956E+02  0.7818608E-02  0.1300736E+00
          2   -1    0    0  501    0  0.00000000000E+00  0.00000000000E+00  0.13396879079E+03  0.13396879081E+03  0.25500000000E-02 0.  1.
         -2   -1    0    0    0  501 -0.00000000000E+00 -0.00000000000E+00 -0.15412347049E+02  0.15412347260E+02  0.25500000000E-02 0. -1.
         23    2    1    2    0    0  0.00000000000E+00  0.88817841970E-15  0.11855644374E+03  0.14938113807E+03  0.90879557986E+02 0.  0.
    9000005    2    3    3    0    0  0.11082983503E+02  0.76424158079E+01  0.13005255876E+03  0.13167803938E+03  0.15626867016E+02 0.  0.
         22    1    3    3    0    0 -0.11082983503E+02 -0.76424158079E+01 -0.11496115020E+02  0.17703098691E+02  0.00000000000E+00 0. -1.
         22    1    4    4    0    0  0.72638011372E+01  0.11302220280E+02  0.11370505419E+03  0.11449603634E+03  0.00000000000E+00 0.  1.
         22    1    4    4    0    0  0.38191823659E+01 -0.36598044719E+01  0.16347504570E+02  0.17182003037E+02  0.00000000000E+00 0.  1.
<mgrwt>
<rscale>  0 0.90879558E+02</rscale>
<asrwt>0</asrwt>
<pdfrwt beam="1">  1        2 0.20610582E-01 0.90879558E+02</pdfrwt>
<pdfrwt beam="2">  1       -2 0.23711305E-02 0.90879558E+02</pdfrwt>
<totfact> 0.13580993E+05</totfact>
</mgrwt>
</event>
<event>
 7    1  0.3056193E-009  0.8449696E+02  0.7818608E-02  0.1316753E+00
         -2   -1    0    0    0  501 -0.00000000000E+00  0.00000000000E+00  0.33874222405E+01  0.33874232003E+01  0.25500000000E-02 0.  1.
          2   -1    0    0  501    0  0.00000000000E+00 -0.00000000000E+00 -0.52692982620E+03  0.52692982620E+03  0.25500000000E-02 0. -1.
         23    2    1    2    0    0  0.00000000000E+00  0.35527136788E-14 -0.52354240396E+03  0.53031724940E+03  0.84496960148E+02 0.  0.
    9000005    2    3    3    0    0  0.85452928063E+01 -0.25602914740E+02 -0.46482785806E+03  0.46569581974E+03  0.88953706794E+01 0.  0.
         22    1    3    3    0    0 -0.85452928063E+01  0.25602914740E+02 -0.58714545896E+02  0.64621429666E+02  0.00000000000E+00 0.  1.
         22    1    4    4    0    0  0.88866246225E+01 -0.18848377244E+02 -0.29602645691E+03  0.29675898742E+03  0.00000000000E+00 0. -1.
         22    1    4    4    0    0 -0.34133181615E+00 -0.67545374951E+01 -0.16880140115E+03  0.16893683232E+03  0.00000000000E+00 0. -1.
<mgrwt>
<rscale>  0 0.84496960E+02</rscale>
<asrwt>0</asrwt>
<pdfrwt beam="2">  1        2 0.81066062E-01 0.84496960E+02</pdfrwt>
<pdfrwt beam="1">  1       -2 0.52114238E-03 0.84496960E+02</pdfrwt>
<totfact> 0.26776709E+05</totfact>
</mgrwt>
</event>
<event>
 7    1  0.3056193E-009  0.9175113E+02  0.7818608E-02  0.1298666E+00
          2   -1    0    0  501    0  0.00000000000E+00  0.00000000000E+00  0.12545095479E+02  0.12545095738E+02  0.25500000000E-02 0.  1.
         -2   -1    0    0    0  501 -0.00000000000E+00 -0.00000000000E+00 -0.16776019460E+03  0.16776019462E+03  0.25500000000E-02 0. -1.
         23    2    1    2    0    0  0.71054273576E-14  0.00000000000E+00 -0.15521509912E+03  0.18030529036E+03  0.91751134792E+02 0.  0.
    9000005    2    3    3    0    0  0.34516148463E+02  0.22370568412E+02 -0.40344574629E+02  0.58292814631E+02  0.88634474020E+01 0.  0.
         22    1    3    3    0    0 -0.34516148463E+02 -0.22370568412E+02 -0.11487052449E+03  0.12201247573E+03  0.00000000000E+00 0. -1.
         22    1    4    4    0    0  0.21015857459E+02  0.84319372362E+01 -0.20688899357E+02  0.30672371719E+02  0.00000000000E+00 0. -1.
         22    1    4    4    0    0  0.13500291004E+02  0.13938631176E+02 -0.19655675272E+02  0.27620442912E+02  0.00000000000E+00 0. -1.
<mgrwt>
<rscale>  0 0.91751135E+02</rscale>
<asrwt>0</asrwt>
<pdfrwt beam="1">  1        2 0.19300148E-02 0.91751135E+02</pdfrwt>
<pdfrwt beam="2">  1       -2 0.25809259E-01 0.91751135E+02</pdfrwt>
<totfact> 0.65917909E+04</totfact>
</mgrwt>
</event>
<event>
 7    1  0.3056193E-009  0.8089069E+02  0.7818608E-02  0.1326543E+00
          2   -1    0    0  501    0  0.00000000000E+00  0.00000000000E+00  0.49211935224E+02  0.49211935290E+02  0.25500000000E-02 0. -1.
         -2   -1    0    0    0  501 -0.00000000000E+00 -0.00000000000E+00 -0.33240432094E+02  0.33240432192E+02  0.25500000000E-02 0.  1.
         23    2    1    2    0    0  0.00000000000E+00  0.00000000000E+00  0.15971503129E+02  0.82452367482E+02  0.80890691623E+02 0.  0.
    9000005    2    3    3    0    0  0.26269803969E+02 -0.15405230595E+02  0.33487169378E+02  0.47320867452E+02  0.13800371488E+02 0.  0.
         22    1    3    3    0    0 -0.26269803969E+02  0.15405230595E+02 -0.17515666248E+02  0.35131500030E+02  0.00000000000E+00 0.  1.
         22    1    4    4    0    0  0.15788488345E+02 -0.14459264229E+02  0.28579137891E+02  0.35708735750E+02  0.00000000000E+00 0.  1.
         22    1    4    4    0    0  0.10481315625E+02 -0.94596636524E+00  0.49080314866E+01  0.11612131702E+02  0.00000000000E+00 0.  1.
<mgrwt>
<rscale>  0 0.80890692E+02</rscale>
<asrwt>0</asrwt>
<pdfrwt beam="1">  1        2 0.75710669E-02 0.80890692E+02</pdfrwt>
<pdfrwt beam="2">  1       -2 0.51139127E-02 0.80890692E+02</pdfrwt>
<totfact> 0.14108314E+05</totfact>
</mgrwt>
</event>
<event>
 7    1  0.3056193E-009  0.9138170E+02  0.7818608E-02  0.1299540E+00
          2   -1    0    0  501    0  0.00000000000E+00  0.00000000000E+00  0.20863755207E+03  0.20863755208E+03  0.25500000000E-02 0. -1.
         -2   -1    0    0    0  501 -0.00000000000E+00 -0.00000000000E+00 -0.10006126521E+02  0.10006126846E+02  0.25500000000E-02 0.  1.
         23    2    1    2    0    0  0.00000000000E+00  0.00000000000E+00  0.19863142555E+03  0.21864367893E+03  0.91381700141E+02 0.  0.
    9000005    2    3    3    0    0  0.20420693478E+02 -0.88496635372E+01  0.19472853588E+03  0.19604824101E+03  0.45154016102E+01 0.  0.
         22    1    3    3    0    0 -0.20420693478E+02  0.88496635372E+01  0.39028896670E+01  0.22595437915E+02  0.00000000000E+00 0.  1.
         22    1    4    4    0    0  0.18830297456E+02 -0.68412520860E+01  0.17813952705E+03  0.17926258374E+03  0.00000000000E+00 0. -1.
         22    1    4    4    0    0  0.15903960217E+01 -0.20084114512E+01  0.16589008826E+02  0.16785657267E+02  0.00000000000E+00 0. -1.
<mgrwt>
<rscale>  0 0.91381700E+02</rscale>
<asrwt>0</asrwt>
<pdfrwt beam="1">  1        2 0.32098083E-01 0.91381700E+02</pdfrwt>
<pdfrwt beam="2">  1       -2 0.15394042E-02 0.91381700E+02</pdfrwt>
<totfact> 0.15612406E+05</totfact>
</mgrwt>
</event>
<event>
 7    1  0.3056193E-009  0.9155714E+02  0.7818608E-02  0.1299124E+00
         -2   -1    0    0    0  501 -0.00000000000E+00  0.00000000000E+00  0.29344979359E+03  0.29344979360E+03  0.25500000000E-02 0. -1.
          2   -1    0    0  501    0  0.00000000000E+00 -0.00000000000E+00 -0.71415196442E+01  0.71415200995E+01  0.25500000000E-02 0.  1.
         23    2    1    2    0    0  0.00000000000E+00  0.35527136788E-14  0.28630827394E+03  0.30059131370E+03  0.91557141405E+02 0.  0.
    9000005    2    3    3    0    0  0.80936341676E+01 -0.16667763314E+02  0.28024364767E+03  0.28109513613E+03  0.11603975578E+02 0.  0.
         22    1    3    3    0    0 -0.80936341676E+01  0.16667763314E+02  0.60646262744E+01  0.19496177568E+02  0.00000000000E+00 0.  1.
         22    1    4    4    0    0  0.78487323719E+01 -0.63540467192E+01  0.18910583337E+03  0.18937526957E+03  0.00000000000E+00 0. -1.
         22    1    4    4    0    0  0.24490179564E+00 -0.10313716595E+02  0.91137814301E+02  0.91719866564E+02  0.00000000000E+00 0. -1.
<mgrwt>
<rscale>  0 0.91557141E+02</rscale>
<asrwt>0</asrwt>
<pdfrwt beam="2">  1        2 0.10986955E-02 0.91557141E+02</pdfrwt>
<pdfrwt beam="1">  1       -2 0.45146118E-01 0.91557141E+02</pdfrwt>
<totfact> 0.51083009E+04</totfact>
</mgrwt>
</event>
<event>
 7    1  0.3056193E-009  0.8742785E+02  0.7818608E-02  0.1309203E+00
          2   -1    0    0  501    0  0.00000000000E+00  0.00000000000E+00  0.59438171496E+02  0.59438171551E+02  0.25500000000E-02 0. -1.
         -2   -1    0    0    0  501 -0.00000000000E+00 -0.00000000000E+00 -0.32149497300E+02  0.32149497401E+02  0.25500000000E-02 0.  1.
         23    2    1    2    0    0  0.00000000000E+00  0.00000000000E+00  0.27288674196E+02  0.91587668952E+02  0.87427852339E+02 0.  0.
    9000005    2    3    3    0    0  0.39620238713E+02  0.17051786572E+02  0.13948579445E+02  0.46438085688E+02  0.10070064193E+02 0.  0.
         22    1    3    3    0    0 -0.39620238713E+02 -0.17051786572E+02  0.13340094750E+02  0.45149583264E+02  0.00000000000E+00 0. -1.
         22    1    4    4    0    0  0.23769177936E+02  0.81705101760E+01  0.32257790485E+01  0.25340416468E+02  0.00000000000E+00 0.  1.
         22    1    4    4    0    0  0.15851060777E+02  0.88812763958E+01  0.10722800397E+02  0.21097669220E+02  0.00000000000E+00 0.  1.
<mgrwt>
<rscale>  0 0.87427852E+02</rscale>
<asrwt>0</asrwt>
<pdfrwt beam="1">  1        2 0.91443341E-02 0.87427852E+02</pdfrwt>
<pdfrwt beam="2">  1       -2 0.49460765E-02 0.87427852E+02</pdfrwt>
<totfact> 0.11904752E+05</totfact>
</mgrwt>
</event>
<event>
 7    1  0.3056193E-009  0.8785769E+02  0.7818608E-02  0.1308124E+00
         -2   -1    0    0    0  501 -0.00000000000E+00  0.00000000000E+00  0.51545161095E+01  0.51545167402E+01  0.25500000000E-02 0.  1.
          2   -1    0    0  501    0  0.00000000000E+00 -0.00000000000E+00 -0.37437914358E+03  0.37437914359E+03  0.25500000000E-02 0. -1.
         23    2    1    2    0    0  0.00000000000E+00  0.00000000000E+00 -0.36922462747E+03  0.37953366033E+03  0.87857690567E+02 0.  0.
    9000005    2    3    3    0    0  0.31561564433E+02  0.29386913293E+02 -0.21502426294E+03  0.21941659239E+03  0.69630699405E+01 0.  0.
         22    1    3    3    0    0 -0.31561564433E+02 -0.29386913293E+02 -0.15420036453E+03  0.16011706793E+03  0.00000000000E+00 0. -1.
         22    1    4    4    0    0  0.17917423748E+02  0.12901222069E+02 -0.98570765889E+02  0.10101322435E+03  0.00000000000E+00 0. -1.
         22    1    4    4    0    0  0.13644140685E+02  0.16485691224E+02 -0.11645349705E+03  0.11840336805E+03  0.00000000000E+00 0. -1.
<mgrwt>
<rscale>  0 0.87857691E+02</rscale>
<asrwt>0</asrwt>
<pdfrwt beam="2">  1        2 0.57596770E-01 0.87857691E+02</pdfrwt>
<pdfrwt beam="1">  1       -2 0.79300282E-03 0.87857691E+02</pdfrwt>
<totfact> 0.21505115E+05</totfact>
</mgrwt>
</event>
<event>
 7    1  0.3056193E-009  0.9085791E+02  0.7818608E-02  0.1300787E+00
          2   -1    0    0  501    0  0.00000000000E+00  0.00000000000E+00  0.29103250883E+03  0.29103250884E+03  0.25500000000E-02 0. -1.
         -2   -1    0    0    0  501 -0.00000000000E+00 -0.00000000000E+00 -0.70912696906E+01  0.70912701491E+01  0.25500000000E-02 0.  1.
         23    2    1    2    0    0  0.00000000000E+00  0.00000000000E+00  0.28394123914E+03  0.29812377899E+03  0.90857912783E+02 0.  0.
    9000005    2    3    3    0    0 -0.38143577253E+02  0.13538820486E+02  0.20859190012E+03  0.21259159185E+03  0.68096978566E+01 0.  0.
         22    1    3    3    0    0  0.38143577253E+02 -0.13538820486E+02  0.75349339015E+02  0.85532187134E+02  0.00000000000E+00 0.  1.
         22    1    4    4    0    0 -0.24834231332E+02  0.56698274900E+01  0.12215650820E+03  0.12478420767E+03  0.00000000000E+00 0. -1.
         22    1    4    4    0    0 -0.13309345921E+02  0.78689929960E+01  0.86435391924E+02  0.87807384181E+02  0.00000000000E+00 0. -1.
<mgrwt>
<rscale>  0 0.90857913E+02</rscale>
<asrwt>0</asrwt>
<pdfrwt beam="1">  1        2 0.44774227E-01 0.90857913E+02</pdfrwt>
<pdfrwt beam="2">  1       -2 0.10909647E-02 0.90857913E+02</pdfrwt>
<totfact> 0.17930898E+05</totfact>
</mgrwt>
</event>
<event>
 7    1  0.3056193E-009  0.9108653E+02  0.7818608E-02  0.1300242E+00
         -2   -1    0    0    0  501 -0.00000000000E+00  0.00000000000E+00  0.10379013279E+02  0.10379013592E+02  0.25500000000E-02 0.  1.
          2   -1    0    0  501    0  0.00000000000E+00 -0.00000000000E+00 -0.19984450970E+03  0.19984450971E+03  0.25500000000E-02 0. -1.
         23    2    1    2    0    0  0.00000000000E+00  0.00000000000E+00 -0.18946549642E+03  0.21022352330E+03  0.91086527093E+02 0.  0.
    9000005    2    3    3    0    0 -0.21184199340E+02  0.27877748130E+02 -0.16169631914E+03  0.16553497500E+03  0.54944685059E+01 0.  0.
         22    1    3    3    0    0  0.21184199340E+02 -0.27877748130E+02 -0.27769177280E+02  0.44688548302E+02  0.00000000000E+00 0.  1.
         22    1    4    4    0    0 -0.67961379121E+00  0.11711637407E+01 -0.13201471336E+02  0.13270732642E+02  0.00000000000E+00 0. -1.
         22    1    4    4    0    0 -0.20504585549E+02  0.26706584390E+02 -0.14849484780E+03  0.15226424236E+03  0.00000000000E+00 0. -1.
<mgrwt>
<rscale>  0 0.91086527E+02</rscale>
<asrwt>0</asrwt>
<pdfrwt beam="2">  1        2 0.30745306E-01 0.91086527E+02</pdfrwt>
<pdfrwt beam="1">  1       -2 0.15967714E-02 0.91086527E+02</pdfrwt>
<totfact> 0.15504960E+05</totfact>
</mgrwt>
</event>
<event>
 7    1  0.3056193E-009  0.8972714E+02  0.7818608E-02  0.1303514E+00
         -2   -1    0    0    0  501 -0.00000000000E+00  0.00000000000E+00  0.71246574191E+01  0.71246578755E+01  0.25500000000E-02 0.  1.
          2   -1    0    0  501    0  0.00000000000E+00 -0.00000000000E+00 -0.28250341378E+03  0.28250341379E+03  0.25500000000E-02 0. -1.
         23    2    1    2    0    0  0.00000000000E+00  0.00000000000E+00 -0.27537875636E+03  0.28962807167E+03  0.89727144403E+02 0.  0.
    9000005    2    3    3    0    0  0.25495556148E+02 -0.34096244677E+02 -0.18007107782E+03  0.18524353798E+03  0.87748510827E+01 0.  0.
         22    1    3    3    0    0 -0.25495556148E+02  0.34096244677E+02 -0.95307678545E+02  0.10438453369E+03  0.00000000000E+00 0.  1.
         22    1    4    4    0    0  0.11934065099E+02 -0.90148321220E+01 -0.61921219542E+02  0.63701856626E+02  0.00000000000E+00 0.  1.
         22    1    4    4    0    0  0.13561491049E+02 -0.25081412555E+02 -0.11814985827E+03  0.12154168135E+03  0.00000000000E+00 0.  1.
<mgrwt>
<rscale>  0 0.89727144E+02</rscale>
<asrwt>0</asrwt>
<pdfrwt beam="2">  1        2 0.43462055E-01 0.89727144E+02</pdfrwt>
<pdfrwt beam="1">  1       -2 0.10961014E-02 0.89727144E+02</pdfrwt>
<totfact> 0.18335332E+05</totfact>
</mgrwt>
</event>
<event>
 7    1  0.3056193E-009  0.8615676E+02  0.7818608E-02  0.1312435E+00
          2   -1    0    0  501    0  0.00000000000E+00  0.00000000000E+00  0.87799317989E+03  0.87799317989E+03  0.25500000000E-02 0. -1.
         -2   -1    0    0    0  501 -0.00000000000E+00 -0.00000000000E+00 -0.21136223127E+01  0.21136238510E+01  0.25500000000E-02 0.  1.
         23    2    1    2    0    0  0.17763568394E-14 -0.71054273576E-14  0.87587955757E+03  0.88010680374E+03  0.86156756066E+02 0.  0.
    9000005    2    3    3    0    0  0.14343989496E+02  0.30152793395E+02  0.71440679361E+03  0.71521776685E+03  0.66668043555E+01 0.  0.
         22    1    3    3    0    0 -0.14343989496E+02 -0.30152793395E+02  0.16147276396E+03  0.16488903689E+03  0.00000000000E+00 0.  1.
         22    1    4    4    0    0  0.83526872680E+01  0.16963440205E+02  0.47191770063E+03  0.47229634961E+03  0.00000000000E+00 0.  1.
         22    1    4    4    0    0  0.59913022280E+01  0.13189353189E+02  0.24248909298E+03  0.24292141724E+03  0.00000000000E+00 0.  1.
<mgrwt>
<rscale>  0 0.86156756E+02</rscale>
<asrwt>0</asrwt>
<pdfrwt beam="1">  1        2 0.13507610E+00 0.86156756E+02</pdfrwt>
<pdfrwt beam="2">  1       -2 0.32517224E-03 0.86156756E+02</pdfrwt>
<totfact> 0.28685412E+05</totfact>
</mgrwt>
</event>
<event>
 7    1  0.3056193E-009  0.9126246E+02  0.7818608E-02  0.1299823E+00
         -2   -1    0    0    0  501 -0.00000000000E+00  0.00000000000E+00  0.99432895554E+02  0.99432895587E+02  0.25500000000E-02 0.  1.
          2   -1    0    0  501    0  0.00000000000E+00 -0.00000000000E+00 -0.20940850006E+02  0.20940850162E+02  0.25500000000E-02 0. -1.
         23    2    1    2    0    0  0.97144514655E-16  0.00000000000E+00  0.78492045548E+02  0.12037374575E+03  0.91262464635E+02 0.  0.
    9000005    2    3    3    0    0 -0.74984843603E-01  0.35865886551E+02  0.76066434008E+02  0.84425852456E+02  0.74333531738E+01 0.  0.
         22    1    3    3    0    0  0.74984843603E-01 -0.35865886551E+02  0.24256115397E+01  0.35947893292E+02  0.00000000000E+00 0. -1.
         22    1    4    4    0    0  0.15567623105E+01  0.25455422523E+02  0.60197075389E+02  0.65376524304E+02  0.00000000000E+00 0.  1.
         22    1    4    4    0    0 -0.16317471541E+01  0.10410464028E+02  0.15869358619E+02  0.19049328152E+02  0.00000000000E+00 0.  1.
<mgrwt>
<rscale>  0 0.91262465E+02</rscale>
<asrwt>0</asrwt>
<pdfrwt beam="2">  1        2 0.32216692E-02 0.91262465E+02</pdfrwt>
<pdfrwt beam="1">  1       -2 0.15297369E-01 0.91262465E+02</pdfrwt>
<totfact> 0.79755001E+04</totfact>
</mgrwt>
</event>
<event>
 7    1  0.3056193E-009  0.8987096E+02  0.7818608E-02  0.1303164E+00
          2   -1    0    0  501    0  0.00000000000E+00  0.00000000000E+00  0.31424679931E+01  0.31424690278E+01  0.25500000000E-02 0. -1.
         -2   -1    0    0    0  501 -0.00000000000E+00 -0.00000000000E+00 -0.64255129994E+03  0.64255129994E+03  0.25500000000E-02 0.  1.
         23    2    1    2    0    0  0.00000000000E+00  0.00000000000E+00 -0.63940883194E+03  0.64569376897E+03  0.89870957036E+02 0.  0.
    9000005    2    3    3    0    0 -0.40322853575E+02 -0.14441361989E+02 -0.40456814268E+03  0.40697922230E+03  0.11055309043E+02 0.  0.
         22    1    3    3    0    0  0.40322853575E+02  0.14441361989E+02 -0.23484068926E+03  0.23871454667E+03  0.00000000000E+00 0. -1.
         22    1    4    4    0    0 -0.19595842034E+02 -0.15302666055E+01 -0.19775808341E+03  0.19873247921E+03  0.00000000000E+00 0. -1.
         22    1    4    4    0    0 -0.20727011541E+02 -0.12911095383E+02 -0.20681005927E+03  0.20824674309E+03  0.00000000000E+00 0. -1.
<mgrwt>
<rscale>  0 0.89870957E+02</rscale>
<asrwt>0</asrwt>
<pdfrwt beam="1">  1        2 0.48345721E-03 0.89870957E+02</pdfrwt>
<pdfrwt beam="2">  1       -2 0.98853942E-01 0.89870957E+02</pdfrwt>
<totfact> 0.30550760E+04</totfact>
</mgrwt>
</event>
<event>
 7    1  0.3056193E-009  0.9137956E+02  0.7818608E-02  0.1299545E+00
          2   -1    0    0  501    0  0.00000000000E+00  0.00000000000E+00  0.14316798019E+03  0.14316798021E+03  0.25500000000E-02 0. -1.
         -2   -1    0    0    0  501 -0.00000000000E+00 -0.00000000000E+00 -0.14581164319E+02  0.14581164542E+02  0.25500000000E-02 0.  1.
         23    2    1    2    0    0  0.00000000000E+00  0.00000000000E+00  0.12858681587E+03  0.15774914475E+03  0.91379557095E+02 0.  0.
    9000005    2    3    3    0    0  0.26882739286E+02 -0.33944811685E+02  0.85808440591E+02  0.96881080028E+02  0.12162371435E+02 0.  0.
         22    1    3    3    0    0 -0.26882739286E+02  0.33944811685E+02  0.42778375279E+02  0.60868064725E+02  0.00000000000E+00 0.  1.
         22    1    4    4    0    0  0.29687606188E+01 -0.30651991006E+01  0.26916418465E+01  0.50451879021E+01  0.00000000000E+00 0.  1.
         22    1    4    4    0    0  0.23913978667E+02 -0.30879612585E+02  0.83116798744E+02  0.91835892126E+02  0.00000000000E+00 0.  1.
<mgrwt>
<rscale>  0 0.91379557E+02</rscale>
<asrwt>0</asrwt>
<pdfrwt beam="1">  1        2 0.22025843E-01 0.91379557E+02</pdfrwt>
<pdfrwt beam="2">  1       -2 0.22432561E-02 0.91379557E+02</pdfrwt>
<totfact> 0.13679330E+05</totfact>
</mgrwt>
</event>
<event>
 7    1  0.3056193E-009  0.7428465E+02  0.7818608E-02  0.1346101E+00
         -2   -1    0    0    0  501 -0.00000000000E+00  0.00000000000E+00  0.31561728788E+01  0.31561739089E+01  0.25500000000E-02 0.  1.
          2   -1    0    0  501    0  0.00000000000E+00 -0.00000000000E+00 -0.43709650633E+03  0.43709650634E+03  0.25500000000E-02 0. -1.
         23    2    1    2    0    0  0.35527136788E-14 -0.72164496601E-15 -0.43394033345E+03  0.44025268025E+03  0.74284651634E+02 0.  0.
    9000005    2    3    3    0    0  0.29544531893E+02  0.48809159567E+00 -0.34612482081E+03  0.34759912199E+03  0.12232760333E+02 0.  0.
         22    1    3    3    0    0 -0.29544531893E+02 -0.48809159567E+00 -0.87815512638E+02  0.92653558259E+02  0.00000000000E+00 0.  1.
         22    1    4    4    0    0  0.82607011287E+01  0.50140031685E+01 -0.13865584664E+03  0.13899216963E+03  0.00000000000E+00 0.  1.
         22    1    4    4    0    0  0.21283830764E+02 -0.45259115729E+01 -0.20746897418E+03  0.20860695236E+03  0.00000000000E+00 0.  1.
<mgrwt>
<rscale>  0 0.74284652E+02</rscale>
<asrwt>0</asrwt>
<pdfrwt beam="2">  1        2 0.67245568E-01 0.74284652E+02</pdfrwt>
<pdfrwt beam="1">  1       -2 0.48556548E-03 0.74284652E+02</pdfrwt>
<totfact> 0.35248965E+05</totfact>
</mgrwt>
</event>
<event>
 7    1  0.3056193E-009  0.1108482E+03  0.7818608E-02  0.1259007E+00
          2   -1    0    0  501    0  0.00000000000E+00  0.00000000000E+00  0.63016228564E+02  0.63016228615E+02  0.25500000000E-02 0. -1.
         -2   -1    0    0    0  501 -0.00000000000E+00 -0.00000000000E+00 -0.48746687449E+02  0.48746687516E+02  0.25500000000E-02 0.  1.
         23    2    1    2    0    0 -0.35527136788E-14 -0.35527136788E-14  0.14269541114E+02  0.11176291613E+03  0.11084822785E+03 0.  0.
    9000005    2    3    3    0    0  0.24297704803E+02 -0.24760961392E+02  0.49701767691E+02  0.62175353700E+02  0.13857316781E+02 0.  0.
         22    1    3    3    0    0 -0.24297704803E+02  0.24760961392E+02 -0.35432226576E+02  0.49587562432E+02  0.00000000000E+00 0.  1.
         22    1    4    4    0    0  0.22703757932E+02 -0.25917966760E+02  0.42517769425E+02  0.54726249114E+02  0.00000000000E+00 0. -1.
         22    1    4    4    0    0  0.15939468709E+01  0.11570053681E+01  0.71839982652E+01  0.74491045854E+01  0.00000000000E+00 0. -1.
<mgrwt>
<rscale>  0 0.11084823E+03</rscale>
<asrwt>0</asrwt>
<pdfrwt beam="1">  1        2 0.96948044E-02 0.11084823E+03</pdfrwt>
<pdfrwt beam="2">  1       -2 0.74994904E-02 0.11084823E+03</pdfrwt>
<totfact> 0.61398572E+04</totfact>
</mgrwt>
</event>
<event>
 7    1  0.3056193E-009  0.8908273E+02  0.7818608E-02  0.1305088E+00
         -2   -1    0    0    0  501 -0.00000000000E+00  0.00000000000E+00  0.10814045758E+03  0.10814045761E+03  0.25500000000E-02 0.  1.
          2   -1    0    0  501    0  0.00000000000E+00 -0.00000000000E+00 -0.18345891732E+02  0.18345891909E+02  0.25500000000E-02 0. -1.
         23    2    1    2    0    0  0.00000000000E+00  0.00000000000E+00  0.89794565847E+02  0.12648634952E+03  0.89082728734E+02 0.  0.
    9000005    2    3    3    0    0  0.25827583675E+02 -0.24316530229E+02  0.83077376654E+02  0.90382632929E+02  0.29685185788E+01 0.  0.
         22    1    3    3    0    0 -0.25827583675E+02  0.24316530229E+02  0.67171891932E+01  0.36103716589E+02  0.00000000000E+00 0. -1.
         22    1    4    4    0    0  0.10603814221E+02 -0.96589261719E+01  0.29992299011E+02  0.33245657322E+02  0.00000000000E+00 0.  1.
         22    1    4    4    0    0  0.15223769454E+02 -0.14657604057E+02  0.53085077643E+02  0.57136975607E+02  0.00000000000E+00 0.  1.
<mgrwt>
<rscale>  0 0.89082729E+02</rscale>
<asrwt>0</asrwt>
<pdfrwt beam="2">  1        2 0.28224449E-02 0.89082729E+02</pdfrwt>
<pdfrwt beam="1">  1       -2 0.16636993E-01 0.89082729E+02</pdfrwt>
<totfact> 0.82588336E+04</totfact>
</mgrwt>
</event>
<event>
 7    1  0.3056193E-009  0.9141426E+02  0.7818608E-02  0.1299463E+00
          2   -1    0    0  501    0  0.00000000000E+00  0.00000000000E+00  0.24279404373E+02  0.24279404507E+02  0.25500000000E-02 0. -1.
         -2   -1    0    0    0  501 -0.00000000000E+00 -0.00000000000E+00 -0.86045841299E+02  0.86045841337E+02  0.25500000000E-02 0.  1.
         23    2    1    2    0    0  0.00000000000E+00  0.71054273576E-14 -0.61766436926E+02  0.11032524584E+03  0.91414261141E+02 0.  0.
    9000005    2    3    3    0    0 -0.11390782394E+02 -0.36164761350E+02 -0.60822943552E+02  0.72397286938E+02  0.10212580798E+02 0.  0.
         22    1    3    3    0    0  0.11390782394E+02  0.36164761350E+02 -0.94349337370E+00  0.37927958906E+02  0.00000000000E+00 0. -1.
         22    1    4    4    0    0  0.54792337164E+00 -0.31020194243E+01 -0.16135605263E+01  0.35392544557E+01  0.00000000000E+00 0.  1.
         22    1    4    4    0    0 -0.11938705765E+02 -0.33062741925E+02 -0.59209383026E+02  0.68858032482E+02  0.00000000000E+00 0.  1.
<mgrwt>
<rscale>  0 0.91414261E+02</rscale>
<asrwt>0</asrwt>
<pdfrwt beam="1">  1        2 0.37352930E-02 0.91414261E+02</pdfrwt>
<pdfrwt beam="2">  1       -2 0.13237822E-01 0.91414261E+02</pdfrwt>
<totfact> 0.82830969E+04</totfact>
</mgrwt>
</event>
<event>
 7    1  0.3056193E-009  0.9170824E+02  0.7818608E-02  0.1298767E+00
          2   -1    0    0  501    0  0.00000000000E+00  0.00000000000E+00  0.19789554955E+02  0.19789555119E+02  0.25500000000E-02 0. -1.
         -2   -1    0    0    0  501 -0.00000000000E+00 -0.00000000000E+00 -0.10624798665E+03  0.10624798668E+03  0.25500000000E-02 0.  1.
         23    2    1    2    0    0  0.35527136788E-14  0.00000000000E+00 -0.86458431692E+02  0.12603754180E+03  0.91708241349E+02 0.  0.
    9000005    2    3    3    0    0  0.23670029903E+02 -0.25202029298E+02 -0.60056276015E+01  0.38470046215E+02  0.15762750286E+02 0.  0.
         22    1    3    3    0    0 -0.23670029903E+02  0.25202029298E+02 -0.80452804090E+02  0.87567495581E+02  0.00000000000E+00 0.  1.
         22    1    4    4    0    0  0.36502993765E+01 -0.11821307089E+02  0.30523184671E+01  0.12743022987E+02  0.00000000000E+00 0.  1.
         22    1    4    4    0    0  0.20019730526E+02 -0.13380722209E+02 -0.90579460687E+01  0.25727023228E+02  0.00000000000E+00 0.  1.
<mgrwt>
<rscale>  0 0.91708241E+02</rscale>
<asrwt>0</asrwt>
<pdfrwt beam="1">  1        2 0.30445470E-02 0.91708241E+02</pdfrwt>
<pdfrwt beam="2">  1       -2 0.16345844E-01 0.91708241E+02</pdfrwt>
<totfact> 0.77229097E+04</totfact>
</mgrwt>
</event>
<event>
 7    1  0.3056193E-009  0.9737084E+02  0.7818608E-02  0.1285924E+00
         -2   -1    0    0    0  501 -0.00000000000E+00  0.00000000000E+00  0.73119947040E+01  0.73119951486E+01  0.25500000000E-02 0.  1.
          2   -1    0    0  501    0  0.00000000000E+00 -0.00000000000E+00 -0.32416187897E+03  0.32416187898E+03  0.25500000000E-02 0. -1.
         23    2    1    2    0    0 -0.71054273576E-14  0.00000000000E+00 -0.31684988426E+03  0.33147387413E+03  0.97370837885E+02 0.  0.
    9000005    2    3    3    0    0  0.41138900158E+02 -0.25542795270E+02 -0.14447024665E+03  0.15242197394E+03  0.39953067846E+01 0.  0.
         22    1    3    3    0    0 -0.41138900158E+02  0.25542795270E+02 -0.17237963762E+03  0.17905190019E+03  0.00000000000E+00 0. -1.
         22    1    4    4    0    0  0.30644280894E+02 -0.20494749969E+02 -0.10601775887E+03  0.11224469664E+03  0.00000000000E+00 0. -1.
         22    1    4    4    0    0  0.10494619263E+02 -0.50480453013E+01 -0.38452487775E+02  0.40177277296E+02  0.00000000000E+00 0. -1.
<mgrwt>
<rscale>  0 0.97370838E+02</rscale>
<asrwt>0</asrwt>
<pdfrwt beam="2">  1        2 0.49871047E-01 0.97370838E+02</pdfrwt>
<pdfrwt beam="1">  1       -2 0.11249225E-02 0.97370838E+02</pdfrwt>
<totfact> 0.15508834E+05</totfact>
</mgrwt>
</event>
<event>
 7    1  0.3056193E-009  0.9206235E+02  0.7818608E-02  0.1297933E+00
         -2   -1    0    0    0  501 -0.00000000000E+00  0.00000000000E+00  0.36723967605E+01  0.36723976458E+01  0.25500000000E-02 0.  1.
          2   -1    0    0  501    0  0.00000000000E+00 -0.00000000000E+00 -0.57697167016E+03  0.57697167016E+03  0.25500000000E-02 0. -1.
         23    2    1    2    0    0 -0.88817841970E-15 -0.17763568394E-14 -0.57329927340E+03  0.58064406781E+03  0.92062351720E+02 0.  0.
    9000005    2    3    3    0    0 -0.71469260954E+01 -0.10678093281E+02 -0.56531947158E+03  0.56551867638E+03  0.77568138661E+01 0.  0.
         22    1    3    3    0    0  0.71469260954E+01  0.10678093281E+02 -0.79798018154E+01  0.15125391425E+02  0.00000000000E+00 0.  1.
         22    1    4    4    0    0 -0.76647450630E+01 -0.60149896171E+01 -0.30121701812E+03  0.30137455172E+03  0.00000000000E+00 0. -1.
         22    1    4    4    0    0  0.51781896764E+00 -0.46631036643E+01 -0.26410245346E+03  0.26414412466E+03  0.00000000000E+00 0. -1.
<mgrwt>
<rscale>  0 0.92062352E+02</rscale>
<asrwt>0</asrwt>
<pdfrwt beam="2">  1        2 0.88764801E-01 0.92062352E+02</pdfrwt>
<pdfrwt beam="1">  1       -2 0.56498464E-03 0.92062352E+02</pdfrwt>
<totfact> 0.21960350E+05</totfact>
</mgrwt>
</event>
<event>
 7    1  0.3056193E-009  0.8861168E+02  0.7818608E-02  0.1306249E+00
          2   -1    0    0  501    0  0.00000000000E+00  0.00000000000E+00  0.52721285534E+03  0.52721285534E+03  0.25500000000E-02 0. -1.
         -2   -1    0    0    0  501 -0.00000000000E+00 -0.00000000000E+00 -0.37233676373E+01  0.37233685105E+01  0.25500000000E-02 0.  1.
         23    2    1    2    0    0  0.35527136788E-14  0.00000000000E+00  0.52348948770E+03  0.53093622385E+03  0.88611681329E+02 0.  0.
    9000005    2    3    3    0    0 -0.19276604645E+02  0.17501970945E+02  0.47603629656E+03  0.47680941143E+03  0.76650318643E+01 0.  0.
         22    1    3    3    0    0  0.19276604645E+02 -0.17501970945E+02  0.47453191135E+02  0.54126812418E+02  0.00000000000E+00 0.  1.
         22    1    4    4    0    0 -0.15790092136E+02  0.12943284295E+02  0.30852147478E+03  0.30919630661E+03  0.00000000000E+00 0.  1.
         22    1    4    4    0    0 -0.34865125086E+01  0.45586866504E+01  0.16751482178E+03  0.16761310483E+03  0.00000000000E+00 0.  1.
<mgrwt>
<rscale>  0 0.88611681E+02</rscale>
<asrwt>0</asrwt>
<pdfrwt beam="1">  1        2 0.81109615E-01 0.88611681E+02</pdfrwt>
<pdfrwt beam="2">  1       -2 0.57282625E-03 0.88611681E+02</pdfrwt>
<totfact> 0.23633081E+05</totfact>
</mgrwt>
</event>
<event>
 7    1  0.3056193E-009  0.9197696E+02  0.7818608E-02  0.1298134E+00
          2   -1    0    0  501    0  0.00000000000E+00  0.00000000000E+00  0.56512333926E+02  0.56512333983E+02  0.25500000000E-02 0. -1.
         -2   -1    0    0    0  501 -0.00000000000E+00 -0.00000000000E+00 -0.37424402925E+02  0.37424403012E+02  0.25500000000E-02 0.  1.
         23    2    1    2    0    0  0.00000000000E+00 -0.71054273576E-14  0.19087931000E+02  0.93936736995E+02  0.91976961504E+02 0.  0.
    9000005    2    3    3    0    0 -0.36940148477E+01 -0.44746736013E+02  0.15862685780E+02  0.48922091199E+02  0.11217400663E+02 0.  0.
         22    1    3    3    0    0  0.36940148477E+01  0.44746736013E+02  0.32252452202E+01  0.45014645797E+02  0.00000000000E+00 0. -1.
         22    1    4    4    0    0 -0.30838750807E+01 -0.85492174137E+01 -0.69036286585E+00  0.91146039292E+01  0.00000000000E+00 0.  1.
         22    1    4    4    0    0 -0.61013976702E+00 -0.36197518599E+02  0.16553048646E+02  0.39807487270E+02  0.00000000000E+00 0.  1.
<mgrwt>
<rscale>  0 0.91976962E+02</rscale>
<asrwt>0</asrwt>
<pdfrwt beam="1">  1        2 0.86942052E-02 0.91976962E+02</pdfrwt>
<pdfrwt beam="2">  1       -2 0.57576005E-02 0.91976962E+02</pdfrwt>
<totfact> 0.10183357E+05</totfact>
</mgrwt>
</event>
<event>
 7    1  0.3056193E-009  0.9145753E+02  0.7818608E-02  0.1299360E+00
          2   -1    0    0  501    0  0.00000000000E+00  0.00000000000E+00  0.27490062597E+02  0.27490062716E+02  0.25500000000E-02 0. -1.
         -2   -1    0    0    0  501 -0.00000000000E+00 -0.00000000000E+00 -0.76068219730E+02  0.76068219773E+02  0.25500000000E-02 0.  1.
         23    2    1    2    0    0  0.00000000000E+00  0.35527136788E-14 -0.48578157133E+02  0.10355828249E+03  0.91457533979E+02 0.  0.
    9000005    2    3    3    0    0 -0.36174790589E+02  0.20533163364E+02 -0.35196503838E+01  0.42235405009E+02  0.64199085285E+01 0.  0.
         22    1    3    3    0    0  0.36174790589E+02 -0.20533163364E+02 -0.45058506749E+02  0.61322877480E+02  0.00000000000E+00 0.  1.
         22    1    4    4    0    0 -0.72809185292E+01  0.38625494986E+01  0.18519938928E+01  0.84475407449E+01  0.00000000000E+00 0.  1.
         22    1    4    4    0    0 -0.28893872060E+02  0.16670613866E+02 -0.53716442766E+01  0.33787864264E+02  0.00000000000E+00 0.  1.
<mgrwt>
<rscale>  0 0.91457534E+02</rscale>
<asrwt>0</asrwt>
<pdfrwt beam="1">  1        2 0.42292404E-02 0.91457534E+02</pdfrwt>
<pdfrwt beam="2">  1       -2 0.11702803E-01 0.91457534E+02</pdfrwt>
<totfact> 0.85615642E+04</totfact>
</mgrwt>
</event>
<event>
 7    1  0.3056193E-009  0.9282180E+02  0.7818608E-02  0.1296159E+00
          2   -1    0    0  501    0  0.00000000000E+00  0.00000000000E+00  0.29108097877E+03  0.29108097878E+03  0.25500000000E-02 0.  1.
         -2   -1    0    0    0  501 -0.00000000000E+00 -0.00000000000E+00 -0.73999047308E+01  0.73999051702E+01  0.25500000000E-02 0. -1.
         23    2    1    2    0    0  0.00000000000E+00  0.00000000000E+00  0.28368107404E+03  0.29848088395E+03  0.92821798713E+02 0.  0.
    9000005    2    3    3    0    0 -0.45493826788E+02  0.88953191437E+01  0.13932476425E+03  0.14686439687E+03  0.29910126327E+01 0.  0.
         22    1    3    3    0    0  0.45493826788E+02 -0.88953191437E+01  0.14435630978E+03  0.15161648707E+03  0.00000000000E+00 0. -1.
         22    1    4    4    0    0 -0.17239598347E+02  0.21556484016E+01  0.54761208287E+02  0.57451201069E+02  0.00000000000E+00 0.  1.
         22    1    4    4    0    0 -0.28254228441E+02  0.67396707421E+01  0.84563555965E+02  0.89413195804E+02  0.00000000000E+00 0.  1.
<mgrwt>
<rscale>  0 0.92821799E+02</rscale>
<asrwt>0</asrwt>
<pdfrwt beam="1">  1        2 0.44781698E-01 0.92821799E+02</pdfrwt>
<pdfrwt beam="2">  1       -2 0.11384467E-02 0.92821799E+02</pdfrwt>
<totfact> 0.16935650E+05</totfact>
</mgrwt>
</event>
<event>
 7    1  0.3056193E-009  0.9297028E+02  0.7818608E-02  0.1295814E+00
          2   -1    0    0  501    0  0.00000000000E+00  0.00000000000E+00  0.51265596434E+02  0.51265596498E+02  0.25500000000E-02 0. -1.
         -2   -1    0    0    0  501 -0.00000000000E+00 -0.00000000000E+00 -0.42150459543E+02  0.42150459620E+02  0.25500000000E-02 0.  1.
         23    2    1    2    0    0  0.00000000000E+00  0.00000000000E+00  0.91151368911E+01  0.93416056118E+02  0.92970284608E+02 0.  0.
    9000005    2    3    3    0    0  0.43101652193E+02 -0.12931128382E+02 -0.19678045782E+01  0.47071713480E+02  0.13671410024E+02 0.  0.
         22    1    3    3    0    0 -0.43101652193E+02  0.12931128382E+02  0.11082941469E+02  0.46344342639E+02  0.00000000000E+00 0.  1.
         22    1    4    4    0    0  0.62473494291E+01 -0.62767319109E+01  0.28722012603E+01  0.93100095838E+01  0.00000000000E+00 0. -1.
         22    1    4    4    0    0  0.36854302764E+02 -0.66543964713E+01 -0.48400058385E+01  0.37761703896E+02  0.00000000000E+00 0. -1.
<mgrwt>
<rscale>  0 0.92970285E+02</rscale>
<asrwt>0</asrwt>
<pdfrwt beam="1">  1        2 0.78870149E-02 0.92970285E+02</pdfrwt>
<pdfrwt beam="2">  1       -2 0.64846861E-02 0.92970285E+02</pdfrwt>
<totfact> 0.96235711E+04</totfact>
</mgrwt>
</event>
<event>
 7    1  0.3056193E-009  0.9236466E+02  0.7818608E-02  0.1297224E+00
          2   -1    0    0  501    0  0.00000000000E+00  0.00000000000E+00  0.40594545265E+03  0.40594545266E+03  0.25500000000E-02 0. -1.
         -2   -1    0    0    0  501 -0.00000000000E+00 -0.00000000000E+00 -0.52539265422E+01  0.52539271610E+01  0.25500000000E-02 0.  1.
         23    2    1    2    0    0  0.00000000000E+00  0.00000000000E+00  0.40069152610E+03  0.41119937982E+03  0.92364662447E+02 0.  0.
    9000005    2    3    3    0    0 -0.44977966465E+02 -0.38634481580E+01  0.20930706953E+03  0.21456277611E+03  0.13776495828E+02 0.  0.
         22    1    3    3    0    0  0.44977966465E+02  0.38634481580E+01  0.19138445658E+03  0.19663660371E+03  0.00000000000E+00 0.  1.
         22    1    4    4    0    0 -0.36088481676E+02 -0.46165822627E+01  0.13862270367E+03  0.14331763783E+03  0.00000000000E+00 0. -1.
         22    1    4    4    0    0 -0.88894847895E+01  0.75313410463E+00  0.70684365864E+02  0.71245138279E+02  0.00000000000E+00 0. -1.
<mgrwt>
<rscale>  0 0.92364662E+02</rscale>
<asrwt>0</asrwt>
<pdfrwt beam="1">  1        2 0.62453142E-01 0.92364662E+02</pdfrwt>
<pdfrwt beam="2">  1       -2 0.80829650E-03 0.92364662E+02</pdfrwt>
<totfact> 0.19389296E+05</totfact>
</mgrwt>
</event>
<event>
 7    1  0.3056193E-009  0.9273220E+02  0.7818608E-02  0.1296367E+00
         -2   -1    0    0    0  501 -0.00000000000E+00  0.00000000000E+00  0.23740928188E+02  0.23740928325E+02  0.25500000000E-02 0.  1.
          2   -1    0    0  501    0  0.00000000000E+00 -0.00000000000E+00 -0.90553120683E+02  0.90553120719E+02  0.25500000000E-02 0. -1.
         23    2    1    2    0    0 -0.71054273576E-14  0.22204460493E-15 -0.66812192496E+02  0.11429404904E+03  0.92732198188E+02 0.  0.
    9000005    2    3    3    0    0 -0.44646837936E+02  0.15686205872E+01 -0.22893307546E+02  0.51646869033E+02  0.12144745459E+02 0.  0.
         22    1    3    3    0    0  0.44646837936E+02 -0.15686205872E+01 -0.43918884949E+02  0.62647180011E+02  0.00000000000E+00 0. -1.
         22    1    4    4    0    0 -0.37666682537E+02 -0.30564773867E+01 -0.20203089483E+02  0.42851906049E+02  0.00000000000E+00 0.  1.
         22    1    4    4    0    0 -0.69801553990E+01  0.46250979739E+01 -0.26902180630E+01  0.87949629839E+01  0.00000000000E+00 0.  1.
<mgrwt>
<rscale>  0 0.92732198E+02</rscale>
<asrwt>0</asrwt>
<pdfrwt beam="2">  1        2 0.13931249E-01 0.92732198E+02</pdfrwt>
<pdfrwt beam="1">  1       -2 0.36524506E-02 0.92732198E+02</pdfrwt>
<totfact> 0.11362320E+05</totfact>
</mgrwt>
</event>
<event>
 7    1  0.3056193E-009  0.9264689E+02  0.7818608E-02  0.1296566E+00
         -2   -1    0    0    0  501 -0.00000000000E+00  0.00000000000E+00  0.64269154861E+01  0.64269159920E+01  0.25500000000E-02 0.  1.
          2   -1    0    0  501    0  0.00000000000E+00 -0.00000000000E+00 -0.33388665847E+03  0.33388665848E+03  0.25500000000E-02 0. -1.
         23    2    1    2    0    0  0.00000000000E+00  0.00000000000E+00 -0.32745974299E+03  0.34031357448E+03  0.92646887129E+02 0.  0.
    9000005    2    3    3    0    0  0.66076408242E+01  0.28532855744E+02 -0.29453876068E+03  0.29625025810E+03  0.12383420589E+02 0.  0.
         22    1    3    3    0    0 -0.66076408242E+01 -0.28532855744E+02 -0.32920982307E+02  0.44063316378E+02  0.00000000000E+00 0.  1.
         22    1    4    4    0    0  0.94500640612E+01  0.20080990305E+02 -0.23527100940E+03  0.23631546235E+03  0.00000000000E+00 0.  1.
         22    1    4    4    0    0 -0.28424232370E+01  0.84518654385E+01 -0.59267751283E+02  0.59934795748E+02  0.00000000000E+00 0.  1.
<mgrwt>
<rscale>  0 0.92646887E+02</rscale>
<asrwt>0</asrwt>
<pdfrwt beam="2">  1        2 0.51367165E-01 0.92646887E+02</pdfrwt>
<pdfrwt beam="1">  1       -2 0.98875653E-03 0.92646887E+02</pdfrwt>
<totfact> 0.17912643E+05</totfact>
</mgrwt>
</event>
<event>
 7    1  0.3056193E-009  0.9097599E+02  0.7818608E-02  0.1300505E+00
          2   -1    0    0  501    0  0.00000000000E+00  0.00000000000E+00  0.73543712227E+03  0.73543712227E+03  0.25500000000E-02 0. -1.
         -2   -1    0    0    0  501 -0.00000000000E+00 -0.00000000000E+00 -0.28135066700E+01  0.28135078256E+01  0.25500000000E-02 0.  1.
         23    2    1    2    0    0  0.00000000000E+00  0.00000000000E+00  0.73262361560E+03  0.73825063010E+03  0.90975989734E+02 0.  0.
    9000005    2    3    3    0    0 -0.28721495680E+02 -0.16910003676E+02  0.61189589457E+03  0.61300664756E+03  0.15801633383E+02 0.  0.
         22    1    3    3    0    0  0.28721495680E+02  0.16910003676E+02  0.12072772103E+03  0.12524398254E+03  0.00000000000E+00 0.  1.
         22    1    4    4    0    0 -0.28645972469E+01 -0.31472463850E+01  0.21066174559E+03  0.21070472736E+03  0.00000000000E+00 0.  1.
         22    1    4    4    0    0 -0.25856898433E+02 -0.13762757291E+02  0.40123414898E+03  0.40230192020E+03  0.00000000000E+00 0.  1.
<mgrwt>
<rscale>  0 0.90975990E+02</rscale>
<asrwt>0</asrwt>
<pdfrwt beam="1">  1        2 0.11314409E+00 0.90975990E+02</pdfrwt>
<pdfrwt beam="2">  1       -2 0.43284760E-03 0.90975990E+02</pdfrwt>
<totfact> 0.24117087E+05</totfact>
</mgrwt>
</event>
<event>
 7    1  0.3056193E-009  0.9171442E+02  0.7818608E-02  0.1298752E+00
          2   -1    0    0  501    0  0.00000000000E+00  0.00000000000E+00  0.54417008618E+02  0.54417008678E+02  0.25500000000E-02 0. -1.
         -2   -1    0    0    0  501 -0.00000000000E+00 -0.00000000000E+00 -0.38643864910E+02  0.38643864995E+02  0.25500000000E-02 0.  1.
         23    2    1    2    0    0  0.00000000000E+00  0.00000000000E+00  0.15773143708E+02  0.93060873673E+02  0.91714416240E+02 0.  0.
    9000005    2    3    3    0    0 -0.32275295611E+02 -0.20890937629E+02 -0.17116965221E+02  0.42465565124E+02  0.56751864352E+01 0.  0.
         22    1    3    3    0    0  0.32275295611E+02  0.20890937629E+02  0.32890108929E+02  0.50595308549E+02  0.00000000000E+00 0. -1.
         22    1    4    4    0    0 -0.30058957350E+02 -0.18244573987E+02 -0.14111062101E+02  0.37888355342E+02  0.00000000000E+00 0.  1.
         22    1    4    4    0    0 -0.22163382616E+01 -0.26463636423E+01 -0.30059031202E+01  0.45772097816E+01  0.00000000000E+00 0.  1.
<mgrwt>
<rscale>  0 0.91714416E+02</rscale>
<asrwt>0</asrwt>
<pdfrwt beam="1">  1        2 0.83718474E-02 0.91714416E+02</pdfrwt>
<pdfrwt beam="2">  1       -2 0.59452100E-02 0.91714416E+02</pdfrwt>
<totfact> 0.10163757E+05</totfact>
</mgrwt>
</event>
<event>
 7    1  0.3056193E-009  0.8983647E+02  0.7818608E-02  0.1303248E+00
          2   -1    0    0  501    0  0.00000000000E+00  0.00000000000E+00  0.68042580126E+02  0.68042580174E+02  0.25500000000E-02 0. -1.
         -2   -1    0    0    0  501 -0.00000000000E+00 -0.00000000000E+00 -0.29652721760E+02  0.29652721870E+02  0.25500000000E-02 0.  1.
         23    2    1    2    0    0  0.00000000000E+00  0.00000000000E+00  0.38389858366E+02  0.97695302043E+02  0.89836467072E+02 0.  0.
    9000005    2    3    3    0    0  0.52365543179E+01 -0.32307785143E+02  0.51246300819E+02  0.62531363207E+02  0.14586759574E+02 0.  0.
         22    1    3    3    0    0 -0.52365543179E+01  0.32307785143E+02 -0.12856442453E+02  0.35163938837E+02  0.00000000000E+00 0. -1.
         22    1    4    4    0    0 -0.47975505967E+00 -0.25778075257E+02  0.44915086423E+02  0.51789036651E+02  0.00000000000E+00 0. -1.
         22    1    4    4    0    0  0.57163093776E+01 -0.65297098857E+01  0.63312143963E+01  0.10742326555E+02  0.00000000000E+00 0. -1.
<mgrwt>
<rscale>  0 0.89836467E+02</rscale>
<asrwt>0</asrwt>
<pdfrwt beam="1">  1        2 0.10468089E-01 0.89836467E+02</pdfrwt>
<pdfrwt beam="2">  1       -2 0.45619572E-02 0.89836467E+02</pdfrwt>
<totfact> 0.11439687E+05</totfact>
</mgrwt>
</event>
<event>
 7    1  0.3056193E-009  0.9051520E+02  0.7818608E-02  0.1301609E+00
          2   -1    0    0  501    0  0.00000000000E+00  0.00000000000E+00  0.34101646775E+02  0.34101646871E+02  0.25500000000E-02 0. -1.
         -2   -1    0    0    0  501 -0.00000000000E+00 -0.00000000000E+00 -0.60063092868E+02  0.60063092922E+02  0.25500000000E-02 0.  1.
         23    2    1    2    0    0 -0.35527136788E-14  0.88817841970E-15 -0.25961446093E+02  0.94164739793E+02  0.90515200585E+02 0.  0.
    9000005    2    3    3    0    0  0.18607140525E+02 -0.64548765327E+01  0.27992764146E+02  0.36728271307E+02  0.13322160452E+02 0.  0.
         22    1    3    3    0    0 -0.18607140525E+02  0.64548765327E+01 -0.53954210239E+02  0.57436468485E+02  0.00000000000E+00 0.  1.
         22    1    4    4    0    0  0.12802635543E+01 -0.15229249087E+01 -0.12731347231E+01  0.23620429864E+01  0.00000000000E+00 0.  1.
         22    1    4    4    0    0  0.17326876971E+02 -0.49319516239E+01  0.29265898869E+02  0.34366228321E+02  0.00000000000E+00 0.  1.
<mgrwt>
<rscale>  0 0.90515201E+02</rscale>
<asrwt>0</asrwt>
<pdfrwt beam="1">  1        2 0.52464072E-02 0.90515201E+02</pdfrwt>
<pdfrwt beam="2">  1       -2 0.92404758E-02 0.90515201E+02</pdfrwt>
<totfact> 0.93487240E+04</totfact>
</mgrwt>
</event>
<event>
 7    1  0.3056193E-009  0.8741275E+02  0.7818608E-02  0.1309241E+00
         -2   -1    0    0    0  501 -0.00000000000E+00  0.00000000000E+00  0.33331660409E+01  0.33331670163E+01  0.25500000000E-02 0.  1.
          2   -1    0    0  501    0  0.00000000000E+00 -0.00000000000E+00 -0.57310285402E+03  0.57310285402E+03  0.25500000000E-02 0. -1.
         23    2    1    2    0    0  0.00000000000E+00  0.00000000000E+00 -0.56976968798E+03  0.57643602104E+03  0.87412750871E+02 0.  0.
    9000005    2    3    3    0    0 -0.32027298822E+02  0.16968543897E+02 -0.44401334900E+03  0.44556075162E+03  0.79277957642E+01 0.  0.
         22    1    3    3    0    0  0.32027298822E+02 -0.16968543897E+02 -0.12575633898E+03  0.13087526942E+03  0.00000000000E+00 0.  1.
         22    1    4    4    0    0 -0.23356353031E+02  0.16112372202E+02 -0.34475135120E+03  0.34591707376E+03  0.00000000000E+00 0. -1.
         22    1    4    4    0    0 -0.86709457915E+01  0.85617169511E+00 -0.99261997794E+02  0.99643677857E+02  0.00000000000E+00 0. -1.
<mgrwt>
<rscale>  0 0.87412751E+02</rscale>
<asrwt>0</asrwt>
<pdfrwt beam="2">  1        2 0.88169592E-01 0.87412751E+02</pdfrwt>
<pdfrwt beam="1">  1       -2 0.51279531E-03 0.87412751E+02</pdfrwt>
<totfact> 0.25127145E+05</totfact>
</mgrwt>
</event>
<event>
 7    1  0.3056193E-009  0.8783215E+02  0.7818608E-02  0.1308188E+00
          2   -1    0    0  501    0  0.00000000000E+00  0.00000000000E+00  0.18685694521E+03  0.18685694523E+03  0.25500000000E-02 0. -1.
         -2   -1    0    0    0  501 -0.00000000000E+00 -0.00000000000E+00 -0.10321379583E+02  0.10321379898E+02  0.25500000000E-02 0.  1.
         23    2    1    2    0    0  0.00000000000E+00  0.00000000000E+00  0.17653556563E+03  0.19717832512E+03  0.87832146552E+02 0.  0.
    9000005    2    3    3    0    0 -0.35584884698E+02 -0.10997454556E+02  0.13718695100E+03  0.14299768745E+03  0.15519377109E+02 0.  0.
         22    1    3    3    0    0  0.35584884698E+02  0.10997454556E+02  0.39348614623E+02  0.54180637671E+02  0.00000000000E+00 0.  1.
         22    1    4    4    0    0 -0.36699509898E+02 -0.93209071367E+01  0.12382736596E+03  0.12948725766E+03  0.00000000000E+00 0. -1.
         22    1    4    4    0    0  0.11146252005E+01 -0.16765474193E+01  0.13359585042E+02  0.13510429789E+02  0.00000000000E+00 0. -1.
<mgrwt>
<rscale>  0 0.87832147E+02</rscale>
<asrwt>0</asrwt>
<pdfrwt beam="1">  1        2 0.28747224E-01 0.87832147E+02</pdfrwt>
<pdfrwt beam="2">  1       -2 0.15879045E-02 0.87832147E+02</pdfrwt>
<totfact> 0.16690276E+05</totfact>
</mgrwt>
</event>
<event>
 7    1  0.4920546E-009  0.9174012E+02  0.7818608E-02  0.1298692E+00
         -2   -1    0    0    0  501 -0.00000000000E+00  0.00000000000E+00  0.10514368721E+01  0.10514399643E+01  0.25500000000E-02 0.  1.
          2   -1    0    0  501    0  0.00000000000E+00 -0.00000000000E+00 -0.20011276959E+04  0.20011276959E+04  0.25500000000E-02 0. -1.
         23    2    1    2    0    0  0.00000000000E+00  0.00000000000E+00 -0.20000762591E+04  0.20021791359E+04  0.91740123012E+02 0.  0.
    9000005    2    3    3    0    0 -0.10369257577E+02  0.61270976097E+01 -0.19651850524E+04  0.19652676318E+04  0.13398203699E+02 0.  0.
         22    1    3    3    0    0  0.10369257577E+02 -0.61270976097E+01 -0.34891206711E+02  0.36911504081E+02  0.00000000000E+00 0.  1.
         22    1    4    4    0    0  0.23984284441E+01  0.13542715665E+01 -0.76880112885E+03  0.76880606282E+03  0.00000000000E+00 0. -1.
         22    1    4    4    0    0 -0.12767686021E+02  0.47728260433E+01 -0.11963839235E+04  0.11964615690E+04  0.00000000000E+00 0. -1.
<mgrwt>
<rscale>  0 0.91740123E+02</rscale>
<asrwt>0</asrwt>
<pdfrwt beam="2">  1        2 0.30786275E+00 0.91740123E+02</pdfrwt>
<pdfrwt beam="1">  1       -2 0.16176136E-03 0.91740123E+02</pdfrwt>
<totfact> 0.19352942E+05</totfact>
</mgrwt>
</event>
<event>
 7    1  0.3056193E-009  0.9255665E+02  0.7818608E-02  0.1296776E+00
         -2   -1    0    0    0  501 -0.00000000000E+00  0.00000000000E+00  0.10950155362E+02  0.10950155659E+02  0.25500000000E-02 0.  1.
          2   -1    0    0  501    0  0.00000000000E+00 -0.00000000000E+00 -0.19558476355E+03  0.19558476357E+03  0.25500000000E-02 0. -1.
         23    2    1    2    0    0 -0.35527136788E-14  0.00000000000E+00 -0.18463460819E+03  0.20653491922E+03  0.92556654643E+02 0.  0.
    9000005    2    3    3    0    0 -0.23157943981E+02 -0.92811315662E+01 -0.17852585451E+03  0.18084938547E+03  0.14580456992E+02 0.  0.
         22    1    3    3    0    0  0.23157943981E+02  0.92811315662E+01 -0.61087536813E+01  0.25685533752E+02  0.00000000000E+00 0.  1.
         22    1    4    4    0    0 -0.24405466001E+01  0.86438315270E+00 -0.37453529148E+01  0.45531411573E+01  0.00000000000E+00 0.  1.
         22    1    4    4    0    0 -0.20717397381E+02 -0.10145514719E+02 -0.17478050159E+03  0.17629624432E+03  0.00000000000E+00 0.  1.
<mgrwt>
<rscale>  0 0.92556655E+02</rscale>
<asrwt>0</asrwt>
<pdfrwt beam="2">  1        2 0.30089961E-01 0.92556655E+02</pdfrwt>
<pdfrwt beam="1">  1       -2 0.16846395E-02 0.92556655E+02</pdfrwt>
<totfact> 0.14734365E+05</totfact>
</mgrwt>
</event>
<event>
 7    1  0.3056193E-009  0.9110261E+02  0.7818608E-02  0.1300203E+00
         -2   -1    0    0    0  501 -0.00000000000E+00  0.00000000000E+00  0.24572800224E+02  0.24572800356E+02  0.25500000000E-02 0.  1.
          2   -1    0    0  501    0  0.00000000000E+00 -0.00000000000E+00 -0.84439765797E+02  0.84439765835E+02  0.25500000000E-02 0. -1.
         23    2    1    2    0    0  0.00000000000E+00  0.00000000000E+00 -0.59866965573E+02  0.10901256619E+03  0.91102612590E+02 0.  0.
    9000005    2    3    3    0    0  0.14969611464E+02  0.21678065509E+02  0.12958094152E+02  0.31568927876E+02  0.11604189397E+02 0.  0.
         22    1    3    3    0    0 -0.14969611464E+02 -0.21678065509E+02 -0.72825059725E+02  0.77443638316E+02  0.00000000000E+00 0. -1.
         22    1    4    4    0    0  0.14674974921E+02  0.12524050124E+02  0.64843571621E+01  0.20353221078E+02  0.00000000000E+00 0. -1.
         22    1    4    4    0    0  0.29463654347E+00  0.91540153849E+01  0.64737369897E+01  0.11215706798E+02  0.00000000000E+00 0. -1.
<mgrwt>
<rscale>  0 0.91102613E+02</rscale>
<asrwt>0</asrwt>
<pdfrwt beam="2">  1        2 0.12990733E-01 0.91102613E+02</pdfrwt>
<pdfrwt beam="1">  1       -2 0.37804309E-02 0.91102613E+02</pdfrwt>
<totfact> 0.11692110E+05</totfact>
</mgrwt>
</event>
<event>
 7    1  0.3056193E-009  0.9157077E+02  0.7818608E-02  0.1299092E+00
         -2   -1    0    0    0  501 -0.00000000000E+00  0.00000000000E+00  0.26075030784E+02  0.26075030908E+02  0.25500000000E-02 0.  1.
          2   -1    0    0  501    0  0.00000000000E+00 -0.00000000000E+00 -0.80394970980E+02  0.80394971020E+02  0.25500000000E-02 0. -1.
         23    2    1    2    0    0  0.00000000000E+00 -0.22204460493E-15 -0.54319940196E+02  0.10647000193E+03  0.91570767211E+02 0.  0.
    9000005    2    3    3    0    0  0.23530578358E+02  0.15261027950E+01 -0.71834874436E+02  0.77096714250E+02  0.15087645785E+02 0.  0.
         22    1    3    3    0    0 -0.23530578358E+02 -0.15261027950E+01  0.17514934240E+02  0.29373287678E+02  0.00000000000E+00 0.  1.
         22    1    4    4    0    0  0.16473638255E+02 -0.33956967441E+01 -0.30067315513E+02  0.34452212932E+02  0.00000000000E+00 0. -1.
         22    1    4    4    0    0  0.70569401033E+01  0.49217995391E+01 -0.41767558922E+02  0.42644501318E+02  0.00000000000E+00 0. -1.
<mgrwt>
<rscale>  0 0.91570767E+02</rscale>
<asrwt>0</asrwt>
<pdfrwt beam="2">  1        2 0.12368457E-01 0.91570767E+02</pdfrwt>
<pdfrwt beam="1">  1       -2 0.40115432E-02 0.91570767E+02</pdfrwt>
<totfact> 0.11364636E+05</totfact>
</mgrwt>
</event>
<event>
 7    1  0.3056193E-009  0.9270237E+02  0.7818608E-02  0.1296436E+00
          2   -1    0    0  501    0  0.00000000000E+00  0.00000000000E+00  0.96692569596E+02  0.96692569630E+02  0.25500000000E-02 0. -1.
         -2   -1    0    0    0  501 -0.00000000000E+00 -0.00000000000E+00 -0.22219210165E+02  0.22219210312E+02  0.25500000000E-02 0.  1.
         23    2    1    2    0    0  0.00000000000E+00  0.35527136788E-14  0.74473359431E+02  0.11891177994E+03  0.92702373993E+02 0.  0.
    9000005    2    3    3    0    0 -0.55064343175E+01  0.21689708024E+02 -0.12573170617E+02  0.29034849384E+02  0.13571057672E+02 0.  0.
         22    1    3    3    0    0  0.55064343175E+01 -0.21689708024E+02  0.87046530048E+02  0.89876930558E+02  0.00000000000E+00 0. -1.
         22    1    4    4    0    0 -0.73415919316E+01  0.42605768300E+01 -0.56214300743E+01  0.10180960814E+02  0.00000000000E+00 0.  1.
         22    1    4    4    0    0  0.18351576141E+01  0.17429131194E+02 -0.69517405428E+01  0.18853888570E+02  0.00000000000E+00 0.  1.
<mgrwt>
<rscale>  0 0.92702374E+02</rscale>
<asrwt>0</asrwt>
<pdfrwt beam="1">  1        2 0.14875780E-01 0.92702374E+02</pdfrwt>
<pdfrwt beam="2">  1       -2 0.34183401E-02 0.92702374E+02</pdfrwt>
<totfact> 0.11599122E+05</totfact>
</mgrwt>
</event>
<event>
 7    1  0.3056193E-009  0.9306162E+02  0.7818608E-02  0.1295602E+00
          2   -1    0    0  501    0  0.00000000000E+00  0.00000000000E+00  0.33970328110E+02  0.33970328206E+02  0.25500000000E-02 0. -1.
         -2   -1    0    0    0  501 -0.00000000000E+00 -0.00000000000E+00 -0.63735509358E+02  0.63735509409E+02  0.25500000000E-02 0.  1.
         23    2    1    2    0    0  0.00000000000E+00  0.00000000000E+00 -0.29765181248E+02  0.97705837615E+02  0.93061617702E+02 0.  0.
    9000005    2    3    3    0    0  0.21845322998E+01  0.43047316352E+02  0.14722813951E+00  0.45240650473E+02  0.13742312492E+02 0.  0.
         22    1    3    3    0    0 -0.21845322998E+01 -0.43047316352E+02 -0.29912409387E+02  0.52465187142E+02  0.00000000000E+00 0.  1.
         22    1    4    4    0    0  0.60162515664E+01  0.37167268410E+02 -0.25135869619E+01  0.37734854490E+02  0.00000000000E+00 0. -1.
         22    1    4    4    0    0 -0.38317192666E+01  0.58800479423E+01  0.26608151014E+01  0.75057959835E+01  0.00000000000E+00 0. -1.
<mgrwt>
<rscale>  0 0.93061618E+02</rscale>
<asrwt>0</asrwt>
<pdfrwt beam="1">  1        2 0.52262043E-02 0.93061618E+02</pdfrwt>
<pdfrwt beam="2">  1       -2 0.98054630E-02 0.93061618E+02</pdfrwt>
<totfact> 0.86074118E+04</totfact>
</mgrwt>
</event>
<event>
 6    1  0.3056193E-009  0.1393427E+03  0.7818608E-02  0.1214216E+00
          2   -1    0    0  501    0  0.00000000000E+00  0.00000000000E+00  0.25389781401E+02  0.25389781529E+02  0.25500000000E-02 0. -1.
         -2   -1    0    0    0  501 -0.00000000000E+00 -0.00000000000E+00 -0.19118313898E+03  0.19118313899E+03  0.25500000000E-02 0.  1.
    9000005    2    1    2    0    0 -0.38929838529E+02  0.18530503725E+02 -0.16791913105E+03  0.17340544655E+03  0.37016787994E+01 0.  0.
         22    1    1    2    0    0  0.38929838529E+02 -0.18530503725E+02  0.21257734703E+01  0.43167473971E+02  0.00000000000E+00 0. -1.
         22    1    3    3    0    0 -0.47611607773E+01  0.24888986485E+01 -0.16516330320E+02  0.17368144278E+02  0.00000000000E+00 0. -1.
         22    1    3    3    0    0 -0.34168677752E+02  0.16041605077E+02 -0.15140280073E+03  0.15603730227E+03  0.00000000000E+00 0. -1.
<mgrwt>
<rscale>  0 0.13934272E+03</rscale>
<asrwt>0</asrwt>
<pdfrwt beam="1">  1        2 0.39061204E-02 0.13934272E+03</pdfrwt>
<pdfrwt beam="2">  1       -2 0.29412790E-01 0.13934272E+03</pdfrwt>
<totfact> 0.21501138E+04</totfact>
</mgrwt>
</event>
<event>
 7    1  0.3056193E-009  0.9147459E+02  0.7818608E-02  0.1299320E+00
          2   -1    0    0  501    0  0.00000000000E+00  0.00000000000E+00  0.17889920851E+03  0.17889920852E+03  0.25500000000E-02 0. -1.
         -2   -1    0    0    0  501 -0.00000000000E+00 -0.00000000000E+00 -0.11693177952E+02  0.11693178230E+02  0.25500000000E-02 0.  1.
         23    2    1    2    0    0  0.88817841970E-15  0.00000000000E+00  0.16720603055E+03  0.19059238675E+03  0.91474593386E+02 0.  0.
    9000005    2    3    3    0    0  0.50777757224E+01 -0.32654414768E+02  0.20568414355E+02  0.40277101122E+02  0.10348458609E+02 0.  0.
         22    1    3    3    0    0 -0.50777757224E+01  0.32654414768E+02  0.14663761620E+03  0.15031528563E+03  0.00000000000E+00 0. -1.
         22    1    4    4    0    0  0.70128519199E+01 -0.12655431547E+02  0.98646094880E+01  0.17511440833E+02  0.00000000000E+00 0. -1.
         22    1    4    4    0    0 -0.19350761975E+01 -0.19998983221E+02  0.10703804867E+02  0.22765660290E+02  0.00000000000E+00 0. -1.
<mgrwt>
<rscale>  0 0.91474593E+02</rscale>
<asrwt>0</asrwt>
<pdfrwt beam="1">  1        2 0.27522954E-01 0.91474593E+02</pdfrwt>
<pdfrwt beam="2">  1       -2 0.17989506E-02 0.91474593E+02</pdfrwt>
<totfact> 0.14731865E+05</totfact>
</mgrwt>
</event>
<event>
 7    1  0.3056193E-009  0.9166255E+02  0.7818608E-02  0.1298875E+00
         -2   -1    0    0    0  501 -0.00000000000E+00  0.00000000000E+00  0.26111925526E+01  0.26111937977E+01  0.25500000000E-02 0.  1.
          2   -1    0    0  501    0  0.00000000000E+00 -0.00000000000E+00 -0.80442369124E+03  0.80442369125E+03  0.25500000000E-02 0. -1.
         23    2    1    2    0    0  0.00000000000E+00  0.00000000000E+00 -0.80181249869E+03  0.80703488505E+03  0.91662547549E+02 0.  0.
    9000005    2    3    3    0    0 -0.33555247945E+02 -0.16846552840E+02 -0.62641637935E+03  0.62766498878E+03  0.12493870984E+02 0.  0.
         22    1    3    3    0    0  0.33555247945E+02  0.16846552840E+02 -0.17539611934E+03  0.17936989627E+03  0.00000000000E+00 0.  1.
         22    1    4    4    0    0 -0.11084636622E+01 -0.39291131634E+01 -0.10568843135E+03  0.10576724986E+03  0.00000000000E+00 0.  1.
         22    1    4    4    0    0 -0.32446784282E+02 -0.12917439677E+02 -0.52072794800E+03  0.52189773891E+03  0.00000000000E+00 0.  1.
<mgrwt>
<rscale>  0 0.91662548E+02</rscale>
<asrwt>0</asrwt>
<pdfrwt beam="2">  1        2 0.12375729E+00 0.91662548E+02</pdfrwt>
<pdfrwt beam="1">  1       -2 0.40172267E-03 0.91662548E+02</pdfrwt>
<totfact> 0.24058038E+05</totfact>
</mgrwt>
</event>
<event>
 7    1  0.3056193E-009  0.9138211E+02  0.7818608E-02  0.1299539E+00
         -2   -1    0    0    0  501 -0.00000000000E+00  0.00000000000E+00  0.26415025821E+01  0.26415038129E+01  0.25500000000E-02 0.  1.
          2   -1    0    0  501    0  0.00000000000E+00 -0.00000000000E+00 -0.79033502144E+03  0.79033502144E+03  0.25500000000E-02 0. -1.
         23    2    1    2    0    0  0.00000000000E+00  0.00000000000E+00 -0.78769351886E+03  0.79297652526E+03  0.91382109617E+02 0.  0.
    9000005    2    3    3    0    0 -0.35961514660E+02  0.19448725570E+02 -0.55937603426E+03  0.56102748509E+03  0.13371905437E+02 0.  0.
         22    1    3    3    0    0  0.35961514660E+02 -0.19448725570E+02 -0.22831748459E+03  0.23194904017E+03  0.00000000000E+00 0.  1.
         22    1    4    4    0    0 -0.34040470242E+02  0.14314573823E+02 -0.44927447523E+03  0.45078954594E+03  0.00000000000E+00 0. -1.
         22    1    4    4    0    0 -0.19210444179E+01  0.51341517466E+01 -0.11010155903E+03  0.11023793915E+03  0.00000000000E+00 0. -1.
<mgrwt>
<rscale>  0 0.91382110E+02</rscale>
<asrwt>0</asrwt>
<pdfrwt beam="2">  1        2 0.12158981E+00 0.91382110E+02</pdfrwt>
<pdfrwt beam="1">  1       -2 0.40638574E-03 0.91382110E+02</pdfrwt>
<totfact> 0.24177351E+05</totfact>
</mgrwt>
</event>
<event>
 7    1  0.3056193E-009  0.9040394E+02  0.7818608E-02  0.1301876E+00
         -2   -1    0    0    0  501 -0.00000000000E+00  0.00000000000E+00  0.10025534222E+03  0.10025534225E+03  0.25500000000E-02 0. -1.
          2   -1    0    0  501    0  0.00000000000E+00 -0.00000000000E+00 -0.20380143612E+02  0.20380143772E+02  0.25500000000E-02 0.  1.
         23    2    1    2    0    0  0.00000000000E+00  0.35527136788E-14  0.79875198609E+02  0.12063548603E+03  0.90403944249E+02 0.  0.
    9000005    2    3    3    0    0  0.11216662373E+02 -0.21537231687E+02  0.90234887206E+02  0.94234936574E+02  0.12174667899E+02 0.  0.
         22    1    3    3    0    0 -0.11216662373E+02  0.21537231687E+02 -0.10359688597E+02  0.26400549452E+02  0.00000000000E+00 0.  1.
         22    1    4    4    0    0  0.33534136255E+01 -0.18328747393E+02  0.59610605603E+02  0.62454885032E+02  0.00000000000E+00 0.  1.
         22    1    4    4    0    0  0.78632487471E+01 -0.32084842939E+01  0.30624281603E+02  0.31780051542E+02  0.00000000000E+00 0.  1.
<mgrwt>
<rscale>  0 0.90403944E+02</rscale>
<asrwt>0</asrwt>
<pdfrwt beam="2">  1        2 0.31354067E-02 0.90403944E+02</pdfrwt>
<pdfrwt beam="1">  1       -2 0.15423899E-01 0.90403944E+02</pdfrwt>
<totfact> 0.81451993E+04</totfact>
</mgrwt>
</event>
<event>
 7    1  0.3056193E-009  0.9110425E+02  0.7818608E-02  0.1300199E+00
         -2   -1    0    0    0  501 -0.00000000000E+00  0.00000000000E+00  0.20847687670E+01  0.20847703265E+01  0.25500000000E-02 0.  1.
          2   -1    0    0  501    0  0.00000000000E+00 -0.00000000000E+00 -0.99531191221E+03  0.99531191222E+03  0.25500000000E-02 0. -1.
         23    2    1    2    0    0  0.00000000000E+00  0.00000000000E+00 -0.99322714345E+03  0.99739668254E+03  0.91104247263E+02 0.  0.
    9000005    2    3    3    0    0 -0.73901361773E+01 -0.19745040355E+02 -0.93775787665E+03  0.93805596894E+03  0.10709104718E+02 0.  0.
         22    1    3    3    0    0  0.73901361773E+01  0.19745040355E+02 -0.55469266799E+02  0.59340713600E+02  0.00000000000E+00 0.  1.
         22    1    4    4    0    0 -0.55529775640E+01 -0.85695412966E+01 -0.64220313185E+03  0.64228431022E+03  0.00000000000E+00 0. -1.
         22    1    4    4    0    0 -0.18371586133E+01 -0.11175499059E+02 -0.29555474480E+03  0.29577165872E+03  0.00000000000E+00 0. -1.
<mgrwt>
<rscale>  0 0.91104247E+02</rscale>
<asrwt>0</asrwt>
<pdfrwt beam="2">  1        2 0.15312453E+00 0.91104247E+02</pdfrwt>
<pdfrwt beam="1">  1       -2 0.32073457E-03 0.91104247E+02</pdfrwt>
<totfact> 0.25048558E+05</totfact>
</mgrwt>
</event>
<event>
 7    1  0.3056193E-009  0.9079097E+02  0.7818608E-02  0.1300947E+00
         -2   -1    0    0    0  501 -0.00000000000E+00  0.00000000000E+00  0.36784931368E+02  0.36784931456E+02  0.25500000000E-02 0.  1.
          2   -1    0    0  501    0  0.00000000000E+00 -0.00000000000E+00 -0.56021577851E+02  0.56021577909E+02  0.25500000000E-02 0. -1.
         23    2    1    2    0    0 -0.17763568394E-14  0.35527136788E-14 -0.19236646483E+02  0.92806509365E+02  0.90790966580E+02 0.  0.
    9000005    2    3    3    0    0 -0.13212438088E+02  0.22218479721E+02 -0.47600927951E+02  0.54429930250E+02  0.53422470761E+01 0.  0.
         22    1    3    3    0    0  0.13212438088E+02 -0.22218479721E+02  0.28364281469E+02  0.38376579115E+02  0.00000000000E+00 0.  1.
         22    1    4    4    0    0 -0.10347180052E+02  0.20287187182E+02 -0.39022493835E+02  0.45181734405E+02  0.00000000000E+00 0. -1.
         22    1    4    4    0    0 -0.28652580356E+01  0.19312925387E+01 -0.85784341167E+01  0.92481958444E+01  0.00000000000E+00 0. -1.
<mgrwt>
<rscale>  0 0.90790967E+02</rscale>
<asrwt>0</asrwt>
<pdfrwt beam="2">  1        2 0.86187043E-02 0.90790967E+02</pdfrwt>
<pdfrwt beam="1">  1       -2 0.56592202E-02 0.90790967E+02</pdfrwt>
<totfact> 0.10540416E+05</totfact>
</mgrwt>
</event>
<event>
 7    1  0.3056193E-009  0.9424090E+02  0.7818608E-02  0.1292895E+00
          2   -1    0    0  501    0  0.00000000000E+00  0.00000000000E+00  0.39674170251E+03  0.39674170252E+03  0.25500000000E-02 0. -1.
         -2   -1    0    0    0  501 -0.00000000000E+00 -0.00000000000E+00 -0.55964290270E+01  0.55964296080E+01  0.25500000000E-02 0.  1.
         23    2    1    2    0    0  0.00000000000E+00  0.00000000000E+00  0.39114527349E+03  0.40233813213E+03  0.94240901920E+02 0.  0.
    9000005    2    3    3    0    0  0.20169556930E+02 -0.38251110134E+02  0.27039928050E+03  0.27408232027E+03  0.11635675181E+02 0.  0.
         22    1    3    3    0    0 -0.20169556930E+02  0.38251110134E+02  0.12074599298E+03  0.12825581186E+03  0.00000000000E+00 0.  1.
         22    1    4    4    0    0  0.18821537754E+02 -0.36641297282E+02  0.26639440815E+03  0.26956041186E+03  0.00000000000E+00 0. -1.
         22    1    4    4    0    0  0.13480191766E+01 -0.16098128521E+01  0.40048723558E+01  0.45219084141E+01  0.00000000000E+00 0. -1.
<mgrwt>
<rscale>  0 0.94240902E+02</rscale>
<asrwt>0</asrwt>
<pdfrwt beam="1">  1        2 0.61037198E-01 0.94240902E+02</pdfrwt>
<pdfrwt beam="2">  1       -2 0.86098894E-03 0.94240902E+02</pdfrwt>
<totfact> 0.18228163E+05</totfact>
</mgrwt>
</event>
<event>
 7    1  0.3056193E-009  0.9164368E+02  0.7818608E-02  0.1298919E+00
         -2   -1    0    0    0  501 -0.00000000000E+00  0.00000000000E+00  0.10440683080E+01  0.10440714221E+01  0.25500000000E-02 0. -1.
          2   -1    0    0  501    0  0.00000000000E+00 -0.00000000000E+00 -0.20110156204E+04  0.20110156204E+04  0.25500000000E-02 0.  1.
         23    2    1    2    0    0  0.00000000000E+00  0.17763568394E-14 -0.20099715521E+04  0.20120596918E+04  0.91643675411E+02 0.  0.
    9000005    2    3    3    0    0 -0.95525033041E+01  0.14691748234E+02 -0.19332570573E+04  0.19333690856E+04  0.11228269965E+02 0.  0.
         22    1    3    3    0    0  0.95525033041E+01 -0.14691748234E+02 -0.76714494845E+02  0.78690606204E+02  0.00000000000E+00 0. -1.
         22    1    4    4    0    0 -0.15962968593E+01 -0.17654850444E+01 -0.30915030401E+03  0.30915946624E+03  0.00000000000E+00 0. -1.
         22    1    4    4    0    0 -0.79562064448E+01  0.16457233278E+02 -0.16241067533E+04  0.16242096194E+04  0.00000000000E+00 0. -1.
<mgrwt>
<rscale>  0 0.91643675E+02</rscale>
<asrwt>0</asrwt>
<pdfrwt beam="2">  1        2 0.30938392E+00 0.91643675E+02</pdfrwt>
<pdfrwt beam="1">  1       -2 0.16062774E-03 0.91643675E+02</pdfrwt>
<totfact> 0.19317034E+05</totfact>
</mgrwt>
</event>
<event>
 7    1  0.3056193E-009  0.9055314E+02  0.7818608E-02  0.1301518E+00
         -2   -1    0    0    0  501 -0.00000000000E+00  0.00000000000E+00  0.29226058302E+02  0.29226058413E+02  0.25500000000E-02 0.  1.
          2   -1    0    0  501    0  0.00000000000E+00 -0.00000000000E+00 -0.70141774606E+02  0.70141774652E+02  0.25500000000E-02 0. -1.
         23    2    1    2    0    0  0.00000000000E+00  0.00000000000E+00 -0.40915716303E+02  0.99367833066E+02  0.90553135824E+02 0.  0.
    9000005    2    3    3    0    0 -0.40674292159E+02  0.15812599153E+02 -0.94530030693E+01  0.45568774908E+02  0.90949241317E+01 0.  0.
         22    1    3    3    0    0  0.40674292159E+02 -0.15812599153E+02 -0.31462713234E+02  0.53799058158E+02  0.00000000000E+00 0.  1.
         22    1    4    4    0    0 -0.17571982445E+02  0.33049535058E+01 -0.75708979752E+00  0.17896102081E+02  0.00000000000E+00 0.  1.
         22    1    4    4    0    0 -0.23102309713E+02  0.12507645648E+02 -0.86959132717E+01  0.27672672827E+02  0.00000000000E+00 0.  1.
<mgrwt>
<rscale>  0 0.90553136E+02</rscale>
<asrwt>0</asrwt>
<pdfrwt beam="2">  1        2 0.10791042E-01 0.90553136E+02</pdfrwt>
<pdfrwt beam="1">  1       -2 0.44963167E-02 0.90553136E+02</pdfrwt>
<totfact> 0.11282492E+05</totfact>
</mgrwt>
</event>
<event>
 7    1  0.3056193E-009  0.9116570E+02  0.7818608E-02  0.1300053E+00
          2   -1    0    0  501    0  0.00000000000E+00  0.00000000000E+00  0.25433138421E+03  0.25433138423E+03  0.25500000000E-02 0. -1.
         -2   -1    0    0    0  501 -0.00000000000E+00 -0.00000000000E+00 -0.81696418546E+01  0.81696422526E+01  0.25500000000E-02 0.  1.
         23    2    1    2    0    0  0.00000000000E+00  0.00000000000E+00  0.24616174236E+03  0.26250102648E+03  0.91165703537E+02 0.  0.
    9000005    2    3    3    0    0 -0.38049693273E+02  0.66865806788E+01  0.18948689216E+03  0.19391146339E+03  0.14278788993E+02 0.  0.
         22    1    3    3    0    0  0.38049693273E+02 -0.66865806788E+01  0.56674850200E+02  0.68589563087E+02  0.00000000000E+00 0.  1.
         22    1    4    4    0    0 -0.33622622869E+02  0.12782643880E+01  0.16729278151E+03  0.17064287115E+03  0.00000000000E+00 0.  1.
         22    1    4    4    0    0 -0.44270704044E+01  0.54083162908E+01  0.22194110650E+02  0.23268592244E+02  0.00000000000E+00 0.  1.
<mgrwt>
<rscale>  0 0.91165704E+02</rscale>
<asrwt>0</asrwt>
<pdfrwt beam="1">  1        2 0.39127907E-01 0.91165704E+02</pdfrwt>
<pdfrwt beam="2">  1       -2 0.12568679E-02 0.91165704E+02</pdfrwt>
<totfact> 0.16898668E+05</totfact>
</mgrwt>
</event>
<event>
 7    1  0.3056193E-009  0.9184670E+02  0.7818608E-02  0.1298440E+00
         -2   -1    0    0    0  501 -0.00000000000E+00  0.00000000000E+00  0.53652186974E+01  0.53652193034E+01  0.25500000000E-02 0.  1.
          2   -1    0    0  501    0  0.00000000000E+00 -0.00000000000E+00 -0.39307881899E+03  0.39307881900E+03  0.25500000000E-02 0. -1.
         23    2    1    2    0    0  0.00000000000E+00 -0.71054273576E-14 -0.38771360030E+03  0.39844403830E+03  0.91846697308E+02 0.  0.
    9000005    2    3    3    0    0  0.89327677144E+01  0.44300659643E+02 -0.18314687233E+03  0.18894489994E+03  0.10726396708E+02 0.  0.
         22    1    3    3    0    0 -0.89327677144E+01 -0.44300659643E+02 -0.20456672797E+03  0.20949913837E+03  0.00000000000E+00 0.  1.
         22    1    4    4    0    0  0.11287300496E+02  0.36434739475E+02 -0.14587347118E+03  0.15077785974E+03  0.00000000000E+00 0.  1.
         22    1    4    4    0    0 -0.23545327814E+01  0.78659201672E+01 -0.37273401146E+02  0.38167040201E+02  0.00000000000E+00 0.  1.
<mgrwt>
<rscale>  0 0.91846697E+02</rscale>
<asrwt>0</asrwt>
<pdfrwt beam="2">  1        2 0.60473642E-01 0.91846697E+02</pdfrwt>
<pdfrwt beam="1">  1       -2 0.82541861E-03 0.91846697E+02</pdfrwt>
<totfact> 0.19455757E+05</totfact>
</mgrwt>
</event>
<event>
 7    1  0.3056193E-009  0.9100074E+02  0.7818608E-02  0.1300446E+00
         -2   -1    0    0    0  501 -0.00000000000E+00  0.00000000000E+00  0.14097131917E+02  0.14097132147E+02  0.25500000000E-02 0.  1.
          2   -1    0    0  501    0  0.00000000000E+00 -0.00000000000E+00 -0.14685849060E+03  0.14685849062E+03  0.25500000000E-02 0. -1.
         23    2    1    2    0    0  0.17763568394E-14  0.00000000000E+00 -0.13276135868E+03  0.16095562277E+03  0.91000737039E+02 0.  0.
    9000005    2    3    3    0    0  0.15727798035E+02 -0.35886936910E+02 -0.10641356107E+03  0.11373865219E+03  0.87976786496E+01 0.  0.
         22    1    3    3    0    0 -0.15727798035E+02  0.35886936910E+02 -0.26347797607E+02  0.47216970578E+02  0.00000000000E+00 0.  1.
         22    1    4    4    0    0 -0.81605116665E+00 -0.33081251971E+01 -0.12835442041E+02  0.13279992628E+02  0.00000000000E+00 0.  1.
         22    1    4    4    0    0  0.16543849202E+02 -0.32578811713E+02 -0.93578119032E+02  0.10045865956E+03  0.00000000000E+00 0.  1.
<mgrwt>
<rscale>  0 0.91000737E+02</rscale>
<asrwt>0</asrwt>
<pdfrwt beam="2">  1        2 0.22593613E-01 0.91000737E+02</pdfrwt>
<pdfrwt beam="1">  1       -2 0.21687896E-02 0.91000737E+02</pdfrwt>
<totfact> 0.13954033E+05</totfact>
</mgrwt>
</event>
<event>
 7    1  0.3056193E-009  0.8952279E+02  0.7818608E-02  0.1304011E+00
         -2   -1    0    0    0  501 -0.00000000000E+00  0.00000000000E+00  0.28300759778E+02  0.28300759893E+02  0.25500000000E-02 0.  1.
          2   -1    0    0  501    0  0.00000000000E+00 -0.00000000000E+00 -0.70796072626E+02  0.70796072672E+02  0.25500000000E-02 0. -1.
         23    2    1    2    0    0 -0.35527136788E-14  0.00000000000E+00 -0.42495312848E+02  0.99096832564E+02  0.89522793802E+02 0.  0.
    9000005    2    3    3    0    0 -0.18637552959E+02 -0.38909722639E+02 -0.15840747707E+02  0.48384006386E+02  0.15124744293E+02 0.  0.
         22    1    3    3    0    0  0.18637552959E+02  0.38909722639E+02 -0.26654565141E+02  0.50712826178E+02  0.00000000000E+00 0. -1.
         22    1    4    4    0    0  0.15889074762E+01 -0.45100216598E+01 -0.52413344203E+01  0.70948226789E+01  0.00000000000E+00 0.  1.
         22    1    4    4    0    0 -0.20226460435E+02 -0.34399700979E+02 -0.10599413287E+02  0.41289183707E+02  0.00000000000E+00 0.  1.
<mgrwt>
<rscale>  0 0.89522794E+02</rscale>
<asrwt>0</asrwt>
<pdfrwt beam="2">  1        2 0.10891703E-01 0.89522794E+02</pdfrwt>
<pdfrwt beam="1">  1       -2 0.43539631E-02 0.89522794E+02</pdfrwt>
<totfact> 0.11678142E+05</totfact>
</mgrwt>
</event>
<event>
 7    1  0.3056193E-009  0.6546444E+02  0.7818608E-02  0.1376233E+00
         -2   -1    0    0    0  501 -0.00000000000E+00  0.00000000000E+00  0.51412599095E+01  0.51412605419E+01  0.25500000000E-02 0. -1.
          2   -1    0    0  501    0  0.00000000000E+00 -0.00000000000E+00 -0.20839212862E+03  0.20839212863E+03  0.25500000000E-02 0.  1.
         23    2    1    2    0    0  0.00000000000E+00  0.00000000000E+00 -0.20325086871E+03  0.21353338917E+03  0.65464438147E+02 0.  0.
    9000005    2    3    3    0    0  0.27989927570E+02 -0.33305755201E+01 -0.15255043531E+03  0.15552422847E+03  0.11028216085E+02 0.  0.
         22    1    3    3    0    0 -0.27989927570E+02  0.33305755201E+01 -0.50700433400E+02  0.58009160704E+02  0.00000000000E+00 0. -1.
         22    1    4    4    0    0  0.27676977270E+02 -0.17240890129E+01 -0.14961645648E+03  0.15216462008E+03  0.00000000000E+00 0.  1.
         22    1    4    4    0    0  0.31295029982E+00 -0.16064865072E+01 -0.29339788245E+01  0.33596083894E+01  0.00000000000E+00 0.  1.
<mgrwt>
<rscale>  0 0.65464438E+02</rscale>
<asrwt>0</asrwt>
<pdfrwt beam="2">  1        2 0.32060321E-01 0.65464438E+02</pdfrwt>
<pdfrwt beam="1">  1       -2 0.79096327E-03 0.65464438E+02</pdfrwt>
<totfact> 0.37604059E+05</totfact>
</mgrwt>
</event>
<event>
 7    1  0.3056193E-009  0.9197103E+02  0.7818608E-02  0.1298148E+00
         -2   -1    0    0    0  501 -0.00000000000E+00  0.00000000000E+00  0.62969993425E+01  0.62969998588E+01  0.25500000000E-02 0.  1.
          2   -1    0    0  501    0  0.00000000000E+00 -0.00000000000E+00 -0.33582147540E+03  0.33582147541E+03  0.25500000000E-02 0. -1.
         23    2    1    2    0    0 -0.71054273576E-14  0.00000000000E+00 -0.32952447605E+03  0.34211847526E+03  0.91971032390E+02 0.  0.
    9000005    2    3    3    0    0  0.41732573515E+02  0.14629932877E+02 -0.20892384037E+03  0.21366554243E+03  0.69390428651E+01 0.  0.
         22    1    3    3    0    0 -0.41732573515E+02 -0.14629932877E+02 -0.12060063568E+03  0.12845293284E+03  0.00000000000E+00 0. -1.
         22    1    4    4    0    0  0.38023324335E+02  0.12194150169E+02 -0.17792503126E+03  0.18235072592E+03  0.00000000000E+00 0.  1.
         22    1    4    4    0    0  0.37092491800E+01  0.24357827087E+01 -0.30998809111E+02  0.31314816512E+02  0.00000000000E+00 0.  1.
<mgrwt>
<rscale>  0 0.91971032E+02</rscale>
<asrwt>0</asrwt>
<pdfrwt beam="2">  1        2 0.51664829E-01 0.91971032E+02</pdfrwt>
<pdfrwt beam="1">  1       -2 0.96876943E-03 0.91971032E+02</pdfrwt>
<totfact> 0.18304983E+05</totfact>
</mgrwt>
</event>
<event>
 7    1  0.3056193E-009  0.9106051E+02  0.7818608E-02  0.1300304E+00
          2   -1    0    0  501    0  0.00000000000E+00  0.00000000000E+00  0.96685953379E+01  0.96685956741E+01  0.25500000000E-02 0. -1.
         -2   -1    0    0    0  501 -0.00000000000E+00 -0.00000000000E+00 -0.21440593367E+03  0.21440593369E+03  0.25500000000E-02 0.  1.
         23    2    1    2    0    0  0.00000000000E+00  0.00000000000E+00 -0.20473733834E+03  0.22407452936E+03  0.91060512849E+02 0.  0.
    9000005    2    3    3    0    0  0.13245028562E+02  0.40912660331E+02 -0.13877944717E+03  0.14533622888E+03  0.36888899598E+01 0.  0.
         22    1    3    3    0    0 -0.13245028562E+02 -0.40912660331E+02 -0.65957891161E+02  0.78738300486E+02  0.00000000000E+00 0. -1.
         22    1    4    4    0    0  0.68619738158E+01  0.22969321352E+02 -0.83174954592E+02  0.86560669356E+02  0.00000000000E+00 0.  1.
         22    1    4    4    0    0  0.63830547465E+01  0.17943338979E+02 -0.55604492583E+02  0.58775559521E+02  0.00000000000E+00 0.  1.
<mgrwt>
<rscale>  0 0.91060513E+02</rscale>
<asrwt>0</asrwt>
<pdfrwt beam="1">  1        2 0.14874764E-02 0.91060513E+02</pdfrwt>
<pdfrwt beam="2">  1       -2 0.32985525E-01 0.91060513E+02</pdfrwt>
<totfact> 0.60628139E+04</totfact>
</mgrwt>
</event>
<event>
 7    1  0.3056193E-009  0.9207785E+02  0.7818608E-02  0.1297896E+00
          2   -1    0    0  501    0  0.00000000000E+00  0.00000000000E+00  0.32294171544E+02  0.32294171644E+02  0.25500000000E-02 0. -1.
         -2   -1    0    0    0  501 -0.00000000000E+00 -0.00000000000E+00 -0.65633594363E+02  0.65633594413E+02  0.25500000000E-02 0.  1.
         23    2    1    2    0    0  0.00000000000E+00  0.00000000000E+00 -0.33339422820E+02  0.97927766057E+02  0.92077848862E+02 0.  0.
    9000005    2    3    3    0    0  0.23554636018E+02  0.29909837797E+02  0.96718192391E+01  0.40487482123E+02  0.98118727208E+01 0.  0.
         22    1    3    3    0    0 -0.23554636018E+02 -0.29909837797E+02 -0.43011242059E+02  0.57440283934E+02  0.00000000000E+00 0.  1.
         22    1    4    4    0    0  0.29869457572E+01  0.86694415155E+01  0.53234172307E+01  0.10602821896E+02  0.00000000000E+00 0.  1.
         22    1    4    4    0    0  0.20567690261E+02  0.21240396281E+02  0.43484020084E+01  0.29884660227E+02  0.00000000000E+00 0.  1.
<mgrwt>
<rscale>  0 0.92077849E+02</rscale>
<asrwt>0</asrwt>
<pdfrwt beam="1">  1        2 0.49683341E-02 0.92077849E+02</pdfrwt>
<pdfrwt beam="2">  1       -2 0.10097476E-01 0.92077849E+02</pdfrwt>
<totfact> 0.87629392E+04</totfact>
</mgrwt>
</event>
<event>
 7    1  0.3056193E-009  0.9034026E+02  0.7818608E-02  0.1302030E+00
         -2   -1    0    0    0  501 -0.00000000000E+00  0.00000000000E+00  0.61310196100E+01  0.61310201403E+01  0.25500000000E-02 0. -1.
          2   -1    0    0  501    0  0.00000000000E+00 -0.00000000000E+00 -0.33278976364E+03  0.33278976365E+03  0.25500000000E-02 0.  1.
         23    2    1    2    0    0  0.71054273576E-14  0.00000000000E+00 -0.32665874403E+03  0.33892078379E+03  0.90340260315E+02 0.  0.
    9000005    2    3    3    0    0  0.32002229169E+02 -0.84276491166E+01 -0.27817000974E+03  0.28021537267E+03  0.68507534303E+01 0.  0.
         22    1    3    3    0    0 -0.32002229169E+02  0.84276491166E+01 -0.48488734298E+02  0.58705411124E+02  0.00000000000E+00 0. -1.
         22    1    4    4    0    0  0.30165514666E+02 -0.69763886216E+01 -0.24248784562E+03  0.24445650645E+03  0.00000000000E+00 0.  1.
         22    1    4    4    0    0  0.18367145036E+01 -0.14512604951E+01 -0.35682164120E+02  0.35758866222E+02  0.00000000000E+00 0.  1.
<mgrwt>
<rscale>  0 0.90340260E+02</rscale>
<asrwt>0</asrwt>
<pdfrwt beam="2">  1        2 0.51198411E-01 0.90340260E+02</pdfrwt>
<pdfrwt beam="1">  1       -2 0.94323409E-03 0.90340260E+02</pdfrwt>
<totfact> 0.19134094E+05</totfact>
</mgrwt>
</event>
<event>
 7    1  0.3056193E-009  0.1179360E+03  0.7818608E-02  0.1246541E+00
         -2   -1    0    0    0  501 -0.00000000000E+00  0.00000000000E+00  0.60885130125E+02  0.60885130178E+02  0.25500000000E-02 0.  1.
          2   -1    0    0  501    0  0.00000000000E+00 -0.00000000000E+00 -0.57111219823E+02  0.57111219880E+02  0.25500000000E-02 0. -1.
         23    2    1    2    0    0 -0.35527136788E-14  0.17763568394E-14  0.37739103014E+01  0.11799635006E+03  0.11793598360E+03 0.  0.
    9000005    2    3    3    0    0  0.26014771517E+02 -0.14091351278E+02  0.51768939992E+02  0.61614993273E+02  0.15525776317E+02 0.  0.
         22    1    3    3    0    0 -0.26014771517E+02  0.14091351278E+02 -0.47995029691E+02  0.56381356785E+02  0.00000000000E+00 0. -1.
         22    1    4    4    0    0  0.23538657163E+02 -0.62925553493E+01  0.44188847165E+02  0.50461062689E+02  0.00000000000E+00 0. -1.
         22    1    4    4    0    0  0.24761143541E+01 -0.77987959283E+01  0.75800928266E+01  0.11153930585E+02  0.00000000000E+00 0. -1.
<mgrwt>
<rscale>  0 0.11793598E+03</rscale>
<asrwt>0</asrwt>
<pdfrwt beam="2">  1        2 0.87863415E-02 0.11793598E+03</pdfrwt>
<pdfrwt beam="1">  1       -2 0.93669431E-02 0.11793598E+03</pdfrwt>
<totfact> 0.49579280E+04</totfact>
</mgrwt>
</event>
<event>
 7    1  0.3056193E-009  0.9126175E+02  0.7818608E-02  0.1299825E+00
          2   -1    0    0  501    0  0.00000000000E+00  0.00000000000E+00  0.29184972106E+03  0.29184972107E+03  0.25500000000E-02 0. -1.
         -2   -1    0    0    0  501 -0.00000000000E+00 -0.00000000000E+00 -0.71344130449E+01  0.71344135006E+01  0.25500000000E-02 0.  1.
         23    2    1    2    0    0  0.00000000000E+00  0.00000000000E+00  0.28471530801E+03  0.29898413457E+03  0.91261745038E+02 0.  0.
    9000005    2    3    3    0    0 -0.39272833772E+02 -0.18577501997E+02  0.11248647843E+03  0.12136023755E+03  0.13697458728E+02 0.  0.
         22    1    3    3    0    0  0.39272833772E+02  0.18577501997E+02  0.17222882958E+03  0.17762389702E+03  0.00000000000E+00 0. -1.
         22    1    4    4    0    0 -0.27970222834E+02 -0.62218005826E+01  0.75706455749E+02  0.80947585572E+02  0.00000000000E+00 0.  1.
         22    1    4    4    0    0 -0.11302610938E+02 -0.12355701414E+02  0.36780022680E+02  0.40412651977E+02  0.00000000000E+00 0.  1.
<mgrwt>
<rscale>  0 0.91261745E+02</rscale>
<asrwt>0</asrwt>
<pdfrwt beam="1">  1        2 0.44899958E-01 0.91261745E+02</pdfrwt>
<pdfrwt beam="2">  1       -2 0.10976020E-02 0.91261745E+02</pdfrwt>
<totfact> 0.17738403E+05</totfact>
</mgrwt>
</event>
<event>
 7    1  0.3056193E-009  0.9289216E+02  0.7818608E-02  0.1295995E+00
         -2   -1    0    0    0  501 -0.00000000000E+00  0.00000000000E+00  0.70732076217E+01  0.70732080813E+01  0.25500000000E-02 0.  1.
          2   -1    0    0  501    0  0.00000000000E+00 -0.00000000000E+00 -0.30498730110E+03  0.30498730111E+03  0.25500000000E-02 0. -1.
         23    2    1    2    0    0  0.35527136788E-14  0.00000000000E+00 -0.29791409348E+03  0.31206050919E+03  0.92892164923E+02 0.  0.
    9000005    2    3    3    0    0 -0.29784905336E+02 -0.32406562966E+02 -0.10004976313E+03  0.10935969732E+03  0.35017690527E+01 0.  0.
         22    1    3    3    0    0  0.29784905336E+02  0.32406562966E+02 -0.19786433035E+03  0.20270081187E+03  0.00000000000E+00 0. -1.
         22    1    4    4    0    0 -0.13097969377E+02 -0.16579885164E+02 -0.46028358178E+02  0.50646413006E+02  0.00000000000E+00 0. -1.
         22    1    4    4    0    0 -0.16686935960E+02 -0.15826677802E+02 -0.54021404952E+02  0.58713284315E+02  0.00000000000E+00 0. -1.
<mgrwt>
<rscale>  0 0.92892165E+02</rscale>
<asrwt>0</asrwt>
<pdfrwt beam="2">  1        2 0.46921113E-01 0.92892165E+02</pdfrwt>
<pdfrwt beam="1">  1       -2 0.10881861E-02 0.92892165E+02</pdfrwt>
<totfact> 0.17198485E+05</totfact>
</mgrwt>
</event>
<event>
 7    1  0.3056193E-009  0.9264860E+02  0.7818608E-02  0.1296562E+00
         -2   -1    0    0    0  501 -0.00000000000E+00  0.00000000000E+00  0.12503197439E+02  0.12503197699E+02  0.25500000000E-02 0.  1.
          2   -1    0    0  501    0  0.00000000000E+00 -0.00000000000E+00 -0.17163134096E+03  0.17163134098E+03  0.25500000000E-02 0. -1.
         23    2    1    2    0    0  0.71054273576E-14  0.00000000000E+00 -0.15912814352E+03  0.18413453868E+03  0.92648595641E+02 0.  0.
    9000005    2    3    3    0    0 -0.40302387866E+02 -0.78837611964E+01 -0.38710793774E+02  0.56907284215E+02  0.73128164096E+01 0.  0.
         22    1    3    3    0    0  0.40302387866E+02  0.78837611964E+01 -0.12041734975E+03  0.12722725447E+03  0.00000000000E+00 0. -1.
         22    1    4    4    0    0 -0.36110132363E+02 -0.76232287845E+01 -0.37310205653E+02  0.52479583861E+02  0.00000000000E+00 0.  1.
         22    1    4    4    0    0 -0.41922555032E+01 -0.26053241183E+00 -0.14005881209E+01  0.44277003542E+01  0.00000000000E+00 0.  1.
<mgrwt>
<rscale>  0 0.92648596E+02</rscale>
<asrwt>0</asrwt>
<pdfrwt beam="2">  1        2 0.26404820E-01 0.92648596E+02</pdfrwt>
<pdfrwt beam="1">  1       -2 0.19235690E-02 0.92648596E+02</pdfrwt>
<totfact> 0.14025153E+05</totfact>
</mgrwt>
</event>
<event>
 6    1  0.3230683E-009  0.1851872E+03  0.7818608E-02  0.1162875E+00
         -2   -1    0    0    0  501 -0.00000000000E+00  0.00000000000E+00  0.99803275306E+01  0.99803278564E+01  0.25500000000E-02 0.  1.
          2   -1    0    0  501    0  0.00000000000E+00 -0.00000000000E+00 -0.85904778598E+03  0.85904778598E+03  0.25500000000E-02 0. -1.
    9000005    2    1    2    0    0 -0.83571444711E+02 -0.32792826021E+02 -0.52111610687E+03  0.52901098954E+03  0.15201131968E+02 0.  0.
         22    1    1    2    0    0  0.83571444711E+02  0.32792826021E+02 -0.32795135158E+03  0.34001712430E+03  0.00000000000E+00 0.  1.
         22    1    3    3    0    0 -0.18628226642E+02 -0.11464161769E+01 -0.11958370047E+03  0.12103134518E+03  0.00000000000E+00 0.  1.
         22    1    3    3    0    0 -0.64943218070E+02 -0.31646409844E+02 -0.40153240640E+03  0.40797964437E+03  0.00000000000E+00 0.  1.
<mgrwt>
<rscale>  0 0.18518724E+03</rscale>
<asrwt>0</asrwt>
<pdfrwt beam="2">  1        2 0.13216114E+00 0.18518724E+03</pdfrwt>
<pdfrwt beam="1">  1       -2 0.15354357E-02 0.18518724E+03</pdfrwt>
<totfact> 0.35669336E+04</totfact>
</mgrwt>
</event>
<event>
 7    1  0.3056193E-009  0.9671160E+02  0.7818608E-02  0.1287367E+00
         -2   -1    0    0    0  501 -0.00000000000E+00  0.00000000000E+00  0.25359121512E+03  0.25359121514E+03  0.25500000000E-02 0.  1.
          2   -1    0    0  501    0  0.00000000000E+00 -0.00000000000E+00 -0.92206796547E+01  0.92206800073E+01  0.25500000000E-02 0. -1.
         23    2    1    2    0    0 -0.17763568394E-14  0.71054273576E-14  0.24437053547E+03  0.26281189514E+03  0.96711600254E+02 0.  0.
    9000005    2    3    3    0    0 -0.15321396369E+02  0.38618659130E+02  0.18820207956E+03  0.19294744454E+03  0.90855699757E+01 0.  0.
         22    1    3    3    0    0  0.15321396369E+02 -0.38618659130E+02  0.56168455903E+02  0.69864450604E+02  0.00000000000E+00 0. -1.
         22    1    4    4    0    0 -0.21096002827E+01  0.10708054331E+02  0.34917394940E+02  0.36583292776E+02  0.00000000000E+00 0. -1.
         22    1    4    4    0    0 -0.13211796086E+02  0.27910604799E+02  0.15328468462E+03  0.15636415176E+03  0.00000000000E+00 0. -1.
<mgrwt>
<rscale>  0 0.96711600E+02</rscale>
<asrwt>0</asrwt>
<pdfrwt beam="2">  1        2 0.14185660E-02 0.96711600E+02</pdfrwt>
<pdfrwt beam="1">  1       -2 0.39014036E-01 0.96711600E+02</pdfrwt>
<totfact> 0.47932461E+04</totfact>
</mgrwt>
</event>
<event>
 7    1  0.3056193E-009  0.1260190E+03  0.7818608E-02  0.1233485E+00
          2   -1    0    0  501    0  0.00000000000E+00  0.00000000000E+00  0.15627028946E+04  0.15627028946E+04  0.25500000000E-02 0. -1.
         -2   -1    0    0    0  501 -0.00000000000E+00 -0.00000000000E+00 -0.25405974908E+01  0.25405987706E+01  0.25500000000E-02 0.  1.
         23    2    1    2    0    0  0.00000000000E+00  0.00000000000E+00  0.15601622971E+04  0.15652434934E+04  0.12601904707E+03 0.  0.
    9000005    2    3    3    0    0 -0.22151820339E+02  0.16650373680E+02  0.14821531654E+04  0.14824584541E+04  0.11710017605E+02 0.  0.
         22    1    3    3    0    0  0.22151820339E+02 -0.16650373680E+02  0.78009131746E+02  0.82785039251E+02  0.00000000000E+00 0.  1.
         22    1    4    4    0    0 -0.81507407681E+01  0.50710500109E+01  0.81960202238E+03  0.81965823684E+03  0.00000000000E+00 0.  1.
         22    1    4    4    0    0 -0.14001079571E+02  0.11579323669E+02  0.66255114298E+03  0.66280021728E+03  0.00000000000E+00 0.  1.
<mgrwt>
<rscale>  0 0.12601905E+03</rscale>
<asrwt>0</asrwt>
<pdfrwt beam="1">  1        2 0.24041517E+00 0.12601905E+03</pdfrwt>
<pdfrwt beam="2">  1       -2 0.39086232E-03 0.12601905E+03</pdfrwt>
<totfact> 0.97584564E+04</totfact>
</mgrwt>
</event>
<event>
 7    1  0.4390438E-009  0.9082862E+02  0.7818608E-02  0.1300857E+00
         -2   -1    0    0    0  501 -0.00000000000E+00  0.00000000000E+00  0.24169195771E+01  0.24169209223E+01  0.25500000000E-02 0.  1.
          2   -1    0    0  501    0  0.00000000000E+00 -0.00000000000E+00 -0.85334200011E+03  0.85334200012E+03  0.25500000000E-02 0. -1.
         23    2    1    2    0    0 -0.17763568394E-14  0.00000000000E+00 -0.85092508053E+03  0.85575892104E+03  0.90828620230E+02 0.  0.
    9000005    2    3    3    0    0  0.12171531867E+02 -0.18988582294E+02 -0.79467491079E+03  0.79515533994E+03  0.15971485567E+02 0.  0.
         22    1    3    3    0    0 -0.12171531867E+02  0.18988582294E+02 -0.56250169746E+02  0.60603581098E+02  0.00000000000E+00 0.  1.
         22    1    4    4    0    0 -0.15869963765E+01 -0.11866707323E+02 -0.30310752656E+03  0.30334388070E+03  0.00000000000E+00 0.  1.
         22    1    4    4    0    0  0.13758528243E+02 -0.71218749715E+01 -0.49156738423E+03  0.49181145924E+03  0.00000000000E+00 0.  1.
<mgrwt>
<rscale>  0 0.90828620E+02</rscale>
<asrwt>0</asrwt>
<pdfrwt beam="2">  1        2 0.13128314E+00 0.90828620E+02</pdfrwt>
<pdfrwt beam="1">  1       -2 0.37183457E-03 0.90828620E+02</pdfrwt>
<totfact> 0.24875556E+05</totfact>
</mgrwt>
</event>
<event>
 7    1  0.3056193E-009  0.9106743E+02  0.7818608E-02  0.1300287E+00
          2   -1    0    0  501    0  0.00000000000E+00  0.00000000000E+00  0.73272309922E+03  0.73272309922E+03  0.25500000000E-02 0. -1.
         -2   -1    0    0    0  501 -0.00000000000E+00 -0.00000000000E+00 -0.28296074773E+01  0.28296086263E+01  0.25500000000E-02 0.  1.
         23    2    1    2    0    0  0.00000000000E+00 -0.17763568394E-14  0.72989349174E+03  0.73555270785E+03  0.91067429623E+02 0.  0.
    9000005    2    3    3    0    0 -0.37231798987E+02  0.12678790481E+02  0.53974081440E+03  0.54137495608E+03  0.14823553989E+02 0.  0.
         22    1    3    3    0    0  0.37231798987E+02 -0.12678790481E+02  0.19015267734E+03  0.19417775177E+03  0.00000000000E+00 0.  1.
         22    1    4    4    0    0 -0.14773288612E+02  0.99330514382E+00  0.28353763959E+03  0.28392398591E+03  0.00000000000E+00 0.  1.
         22    1    4    4    0    0 -0.22458510375E+02  0.11685485337E+02  0.25620317482E+03  0.25745097017E+03  0.00000000000E+00 0.  1.
<mgrwt>
<rscale>  0 0.91067430E+02</rscale>
<asrwt>0</asrwt>
<pdfrwt beam="1">  1        2 0.11272668E+00 0.91067430E+02</pdfrwt>
<pdfrwt beam="2">  1       -2 0.43532413E-03 0.91067430E+02</pdfrwt>
<totfact> 0.24034276E+05</totfact>
</mgrwt>
</event>
<event>
 7    1  0.3056193E-009  0.1238067E+03  0.7818608E-02  0.1236946E+00
          2   -1    0    0  501    0  0.00000000000E+00  0.00000000000E+00  0.84903099363E+02  0.84903099401E+02  0.25500000000E-02 0. -1.
         -2   -1    0    0    0  501 -0.00000000000E+00 -0.00000000000E+00 -0.45134128662E+02  0.45134128734E+02  0.25500000000E-02 0.  1.
         23    2    1    2    0    0  0.00000000000E+00 -0.35527136788E-14  0.39768970701E+02  0.13003722813E+03  0.12380674323E+03 0.  0.
    9000005    2    3    3    0    0  0.45559434175E+02 -0.25099270096E+02  0.55082084181E+02  0.75814291603E+02  0.28522643220E+01 0.  0.
         22    1    3    3    0    0 -0.45559434175E+02  0.25099270096E+02 -0.15313113480E+02  0.54222936532E+02  0.00000000000E+00 0. -1.
         22    1    4    4    0    0  0.11387838802E+02 -0.53114639831E+01  0.12034200055E+02  0.17398749760E+02  0.00000000000E+00 0. -1.
         22    1    4    4    0    0  0.34171595373E+02 -0.19787806113E+02  0.43047884126E+02  0.58415541843E+02  0.00000000000E+00 0. -1.
<mgrwt>
<rscale>  0 0.12380674E+03</rscale>
<asrwt>0</asrwt>
<pdfrwt beam="1">  1        2 0.13062015E-01 0.12380674E+03</pdfrwt>
<pdfrwt beam="2">  1       -2 0.69437122E-02 0.12380674E+03</pdfrwt>
<totfact> 0.48911876E+04</totfact>
</mgrwt>
</event>
<event>
 7    1  0.3056193E-009  0.9065715E+02  0.7818608E-02  0.1301268E+00
          2   -1    0    0  501    0  0.00000000000E+00  0.00000000000E+00  0.20734136393E+03  0.20734136395E+03  0.25500000000E-02 0. -1.
         -2   -1    0    0    0  501 -0.00000000000E+00 -0.00000000000E+00 -0.99096470314E+01  0.99096473595E+01  0.25500000000E-02 0.  1.
         23    2    1    2    0    0  0.71054273576E-14  0.00000000000E+00  0.19743171690E+03  0.21725101131E+03  0.90657151267E+02 0.  0.
    9000005    2    3    3    0    0  0.34269303925E+02  0.19956376625E+02  0.14942031400E+03  0.15497953334E+03  0.10935417671E+02 0.  0.
         22    1    3    3    0    0 -0.34269303925E+02 -0.19956376625E+02  0.48011402902E+02  0.62271477966E+02  0.00000000000E+00 0. -1.
         22    1    4    4    0    0  0.18584813098E+02  0.59726149557E+01  0.85246759741E+02  0.87453287266E+02  0.00000000000E+00 0.  1.
         22    1    4    4    0    0  0.15684490827E+02  0.13983761669E+02  0.64173554260E+02  0.67526246077E+02  0.00000000000E+00 0.  1.
<mgrwt>
<rscale>  0 0.90657151E+02</rscale>
<asrwt>0</asrwt>
<pdfrwt beam="1">  1        2 0.31898670E-01 0.90657151E+02</pdfrwt>
<pdfrwt beam="2">  1       -2 0.15245612E-02 0.90657151E+02</pdfrwt>
<totfact> 0.15914119E+05</totfact>
</mgrwt>
</event>
<event>
 7    1  0.3056193E-009  0.9221264E+02  0.7818608E-02  0.1297580E+00
          2   -1    0    0  501    0  0.00000000000E+00  0.00000000000E+00  0.96608051563E+03  0.96608051564E+03  0.25500000000E-02 0. -1.
         -2   -1    0    0    0  501 -0.00000000000E+00 -0.00000000000E+00 -0.22004292699E+01  0.22004307474E+01  0.25500000000E-02 0.  1.
         23    2    1    2    0    0 -0.35527136788E-14  0.00000000000E+00  0.96388008636E+03  0.96828094638E+03  0.92212636024E+02 0.  0.
    9000005    2    3    3    0    0 -0.30398411776E+02 -0.13843519151E+02  0.81108984925E+03  0.81188221551E+03  0.13049208717E+02 0.  0.
         22    1    3    3    0    0  0.30398411776E+02  0.13843519151E+02  0.15279023711E+03  0.15639873087E+03  0.00000000000E+00 0.  1.
         22    1    4    4    0    0 -0.16942303681E+01 -0.11135361707E+00  0.88402101842E+01  0.90017849491E+01  0.00000000000E+00 0. -1.
         22    1    4    4    0    0 -0.28704181408E+02 -0.13732165534E+02  0.80224963907E+03  0.80288043056E+03  0.00000000000E+00 0. -1.
<mgrwt>
<rscale>  0 0.92212636E+02</rscale>
<asrwt>0</asrwt>
<pdfrwt beam="1">  1        2 0.14862808E+00 0.92212636E+02</pdfrwt>
<pdfrwt beam="2">  1       -2 0.33852699E-03 0.92212636E+02</pdfrwt>
<totfact> 0.24221714E+05</totfact>
</mgrwt>
</event>
<event>
 7    1  0.3056193E-009  0.1085195E+03  0.7818608E-02  0.1263336E+00
          2   -1    0    0  501    0  0.00000000000E+00  0.00000000000E+00  0.13800768403E+02  0.13800768639E+02  0.25500000000E-02 0. -1.
         -2   -1    0    0    0  501 -0.00000000000E+00 -0.00000000000E+00 -0.21333012416E+03  0.21333012417E+03  0.25500000000E-02 0.  1.
         23    2    1    2    0    0  0.00000000000E+00  0.35527136788E-14 -0.19952935575E+03  0.22713089281E+03  0.10851948517E+03 0.  0.
    9000005    2    3    3    0    0 -0.16226172391E+02  0.29705965549E+02 -0.16095611286E+02  0.40600274228E+02  0.15607065869E+02 0.  0.
         22    1    3    3    0    0  0.16226172391E+02 -0.29705965549E+02 -0.18343374447E+03  0.18653061858E+03  0.00000000000E+00 0.  1.
         22    1    4    4    0    0 -0.17660829025E+02  0.30524404312E+02 -0.14025682842E+02  0.37952126681E+02  0.00000000000E+00 0. -1.
         22    1    4    4    0    0  0.14346566342E+01 -0.81843876243E+00 -0.20699284438E+01  0.26481475465E+01  0.00000000000E+00 0. -1.
<mgrwt>
<rscale>  0 0.10851949E+03</rscale>
<asrwt>0</asrwt>
<pdfrwt beam="1">  1        2 0.21231953E-02 0.10851949E+03</pdfrwt>
<pdfrwt beam="2">  1       -2 0.32820017E-01 0.10851949E+03</pdfrwt>
<totfact> 0.38757882E+04</totfact>
</mgrwt>
</event>
<event>
 7    1  0.3056193E-009  0.9083194E+02  0.7818608E-02  0.1300849E+00
         -2   -1    0    0    0  501 -0.00000000000E+00  0.00000000000E+00  0.65752929953E+01  0.65752934897E+01  0.25500000000E-02 0.  1.
          2   -1    0    0  501    0  0.00000000000E+00 -0.00000000000E+00 -0.31369099218E+03  0.31369099219E+03  0.25500000000E-02 0. -1.
         23    2    1    2    0    0  0.00000000000E+00  0.35527136788E-14 -0.30711569919E+03  0.32026628568E+03  0.90831938533E+02 0.  0.
    9000005    2    3    3    0    0  0.20912165590E+02  0.29309842045E+02 -0.24975520541E+03  0.25254175721E+03  0.10163217750E+02 0.  0.
         22    1    3    3    0    0 -0.20912165590E+02 -0.29309842045E+02 -0.57360493771E+02  0.67724528467E+02  0.00000000000E+00 0.  1.
         22    1    4    4    0    0  0.68685936167E+01  0.11188129053E+02 -0.12589011289E+03  0.12657279460E+03  0.00000000000E+00 0.  1.
         22    1    4    4    0    0  0.14043571973E+02  0.18121712991E+02 -0.12386509253E+03  0.12596896261E+03  0.00000000000E+00 0.  1.
<mgrwt>
<rscale>  0 0.90831939E+02</rscale>
<asrwt>0</asrwt>
<pdfrwt beam="2">  1        2 0.48260141E-01 0.90831939E+02</pdfrwt>
<pdfrwt beam="1">  1       -2 0.10115838E-02 0.90831939E+02</pdfrwt>
<totfact> 0.18452051E+05</totfact>
</mgrwt>
</event>
<event>
 7    1  0.3056193E-009  0.9010196E+02  0.7818608E-02  0.1302605E+00
          2   -1    0    0  501    0  0.00000000000E+00  0.00000000000E+00  0.28514865378E+02  0.28514865492E+02  0.25500000000E-02 0. -1.
         -2   -1    0    0    0  501 -0.00000000000E+00 -0.00000000000E+00 -0.71176579562E+02  0.71176579608E+02  0.25500000000E-02 0.  1.
         23    2    1    2    0    0  0.00000000000E+00  0.00000000000E+00 -0.42661714184E+02  0.99691445100E+02  0.90101955411E+02 0.  0.
    9000005    2    3    3    0    0  0.35517098240E+02  0.26101759726E+02 -0.30043630054E+02  0.53844065945E+02  0.73346848950E+01 0.  0.
         22    1    3    3    0    0 -0.35517098240E+02 -0.26101759726E+02 -0.12618084130E+02  0.45847379154E+02  0.00000000000E+00 0. -1.
         22    1    4    4    0    0  0.20602941579E+02  0.14682943628E+02 -0.21532303870E+02  0.33222133363E+02  0.00000000000E+00 0.  1.
         22    1    4    4    0    0  0.14914156662E+02  0.11418816098E+02 -0.85113261846E+01  0.20621932582E+02  0.00000000000E+00 0.  1.
<mgrwt>
<rscale>  0 0.90101955E+02</rscale>
<asrwt>0</asrwt>
<pdfrwt beam="1">  1        2 0.43869024E-02 0.90101955E+02</pdfrwt>
<pdfrwt beam="2">  1       -2 0.10950243E-01 0.90101955E+02</pdfrwt>
<totfact> 0.90402992E+04</totfact>
</mgrwt>
</event>
<event>
 7    1  0.3056193E-009  0.1167997E+03  0.7818608E-02  0.1248472E+00
          2   -1    0    0  501    0  0.00000000000E+00  0.00000000000E+00  0.25270308580E+03  0.25270308581E+03  0.25500000000E-02 0.  1.
         -2   -1    0    0    0  501 -0.00000000000E+00 -0.00000000000E+00 -0.13496247886E+02  0.13496248127E+02  0.25500000000E-02 0. -1.
         23    2    1    2    0    0  0.44408920985E-15  0.71054273576E-14  0.23920683792E+03  0.26619933394E+03  0.11679971783E+03 0.  0.
    9000005    2    3    3    0    0  0.26572810624E+01 -0.40668034954E+02  0.29749872610E+02  0.52814305122E+02  0.15599541517E+02 0.  0.
         22    1    3    3    0    0 -0.26572810624E+01  0.40668034954E+02  0.20945696531E+03  0.21338502882E+03  0.00000000000E+00 0.  1.
         22    1    4    4    0    0 -0.51626779039E+01 -0.14205064774E+02  0.15907449387E+02  0.21942744915E+02  0.00000000000E+00 0.  1.
         22    1    4    4    0    0  0.78199589663E+01 -0.26462970179E+02  0.13842423223E+02  0.30871560207E+02  0.00000000000E+00 0.  1.
<mgrwt>
<rscale>  0 0.11679972E+03</rscale>
<asrwt>0</asrwt>
<pdfrwt beam="1">  1        2 0.38877394E-01 0.11679972E+03</pdfrwt>
<pdfrwt beam="2">  1       -2 0.20763461E-02 0.11679972E+03</pdfrwt>
<totfact> 0.85972281E+04</totfact>
</mgrwt>
</event>
<event>
 7    1  0.3056193E-009  0.8373966E+02  0.7818608E-02  0.1318762E+00
         -2   -1    0    0    0  501 -0.00000000000E+00  0.00000000000E+00  0.45602662160E+01  0.45602669289E+01  0.25500000000E-02 0.  1.
          2   -1    0    0  501    0  0.00000000000E+00 -0.00000000000E+00 -0.38442549743E+03  0.38442549744E+03  0.25500000000E-02 0. -1.
         23    2    1    2    0    0  0.00000000000E+00  0.00000000000E+00 -0.37986523122E+03  0.38898576437E+03  0.83739662020E+02 0.  0.
    9000005    2    3    3    0    0  0.95584298036E+01 -0.18786355938E+02 -0.35675957110E+03  0.35771017838E+03  0.15326101702E+02 0.  0.
         22    1    3    3    0    0 -0.95584298036E+01  0.18786355938E+02 -0.23105660114E+02  0.31275585990E+02  0.00000000000E+00 0.  1.
         22    1    4    4    0    0  0.11582562230E+01  0.14894668845E+01 -0.66250853573E+01  0.68885285127E+01  0.00000000000E+00 0.  1.
         22    1    4    4    0    0  0.84001735806E+01 -0.20275822822E+02 -0.35013448574E+03  0.35082164987E+03  0.00000000000E+00 0.  1.
<mgrwt>
<rscale>  0 0.83739662E+02</rscale>
<asrwt>0</asrwt>
<pdfrwt beam="2">  1        2 0.59142359E-01 0.83739662E+02</pdfrwt>
<pdfrwt beam="1">  1       -2 0.70157977E-03 0.83739662E+02</pdfrwt>
<totfact> 0.24643381E+05</totfact>
</mgrwt>
</event>
<event>
 7    1  0.3056193E-009  0.8919652E+02  0.7818608E-02  0.1304809E+00
         -2   -1    0    0    0  501 -0.00000000000E+00  0.00000000000E+00  0.23377674030E+02  0.23377674169E+02  0.25500000000E-02 0.  1.
          2   -1    0    0  501    0  0.00000000000E+00 -0.00000000000E+00 -0.85081379059E+02  0.85081379097E+02  0.25500000000E-02 0. -1.
         23    2    1    2    0    0 -0.17763568394E-14  0.00000000000E+00 -0.61703705029E+02  0.10845905327E+03  0.89196519108E+02 0.  0.
    9000005    2    3    3    0    0 -0.81502837405E+01 -0.30748186029E+02 -0.67435509825E+02  0.76136744323E+02  0.15407069208E+02 0.  0.
         22    1    3    3    0    0  0.81502837405E+01  0.30748186029E+02  0.57318047961E+01  0.32322308942E+02  0.00000000000E+00 0.  1.
         22    1    4    4    0    0 -0.28440000959E+01 -0.14970656039E+02 -0.48921479004E+02  0.51239828129E+02  0.00000000000E+00 0.  1.
         22    1    4    4    0    0 -0.53062836445E+01 -0.15777529991E+02 -0.18514030822E+02  0.24896916194E+02  0.00000000000E+00 0.  1.
<mgrwt>
<rscale>  0 0.89196519E+02</rscale>
<asrwt>0</asrwt>
<pdfrwt beam="2">  1        2 0.13089443E-01 0.89196519E+02</pdfrwt>
<pdfrwt beam="1">  1       -2 0.35965653E-02 0.89196519E+02</pdfrwt>
<totfact> 0.12423187E+05</totfact>
</mgrwt>
</event>
<event>
 7    1  0.3056193E-009  0.9174168E+02  0.7818608E-02  0.1298688E+00
         -2   -1    0    0    0  501 -0.00000000000E+00  0.00000000000E+00  0.50569556158E+01  0.50569562588E+01  0.25500000000E-02 0.  1.
          2   -1    0    0  501    0  0.00000000000E+00 -0.00000000000E+00 -0.41608709167E+03  0.41608709168E+03  0.25500000000E-02 0. -1.
         23    2    1    2    0    0  0.00000000000E+00  0.00000000000E+00 -0.41103013605E+03  0.42114404794E+03  0.91741682826E+02 0.  0.
    9000005    2    3    3    0    0 -0.27843156595E+02 -0.15211232709E+02 -0.35730288249E+03  0.35874820877E+03  0.53201965148E+01 0.  0.
         22    1    3    3    0    0  0.27843156595E+02  0.15211232709E+02 -0.53727253567E+02  0.62395839168E+02  0.00000000000E+00 0.  1.
         22    1    4    4    0    0 -0.27429854904E+02 -0.13811515067E+02 -0.34108680008E+03  0.34246658243E+03  0.00000000000E+00 0. -1.
         22    1    4    4    0    0 -0.41330169090E+00 -0.13997176419E+01 -0.16216082407E+02  0.16281626343E+02  0.00000000000E+00 0. -1.
<mgrwt>
<rscale>  0 0.91741683E+02</rscale>
<asrwt>0</asrwt>
<pdfrwt beam="2">  1        2 0.64013372E-01 0.91741683E+02</pdfrwt>
<pdfrwt beam="1">  1       -2 0.77799355E-03 0.91741683E+02</pdfrwt>
<totfact> 0.19914870E+05</totfact>
</mgrwt>
</event>
<event>
 7    1  0.3130216E-009  0.8989360E+02  0.7818608E-02  0.1303110E+00
          2   -1    0    0  501    0  0.00000000000E+00  0.00000000000E+00  0.25385271319E+03  0.25385271320E+03  0.25500000000E-02 0. -1.
         -2   -1    0    0    0  501 -0.00000000000E+00 -0.00000000000E+00 -0.79582153442E+01  0.79582157528E+01  0.25500000000E-02 0.  1.
         23    2    1    2    0    0  0.00000000000E+00 -0.35527136788E-14  0.24589449785E+03  0.26181092896E+03  0.89893595154E+02 0.  0.
    9000005    2    3    3    0    0  0.15711729275E+02 -0.25554096705E+02  0.21880598420E+03  0.22139239525E+03  0.15448742963E+02 0.  0.
         22    1    3    3    0    0 -0.15711729275E+02  0.25554096705E+02  0.27088513650E+02  0.40418533706E+02  0.00000000000E+00 0.  1.
         22    1    4    4    0    0  0.62014932927E+01 -0.18404461881E+02  0.91890378738E+02  0.93920308990E+02  0.00000000000E+00 0. -1.
         22    1    4    4    0    0  0.95102359822E+01 -0.71496348235E+01  0.12691560546E+03  0.12747208626E+03  0.00000000000E+00 0. -1.
<mgrwt>
<rscale>  0 0.89893595E+02</rscale>
<asrwt>0</asrwt>
<pdfrwt beam="1">  1        2 0.39054257E-01 0.89893595E+02</pdfrwt>
<pdfrwt beam="2">  1       -2 0.12243411E-02 0.89893595E+02</pdfrwt>
<totfact> 0.17533351E+05</totfact>
</mgrwt>
</event>
<event>
 7    1  0.3056193E-009  0.9026997E+02  0.7818608E-02  0.1302199E+00
          2   -1    0    0  501    0  0.00000000000E+00  0.00000000000E+00  0.24051188145E+02  0.24051188280E+02  0.25500000000E-02 0. -1.
         -2   -1    0    0    0  501 -0.00000000000E+00 -0.00000000000E+00 -0.84701290417E+02  0.84701290455E+02  0.25500000000E-02 0.  1.
         23    2    1    2    0    0  0.35527136788E-14  0.00000000000E+00 -0.60650102272E+02  0.10875247874E+03  0.90269965800E+02 0.  0.
    9000005    2    3    3    0    0 -0.31308396720E+02 -0.11755858834E+02 -0.66690303324E+02  0.74768659779E+02  0.49335591298E+01 0.  0.
         22    1    3    3    0    0  0.31308396720E+02  0.11755858834E+02  0.60402010523E+01  0.33983818956E+02  0.00000000000E+00 0. -1.
         22    1    4    4    0    0 -0.18504096335E+02 -0.58768333865E+01 -0.43461386558E+02  0.47600744463E+02  0.00000000000E+00 0. -1.
         22    1    4    4    0    0 -0.12804300385E+02 -0.58790254472E+01 -0.23228916765E+02  0.27167915317E+02  0.00000000000E+00 0. -1.
<mgrwt>
<rscale>  0 0.90269966E+02</rscale>
<asrwt>0</asrwt>
<pdfrwt beam="1">  1        2 0.37001828E-02 0.90269966E+02</pdfrwt>
<pdfrwt beam="2">  1       -2 0.13030968E-01 0.90269966E+02</pdfrwt>
<totfact> 0.85824161E+04</totfact>
</mgrwt>
</event>
<event>
 7    1  0.3056193E-009  0.9184742E+02  0.7818608E-02  0.1298439E+00
         -2   -1    0    0    0  501 -0.00000000000E+00  0.00000000000E+00  0.54903907427E+02  0.54903907486E+02  0.25500000000E-02 0.  1.
          2   -1    0    0  501    0  0.00000000000E+00 -0.00000000000E+00 -0.38412333132E+02  0.38412333217E+02  0.25500000000E-02 0. -1.
         23    2    1    2    0    0  0.00000000000E+00  0.44408920985E-15  0.16491574295E+02  0.93316240703E+02  0.91847421065E+02 0.  0.
    9000005    2    3    3    0    0  0.21554791054E+02  0.10882066686E+01 -0.31988451598E+02  0.40249244164E+02  0.11443225464E+02 0.  0.
         22    1    3    3    0    0 -0.21554791054E+02 -0.10882066686E+01  0.48480025893E+02  0.53066996539E+02  0.00000000000E+00 0.  1.
         22    1    4    4    0    0  0.12373123365E+02 -0.40276289992E+01 -0.22971060103E+02  0.26400484454E+02  0.00000000000E+00 0.  1.
         22    1    4    4    0    0  0.91816676891E+01  0.51158356678E+01 -0.90173914944E+01  0.13848759710E+02  0.00000000000E+00 0.  1.
<mgrwt>
<rscale>  0 0.91847421E+02</rscale>
<asrwt>0</asrwt>
<pdfrwt beam="2">  1        2 0.59095898E-02 0.91847421E+02</pdfrwt>
<pdfrwt beam="1">  1       -2 0.84467549E-02 0.91847421E+02</pdfrwt>
<totfact> 0.92401143E+04</totfact>
</mgrwt>
</event>
<event>
 7    1  0.3056193E-009  0.9165497E+02  0.7818608E-02  0.1298893E+00
         -2   -1    0    0    0  501 -0.00000000000E+00  0.00000000000E+00  0.10005989283E+03  0.10005989286E+03  0.25500000000E-02 0.  1.
          2   -1    0    0  501    0  0.00000000000E+00 -0.00000000000E+00 -0.20989011088E+02  0.20989011243E+02  0.25500000000E-02 0. -1.
         23    2    1    2    0    0  0.35527136788E-14 -0.35527136788E-14  0.79070881743E+02  0.12104890411E+03  0.91654966291E+02 0.  0.
    9000005    2    3    3    0    0 -0.21809401513E+02  0.27789342981E+02  0.77787669201E+02  0.85700011450E+02  0.67581732064E+01 0.  0.
         22    1    3    3    0    0  0.21809401513E+02 -0.27789342981E+02  0.12832125421E+01  0.35348892657E+02  0.00000000000E+00 0. -1.
         22    1    4    4    0    0 -0.11044832008E+02  0.89003659810E+01  0.28741426570E+02  0.32051122133E+02  0.00000000000E+00 0. -1.
         22    1    4    4    0    0 -0.10764569505E+02  0.18888977000E+02  0.49046242631E+02  0.53648889317E+02  0.00000000000E+00 0. -1.
<mgrwt>
<rscale>  0 0.91654966E+02</rscale>
<asrwt>0</asrwt>
<pdfrwt beam="2">  1        2 0.32290788E-02 0.91654966E+02</pdfrwt>
<pdfrwt beam="1">  1       -2 0.15393829E-01 0.91654966E+02</pdfrwt>
<totfact> 0.78759199E+04</totfact>
</mgrwt>
</event>
<event>
 7    1  0.3056193E-009  0.9110133E+02  0.7818608E-02  0.1300206E+00
         -2   -1    0    0    0  501 -0.00000000000E+00  0.00000000000E+00  0.13238009637E+03  0.13238009639E+03  0.25500000000E-02 0. -1.
          2   -1    0    0  501    0  0.00000000000E+00 -0.00000000000E+00 -0.15673528758E+02  0.15673528965E+02  0.25500000000E-02 0.  1.
         23    2    1    2    0    0  0.17763568394E-14  0.35527136788E-14  0.11670656761E+03  0.14805362536E+03  0.91101334009E+02 0.  0.
    9000005    2    3    3    0    0  0.15376055092E+02  0.27807804075E+02  0.11020934264E+03  0.11562044836E+03  0.14570238023E+02 0.  0.
         22    1    3    3    0    0 -0.15376055092E+02 -0.27807804075E+02  0.64972249659E+01  0.32433176994E+02  0.00000000000E+00 0.  1.
         22    1    4    4    0    0  0.69927153159E+00  0.10810192503E+02  0.54289391696E+02  0.55359617893E+02  0.00000000000E+00 0. -1.
         22    1    4    4    0    0  0.14676783560E+02  0.16997611573E+02  0.55919950946E+02  0.60260830468E+02  0.00000000000E+00 0. -1.
<mgrwt>
<rscale>  0 0.91101334E+02</rscale>
<asrwt>0</asrwt>
<pdfrwt beam="2">  1        2 0.24113120E-02 0.91101334E+02</pdfrwt>
<pdfrwt beam="1">  1       -2 0.20366170E-01 0.91101334E+02</pdfrwt>
<totfact> 0.73150392E+04</totfact>
</mgrwt>
</event>
<event>
 7    1  0.3056193E-009  0.9217211E+02  0.7818608E-02  0.1297675E+00
         -2   -1    0    0    0  501 -0.00000000000E+00  0.00000000000E+00  0.20370561756E+02  0.20370561916E+02  0.25500000000E-02 0.  1.
          2   -1    0    0  501    0  0.00000000000E+00 -0.00000000000E+00 -0.10426441197E+03  0.10426441201E+03  0.25500000000E-02 0. -1.
         23    2    1    2    0    0  0.71054273576E-14 -0.44408920985E-15 -0.83893850218E+02  0.12463497392E+03  0.92172114113E+02 0.  0.
    9000005    2    3    3    0    0  0.43525429544E+02 -0.33090233983E+01 -0.23026108929E+02  0.49733074196E+02  0.61452683963E+01 0.  0.
         22    1    3    3    0    0 -0.43525429544E+02  0.33090233983E+01 -0.60867741289E+02  0.74901899726E+02  0.00000000000E+00 0. -1.
         22    1    4    4    0    0  0.51626816618E+01  0.67887880009E+00 -0.95159568900E+00  0.52933630824E+01  0.00000000000E+00 0. -1.
         22    1    4    4    0    0  0.38362747883E+02 -0.39879021984E+01 -0.22074513240E+02  0.44439711113E+02  0.00000000000E+00 0. -1.
<mgrwt>
<rscale>  0 0.92172114E+02</rscale>
<asrwt>0</asrwt>
<pdfrwt beam="2">  1        2 0.16040678E-01 0.92172114E+02</pdfrwt>
<pdfrwt beam="1">  1       -2 0.31339326E-02 0.92172114E+02</pdfrwt>
<totfact> 0.12059629E+05</totfact>
</mgrwt>
</event>
<event>
 7    1  0.3056193E-009  0.9092820E+02  0.7818608E-02  0.1300619E+00
         -2   -1    0    0    0  501 -0.00000000000E+00  0.00000000000E+00  0.25564562975E+02  0.25564563103E+02  0.25500000000E-02 0. -1.
          2   -1    0    0  501    0  0.00000000000E+00 -0.00000000000E+00 -0.80853492910E+02  0.80853492950E+02  0.25500000000E-02 0.  1.
         23    2    1    2    0    0  0.00000000000E+00 -0.88817841970E-15 -0.55288929934E+02  0.10641805605E+03  0.90928196291E+02 0.  0.
    9000005    2    3    3    0    0 -0.42249273484E+02  0.43127631408E+01 -0.11952010420E+02  0.45741127745E+02  0.12074733058E+02 0.  0.
         22    1    3    3    0    0  0.42249273484E+02 -0.43127631408E+01 -0.43336919514E+02  0.60676928308E+02  0.00000000000E+00 0.  1.
         22    1    4    4    0    0 -0.30224422127E+01  0.35143535720E+01  0.27973443206E+00  0.46437150333E+01  0.00000000000E+00 0. -1.
         22    1    4    4    0    0 -0.39226831272E+02  0.79840956880E+00 -0.12231744852E+02  0.41097412712E+02  0.00000000000E+00 0. -1.
<mgrwt>
<rscale>  0 0.90928196E+02</rscale>
<asrwt>0</asrwt>
<pdfrwt beam="2">  1        2 0.12438999E-01 0.90928196E+02</pdfrwt>
<pdfrwt beam="1">  1       -2 0.39330097E-02 0.90928196E+02</pdfrwt>
<totfact> 0.11608257E+05</totfact>
</mgrwt>
</event>
<event>
 7    1  0.3056193E-009  0.9086265E+02  0.7818608E-02  0.1300776E+00
          2   -1    0    0  501    0  0.00000000000E+00  0.00000000000E+00  0.20646681642E+03  0.20646681644E+03  0.25500000000E-02 0. -1.
         -2   -1    0    0    0  501 -0.00000000000E+00 -0.00000000000E+00 -0.99967892634E+01  0.99967895887E+01  0.25500000000E-02 0.  1.
         23    2    1    2    0    0  0.00000000000E+00  0.00000000000E+00  0.19647002716E+03  0.21646360603E+03  0.90862649985E+02 0.  0.
    9000005    2    3    3    0    0 -0.31407196492E+02  0.27304868683E+02  0.13901873420E+03  0.14552265235E+03  0.10893394536E+02 0.  0.
         22    1    3    3    0    0  0.31407196492E+02 -0.27304868683E+02  0.57451292960E+02  0.70940953673E+02  0.00000000000E+00 0. -1.
         22    1    4    4    0    0 -0.19565548517E+02  0.19737258399E+02  0.75101723711E+02  0.80078954553E+02  0.00000000000E+00 0. -1.
         22    1    4    4    0    0 -0.11841647974E+02  0.75676102842E+01  0.63917010488E+02  0.65443697801E+02  0.00000000000E+00 0. -1.
<mgrwt>
<rscale>  0 0.90862650E+02</rscale>
<asrwt>0</asrwt>
<pdfrwt beam="1">  1        2 0.31764126E-01 0.90862650E+02</pdfrwt>
<pdfrwt beam="2">  1       -2 0.15379676E-02 0.90862650E+02</pdfrwt>
<totfact> 0.15793355E+05</totfact>
</mgrwt>
</event>
<event>
 7    1  0.3056193E-009  0.9525623E+02  0.7818608E-02  0.1290600E+00
          2   -1    0    0  501    0  0.00000000000E+00  0.00000000000E+00  0.60745280225E+03  0.60745280226E+03  0.25500000000E-02 0. -1.
         -2   -1    0    0    0  501 -0.00000000000E+00 -0.00000000000E+00 -0.37343431540E+01  0.37343440246E+01  0.25500000000E-02 0.  1.
         23    2    1    2    0    0  0.00000000000E+00 -0.17763568394E-14  0.60371845910E+03  0.61118714628E+03  0.95256232996E+02 0.  0.
    9000005    2    3    3    0    0  0.27234827081E+02  0.94951833369E+01  0.54361451095E+03  0.54452097124E+03  0.12428084484E+02 0.  0.
         22    1    3    3    0    0 -0.27234827081E+02 -0.94951833369E+01  0.60103948146E+02  0.66666175048E+02  0.00000000000E+00 0.  1.
         22    1    4    4    0    0  0.16119553466E+02 -0.70336956245E+00  0.25124784512E+03  0.25176539558E+03  0.00000000000E+00 0. -1.
         22    1    4    4    0    0  0.11115273615E+02  0.10198552899E+02  0.29236666583E+03  0.29275557566E+03  0.00000000000E+00 0. -1.
<mgrwt>
<rscale>  0 0.95256233E+02</rscale>
<asrwt>0</asrwt>
<pdfrwt beam="1">  1        2 0.93454177E-01 0.95256233E+02</pdfrwt>
<pdfrwt beam="2">  1       -2 0.57451502E-03 0.95256233E+02</pdfrwt>
<totfact> 0.20362445E+05</totfact>
</mgrwt>
</event>
<event>
 7    1  0.3056193E-009  0.9081949E+02  0.7818608E-02  0.1300879E+00
         -2   -1    0    0    0  501 -0.00000000000E+00  0.00000000000E+00  0.97639421413E+00  0.97639754398E+00  0.25500000000E-02 0.  1.
          2   -1    0    0  501    0  0.00000000000E+00 -0.00000000000E+00 -0.21118941903E+04  0.21118941903E+04  0.25500000000E-02 0. -1.
         23    2    1    2    0    0  0.88817841970E-15  0.00000000000E+00 -0.21109177961E+04  0.21128705878E+04  0.90819486623E+02 0.  0.
    9000005    2    3    3    0    0 -0.42520976308E+01 -0.13999327118E+02 -0.20551026768E+04  0.20551697296E+04  0.78450010531E+01 0.  0.
         22    1    3    3    0    0  0.42520976308E+01  0.13999327118E+02 -0.55815119287E+02  0.57700858183E+02  0.00000000000E+00 0.  1.
         22    1    4    4    0    0  0.59602223202E+00 -0.16448323459E+01 -0.67258175886E+02  0.67280925524E+02  0.00000000000E+00 0. -1.
         22    1    4    4    0    0 -0.48481198628E+01 -0.12354494772E+02 -0.19878445009E+04  0.19878888041E+04  0.00000000000E+00 0. -1.
<mgrwt>
<rscale>  0 0.90819487E+02</rscale>
<asrwt>0</asrwt>
<pdfrwt beam="2">  1        2 0.32490314E+00 0.90819487E+02</pdfrwt>
<pdfrwt beam="1">  1       -2 0.15021644E-03 0.90819487E+02</pdfrwt>
<totfact> 0.18828847E+05</totfact>
</mgrwt>
</event>
<event>
 7    1  0.3238132E-009  0.9290607E+02  0.7818608E-02  0.1295963E+00
         -2   -1    0    0    0  501 -0.00000000000E+00  0.00000000000E+00  0.96841968199E+01  0.96841971557E+01  0.25500000000E-02 0.  1.
          2   -1    0    0  501    0  0.00000000000E+00 -0.00000000000E+00 -0.22282532124E+03  0.22282532125E+03  0.25500000000E-02 0. -1.
         23    2    1    2    0    0 -0.88817841970E-15 -0.71054273576E-14 -0.21314112442E+03  0.23250951841E+03  0.92906066714E+02 0.  0.
    9000005    2    3    3    0    0 -0.64799151335E+01 -0.35892341265E+02 -0.42631965092E+02  0.58143171667E+02  0.15260881441E+02 0.  0.
         22    1    3    3    0    0  0.64799151335E+01  0.35892341265E+02 -0.17050915933E+03  0.17436634674E+03  0.00000000000E+00 0. -1.
         22    1    4    4    0    0 -0.76516033963E+01 -0.33357354626E+02 -0.30985853418E+02  0.46166906483E+02  0.00000000000E+00 0.  1.
         22    1    4    4    0    0  0.11716882627E+01 -0.25349866383E+01 -0.11646111674E+02  0.11976265184E+02  0.00000000000E+00 0.  1.
<mgrwt>
<rscale>  0 0.92906067E+02</rscale>
<asrwt>0</asrwt>
<pdfrwt beam="2">  1        2 0.34280815E-01 0.92906067E+02</pdfrwt>
<pdfrwt beam="1">  1       -2 0.14898766E-02 0.92906067E+02</pdfrwt>
<totfact> 0.15296088E+05</totfact>
</mgrwt>
</event>
<event>
 7    1  0.3056193E-009  0.9261314E+02  0.7818608E-02  0.1296644E+00
         -2   -1    0    0    0  501 -0.00000000000E+00  0.00000000000E+00  0.11091924849E+02  0.11091925142E+02  0.25500000000E-02 0.  1.
          2   -1    0    0  501    0  0.00000000000E+00 -0.00000000000E+00 -0.19332066840E+03  0.19332066842E+03  0.25500000000E-02 0. -1.
         23    2    1    2    0    0 -0.35527136788E-14  0.00000000000E+00 -0.18222874355E+03  0.20441259356E+03  0.92613138536E+02 0.  0.
    9000005    2    3    3    0    0  0.20704901799E+02  0.27214773331E+02 -0.23073959117E+02  0.41625670699E+02  0.55634544925E+01 0.  0.
         22    1    3    3    0    0 -0.20704901799E+02 -0.27214773331E+02 -0.15915478444E+03  0.16278692286E+03  0.00000000000E+00 0. -1.
         22    1    4    4    0    0  0.68326371825E+01  0.50811200409E+01 -0.52730519974E+01  0.10015377632E+02  0.00000000000E+00 0.  1.
         22    1    4    4    0    0  0.13872264616E+02  0.22133653290E+02 -0.17800907119E+02  0.31610293067E+02  0.00000000000E+00 0.  1.
<mgrwt>
<rscale>  0 0.92613139E+02</rscale>
<asrwt>0</asrwt>
<pdfrwt beam="2">  1        2 0.29741639E-01 0.92613139E+02</pdfrwt>
<pdfrwt beam="1">  1       -2 0.17064501E-02 0.92613139E+02</pdfrwt>
<totfact> 0.14648387E+05</totfact>
</mgrwt>
</event>
<event>
 7    1  0.3056193E-009  0.9206728E+02  0.7818608E-02  0.1297921E+00
         -2   -1    0    0    0  501 -0.00000000000E+00  0.00000000000E+00  0.85973105113E+03  0.85973105114E+03  0.25500000000E-02 0.  1.
          2   -1    0    0  501    0  0.00000000000E+00 -0.00000000000E+00 -0.24648350731E+01  0.24648363922E+01  0.25500000000E-02 0. -1.
         23    2    1    2    0    0  0.00000000000E+00 -0.17763568394E-14  0.85726621606E+03  0.86219588753E+03  0.92067275806E+02 0.  0.
    9000005    2    3    3    0    0  0.27488882413E+02  0.82423743721E+01  0.76487199292E+03  0.76544741023E+03  0.75496271726E+01 0.  0.
         22    1    3    3    0    0 -0.27488882413E+02 -0.82423743721E+01  0.92394223136E+02  0.96748477303E+02  0.00000000000E+00 0. -1.
         22    1    4    4    0    0  0.54097580798E+01  0.49816883466E+01  0.19317400336E+03  0.19331393710E+03  0.00000000000E+00 0.  1.
         22    1    4    4    0    0  0.22079124333E+02  0.32606860254E+01  0.57169798956E+03  0.57213347313E+03  0.00000000000E+00 0.  1.
<mgrwt>
<rscale>  0 0.92067276E+02</rscale>
<asrwt>0</asrwt>
<pdfrwt beam="2">  1        2 0.37920561E-03 0.92067276E+02</pdfrwt>
<pdfrwt beam="1">  1       -2 0.13226628E+00 0.92067276E+02</pdfrwt>
<totfact> 0.21567598E+04</totfact>
</mgrwt>
</event>
<event>
 7    1  0.3056193E-009  0.8959215E+02  0.7818608E-02  0.1303842E+00
          2   -1    0    0  501    0  0.00000000000E+00  0.00000000000E+00  0.37636322281E+03  0.37636322282E+03  0.25500000000E-02 0. -1.
         -2   -1    0    0    0  501 -0.00000000000E+00 -0.00000000000E+00 -0.53317865522E+01  0.53317871620E+01  0.25500000000E-02 0.  1.
         23    2    1    2    0    0  0.00000000000E+00  0.00000000000E+00  0.37103143626E+03  0.38169500998E+03  0.89592153409E+02 0.  0.
    9000005    2    3    3    0    0 -0.74415544152E+01  0.41321379468E+02  0.13867985602E+03  0.14558044039E+03  0.14097128278E+02 0.  0.
         22    1    3    3    0    0  0.74415544152E+01 -0.41321379468E+02  0.23235158023E+03  0.23611456959E+03  0.00000000000E+00 0. -1.
         22    1    4    4    0    0 -0.75789200933E+01  0.11283274831E+02  0.32361506131E+02  0.35100133900E+02  0.00000000000E+00 0. -1.
         22    1    4    4    0    0  0.13736567809E+00  0.30038104637E+02  0.10631834989E+03  0.11048030649E+03  0.00000000000E+00 0. -1.
<mgrwt>
<rscale>  0 0.89592153E+02</rscale>
<asrwt>0</asrwt>
<pdfrwt beam="1">  1        2 0.57902039E-01 0.89592153E+02</pdfrwt>
<pdfrwt beam="2">  1       -2 0.82027484E-03 0.89592153E+02</pdfrwt>
<totfact> 0.20459139E+05</totfact>
</mgrwt>
</event>
<event>
 7    1  0.7021219E-009  0.9297943E+02  0.7818608E-02  0.1295793E+00
          2   -1    0    0  501    0  0.00000000000E+00  0.00000000000E+00  0.13766343404E+04  0.13766343404E+04  0.25500000000E-02 0. -1.
         -2   -1    0    0    0  501 -0.00000000000E+00 -0.00000000000E+00 -0.15699828159E+01  0.15699848867E+01  0.25500000000E-02 0.  1.
         23    2    1    2    0    0  0.00000000000E+00  0.88817841970E-15  0.13750643576E+04  0.13782043253E+04  0.92979431849E+02 0.  0.
    9000005    2    3    3    0    0  0.14433074484E+02 -0.71325913006E+01  0.13325648809E+04  0.13327577300E+04  0.15963012958E+02 0.  0.
         22    1    3    3    0    0 -0.14433074484E+02  0.71325913006E+01  0.42499476698E+02  0.45446595222E+02  0.00000000000E+00 0.  1.
         22    1    4    4    0    0  0.13042284359E+02  0.15976295125E+01  0.94915535202E+03  0.94924629885E+03  0.00000000000E+00 0. -1.
         22    1    4    4    0    0  0.13907901258E+01 -0.87302208131E+01  0.38340952883E+03  0.38351143119E+03  0.00000000000E+00 0. -1.
<mgrwt>
<rscale>  0 0.92979432E+02</rscale>
<asrwt>0</asrwt>
<pdfrwt beam="1">  1        2 0.21179053E+00 0.92979432E+02</pdfrwt>
<pdfrwt beam="2">  1       -2 0.24153526E-03 0.92979432E+02</pdfrwt>
<totfact> 0.23031354E+05</totfact>
</mgrwt>
</event>
<event>
 7    1  0.3056193E-009  0.9000024E+02  0.7818608E-02  0.1302851E+00
         -2   -1    0    0    0  501 -0.00000000000E+00  0.00000000000E+00  0.14808692406E+02  0.14808692625E+02  0.25500000000E-02 0.  1.
          2   -1    0    0  501    0  0.00000000000E+00 -0.00000000000E+00 -0.13674472689E+03  0.13674472692E+03  0.25500000000E-02 0. -1.
         23    2    1    2    0    0  0.00000000000E+00  0.88817841970E-15 -0.12193603449E+03  0.15155341954E+03  0.90000235936E+02 0.  0.
    9000005    2    3    3    0    0 -0.42296146209E+02  0.66561411223E+01 -0.80662076659E+02  0.92082352681E+02  0.11811895086E+02 0.  0.
         22    1    3    3    0    0  0.42296146209E+02 -0.66561411223E+01 -0.41273957828E+02  0.59471066861E+02  0.00000000000E+00 0.  1.
         22    1    4    4    0    0 -0.40330964690E+00 -0.12870351296E+00 -0.74299885931E+01  0.74420396236E+01  0.00000000000E+00 0. -1.
         22    1    4    4    0    0 -0.41892836562E+02  0.67848446352E+01 -0.73232088066E+02  0.84640313058E+02  0.00000000000E+00 0. -1.
<mgrwt>
<rscale>  0 0.90000236E+02</rscale>
<asrwt>0</asrwt>
<pdfrwt beam="2">  1        2 0.21037649E-01 0.90000236E+02</pdfrwt>
<pdfrwt beam="1">  1       -2 0.22782605E-02 0.90000236E+02</pdfrwt>
<totfact> 0.14039571E+05</totfact>
</mgrwt>
</event>
<event>
 7    1  0.3056193E-009  0.8818997E+02  0.7818608E-02  0.1307295E+00
          2   -1    0    0  501    0  0.00000000000E+00  0.00000000000E+00  0.46290857887E+01  0.46290864910E+01  0.25500000000E-02 0. -1.
         -2   -1    0    0    0  501 -0.00000000000E+00 -0.00000000000E+00 -0.42003276976E+03  0.42003276977E+03  0.25500000000E-02 0.  1.
         23    2    1    2    0    0  0.00000000000E+00  0.00000000000E+00 -0.41540368397E+03  0.42466185626E+03  0.88189973944E+02 0.  0.
    9000005    2    3    3    0    0 -0.31853347579E+02  0.12335411073E+02 -0.34166062094E+03  0.34339170513E+03  0.43686539057E+01 0.  0.
         22    1    3    3    0    0  0.31853347579E+02 -0.12335411073E+02 -0.73743063036E+02  0.81270151127E+02  0.00000000000E+00 0. -1.
         22    1    4    4    0    0 -0.38584739899E+01  0.29123951643E+01 -0.55810299778E+02  0.56019277293E+02  0.00000000000E+00 0.  1.
         22    1    4    4    0    0 -0.27994873589E+02  0.94230159085E+01 -0.28585032116E+03  0.28737242784E+03  0.00000000000E+00 0.  1.
<mgrwt>
<rscale>  0 0.88189974E+02</rscale>
<asrwt>0</asrwt>
<pdfrwt beam="1">  1        2 0.71216743E-03 0.88189974E+02</pdfrwt>
<pdfrwt beam="2">  1       -2 0.64620396E-01 0.88189974E+02</pdfrwt>
<totfact> 0.44990830E+04</totfact>
</mgrwt>
</event>
<event>
 7    1  0.3056193E-009  0.9009778E+02  0.7818608E-02  0.1302615E+00
         -2   -1    0    0    0  501 -0.00000000000E+00  0.00000000000E+00  0.25299373374E+01  0.25299386226E+01  0.25500000000E-02 0.  1.
          2   -1    0    0  501    0  0.00000000000E+00 -0.00000000000E+00 -0.80215509011E+03  0.80215509011E+03  0.25500000000E-02 0. -1.
         23    2    1    2    0    0  0.00000000000E+00  0.00000000000E+00 -0.79962515277E+03  0.80468502873E+03  0.90097783137E+02 0.  0.
    9000005    2    3    3    0    0 -0.28526858910E+02 -0.29566164934E+02 -0.55189471292E+03  0.55357089011E+03  0.12845872529E+02 0.  0.
         22    1    3    3    0    0  0.28526858910E+02  0.29566164934E+02 -0.24773043985E+03  0.25111413862E+03  0.00000000000E+00 0.  1.
         22    1    4    4    0    0 -0.87274647180E+01 -0.15554100278E+02 -0.29302024522E+03  0.29356253642E+03  0.00000000000E+00 0. -1.
         22    1    4    4    0    0 -0.19799394192E+02 -0.14012064656E+02 -0.25887446770E+03  0.26000835370E+03  0.00000000000E+00 0. -1.
<mgrwt>
<rscale>  0 0.90097783E+02</rscale>
<asrwt>0</asrwt>
<pdfrwt beam="2">  1        2 0.12340827E+00 0.90097783E+02</pdfrwt>
<pdfrwt beam="1">  1       -2 0.38922187E-03 0.90097783E+02</pdfrwt>
<totfact> 0.25162042E+05</totfact>
</mgrwt>
</event>
<event>
 7    1  0.3056193E-009  0.8724542E+02  0.7818608E-02  0.1309663E+00
         -2   -1    0    0    0  501 -0.00000000000E+00  0.00000000000E+00  0.45043766844E+01  0.45043774061E+01  0.25500000000E-02 0.  1.
          2   -1    0    0  501    0  0.00000000000E+00 -0.00000000000E+00 -0.42246483673E+03  0.42246483673E+03  0.25500000000E-02 0. -1.
         23    2    1    2    0    0 -0.17763568394E-14  0.35527136788E-14 -0.41796046004E+03  0.42696921414E+03  0.87245422029E+02 0.  0.
    9000005    2    3    3    0    0  0.13288214218E+02 -0.19617994844E+02 -0.38671494817E+03  0.38775538532E+03  0.15631549685E+02 0.  0.
         22    1    3    3    0    0 -0.13288214218E+02  0.19617994844E+02 -0.31245511870E+02  0.39213828821E+02  0.00000000000E+00 0.  1.
         22    1    4    4    0    0  0.10230649852E+02 -0.10588903001E+02 -0.12456541394E+03  0.12543258514E+03  0.00000000000E+00 0. -1.
         22    1    4    4    0    0  0.30575643658E+01 -0.90290918423E+01 -0.26214953423E+03  0.26232280018E+03  0.00000000000E+00 0. -1.
<mgrwt>
<rscale>  0 0.87245422E+02</rscale>
<asrwt>0</asrwt>
<pdfrwt beam="2">  1        2 0.64994559E-01 0.87245422E+02</pdfrwt>
<pdfrwt beam="1">  1       -2 0.69298141E-03 0.87245422E+02</pdfrwt>
<totfact> 0.22869997E+05</totfact>
</mgrwt>
</event>
<event>
 7    1  0.3056193E-009  0.9091978E+02  0.7818608E-02  0.1300639E+00
         -2   -1    0    0    0  501 -0.00000000000E+00  0.00000000000E+00  0.58355589785E+01  0.58355595356E+01  0.25500000000E-02 0.  1.
          2   -1    0    0  501    0  0.00000000000E+00 -0.00000000000E+00 -0.35413938911E+03  0.35413938912E+03  0.25500000000E-02 0. -1.
         23    2    1    2    0    0  0.00000000000E+00 -0.44408920985E-15 -0.34830383013E+03  0.35997494865E+03  0.90919775488E+02 0.  0.
    9000005    2    3    3    0    0  0.20780233449E+02 -0.24708214768E+01 -0.33357921590E+03  0.33438711316E+03  0.10085886492E+02 0.  0.
         22    1    3    3    0    0 -0.20780233449E+02  0.24708214768E+01 -0.14724614228E+02  0.25587835491E+02  0.00000000000E+00 0.  1.
         22    1    4    4    0    0  0.11269073882E+02 -0.56450450800E+01 -0.22232202564E+03  0.22267901034E+03  0.00000000000E+00 0. -1.
         22    1    4    4    0    0  0.95111595669E+01  0.31742236032E+01 -0.11125719026E+03  0.11170810282E+03  0.00000000000E+00 0. -1.
<mgrwt>
<rscale>  0 0.90919775E+02</rscale>
<asrwt>0</asrwt>
<pdfrwt beam="2">  1        2 0.54482966E-01 0.90919775E+02</pdfrwt>
<pdfrwt beam="1">  1       -2 0.89777862E-03 0.90919775E+02</pdfrwt>
<totfact> 0.19245610E+05</totfact>
</mgrwt>
</event>
<event>
 7    1  0.3056193E-009  0.9168367E+02  0.7818608E-02  0.1298825E+00
         -2   -1    0    0    0  501 -0.00000000000E+00  0.00000000000E+00  0.38653238779E+01  0.38653247190E+01  0.25500000000E-02 0.  1.
          2   -1    0    0  501    0  0.00000000000E+00 -0.00000000000E+00 -0.54367340474E+03  0.54367340475E+03  0.25500000000E-02 0. -1.
         23    2    1    2    0    0  0.00000000000E+00  0.17763568394E-14 -0.53980808087E+03  0.54753872947E+03  0.91683674120E+02 0.  0.
    9000005    2    3    3    0    0 -0.78868037103E+01  0.15231661283E+02 -0.52316373621E+03  0.52363811468E+03  0.14225859651E+02 0.  0.
         22    1    3    3    0    0  0.78868037103E+01 -0.15231661283E+02 -0.16644344654E+02  0.23900614787E+02  0.00000000000E+00 0.  1.
         22    1    4    4    0    0 -0.22454489412E+01  0.15672596252E+02 -0.31517726768E+03  0.31557468589E+03  0.00000000000E+00 0.  1.
         22    1    4    4    0    0 -0.56413547691E+01 -0.44093496848E+00 -0.20798646853E+03  0.20806342879E+03  0.00000000000E+00 0.  1.
<mgrwt>
<rscale>  0 0.91683674E+02</rscale>
<asrwt>0</asrwt>
<pdfrwt beam="2">  1        2 0.83642002E-01 0.91683674E+02</pdfrwt>
<pdfrwt beam="1">  1       -2 0.59466571E-03 0.91683674E+02</pdfrwt>
<totfact> 0.21806533E+05</totfact>
</mgrwt>
</event>
<event>
 7    1  0.3056193E-009  0.8447262E+02  0.7818608E-02  0.1316817E+00
         -2   -1    0    0    0  501 -0.00000000000E+00  0.00000000000E+00  0.17521144697E+01  0.17521163253E+01  0.25500000000E-02 0. -1.
          2   -1    0    0  501    0  0.00000000000E+00 -0.00000000000E+00 -0.10181440518E+04  0.10181440518E+04  0.25500000000E-02 0.  1.
         23    2    1    2    0    0  0.00000000000E+00  0.00000000000E+00 -0.10163919373E+04  0.10198961681E+04  0.84472619784E+02 0.  0.
    9000005    2    3    3    0    0 -0.15017559751E+02 -0.94780164782E+01 -0.96927320541E+03  0.96954207401E+03  0.14350144400E+02 0.  0.
         22    1    3    3    0    0  0.15017559751E+02  0.94780164782E+01 -0.47118731934E+02  0.50354094137E+02  0.00000000000E+00 0. -1.
         22    1    4    4    0    0 -0.50909269182E+01 -0.11110334963E+02 -0.42406282780E+03  0.42423889379E+03  0.00000000000E+00 0.  1.
         22    1    4    4    0    0 -0.99266328329E+01  0.16323184845E+01 -0.54521037761E+03  0.54530318022E+03  0.00000000000E+00 0.  1.
<mgrwt>
<rscale>  0 0.84472620E+02</rscale>
<asrwt>0</asrwt>
<pdfrwt beam="2">  1        2 0.15663707E+00 0.84472620E+02</pdfrwt>
<pdfrwt beam="1">  1       -2 0.26955703E-03 0.84472620E+02</pdfrwt>
<totfact> 0.30566754E+05</totfact>
</mgrwt>
</event>
<event>
 7    1  0.3056193E-009  0.9265076E+02  0.7818608E-02  0.1296557E+00
         -2   -1    0    0    0  501 -0.00000000000E+00  0.00000000000E+00  0.75470843729E+01  0.75470848037E+01  0.25500000000E-02 0.  1.
          2   -1    0    0  501    0  0.00000000000E+00 -0.00000000000E+00 -0.28435359429E+03  0.28435359430E+03  0.25500000000E-02 0. -1.
         23    2    1    2    0    0  0.00000000000E+00  0.00000000000E+00 -0.27680650992E+03  0.29190067911E+03  0.92650755689E+02 0.  0.
    9000005    2    3    3    0    0  0.56830528264E+01 -0.38408219093E+02 -0.59742126372E+02  0.71391189543E+02  0.44823986388E+01 0.  0.
         22    1    3    3    0    0 -0.56830528264E+01  0.38408219093E+02 -0.21706438355E+03  0.22050948956E+03  0.00000000000E+00 0. -1.
         22    1    4    4    0    0  0.35945169424E+01 -0.27275321231E+02 -0.38522476680E+02  0.47337563413E+02  0.00000000000E+00 0.  1.
         22    1    4    4    0    0  0.20885358840E+01 -0.11132897862E+02 -0.21219649693E+02  0.24053626131E+02  0.00000000000E+00 0.  1.
<mgrwt>
<rscale>  0 0.92650756E+02</rscale>
<asrwt>0</asrwt>
<pdfrwt beam="2">  1        2 0.43746698E-01 0.92650756E+02</pdfrwt>
<pdfrwt beam="1">  1       -2 0.11610902E-02 0.92650756E+02</pdfrwt>
<totfact> 0.16871313E+05</totfact>
</mgrwt>
</event>
<event>
 7    1  0.3056193E-009  0.8252649E+02  0.7818608E-02  0.1322031E+00
          2   -1    0    0  501    0  0.00000000000E+00  0.00000000000E+00  0.14550072282E+03  0.14550072285E+03  0.25500000000E-02 0. -1.
         -2   -1    0    0    0  501 -0.00000000000E+00 -0.00000000000E+00 -0.11702041839E+02  0.11702042116E+02  0.25500000000E-02 0.  1.
         23    2    1    2    0    0  0.00000000000E+00  0.00000000000E+00  0.13379868098E+03  0.15720276496E+03  0.82526494403E+02 0.  0.
    9000005    2    3    3    0    0  0.40074918390E+02 -0.54298647174E+01  0.73143954445E+02  0.84302296059E+02  0.11016194174E+02 0.  0.
         22    1    3    3    0    0 -0.40074918390E+02  0.54298647174E+01  0.60654726539E+02  0.72900468903E+02  0.00000000000E+00 0. -1.
         22    1    4    4    0    0  0.33844409719E+02 -0.49426876742E+01  0.68334208669E+02  0.76416217552E+02  0.00000000000E+00 0. -1.
         22    1    4    4    0    0  0.62305086709E+01 -0.48717704320E+00  0.48097457765E+01  0.78860785061E+01  0.00000000000E+00 0. -1.
<mgrwt>
<rscale>  0 0.82526494E+02</rscale>
<asrwt>0</asrwt>
<pdfrwt beam="1">  1        2 0.22384729E-01 0.82526494E+02</pdfrwt>
<pdfrwt beam="2">  1       -2 0.18003140E-02 0.82526494E+02</pdfrwt>
<totfact> 0.18106479E+05</totfact>
</mgrwt>
</event>
<event>
 7    1  0.3056193E-009  0.9147224E+02  0.7818608E-02  0.1299325E+00
         -2   -1    0    0    0  501 -0.00000000000E+00  0.00000000000E+00  0.19521927537E+03  0.19521927539E+03  0.25500000000E-02 0.  1.
          2   -1    0    0  501    0  0.00000000000E+00 -0.00000000000E+00 -0.10715092727E+02  0.10715093031E+02  0.25500000000E-02 0. -1.
         23    2    1    2    0    0  0.00000000000E+00  0.00000000000E+00  0.18450418264E+03  0.20593436842E+03  0.91472239957E+02 0.  0.
    9000005    2    3    3    0    0 -0.31020079072E+02  0.17167084840E+02  0.15659151177E+03  0.16081152162E+03  0.90823907401E+01 0.  0.
         22    1    3    3    0    0  0.31020079072E+02 -0.17167084840E+02  0.27912670878E+02  0.45122846797E+02  0.00000000000E+00 0. -1.
         22    1    4    4    0    0 -0.11055906145E+02  0.64275663159E+01  0.38640072624E+02  0.40701374447E+02  0.00000000000E+00 0. -1.
         22    1    4    4    0    0 -0.19964172926E+02  0.10739518524E+02  0.11795143914E+03  0.12011014718E+03  0.00000000000E+00 0. -1.
<mgrwt>
<rscale>  0 0.91472240E+02</rscale>
<asrwt>0</asrwt>
<pdfrwt beam="2">  1        2 0.16484760E-02 0.91472240E+02</pdfrwt>
<pdfrwt beam="1">  1       -2 0.30033732E-01 0.91472240E+02</pdfrwt>
<totfact> 0.62452414E+04</totfact>
</mgrwt>
</event>
<event>
 7    1  0.3056193E-009  0.9699651E+02  0.7818608E-02  0.1286742E+00
          2   -1    0    0  501    0  0.00000000000E+00  0.00000000000E+00  0.72494837055E+03  0.72494837055E+03  0.25500000000E-02 0. -1.
         -2   -1    0    0    0  501 -0.00000000000E+00 -0.00000000000E+00 -0.32444799479E+01  0.32444809500E+01  0.25500000000E-02 0.  1.
         23    2    1    2    0    0  0.00000000000E+00  0.00000000000E+00  0.72170389060E+03  0.72819285150E+03  0.96996511648E+02 0.  0.
    9000005    2    3    3    0    0  0.58504064620E+01  0.44115054963E+02  0.49130550335E+03  0.49353611885E+03  0.14711820442E+02 0.  0.
         22    1    3    3    0    0 -0.58504064620E+01 -0.44115054963E+02  0.23039838725E+03  0.23465673265E+03  0.00000000000E+00 0.  1.
         22    1    4    4    0    0  0.79473229625E+00  0.40492247050E+02  0.41127735989E+03  0.41326664567E+03  0.00000000000E+00 0. -1.
         22    1    4    4    0    0  0.50556741657E+01  0.36228079126E+01  0.80028143460E+02  0.80269473177E+02  0.00000000000E+00 0. -1.
<mgrwt>
<rscale>  0 0.96996512E+02</rscale>
<asrwt>0</asrwt>
<pdfrwt beam="1">  1        2 0.11153040E+00 0.96996512E+02</pdfrwt>
<pdfrwt beam="2">  1       -2 0.49915139E-03 0.96996512E+02</pdfrwt>
<totfact> 0.20293383E+05</totfact>
</mgrwt>
</event>
<event>
 7    1  0.3056193E-009  0.9610098E+02  0.7818608E-02  0.1288715E+00
         -2   -1    0    0    0  501 -0.00000000000E+00  0.00000000000E+00  0.60351610714E+03  0.60351610714E+03  0.25500000000E-02 0.  1.
          2   -1    0    0  501    0  0.00000000000E+00 -0.00000000000E+00 -0.38256633424E+01  0.38256641923E+01  0.25500000000E-02 0. -1.
         23    2    1    2    0    0  0.00000000000E+00  0.71054273576E-14  0.59969044379E+03  0.60734177133E+03  0.96100982458E+02 0.  0.
    9000005    2    3    3    0    0  0.16759831513E+01  0.44073427283E+02  0.41705452735E+03  0.41945575832E+03  0.79610608837E+01 0.  0.
         22    1    3    3    0    0 -0.16759831513E+01 -0.44073427283E+02  0.18263591644E+03  0.18788601302E+03  0.00000000000E+00 0. -1.
         22    1    4    4    0    0  0.47926748292E+01  0.25337126032E+02  0.23158894688E+03  0.23302012789E+03  0.00000000000E+00 0. -1.
         22    1    4    4    0    0 -0.31166916779E+01  0.18736301251E+02  0.18546558048E+03  0.18643563043E+03  0.00000000000E+00 0. -1.
<mgrwt>
<rscale>  0 0.96100982E+02</rscale>
<asrwt>0</asrwt>
<pdfrwt beam="2">  1        2 0.58856345E-03 0.96100982E+02</pdfrwt>
<pdfrwt beam="1">  1       -2 0.92848664E-01 0.96100982E+02</pdfrwt>
<totfact> 0.27130442E+04</totfact>
</mgrwt>
</event>
<event>
 7    1  0.3056193E-009  0.9282247E+02  0.7818608E-02  0.1296157E+00
          2   -1    0    0  501    0  0.00000000000E+00  0.00000000000E+00  0.47147542052E+02  0.47147542121E+02  0.25500000000E-02 0. -1.
         -2   -1    0    0    0  501 -0.00000000000E+00 -0.00000000000E+00 -0.45686426804E+02  0.45686426875E+02  0.25500000000E-02 0.  1.
         23    2    1    2    0    0  0.00000000000E+00  0.88817841970E-15  0.14611152477E+01  0.92833968996E+02  0.92822470026E+02 0.  0.
    9000005    2    3    3    0    0 -0.33563245392E+02 -0.17577624645E+01 -0.29567281607E+02  0.47091837634E+02  0.14623127571E+02 0.  0.
         22    1    3    3    0    0  0.33563245392E+02  0.17577624645E+01  0.31028396855E+02  0.45742131362E+02  0.00000000000E+00 0. -1.
         22    1    4    4    0    0 -0.11087451889E+02  0.59081035916E+01 -0.72580186319E+01  0.14509173371E+02  0.00000000000E+00 0. -1.
         22    1    4    4    0    0 -0.22475793503E+02 -0.76658660561E+01 -0.22309262975E+02  0.32582664263E+02  0.00000000000E+00 0. -1.
<mgrwt>
<rscale>  0 0.92822470E+02</rscale>
<asrwt>0</asrwt>
<pdfrwt beam="1">  1        2 0.72534680E-02 0.92822470E+02</pdfrwt>
<pdfrwt beam="2">  1       -2 0.70286811E-02 0.92822470E+02</pdfrwt>
<totfact> 0.94557463E+04</totfact>
</mgrwt>
</event>
<event>
 7    1  0.3056193E-009  0.8725631E+02  0.7818608E-02  0.1309635E+00
          2   -1    0    0  501    0  0.00000000000E+00  0.00000000000E+00  0.52539811028E+02  0.52539811090E+02  0.25500000000E-02 0.  1.
         -2   -1    0    0    0  501 -0.00000000000E+00 -0.00000000000E+00 -0.36228065836E+02  0.36228065926E+02  0.25500000000E-02 0. -1.
         23    2    1    2    0    0  0.00000000000E+00  0.00000000000E+00  0.16311745192E+02  0.88767877016E+02  0.87256306126E+02 0.  0.
    9000005    2    3    3    0    0  0.19363748901E+02  0.32490809190E+02 -0.10955632399E+02  0.42140445883E+02  0.15006126904E+02 0.  0.
         22    1    3    3    0    0 -0.19363748901E+02 -0.32490809190E+02  0.27267377592E+02  0.46627431133E+02  0.00000000000E+00 0.  1.
         22    1    4    4    0    0  0.16993581970E+02  0.24477738935E+02 -0.14408347862E+02  0.33098973091E+02  0.00000000000E+00 0. -1.
         22    1    4    4    0    0  0.23701669303E+01  0.80130702545E+01  0.34527154630E+01  0.90414727920E+01  0.00000000000E+00 0. -1.
<mgrwt>
<rscale>  0 0.87256306E+02</rscale>
<asrwt>0</asrwt>
<pdfrwt beam="1">  1        2 0.80830478E-02 0.87256306E+02</pdfrwt>
<pdfrwt beam="2">  1       -2 0.55735486E-02 0.87256306E+02</pdfrwt>
<totfact> 0.11595414E+05</totfact>
</mgrwt>
</event>
<event>
 7    1  0.3056193E-009  0.8795768E+02  0.7818608E-02  0.1307874E+00
          2   -1    0    0  501    0  0.00000000000E+00  0.00000000000E+00  0.12574867110E+04  0.12574867110E+04  0.25500000000E-02 0.  1.
         -2   -1    0    0    0  501 -0.00000000000E+00 -0.00000000000E+00 -0.15380973797E+01  0.15380994935E+01  0.25500000000E-02 0. -1.
         23    2    1    2    0    0 -0.35527136788E-14  0.00000000000E+00  0.12559486136E+04  0.12590248105E+04  0.87957679539E+02 0.  0.
    9000005    2    3    3    0    0  0.26169296778E+02 -0.11181494511E+02  0.11013479092E+04  0.11018267326E+04  0.15654822672E+02 0.  0.
         22    1    3    3    0    0 -0.26169296778E+02  0.11181494511E+02  0.15460070438E+03  0.15719807794E+03  0.00000000000E+00 0. -1.
         22    1    4    4    0    0  0.22737869120E+02 -0.71203857182E+01  0.10321115158E+04  0.10323865030E+04  0.00000000000E+00 0. -1.
         22    1    4    4    0    0  0.34314276579E+01 -0.40611087926E+01  0.69236393433E+02  0.69440229521E+02  0.00000000000E+00 0. -1.
<mgrwt>
<rscale>  0 0.87957680E+02</rscale>
<asrwt>0</asrwt>
<pdfrwt beam="1">  1        2 0.19345912E+00 0.87957680E+02</pdfrwt>
<pdfrwt beam="2">  1       -2 0.23663098E-03 0.87957680E+02</pdfrwt>
<totfact> 0.27162630E+05</totfact>
</mgrwt>
</event>
<event>
 7    1  0.3056193E-009  0.9429581E+02  0.7818608E-02  0.1292770E+00
          2   -1    0    0  501    0  0.00000000000E+00  0.00000000000E+00  0.11951743288E+04  0.11951743288E+04  0.25500000000E-02 0. -1.
         -2   -1    0    0    0  501 -0.00000000000E+00 -0.00000000000E+00 -0.18599162050E+01  0.18599179530E+01  0.25500000000E-02 0.  1.
         23    2    1    2    0    0  0.35527136788E-14  0.00000000000E+00  0.11933144126E+04  0.11970342468E+04  0.94295814325E+02 0.  0.
    9000005    2    3    3    0    0 -0.23818110518E+02  0.11982747716E+02  0.10887098147E+04  0.10890851359E+04  0.10319108882E+02 0.  0.
         22    1    3    3    0    0  0.23818110518E+02 -0.11982747716E+02  0.10460459793E+03  0.10794911088E+03  0.00000000000E+00 0.  1.
         22    1    4    4    0    0 -0.77332641026E+01 -0.11100372589E+01  0.32334056485E+03  0.32343493385E+03  0.00000000000E+00 0. -1.
         22    1    4    4    0    0 -0.16084846416E+02  0.13092784975E+02  0.76536924982E+03  0.76565020204E+03  0.00000000000E+00 0. -1.
<mgrwt>
<rscale>  0 0.94295814E+02</rscale>
<asrwt>0</asrwt>
<pdfrwt beam="1">  1        2 0.18387381E+00 0.94295814E+02</pdfrwt>
<pdfrwt beam="2">  1       -2 0.28613978E-03 0.94295814E+02</pdfrwt>
<totfact> 0.22767685E+05</totfact>
</mgrwt>
</event>
<event>
 7    1  0.3056193E-009  0.8522865E+02  0.7818608E-02  0.1314836E+00
         -2   -1    0    0    0  501 -0.00000000000E+00  0.00000000000E+00  0.22401164082E+03  0.22401164083E+03  0.25500000000E-02 0.  1.
          2   -1    0    0  501    0  0.00000000000E+00 -0.00000000000E+00 -0.81066343852E+01  0.81066347862E+01  0.25500000000E-02 0. -1.
         23    2    1    2    0    0  0.00000000000E+00  0.00000000000E+00  0.21590500643E+03  0.23211827562E+03  0.85228645850E+02 0.  0.
    9000005    2    3    3    0    0  0.36578585805E+02 -0.92473834171E+01  0.15872818957E+03  0.16361502441E+03  0.12317914153E+02 0.  0.
         22    1    3    3    0    0 -0.36578585805E+02  0.92473834171E+01  0.57176816863E+02  0.68503251209E+02  0.00000000000E+00 0.  1.
         22    1    4    4    0    0  0.45105346093E+01 -0.58514418767E+01  0.26402995833E+02  0.27417193208E+02  0.00000000000E+00 0. -1.
         22    1    4    4    0    0  0.32068051196E+02 -0.33959415404E+01  0.13232519374E+03  0.13619783120E+03  0.00000000000E+00 0. -1.
<mgrwt>
<rscale>  0 0.85228646E+02</rscale>
<asrwt>0</asrwt>
<pdfrwt beam="2">  1        2 0.12471746E-02 0.85228646E+02</pdfrwt>
<pdfrwt beam="1">  1       -2 0.34463328E-01 0.85228646E+02</pdfrwt>
<totfact> 0.70372959E+04</totfact>
</mgrwt>
</event>
<event>
 7    1  0.3056193E-009  0.9039981E+02  0.7818608E-02  0.1301886E+00
         -2   -1    0    0    0  501 -0.00000000000E+00  0.00000000000E+00  0.53729093452E+01  0.53729099503E+01  0.25500000000E-02 0.  1.
          2   -1    0    0  501    0  0.00000000000E+00 -0.00000000000E+00 -0.38024671273E+03  0.38024671274E+03  0.25500000000E-02 0. -1.
         23    2    1    2    0    0  0.00000000000E+00 -0.71054273576E-14 -0.37487380339E+03  0.38561962269E+03  0.90399806076E+02 0.  0.
    9000005    2    3    3    0    0 -0.13416899069E+02 -0.42819621877E+02 -0.20098433829E+03  0.20603376782E+03  0.64556987012E+01 0.  0.
         22    1    3    3    0    0  0.13416899069E+02  0.42819621877E+02 -0.17388946510E+03  0.17958585487E+03  0.00000000000E+00 0.  1.
         22    1    4    4    0    0 -0.27890742841E+01 -0.57851500903E+01 -0.39353576589E+02  0.39874188233E+02  0.00000000000E+00 0. -1.
         22    1    4    4    0    0 -0.10627824785E+02 -0.37034471786E+02 -0.16163076170E+03  0.16615957959E+03  0.00000000000E+00 0. -1.
<mgrwt>
<rscale>  0 0.90399806E+02</rscale>
<asrwt>0</asrwt>
<pdfrwt beam="2">  1        2 0.58499473E-01 0.90399806E+02</pdfrwt>
<pdfrwt beam="1">  1       -2 0.82660178E-03 0.90399806E+02</pdfrwt>
<totfact> 0.20052365E+05</totfact>
</mgrwt>
</event>
<event>
 7    1  0.3056193E-009  0.9103425E+02  0.7818608E-02  0.1300366E+00
          2   -1    0    0  501    0  0.00000000000E+00  0.00000000000E+00  0.56069356697E+02  0.56069356755E+02  0.25500000000E-02 0. -1.
         -2   -1    0    0    0  501 -0.00000000000E+00 -0.00000000000E+00 -0.36950822782E+02  0.36950822870E+02  0.25500000000E-02 0.  1.
         23    2    1    2    0    0  0.00000000000E+00  0.35527136788E-14  0.19118533915E+02  0.93020179625E+02  0.91034254424E+02 0.  0.
    9000005    2    3    3    0    0 -0.20084870027E+02  0.22001450889E+02  0.44504325977E+02  0.53880630779E+02  0.59178963547E+01 0.  0.
         22    1    3    3    0    0  0.20084870027E+02 -0.22001450889E+02 -0.25385792062E+02  0.39139548846E+02  0.00000000000E+00 0.  1.
         22    1    4    4    0    0 -0.15423497742E+02  0.19128184635E+02  0.39149248205E+02  0.46221589815E+02  0.00000000000E+00 0.  1.
         22    1    4    4    0    0 -0.46613722844E+01  0.28732662542E+01  0.53550777722E+01  0.76590409640E+01  0.00000000000E+00 0.  1.
<mgrwt>
<rscale>  0 0.91034254E+02</rscale>
<asrwt>0</asrwt>
<pdfrwt beam="1">  1        2 0.86260549E-02 0.91034254E+02</pdfrwt>
<pdfrwt beam="2">  1       -2 0.56847420E-02 0.91034254E+02</pdfrwt>
<totfact> 0.10463324E+05</totfact>
</mgrwt>
</event>
<event>
 7    1  0.3056193E-009  0.8998844E+02  0.7818608E-02  0.1302880E+00
         -2   -1    0    0    0  501 -0.00000000000E+00  0.00000000000E+00  0.28911675673E+02  0.28911675785E+02  0.25500000000E-02 0.  1.
          2   -1    0    0  501    0  0.00000000000E+00 -0.00000000000E+00 -0.70022913040E+02  0.70022913086E+02  0.25500000000E-02 0. -1.
         23    2    1    2    0    0  0.00000000000E+00  0.00000000000E+00 -0.41111237367E+02  0.98934588871E+02  0.89988438354E+02 0.  0.
    9000005    2    3    3    0    0 -0.16472570674E+02  0.20038216979E+01  0.24757030757E+02  0.31008234401E+02  0.85579870759E+01 0.  0.
         22    1    3    3    0    0  0.16472570674E+02 -0.20038216979E+01 -0.65868268123E+02  0.67926354470E+02  0.00000000000E+00 0. -1.
         22    1    4    4    0    0 -0.97416197406E+01  0.52235566885E+01  0.16701216146E+02  0.20027863601E+02  0.00000000000E+00 0. -1.
         22    1    4    4    0    0 -0.67309509337E+01 -0.32197349907E+01  0.80558146105E+01  0.10980370801E+02  0.00000000000E+00 0. -1.
<mgrwt>
<rscale>  0 0.89988438E+02</rscale>
<asrwt>0</asrwt>
<pdfrwt beam="2">  1        2 0.10772756E-01 0.89988438E+02</pdfrwt>
<pdfrwt beam="1">  1       -2 0.44479501E-02 0.89988438E+02</pdfrwt>
<totfact> 0.11475776E+05</totfact>
</mgrwt>
</event>
<event>
 7    1  0.3056193E-009  0.9239764E+02  0.7818608E-02  0.1297147E+00
          2   -1    0    0  501    0  0.00000000000E+00  0.00000000000E+00  0.19359311794E+03  0.19359311796E+03  0.25500000000E-02 0. -1.
         -2   -1    0    0    0  501 -0.00000000000E+00 -0.00000000000E+00 -0.11024829134E+02  0.11024829428E+02  0.25500000000E-02 0.  1.
         23    2    1    2    0    0 -0.44408920985E-15 -0.35527136788E-14  0.18256828881E+03  0.20461794739E+03  0.92397642365E+02 0.  0.
    9000005    2    3    3    0    0 -0.36612566106E+01 -0.30775671321E+02  0.22150021923E+02  0.41233226266E+02  0.15780010516E+02 0.  0.
         22    1    3    3    0    0  0.36612566106E+01  0.30775671321E+02  0.16041826689E+03  0.16338472112E+03  0.00000000000E+00 0. -1.
         22    1    4    4    0    0 -0.74450337970E+01 -0.22380469346E+02  0.21641914823E+02  0.32010723416E+02  0.00000000000E+00 0.  1.
         22    1    4    4    0    0  0.37837771864E+01 -0.83952019755E+01  0.50810709957E+00  0.92225028506E+01  0.00000000000E+00 0.  1.
<mgrwt>
<rscale>  0 0.92397642E+02</rscale>
<asrwt>0</asrwt>
<pdfrwt beam="1">  1        2 0.29783555E-01 0.92397642E+02</pdfrwt>
<pdfrwt beam="2">  1       -2 0.16961276E-02 0.92397642E+02</pdfrwt>
<totfact> 0.14748349E+05</totfact>
</mgrwt>
</event>
<event>
 7    1  0.3056193E-009  0.8784832E+02  0.7818608E-02  0.1308148E+00
         -2   -1    0    0    0  501 -0.00000000000E+00  0.00000000000E+00  0.12767168473E+03  0.12767168476E+03  0.25500000000E-02 0.  1.
          2   -1    0    0  501    0  0.00000000000E+00 -0.00000000000E+00 -0.15111665070E+02  0.15111665285E+02  0.25500000000E-02 0. -1.
         23    2    1    2    0    0  0.35527136788E-14  0.11102230246E-15  0.11256001966E+03  0.14278335004E+03  0.87848318270E+02 0.  0.
    9000005    2    3    3    0    0 -0.29181280559E+02 -0.11851744180E+00  0.41089103776E+01  0.30474827273E+02  0.77634252383E+01 0.  0.
         22    1    3    3    0    0  0.29181280559E+02  0.11851744180E+00  0.10845110928E+03  0.11230852277E+03  0.00000000000E+00 0.  1.
         22    1    4    4    0    0 -0.27749357107E+01 -0.22080966585E+01  0.15248340940E+01  0.38601914546E+01  0.00000000000E+00 0. -1.
         22    1    4    4    0    0 -0.26406344848E+02  0.20895792167E+01  0.25840762835E+01  0.26614635819E+02  0.00000000000E+00 0. -1.
<mgrwt>
<rscale>  0 0.87848318E+02</rscale>
<asrwt>0</asrwt>
<pdfrwt beam="2">  1        2 0.23248716E-02 0.87848318E+02</pdfrwt>
<pdfrwt beam="1">  1       -2 0.19641797E-01 0.87848318E+02</pdfrwt>
<totfact> 0.81136818E+04</totfact>
</mgrwt>
</event>
<event>
 7    1  0.3056193E-009  0.9134266E+02  0.7818608E-02  0.1299632E+00
          2   -1    0    0  501    0  0.00000000000E+00  0.00000000000E+00  0.10040614226E+04  0.10040614226E+04  0.25500000000E-02 0. -1.
         -2   -1    0    0    0  501 -0.00000000000E+00 -0.00000000000E+00 -0.20774322461E+01  0.20774338111E+01  0.25500000000E-02 0.  1.
         23    2    1    2    0    0 -0.88817841970E-15  0.00000000000E+00  0.10019839903E+04  0.10061388564E+04  0.91342659589E+02 0.  0.
    9000005    2    3    3    0    0 -0.64329159251E+01 -0.18439079170E+02  0.95436263790E+03  0.95466871693E+03  0.14245435429E+02 0.  0.
         22    1    3    3    0    0  0.64329159251E+01  0.18439079170E+02  0.47621352409E+02  0.51470139432E+02  0.00000000000E+00 0.  1.
         22    1    4    4    0    0 -0.90579798762E+01 -0.61576429116E+01  0.33572855240E+03  0.33590716643E+03  0.00000000000E+00 0. -1.
         22    1    4    4    0    0  0.26250639511E+01 -0.12281436258E+02  0.61863408550E+03  0.61876155050E+03  0.00000000000E+00 0. -1.
<mgrwt>
<rscale>  0 0.91342660E+02</rscale>
<asrwt>0</asrwt>
<pdfrwt beam="1">  1        2 0.15447129E+00 0.91342660E+02</pdfrwt>
<pdfrwt beam="2">  1       -2 0.31960446E-03 0.91342660E+02</pdfrwt>
<totfact> 0.24886292E+05</totfact>
</mgrwt>
</event>
<event>
 7    1  0.3056193E-009  0.9104720E+02  0.7818608E-02  0.1300335E+00
          2   -1    0    0  501    0  0.00000000000E+00  0.00000000000E+00  0.75768106461E+02  0.75768106504E+02  0.25500000000E-02 0. -1.
         -2   -1    0    0    0  501 -0.00000000000E+00 -0.00000000000E+00 -0.27351854818E+02  0.27351854937E+02  0.25500000000E-02 0.  1.
         23    2    1    2    0    0  0.00000000000E+00  0.00000000000E+00  0.48416251643E+02  0.10311996144E+03  0.91047202179E+02 0.  0.
    9000005    2    3    3    0    0  0.32420847186E+02 -0.28131766825E+02  0.39923825986E+02  0.59363488429E+02  0.93597136739E+01 0.  0.
         22    1    3    3    0    0 -0.32420847186E+02  0.28131766825E+02  0.84924256570E+01  0.43756473013E+02  0.00000000000E+00 0. -1.
         22    1    4    4    0    0  0.25321897910E+02 -0.26397205940E+02  0.34264979833E+02  0.50120852329E+02  0.00000000000E+00 0.  1.
         22    1    4    4    0    0  0.70989492762E+01 -0.17345608856E+01  0.56588461528E+01  0.92426360998E+01  0.00000000000E+00 0.  1.
<mgrwt>
<rscale>  0 0.91047202E+02</rscale>
<asrwt>0</asrwt>
<pdfrwt beam="1">  1        2 0.11656632E-01 0.91047202E+02</pdfrwt>
<pdfrwt beam="2">  1       -2 0.42079776E-02 0.91047202E+02</pdfrwt>
<totfact> 0.11354584E+05</totfact>
</mgrwt>
</event>
<event>
 7    1  0.3056193E-009  0.8928615E+02  0.7818608E-02  0.1304590E+00
         -2   -1    0    0    0  501 -0.00000000000E+00  0.00000000000E+00  0.56970473625E+03  0.56970473625E+03  0.25500000000E-02 0.  1.
          2   -1    0    0  501    0  0.00000000000E+00 -0.00000000000E+00 -0.34983099260E+01  0.34983108554E+01  0.25500000000E-02 0. -1.
         23    2    1    2    0    0  0.00000000000E+00  0.00000000000E+00  0.56620642632E+03  0.57320304711E+03  0.89286146780E+02 0.  0.
    9000005    2    3    3    0    0  0.16643645454E+02  0.44776775191E+01  0.54692366351E+03  0.54734022685E+03  0.12600384587E+02 0.  0.
         22    1    3    3    0    0 -0.16643645454E+02 -0.44776775191E+01  0.19282762805E+02  0.25862820252E+02  0.00000000000E+00 0. -1.
         22    1    4    4    0    0  0.99037102000E+01 -0.18623196315E+01  0.39911914406E+03  0.39924634359E+03  0.00000000000E+00 0. -1.
         22    1    4    4    0    0  0.67399352542E+01  0.63399971507E+01  0.14780451945E+03  0.14809388327E+03  0.00000000000E+00 0. -1.
<mgrwt>
<rscale>  0 0.89286147E+02</rscale>
<asrwt>0</asrwt>
<pdfrwt beam="2">  1        2 0.53820170E-03 0.89286147E+02</pdfrwt>
<pdfrwt beam="1">  1       -2 0.87646865E-01 0.89286147E+02</pdfrwt>
<totfact> 0.34493865E+04</totfact>
</mgrwt>
</event>
<event>
 7    1  0.3056193E-009  0.9489606E+02  0.7818608E-02  0.1291410E+00
          2   -1    0    0  501    0  0.00000000000E+00  0.00000000000E+00  0.16310536715E+03  0.16310536717E+03  0.25500000000E-02 0. -1.
         -2   -1    0    0    0  501 -0.00000000000E+00 -0.00000000000E+00 -0.13802827834E+02  0.13802828069E+02  0.25500000000E-02 0.  1.
         23    2    1    2    0    0  0.00000000000E+00  0.00000000000E+00  0.14930253931E+03  0.17690819524E+03  0.94896055221E+02 0.  0.
    9000005    2    3    3    0    0 -0.30888661678E+02  0.34252837367E+02  0.85047424910E+02  0.97812771760E+02  0.14384281267E+02 0.  0.
         22    1    3    3    0    0  0.30888661678E+02 -0.34252837367E+02  0.64255114404E+02  0.79095423477E+02  0.00000000000E+00 0. -1.
         22    1    4    4    0    0 -0.10178483618E+02  0.84550002978E+01  0.13080067290E+02  0.18605824870E+02  0.00000000000E+00 0.  1.
         22    1    4    4    0    0 -0.20710178060E+02  0.25797837069E+02  0.71967357620E+02  0.79206946889E+02  0.00000000000E+00 0.  1.
<mgrwt>
<rscale>  0 0.94896055E+02</rscale>
<asrwt>0</asrwt>
<pdfrwt beam="1">  1        2 0.25093134E-01 0.94896055E+02</pdfrwt>
<pdfrwt beam="2">  1       -2 0.21235120E-02 0.94896055E+02</pdfrwt>
<totfact> 0.12908198E+05</totfact>
</mgrwt>
</event>
<event>
 7    1  0.3056193E-009  0.9332209E+02  0.7818608E-02  0.1295001E+00
          2   -1    0    0  501    0  0.00000000000E+00  0.00000000000E+00  0.10547492079E+04  0.10547492079E+04  0.25500000000E-02 0. -1.
         -2   -1    0    0    0  501 -0.00000000000E+00 -0.00000000000E+00 -0.20642367388E+01  0.20642383138E+01  0.25500000000E-02 0.  1.
         23    2    1    2    0    0  0.00000000000E+00 -0.17763568394E-14  0.10526849711E+04  0.10568134462E+04  0.93322085253E+02 0.  0.
    9000005    2    3    3    0    0  0.24858646503E+02 -0.15494424541E+02  0.93361792529E+03  0.93419619250E+03  0.14901884122E+02 0.  0.
         22    1    3    3    0    0 -0.24858646503E+02  0.15494424541E+02  0.11906704585E+03  0.12261725370E+03  0.00000000000E+00 0.  1.
         22    1    4    4    0    0  0.22048779863E+02 -0.18194120883E+02  0.76656019373E+03  0.76709302261E+03  0.00000000000E+00 0.  1.
         22    1    4    4    0    0  0.28098666405E+01  0.26996963420E+01  0.16705773157E+03  0.16710316989E+03  0.00000000000E+00 0.  1.
<mgrwt>
<rscale>  0 0.93322085E+02</rscale>
<asrwt>0</asrwt>
<pdfrwt beam="1">  1        2 0.16226948E+00 0.93322085E+02</pdfrwt>
<pdfrwt beam="2">  1       -2 0.31757428E-03 0.93322085E+02</pdfrwt>
<totfact> 0.23544780E+05</totfact>
</mgrwt>
</event>
<event>
 7    1  0.3056193E-009  0.8737129E+02  0.7818608E-02  0.1309345E+00
          2   -1    0    0  501    0  0.00000000000E+00  0.00000000000E+00  0.45931816431E+01  0.45931823509E+01  0.25500000000E-02 0. -1.
         -2   -1    0    0    0  501 -0.00000000000E+00 -0.00000000000E+00 -0.41549317779E+03  0.41549317780E+03  0.25500000000E-02 0.  1.
         23    2    1    2    0    0  0.00000000000E+00  0.71054273576E-14 -0.41089999615E+03  0.42008636015E+03  0.87371294768E+02 0.  0.
    9000005    2    3    3    0    0  0.39583450872E+01 -0.42455264207E+02 -0.24855736784E+03  0.25223747895E+03  0.49862534784E+01 0.  0.
         22    1    3    3    0    0 -0.39583450872E+01  0.42455264207E+02 -0.16234262830E+03  0.16784888120E+03  0.00000000000E+00 0. -1.
         22    1    4    4    0    0  0.47064203024E+00 -0.24508825801E+02 -0.15212742824E+03  0.15408977405E+03  0.00000000000E+00 0. -1.
         22    1    4    4    0    0  0.34877030570E+01 -0.17946438407E+02 -0.96429939605E+02  0.98147704895E+02  0.00000000000E+00 0. -1.
<mgrwt>
<rscale>  0 0.87371295E+02</rscale>
<asrwt>0</asrwt>
<pdfrwt beam="1">  1        2 0.70664371E-03 0.87371295E+02</pdfrwt>
<pdfrwt beam="2">  1       -2 0.63921998E-01 0.87371295E+02</pdfrwt>
<totfact> 0.46435201E+04</totfact>
</mgrwt>
</event>
<event>
 7    1  0.3056193E-009  0.9138764E+02  0.7818608E-02  0.1299526E+00
          2   -1    0    0  501    0  0.00000000000E+00  0.00000000000E+00  0.54782355028E+02  0.54782355087E+02  0.25500000000E-02 0. -1.
         -2   -1    0    0    0  501 -0.00000000000E+00 -0.00000000000E+00 -0.38113093104E+02  0.38113093190E+02  0.25500000000E-02 0.  1.
         23    2    1    2    0    0  0.00000000000E+00  0.00000000000E+00  0.16669261923E+02  0.92895448276E+02  0.91387636020E+02 0.  0.
    9000005    2    3    3    0    0 -0.20329334467E+02  0.40465767013E+01  0.48604477715E+02  0.54822956493E+02  0.14611799403E+02 0.  0.
         22    1    3    3    0    0  0.20329334467E+02 -0.40465767013E+01 -0.31935215792E+02  0.38072491783E+02  0.00000000000E+00 0.  1.
         22    1    4    4    0    0 -0.24617655160E+00 -0.13498556062E+01 -0.52844815468E+00  0.14703640720E+01  0.00000000000E+00 0.  1.
         22    1    4    4    0    0 -0.20083157916E+02  0.53964323075E+01  0.49132925870E+02  0.53352592421E+02  0.00000000000E+00 0.  1.
<mgrwt>
<rscale>  0 0.91387636E+02</rscale>
<asrwt>0</asrwt>
<pdfrwt beam="1">  1        2 0.84280546E-02 0.91387636E+02</pdfrwt>
<pdfrwt beam="2">  1       -2 0.58635528E-02 0.91387636E+02</pdfrwt>
<totfact> 0.10285553E+05</totfact>
</mgrwt>
</event>
<event>
 7    1  0.3056193E-009  0.9150545E+02  0.7818608E-02  0.1299246E+00
         -2   -1    0    0    0  501 -0.00000000000E+00  0.00000000000E+00  0.26709774564E+02  0.26709774686E+02  0.25500000000E-02 0.  1.
          2   -1    0    0  501    0  0.00000000000E+00 -0.00000000000E+00 -0.78372500379E+02  0.78372500421E+02  0.25500000000E-02 0. -1.
         23    2    1    2    0    0  0.35527136788E-14  0.00000000000E+00 -0.51662725815E+02  0.10508227511E+03  0.91505449580E+02 0.  0.
    9000005    2    3    3    0    0  0.27720881009E+02  0.25613065240E+02  0.31539605755E+01  0.38528947152E+02  0.70750227134E+01 0.  0.
         22    1    3    3    0    0 -0.27720881009E+02 -0.25613065240E+02 -0.54816686391E+02  0.66553327954E+02  0.00000000000E+00 0. -1.
         22    1    4    4    0    0  0.23747324644E+02  0.17994407035E+02  0.20433654267E+01  0.29864853164E+02  0.00000000000E+00 0.  1.
         22    1    4    4    0    0  0.39735563658E+01  0.76186582053E+01  0.11105951488E+01  0.86640939876E+01  0.00000000000E+00 0.  1.
<mgrwt>
<rscale>  0 0.91505450E+02</rscale>
<asrwt>0</asrwt>
<pdfrwt beam="2">  1        2 0.12057308E-01 0.91505450E+02</pdfrwt>
<pdfrwt beam="1">  1       -2 0.41091961E-02 0.91505450E+02</pdfrwt>
<totfact> 0.11304573E+05</totfact>
</mgrwt>
</event>
<event>
 7    1  0.3056193E-009  0.8931891E+02  0.7818608E-02  0.1304509E+00
         -2   -1    0    0    0  501 -0.00000000000E+00  0.00000000000E+00  0.25301601609E+02  0.25301601737E+02  0.25500000000E-02 0.  1.
          2   -1    0    0  501    0  0.00000000000E+00 -0.00000000000E+00 -0.78827686423E+02  0.78827686465E+02  0.25500000000E-02 0. -1.
         23    2    1    2    0    0  0.00000000000E+00  0.00000000000E+00 -0.53526084814E+02  0.10412928820E+03  0.89318905647E+02 0.  0.
    9000005    2    3    3    0    0 -0.19850377972E+02 -0.12173991524E+02  0.16893495394E+02  0.29959477282E+02  0.83628055752E+01 0.  0.
         22    1    3    3    0    0  0.19850377972E+02  0.12173991524E+02 -0.70419580208E+02  0.74169810921E+02  0.00000000000E+00 0. -1.
         22    1    4    4    0    0 -0.15783439896E+02 -0.97969326051E+01  0.17093595370E+02  0.25244561119E+02  0.00000000000E+00 0. -1.
         22    1    4    4    0    0 -0.40669380760E+01 -0.23770589193E+01 -0.20009997586E+00  0.47149161626E+01  0.00000000000E+00 0. -1.
<mgrwt>
<rscale>  0 0.89318906E+02</rscale>
<asrwt>0</asrwt>
<pdfrwt beam="2">  1        2 0.12127336E-01 0.89318906E+02</pdfrwt>
<pdfrwt beam="1">  1       -2 0.38925541E-02 0.89318906E+02</pdfrwt>
<totfact> 0.12109550E+05</totfact>
</mgrwt>
</event>
<event>
 7    1  0.3056193E-009  0.9084971E+02  0.7818608E-02  0.1300807E+00
         -2   -1    0    0    0  501 -0.00000000000E+00  0.00000000000E+00  0.26281725050E+01  0.26281737421E+01  0.25500000000E-02 0.  1.
          2   -1    0    0  501    0  0.00000000000E+00 -0.00000000000E+00 -0.78511475358E+03  0.78511475358E+03  0.25500000000E-02 0. -1.
         23    2    1    2    0    0  0.00000000000E+00  0.00000000000E+00 -0.78248658107E+03  0.78774292733E+03  0.90849711006E+02 0.  0.
    9000005    2    3    3    0    0  0.23567656037E+02  0.30208534295E+02 -0.59711382081E+03  0.59845201311E+03  0.11485079084E+02 0.  0.
         22    1    3    3    0    0 -0.23567656037E+02 -0.30208534295E+02 -0.18537276027E+03  0.18929091422E+03  0.00000000000E+00 0.  1.
         22    1    4    4    0    0  0.83834011318E+01  0.12221770717E+02 -0.31888858206E+03  0.31923280042E+03  0.00000000000E+00 0.  1.
         22    1    4    4    0    0  0.15184254906E+02  0.17986763578E+02 -0.27822523875E+03  0.27921921269E+03  0.00000000000E+00 0.  1.
<mgrwt>
<rscale>  0 0.90849711E+02</rscale>
<asrwt>0</asrwt>
<pdfrwt beam="2">  1        2 0.12078670E+00 0.90849711E+02</pdfrwt>
<pdfrwt beam="1">  1       -2 0.40433495E-03 0.90849711E+02</pdfrwt>
<totfact> 0.24522797E+05</totfact>
</mgrwt>
</event>
<event>
 7    1  0.3056193E-009  0.8556994E+02  0.7818608E-02  0.1313949E+00
          2   -1    0    0  501    0  0.00000000000E+00  0.00000000000E+00  0.46465231010E+02  0.46465231080E+02  0.25500000000E-02 0. -1.
         -2   -1    0    0    0  501 -0.00000000000E+00 -0.00000000000E+00 -0.39396200359E+02  0.39396200441E+02  0.25500000000E-02 0.  1.
         23    2    1    2    0    0  0.00000000000E+00 -0.88817841970E-15  0.70690306510E+01  0.85861431521E+02  0.85569937644E+02 0.  0.
    9000005    2    3    3    0    0  0.40362135410E+02 -0.53430378033E+01 -0.79717395397E+01  0.42457804993E+02  0.90258819892E+01 0.  0.
         22    1    3    3    0    0 -0.40362135410E+02  0.53430378033E+01  0.15040770191E+02  0.43403626528E+02  0.00000000000E+00 0. -1.
         22    1    4    4    0    0  0.77771893357E+01 -0.45539227834E+01 -0.29234785140E+01  0.94746827547E+01  0.00000000000E+00 0.  1.
         22    1    4    4    0    0  0.32584946075E+02 -0.78911501992E+00 -0.50482610257E+01  0.32983122238E+02  0.00000000000E+00 0.  1.
<mgrwt>
<rscale>  0 0.85569938E+02</rscale>
<asrwt>0</asrwt>
<pdfrwt beam="1">  1        2 0.71484971E-02 0.85569938E+02</pdfrwt>
<pdfrwt beam="2">  1       -2 0.60609539E-02 0.85569938E+02</pdfrwt>
<totfact> 0.11879308E+05</totfact>
</mgrwt>
</event>
<event>
 7    1  0.3056193E-009  0.9092189E+02  0.7818608E-02  0.1300634E+00
         -2   -1    0    0    0  501 -0.00000000000E+00  0.00000000000E+00  0.90241200981E+02  0.90241201017E+02  0.25500000000E-02 0.  1.
          2   -1    0    0  501    0  0.00000000000E+00 -0.00000000000E+00 -0.22901929044E+02  0.22901929186E+02  0.25500000000E-02 0. -1.
         23    2    1    2    0    0  0.00000000000E+00  0.00000000000E+00  0.67339271937E+02  0.11314313020E+03  0.90921891573E+02 0.  0.
    9000005    2    3    3    0    0 -0.40032958644E+02  0.17828577851E+02  0.20817339445E+02  0.49230798304E+02  0.83554721075E+01 0.  0.
         22    1    3    3    0    0  0.40032958644E+02 -0.17828577851E+02  0.46521932491E+02  0.63912331899E+02  0.00000000000E+00 0.  1.
         22    1    4    4    0    0 -0.28878929231E+01  0.39301982753E+01  0.14096651879E+01  0.50767647139E+01  0.00000000000E+00 0. -1.
         22    1    4    4    0    0 -0.37145065721E+02  0.13898379576E+02  0.19407674257E+02  0.44154033591E+02  0.00000000000E+00 0. -1.
<mgrwt>
<rscale>  0 0.90921892E+02</rscale>
<asrwt>0</asrwt>
<pdfrwt beam="2">  1        2 0.35233737E-02 0.90921892E+02</pdfrwt>
<pdfrwt beam="1">  1       -2 0.13883262E-01 0.90921892E+02</pdfrwt>
<totfact> 0.82813144E+04</totfact>
</mgrwt>
</event>
<event>
 7    1  0.3056193E-009  0.9166008E+02  0.7818608E-02  0.1298881E+00
         -2   -1    0    0    0  501 -0.00000000000E+00  0.00000000000E+00  0.44434792924E+02  0.44434792997E+02  0.25500000000E-02 0. -1.
          2   -1    0    0  501    0  0.00000000000E+00 -0.00000000000E+00 -0.47269097779E+02  0.47269097848E+02  0.25500000000E-02 0.  1.
         23    2    1    2    0    0  0.35527136788E-14  0.00000000000E+00 -0.28343048558E+01  0.91703890845E+02  0.91660080253E+02 0.  0.
    9000005    2    3    3    0    0  0.26201773904E+02  0.66135598021E+01 -0.36826325321E+02  0.48278902828E+02  0.15633364728E+02 0.  0.
         22    1    3    3    0    0 -0.26201773904E+02 -0.66135598021E+01  0.33992020465E+02  0.43424988017E+02  0.00000000000E+00 0. -1.
         22    1    4    4    0    0  0.28869997173E+01 -0.44657389763E+01 -0.77313259119E+01  0.93835490263E+01  0.00000000000E+00 0.  1.
         22    1    4    4    0    0  0.23314774186E+02  0.11079298778E+02 -0.29094999409E+02  0.38895353802E+02  0.00000000000E+00 0.  1.
<mgrwt>
<rscale>  0 0.91660080E+02</rscale>
<asrwt>0</asrwt>
<pdfrwt beam="2">  1        2 0.72721689E-02 0.91660080E+02</pdfrwt>
<pdfrwt beam="1">  1       -2 0.68361220E-02 0.91660080E+02</pdfrwt>
<totfact> 0.98109085E+04</totfact>
</mgrwt>
</event>
<event>
 7    1  0.3056193E-009  0.8963391E+02  0.7818608E-02  0.1303741E+00
         -2   -1    0    0    0  501 -0.00000000000E+00  0.00000000000E+00  0.42859687215E+01  0.42859694800E+01  0.25500000000E-02 0.  1.
          2   -1    0    0  501    0  0.00000000000E+00 -0.00000000000E+00 -0.46863605908E+03  0.46863605909E+03  0.25500000000E-02 0. -1.
         23    2    1    2    0    0  0.00000000000E+00  0.00000000000E+00 -0.46435009036E+03  0.47292202857E+03  0.89633914831E+02 0.  0.
    9000005    2    3    3    0    0 -0.16812027358E+02 -0.20437771815E+02 -0.42162357799E+03  0.42266367961E+03  0.13334082798E+02 0.  0.
         22    1    3    3    0    0  0.16812027358E+02  0.20437771815E+02 -0.42726512367E+02  0.50258348955E+02  0.00000000000E+00 0.  1.
         22    1    4    4    0    0 -0.92168900973E+01 -0.40211814069E+01 -0.22021524728E+03  0.22044472345E+03  0.00000000000E+00 0. -1.
         22    1    4    4    0    0 -0.75951372604E+01 -0.16416590408E+02 -0.20140833071E+03  0.20221895616E+03  0.00000000000E+00 0. -1.
<mgrwt>
<rscale>  0 0.89633915E+02</rscale>
<asrwt>0</asrwt>
<pdfrwt beam="2">  1        2 0.72097815E-01 0.89633915E+02</pdfrwt>
<pdfrwt beam="1">  1       -2 0.65938023E-03 0.89633915E+02</pdfrwt>
<totfact> 0.22066941E+05</totfact>
</mgrwt>
</event>
<event>
 7    1  0.3056193E-009  0.9161746E+02  0.7818608E-02  0.1298981E+00
          2   -1    0    0  501    0  0.00000000000E+00  0.00000000000E+00  0.31269454933E+02  0.31269455037E+02  0.25500000000E-02 0. -1.
         -2   -1    0    0    0  501 -0.00000000000E+00 -0.00000000000E+00 -0.67108293705E+02  0.67108293753E+02  0.25500000000E-02 0.  1.
         23    2    1    2    0    0  0.00000000000E+00  0.00000000000E+00 -0.35838838772E+02  0.98377748790E+02  0.91617460632E+02 0.  0.
    9000005    2    3    3    0    0 -0.28824093570E+02  0.13698255154E+02 -0.52483484176E+02  0.62384488518E+02  0.10901272034E+02 0.  0.
         22    1    3    3    0    0  0.28824093570E+02 -0.13698255154E+02  0.16644645405E+02  0.35993260273E+02  0.00000000000E+00 0. -1.
         22    1    4    4    0    0 -0.19086814172E+02  0.11765917340E+02 -0.27379664371E+02  0.35389112834E+02  0.00000000000E+00 0.  1.
         22    1    4    4    0    0 -0.97372793980E+01  0.19323378135E+01 -0.25103819805E+02  0.26995375684E+02  0.00000000000E+00 0.  1.
<mgrwt>
<rscale>  0 0.91617461E+02</rscale>
<asrwt>0</asrwt>
<pdfrwt beam="1">  1        2 0.48106854E-02 0.91617461E+02</pdfrwt>
<pdfrwt beam="2">  1       -2 0.10324353E-01 0.91617461E+02</pdfrwt>
<totfact> 0.88178919E+04</totfact>
</mgrwt>
</event>
<event>
 7    1  0.3056193E-009  0.9272941E+02  0.7818608E-02  0.1296373E+00
          2   -1    0    0  501    0  0.00000000000E+00  0.00000000000E+00  0.77899081555E+03  0.77899081555E+03  0.25500000000E-02 0.  1.
         -2   -1    0    0    0  501 -0.00000000000E+00 -0.00000000000E+00 -0.27595773065E+01  0.27595784846E+01  0.25500000000E-02 0. -1.
         23    2    1    2    0    0  0.17763568394E-14 -0.35527136788E-14  0.77623123824E+03  0.78175039403E+03  0.92729409330E+02 0.  0.
    9000005    2    3    3    0    0 -0.98846244145E+01  0.25028252408E+02  0.70547457236E+03  0.70604950246E+03  0.93492493311E+01 0.  0.
         22    1    3    3    0    0  0.98846244145E+01 -0.25028252408E+02  0.70756665882E+02  0.75700891574E+02  0.00000000000E+00 0. -1.
         22    1    4    4    0    0  0.13680430670E+01  0.48382849633E+00  0.28994623025E+02  0.29030911047E+02  0.00000000000E+00 0.  1.
         22    1    4    4    0    0 -0.11252667482E+02  0.24544423912E+02  0.67647994933E+03  0.67701859141E+03  0.00000000000E+00 0.  1.
<mgrwt>
<rscale>  0 0.92729409E+02</rscale>
<asrwt>0</asrwt>
<pdfrwt beam="1">  1        2 0.11984490E+00 0.92729409E+02</pdfrwt>
<pdfrwt beam="2">  1       -2 0.42454988E-03 0.92729409E+02</pdfrwt>
<totfact> 0.23199345E+05</totfact>
</mgrwt>
</event>
<event>
 7    1  0.3056193E-009  0.9123355E+02  0.7818608E-02  0.1299892E+00
         -2   -1    0    0    0  501 -0.00000000000E+00  0.00000000000E+00  0.21100058753E+01  0.21100074161E+01  0.25500000000E-02 0.  1.
          2   -1    0    0  501    0  0.00000000000E+00 -0.00000000000E+00 -0.98620074936E+03  0.98620074937E+03  0.25500000000E-02 0. -1.
         23    2    1    2    0    0  0.00000000000E+00 -0.35527136788E-14 -0.98409074349E+03  0.98831075678E+03  0.91233549496E+02 0.  0.
    9000005    2    3    3    0    0  0.26176170224E+02 -0.25085263205E+02 -0.78182088891E+03  0.78281731069E+03  0.15638965952E+02 0.  0.
         22    1    3    3    0    0 -0.26176170224E+02  0.25085263205E+02 -0.20226985457E+03  0.20549344609E+03  0.00000000000E+00 0.  1.
         22    1    4    4    0    0  0.23300673618E+02 -0.25934935570E+02 -0.62788352801E+03  0.62885075099E+03  0.00000000000E+00 0. -1.
         22    1    4    4    0    0  0.28754966058E+01  0.84967236472E+00 -0.15393736090E+03  0.15396655970E+03  0.00000000000E+00 0. -1.
<mgrwt>
<rscale>  0 0.91233549E+02</rscale>
<asrwt>0</asrwt>
<pdfrwt beam="2">  1        2 0.15172282E+00 0.91233549E+02</pdfrwt>
<pdfrwt beam="1">  1       -2 0.32461719E-03 0.91233549E+02</pdfrwt>
<totfact> 0.24943700E+05</totfact>
</mgrwt>
</event>
<event>
 7    1  0.3056193E-009  0.9112114E+02  0.7818608E-02  0.1300159E+00
         -2   -1    0    0    0  501 -0.00000000000E+00  0.00000000000E+00  0.94573976045E+01  0.94573979483E+01  0.25500000000E-02 0.  1.
          2   -1    0    0  501    0  0.00000000000E+00 -0.00000000000E+00 -0.21948592913E+03  0.21948592914E+03  0.25500000000E-02 0. -1.
         23    2    1    2    0    0  0.71054273576E-14  0.88817841970E-15 -0.21002853152E+03  0.22894332709E+03  0.91121144448E+02 0.  0.
    9000005    2    3    3    0    0 -0.43996109204E+02 -0.46028473930E+01 -0.10162164728E+03  0.11185833069E+03  0.15115658143E+02 0.  0.
         22    1    3    3    0    0  0.43996109204E+02  0.46028473930E+01 -0.10840688424E+03  0.11708499639E+03  0.00000000000E+00 0. -1.
         22    1    4    4    0    0 -0.24510537906E+02 -0.20080281533E+01 -0.73822930094E+02  0.77811462222E+02  0.00000000000E+00 0. -1.
         22    1    4    4    0    0 -0.19485571298E+02 -0.25948192397E+01 -0.27798717184E+02  0.34046868473E+02  0.00000000000E+00 0. -1.
<mgrwt>
<rscale>  0 0.91121144E+02</rscale>
<asrwt>0</asrwt>
<pdfrwt beam="2">  1        2 0.33767062E-01 0.91121144E+02</pdfrwt>
<pdfrwt beam="1">  1       -2 0.14549844E-02 0.91121144E+02</pdfrwt>
<totfact> 0.16026616E+05</totfact>
</mgrwt>
</event>
<event>
 7    1  0.3056193E-009  0.9158355E+02  0.7818608E-02  0.1299062E+00
          2   -1    0    0  501    0  0.00000000000E+00  0.00000000000E+00  0.12410999401E+04  0.12410999401E+04  0.25500000000E-02 0. -1.
         -2   -1    0    0    0  501 -0.00000000000E+00 -0.00000000000E+00 -0.16895378484E+01  0.16895397727E+01  0.25500000000E-02 0.  1.
         23    2    1    2    0    0 -0.17763568394E-14  0.35527136788E-14  0.12394104022E+04  0.12427894799E+04  0.91583546990E+02 0.  0.
    9000005    2    3    3    0    0  0.10488447251E+02 -0.27975905746E+02  0.10897616031E+04  0.10901873111E+04  0.59466680540E+01 0.  0.
         22    1    3    3    0    0 -0.10488447251E+02  0.27975905746E+02  0.14964879918E+03  0.15260216880E+03  0.00000000000E+00 0.  1.
         22    1    4    4    0    0  0.48853546582E+01 -0.58782943889E+01  0.25560405663E+03  0.25571831143E+03  0.00000000000E+00 0. -1.
         22    1    4    4    0    0  0.56030925929E+01 -0.22097611357E+02  0.83415754644E+03  0.83446899964E+03  0.00000000000E+00 0. -1.
<mgrwt>
<rscale>  0 0.91583547E+02</rscale>
<asrwt>0</asrwt>
<pdfrwt beam="1">  1        2 0.19093848E+00 0.91583547E+02</pdfrwt>
<pdfrwt beam="2">  1       -2 0.25992901E-03 0.91583547E+02</pdfrwt>
<totfact> 0.24473908E+05</totfact>
</mgrwt>
</event>
<event>
 7    1  0.3056193E-009  0.8956103E+02  0.7818608E-02  0.1303918E+00
          2   -1    0    0  501    0  0.00000000000E+00  0.00000000000E+00  0.24255477528E+03  0.24255477529E+03  0.25500000000E-02 0. -1.
         -2   -1    0    0    0  501 -0.00000000000E+00 -0.00000000000E+00 -0.82673886778E+01  0.82673890711E+01  0.25500000000E-02 0.  1.
         23    2    1    2    0    0 -0.17763568394E-14  0.00000000000E+00  0.23428738660E+03  0.25082216436E+03  0.89561032908E+02 0.  0.
    9000005    2    3    3    0    0 -0.89577764991E+01 -0.39720396436E+02  0.16500333102E+03  0.17045903842E+03  0.13123752529E+02 0.  0.
         22    1    3    3    0    0  0.89577764991E+01  0.39720396436E+02  0.69284055586E+02  0.80363125943E+02  0.00000000000E+00 0.  1.
         22    1    4    4    0    0 -0.40621797572E+01 -0.20962091223E+02  0.11210086362E+03  0.11411623109E+03  0.00000000000E+00 0. -1.
         22    1    4    4    0    0 -0.48955967420E+01 -0.18758305213E+02  0.52902467393E+02  0.56342807333E+02  0.00000000000E+00 0. -1.
<mgrwt>
<rscale>  0 0.89561033E+02</rscale>
<asrwt>0</asrwt>
<pdfrwt beam="1">  1        2 0.37316126E-01 0.89561033E+02</pdfrwt>
<pdfrwt beam="2">  1       -2 0.12719058E-02 0.89561033E+02</pdfrwt>
<totfact> 0.17412864E+05</totfact>
</mgrwt>
</event>
<event>
 7    1  0.3056193E-009  0.9003329E+02  0.7818608E-02  0.1302771E+00
          2   -1    0    0  501    0  0.00000000000E+00  0.00000000000E+00  0.63678741841E+02  0.63678741892E+02  0.25500000000E-02 0.  1.
         -2   -1    0    0    0  501 -0.00000000000E+00 -0.00000000000E+00 -0.31823781540E+02  0.31823781642E+02  0.25500000000E-02 0. -1.
         23    2    1    2    0    0  0.00000000000E+00  0.17763568394E-14  0.31854960300E+02  0.95502523534E+02  0.90033291096E+02 0.  0.
    9000005    2    3    3    0    0 -0.32083935873E+02  0.13023292108E+02  0.44994214432E+02  0.58467066502E+02  0.13961857131E+02 0.  0.
         22    1    3    3    0    0  0.32083935873E+02 -0.13023292108E+02 -0.13139254131E+02  0.37035457032E+02  0.00000000000E+00 0. -1.
         22    1    4    4    0    0 -0.28727299708E+02  0.63199323438E+01  0.31996732567E+02  0.43462514749E+02  0.00000000000E+00 0. -1.
         22    1    4    4    0    0 -0.33566361654E+01  0.67033597646E+01  0.12997481865E+02  0.15004551753E+02  0.00000000000E+00 0. -1.
<mgrwt>
<rscale>  0 0.90033291E+02</rscale>
<asrwt>0</asrwt>
<pdfrwt beam="1">  1        2 0.97967296E-02 0.90033291E+02</pdfrwt>
<pdfrwt beam="2">  1       -2 0.48959664E-02 0.90033291E+02</pdfrwt>
<totfact> 0.11167232E+05</totfact>
</mgrwt>
</event>
<event>
 7    1  0.3056193E-009  0.9124541E+02  0.7818608E-02  0.1299863E+00
         -2   -1    0    0    0  501 -0.00000000000E+00  0.00000000000E+00  0.58862543101E+02  0.58862543156E+02  0.25500000000E-02 0.  1.
          2   -1    0    0  501    0  0.00000000000E+00 -0.00000000000E+00 -0.35360877086E+02  0.35360877178E+02  0.25500000000E-02 0. -1.
         23    2    1    2    0    0  0.00000000000E+00  0.17763568394E-14  0.23501666015E+02  0.94223420334E+02  0.91245408838E+02 0.  0.
    9000005    2    3    3    0    0  0.94760725495E+01  0.14971477547E+02  0.54367490355E+02  0.58633531276E+02  0.12966336858E+02 0.  0.
         22    1    3    3    0    0 -0.94760725495E+01 -0.14971477547E+02 -0.30865824341E+02  0.35589889058E+02  0.00000000000E+00 0. -1.
         22    1    4    4    0    0 -0.73630710049E+00  0.10310832757E+02  0.20583615940E+02  0.23033468377E+02  0.00000000000E+00 0. -1.
         22    1    4    4    0    0  0.10212379650E+02  0.46606447899E+01  0.33783874415E+02  0.35600062900E+02  0.00000000000E+00 0. -1.
<mgrwt>
<rscale>  0 0.91245409E+02</rscale>
<asrwt>0</asrwt>
<pdfrwt beam="2">  1        2 0.54401350E-02 0.91245409E+02</pdfrwt>
<pdfrwt beam="1">  1       -2 0.90557757E-02 0.91245409E+02</pdfrwt>
<totfact> 0.92181612E+04</totfact>
</mgrwt>
</event>
<event>
 7    1  0.3056193E-009  0.9137033E+02  0.7818608E-02  0.1299567E+00
          2   -1    0    0  501    0  0.00000000000E+00  0.00000000000E+00  0.14546369184E+02  0.14546369407E+02  0.25500000000E-02 0.  1.
         -2   -1    0    0    0  501 -0.00000000000E+00 -0.00000000000E+00 -0.14348146327E+03  0.14348146329E+03  0.25500000000E-02 0. -1.
         23    2    1    2    0    0 -0.35527136788E-14  0.00000000000E+00 -0.12893509408E+03  0.15802783270E+03  0.91370331184E+02 0.  0.
    9000005    2    3    3    0    0  0.31965967666E+02  0.71617864005E+01 -0.13847112089E+02  0.38368491763E+02  0.14397373846E+02 0.  0.
         22    1    3    3    0    0 -0.31965967666E+02 -0.71617864005E+01 -0.11508798199E+03  0.11965934093E+03  0.00000000000E+00 0. -1.
         22    1    4    4    0    0  0.32035720861E+02  0.50166992712E+01 -0.15220313957E+02  0.35820561687E+02  0.00000000000E+00 0.  1.
         22    1    4    4    0    0 -0.69753194156E-01  0.21450871293E+01  0.13732018680E+01  0.25479300757E+01  0.00000000000E+00 0.  1.
<mgrwt>
<rscale>  0 0.91370331E+02</rscale>
<asrwt>0</asrwt>
<pdfrwt beam="1">  1        2 0.22379031E-02 0.91370331E+02</pdfrwt>
<pdfrwt beam="2">  1       -2 0.22074070E-01 0.91370331E+02</pdfrwt>
<totfact> 0.70602022E+04</totfact>
</mgrwt>
</event>
<event>
 7    1  0.3056193E-009  0.8971816E+02  0.7818608E-02  0.1303536E+00
          2   -1    0    0  501    0  0.00000000000E+00  0.00000000000E+00  0.57340969029E+02  0.57340969086E+02  0.25500000000E-02 0. -1.
         -2   -1    0    0    0  501 -0.00000000000E+00 -0.00000000000E+00 -0.35094224700E+02  0.35094224793E+02  0.25500000000E-02 0.  1.
         23    2    1    2    0    0  0.44408920985E-15  0.00000000000E+00  0.22246744329E+02  0.92435193879E+02  0.89718155544E+02 0.  0.
    9000005    2    3    3    0    0  0.22700303329E+01 -0.41950541681E+02 -0.27753377118E+01  0.43536261633E+02  0.11077120226E+02 0.  0.
         22    1    3    3    0    0 -0.22700303329E+01  0.41950541681E+02  0.25022082041E+02  0.48898932246E+02  0.00000000000E+00 0. -1.
         22    1    4    4    0    0  0.64757924984E+01 -0.30437472089E+02 -0.31157396106E+01  0.31274325396E+02  0.00000000000E+00 0.  1.
         22    1    4    4    0    0 -0.42057621655E+01 -0.11513069593E+02  0.34040189878E+00  0.12261936238E+02  0.00000000000E+00 0.  1.
<mgrwt>
<rscale>  0 0.89718156E+02</rscale>
<asrwt>0</asrwt>
<pdfrwt beam="1">  1        2 0.88216874E-02 0.89718156E+02</pdfrwt>
<pdfrwt beam="2">  1       -2 0.53991116E-02 0.89718156E+02</pdfrwt>
<totfact> 0.10967116E+05</totfact>
</mgrwt>
</event>
<event>
 7    1  0.3056193E-009  0.9058292E+02  0.7818608E-02  0.1301446E+00
          2   -1    0    0  501    0  0.00000000000E+00  0.00000000000E+00  0.30546453702E+02  0.30546453809E+02  0.25500000000E-02 0. -1.
         -2   -1    0    0    0  501 -0.00000000000E+00 -0.00000000000E+00 -0.67153986214E+02  0.67153986262E+02  0.25500000000E-02 0.  1.
         23    2    1    2    0    0  0.00000000000E+00 -0.71054273576E-14 -0.36607532512E+02  0.97700440071E+02  0.90582915351E+02 0.  0.
    9000005    2    3    3    0    0 -0.21251234249E+02  0.38845952493E+02 -0.19010241264E+02  0.50052904548E+02  0.13538131281E+02 0.  0.
         22    1    3    3    0    0  0.21251234249E+02 -0.38845952493E+02 -0.17597291248E+02  0.47647535523E+02  0.00000000000E+00 0. -1.
         22    1    4    4    0    0 -0.39129975392E+01  0.79380260500E+01 -0.10260286717E+02  0.13549807778E+02  0.00000000000E+00 0. -1.
         22    1    4    4    0    0 -0.17338236709E+02  0.30907926443E+02 -0.87499545469E+01  0.36503096770E+02  0.00000000000E+00 0. -1.
<mgrwt>
<rscale>  0 0.90582915E+02</rscale>
<asrwt>0</asrwt>
<pdfrwt beam="1">  1        2 0.46994544E-02 0.90582915E+02</pdfrwt>
<pdfrwt beam="2">  1       -2 0.10331382E-01 0.90582915E+02</pdfrwt>
<totfact> 0.90628481E+04</totfact>
</mgrwt>
</event>
<event>
 7    1  0.3056193E-009  0.9557952E+02  0.7818608E-02  0.1289876E+00
          2   -1    0    0  501    0  0.00000000000E+00  0.00000000000E+00  0.85413857734E+03  0.85413857735E+03  0.25500000000E-02 0. -1.
         -2   -1    0    0    0  501 -0.00000000000E+00 -0.00000000000E+00 -0.26738757360E+01  0.26738769520E+01  0.25500000000E-02 0.  1.
         23    2    1    2    0    0  0.00000000000E+00  0.00000000000E+00  0.85146470161E+03  0.85681245430E+03  0.95579515372E+02 0.  0.
    9000005    2    3    3    0    0  0.32715815941E+02 -0.15027323709E+02  0.70245607406E+03  0.70351628294E+03  0.13945583685E+02 0.  0.
         22    1    3    3    0    0 -0.32715815941E+02  0.15027323709E+02  0.14900862755E+03  0.15329617136E+03  0.00000000000E+00 0.  1.
         22    1    4    4    0    0  0.17423965150E+01 -0.50243255111E+01  0.59610827652E+02  0.59847561068E+02  0.00000000000E+00 0.  1.
         22    1    4    4    0    0  0.30973419426E+02 -0.10002998198E+02  0.64284524641E+03  0.64366872187E+03  0.00000000000E+00 0.  1.
<mgrwt>
<rscale>  0 0.95579515E+02</rscale>
<asrwt>0</asrwt>
<pdfrwt beam="1">  1        2 0.13140613E+00 0.95579515E+02</pdfrwt>
<pdfrwt beam="2">  1       -2 0.41136497E-03 0.95579515E+02</pdfrwt>
<totfact> 0.21745381E+05</totfact>
</mgrwt>
</event>
<event>
 7    1  0.3056193E-009  0.9311876E+02  0.7818608E-02  0.1295470E+00
          2   -1    0    0  501    0  0.00000000000E+00  0.00000000000E+00  0.57004523599E+02  0.57004523656E+02  0.25500000000E-02 0. -1.
         -2   -1    0    0    0  501 -0.00000000000E+00 -0.00000000000E+00 -0.38028137157E+02  0.38028137243E+02  0.25500000000E-02 0.  1.
         23    2    1    2    0    0  0.00000000000E+00 -0.35527136788E-14  0.18976386442E+02  0.95032660898E+02  0.93118759630E+02 0.  0.
    9000005    2    3    3    0    0 -0.35184643268E+02  0.26296476479E+02 -0.30499592443E+01  0.45893840182E+02  0.12941349162E+02 0.  0.
         22    1    3    3    0    0  0.35184643268E+02 -0.26296476479E+02  0.22026345686E+02  0.49138820716E+02  0.00000000000E+00 0. -1.
         22    1    4    4    0    0 -0.23815684569E+02  0.22106410018E+02  0.24519044148E+01  0.32586684867E+02  0.00000000000E+00 0.  1.
         22    1    4    4    0    0 -0.11368958699E+02  0.41900664614E+01 -0.55018636591E+01  0.13307155315E+02  0.00000000000E+00 0.  1.
<mgrwt>
<rscale>  0 0.93118760E+02</rscale>
<asrwt>0</asrwt>
<pdfrwt beam="1">  1        2 0.87699267E-02 0.93118760E+02</pdfrwt>
<pdfrwt beam="2">  1       -2 0.58504827E-02 0.93118760E+02</pdfrwt>
<totfact> 0.98556109E+04</totfact>
</mgrwt>
</event>
<event>
 7    1  0.3056193E-009  0.8952777E+02  0.7818608E-02  0.1303999E+00
          2   -1    0    0  501    0  0.00000000000E+00  0.00000000000E+00  0.11560755453E+04  0.11560755453E+04  0.25500000000E-02 0. -1.
         -2   -1    0    0    0  501 -0.00000000000E+00 -0.00000000000E+00 -0.17332814375E+01  0.17332833133E+01  0.25500000000E-02 0.  1.
         23    2    1    2    0    0  0.00000000000E+00 -0.88817841970E-15  0.11543422638E+04  0.11578088286E+04  0.89527769334E+02 0.  0.
    9000005    2    3    3    0    0 -0.26538674303E+02  0.72254004914E+01  0.10334896933E+04  0.10338658924E+04  0.46075477925E+01 0.  0.
         22    1    3    3    0    0  0.26538674303E+02 -0.72254004914E+01  0.12085257049E+03  0.12394293623E+03  0.00000000000E+00 0.  1.
         22    1    4    4    0    0 -0.74839489449E+01  0.27766412485E+01  0.23166789355E+03  0.23180537554E+03  0.00000000000E+00 0.  1.
         22    1    4    4    0    0 -0.19054725358E+02  0.44487592429E+01  0.80182179980E+03  0.80206051683E+03  0.00000000000E+00 0.  1.
<mgrwt>
<rscale>  0 0.89527769E+02</rscale>
<asrwt>0</asrwt>
<pdfrwt beam="1">  1        2 0.17785810E+00 0.89527769E+02</pdfrwt>
<pdfrwt beam="2">  1       -2 0.26665835E-03 0.89527769E+02</pdfrwt>
<totfact> 0.26181308E+05</totfact>
</mgrwt>
</event>
<event>
 7    1  0.3056193E-009  0.9022698E+02  0.7818608E-02  0.1302303E+00
          2   -1    0    0  501    0  0.00000000000E+00  0.00000000000E+00  0.28074837507E+03  0.28074837508E+03  0.25500000000E-02 0. -1.
         -2   -1    0    0    0  501 -0.00000000000E+00 -0.00000000000E+00 -0.72492923559E+01  0.72492928044E+01  0.25500000000E-02 0.  1.
         23    2    1    2    0    0  0.00000000000E+00  0.11102230246E-15  0.27349908272E+03  0.28799766789E+03  0.90226983006E+02 0.  0.
    9000005    2    3    3    0    0 -0.37134156055E+02  0.89098877286E+00  0.21587242644E+03  0.21943695814E+03  0.13112387121E+02 0.  0.
         22    1    3    3    0    0  0.37134156055E+02 -0.89098877286E+00  0.57626656279E+02  0.68560709746E+02  0.00000000000E+00 0.  1.
         22    1    4    4    0    0 -0.30981333765E+02  0.29590137212E+01  0.14694886042E+03  0.15020840983E+03  0.00000000000E+00 0. -1.
         22    1    4    4    0    0 -0.61528222897E+01 -0.20680249484E+01  0.68923566013E+02  0.69228548311E+02  0.00000000000E+00 0. -1.
<mgrwt>
<rscale>  0 0.90226983E+02</rscale>
<asrwt>0</asrwt>
<pdfrwt beam="1">  1        2 0.43192050E-01 0.90226983E+02</pdfrwt>
<pdfrwt beam="2">  1       -2 0.11152760E-02 0.90226983E+02</pdfrwt>
<totfact> 0.18023920E+05</totfact>
</mgrwt>
</event>
<event>
 7    1  0.3056193E-009  0.9274473E+02  0.7818608E-02  0.1296338E+00
          2   -1    0    0  501    0  0.00000000000E+00  0.00000000000E+00  0.15487307474E+04  0.15487307474E+04  0.25500000000E-02 0. -1.
         -2   -1    0    0    0  501 -0.00000000000E+00 -0.00000000000E+00 -0.13884881390E+01  0.13884904805E+01  0.25500000000E-02 0.  1.
         23    2    1    2    0    0  0.00000000000E+00  0.00000000000E+00  0.15473422593E+04  0.15501192379E+04  0.92744726852E+02 0.  0.
    9000005    2    3    3    0    0 -0.43159768259E+01 -0.18436304724E+02  0.14810415793E+04  0.14811677683E+04  0.39081182280E+01 0.  0.
         22    1    3    3    0    0  0.43159768259E+01  0.18436304724E+02  0.66300679978E+02  0.68951469552E+02  0.00000000000E+00 0.  1.
         22    1    4    4    0    0 -0.36034221383E+01 -0.18044595075E+02  0.13757899246E+04  0.13759129728E+04  0.00000000000E+00 0.  1.
         22    1    4    4    0    0 -0.71255468769E+00 -0.39170964969E+00  0.10525165471E+03  0.10525479557E+03  0.00000000000E+00 0.  1.
<mgrwt>
<rscale>  0 0.92744727E+02</rscale>
<asrwt>0</asrwt>
<pdfrwt beam="1">  1        2 0.23826499E+00 0.92744727E+02</pdfrwt>
<pdfrwt beam="2">  1       -2 0.21361489E-03 0.92744727E+02</pdfrwt>
<totfact> 0.22271078E+05</totfact>
</mgrwt>
</event>
<event>
 7    1  0.3056193E-009  0.9701071E+02  0.7818608E-02  0.1286711E+00
         -2   -1    0    0    0  501 -0.00000000000E+00  0.00000000000E+00  0.22301086566E+02  0.22301086711E+02  0.25500000000E-02 0.  1.
          2   -1    0    0  501    0  0.00000000000E+00 -0.00000000000E+00 -0.10550020843E+03  0.10550020846E+03  0.25500000000E-02 0. -1.
         23    2    1    2    0    0  0.00000000000E+00  0.00000000000E+00 -0.83199121863E+02  0.12780129517E+03  0.97010706463E+02 0.  0.
    9000005    2    3    3    0    0  0.12920164202E+02  0.80984249532E+00 -0.10316323239E+03  0.10400734222E+03  0.26996723432E+01 0.  0.
         22    1    3    3    0    0 -0.12920164202E+02 -0.80984249532E+00  0.19964110527E+02  0.23793952950E+02  0.00000000000E+00 0.  1.
         22    1    4    4    0    0  0.63852110512E+01  0.35562517263E-01 -0.40612377442E+02  0.41111280524E+02  0.00000000000E+00 0.  1.
         22    1    4    4    0    0  0.65349531505E+01  0.77427997805E+00 -0.62550854948E+02  0.62896061696E+02  0.00000000000E+00 0.  1.
<mgrwt>
<rscale>  0 0.97010706E+02</rscale>
<asrwt>0</asrwt>
<pdfrwt beam="2">  1        2 0.16230801E-01 0.97010706E+02</pdfrwt>
<pdfrwt beam="1">  1       -2 0.34309365E-02 0.97010706E+02</pdfrwt>
<totfact> 0.10507630E+05</totfact>
</mgrwt>
</event>
<event>
 7    1  0.3056193E-009  0.9060866E+02  0.7818608E-02  0.1301384E+00
          2   -1    0    0  501    0  0.00000000000E+00  0.00000000000E+00  0.45824406282E+03  0.45824406283E+03  0.25500000000E-02 0. -1.
         -2   -1    0    0    0  501 -0.00000000000E+00 -0.00000000000E+00 -0.44790152650E+01  0.44790159909E+01  0.25500000000E-02 0.  1.
         23    2    1    2    0    0  0.35527136788E-14  0.00000000000E+00  0.45376504755E+03  0.46272307882E+03  0.90608660117E+02 0.  0.
    9000005    2    3    3    0    0  0.25020696867E+02 -0.35422068791E+02  0.27619541032E+03  0.27993430920E+03  0.14090938883E+02 0.  0.
         22    1    3    3    0    0 -0.25020696867E+02  0.35422068791E+02  0.17756963723E+03  0.18278876961E+03  0.00000000000E+00 0.  1.
         22    1    4    4    0    0  0.21515600815E+02 -0.32652377526E+02  0.21147694924E+03  0.21506184900E+03  0.00000000000E+00 0. -1.
         22    1    4    4    0    0  0.35050960523E+01 -0.27696912647E+01  0.64718461083E+02  0.64872460204E+02  0.00000000000E+00 0. -1.
<mgrwt>
<rscale>  0 0.90608660E+02</rscale>
<asrwt>0</asrwt>
<pdfrwt beam="1">  1        2 0.70499078E-01 0.90608660E+02</pdfrwt>
<pdfrwt beam="2">  1       -2 0.68907941E-03 0.90608660E+02</pdfrwt>
<totfact> 0.21282769E+05</totfact>
</mgrwt>
</event>
<event>
 7    1  0.3056193E-009  0.9067493E+02  0.7818608E-02  0.1301225E+00
         -2   -1    0    0    0  501 -0.00000000000E+00  0.00000000000E+00  0.11722935913E+03  0.11722935916E+03  0.25500000000E-02 0.  1.
          2   -1    0    0  501    0  0.00000000000E+00 -0.00000000000E+00 -0.17533881796E+02  0.17533881981E+02  0.25500000000E-02 0. -1.
         23    2    1    2    0    0  0.00000000000E+00  0.17763568394E-14  0.99695477336E+02  0.13476324114E+03  0.90674930171E+02 0.  0.
    9000005    2    3    3    0    0 -0.40132186930E+02  0.14617253161E+02  0.33658299582E+02  0.56117418852E+02  0.13857382513E+02 0.  0.
         22    1    3    3    0    0  0.40132186930E+02 -0.14617253161E+02  0.66037177754E+02  0.78645822289E+02  0.00000000000E+00 0.  1.
         22    1    4    4    0    0 -0.26682798465E+02  0.16102814169E+02  0.20935160126E+02  0.37544018000E+02  0.00000000000E+00 0. -1.
         22    1    4    4    0    0 -0.13449388465E+02 -0.14855610081E+01  0.12723139456E+02  0.18573400852E+02  0.00000000000E+00 0. -1.
<mgrwt>
<rscale>  0 0.90674930E+02</rscale>
<asrwt>0</asrwt>
<pdfrwt beam="2">  1        2 0.26975202E-02 0.90674930E+02</pdfrwt>
<pdfrwt beam="1">  1       -2 0.18035286E-01 0.90674930E+02</pdfrwt>
<totfact> 0.77043698E+04</totfact>
</mgrwt>
</event>
<event>
 7    1  0.3056193E-009  0.8821936E+02  0.7818608E-02  0.1307222E+00
         -2   -1    0    0    0  501 -0.00000000000E+00  0.00000000000E+00  0.56172350755E+02  0.56172350813E+02  0.25500000000E-02 0. -1.
          2   -1    0    0  501    0  0.00000000000E+00 -0.00000000000E+00 -0.34637394432E+02  0.34637394526E+02  0.25500000000E-02 0.  1.
         23    2    1    2    0    0  0.00000000000E+00  0.00000000000E+00  0.21534956323E+02  0.90809745339E+02  0.88219360146E+02 0.  0.
    9000005    2    3    3    0    0 -0.23804259217E+02  0.28209919285E+02 -0.11501570048E+02  0.41273350863E+02  0.14448566537E+02 0.  0.
         22    1    3    3    0    0  0.23804259217E+02 -0.28209919285E+02  0.33036526371E+02  0.49536394475E+02  0.00000000000E+00 0. -1.
         22    1    4    4    0    0 -0.18441031538E+02  0.15781457648E+02 -0.12697378682E+01  0.24305108186E+02  0.00000000000E+00 0.  1.
         22    1    4    4    0    0 -0.53632276790E+01  0.12428461637E+02 -0.10231832180E+02  0.16968242677E+02  0.00000000000E+00 0.  1.
<mgrwt>
<rscale>  0 0.88219360E+02</rscale>
<asrwt>0</asrwt>
<pdfrwt beam="2">  1        2 0.53288299E-02 0.88219360E+02</pdfrwt>
<pdfrwt beam="1">  1       -2 0.86419001E-02 0.88219360E+02</pdfrwt>
<totfact> 0.10116373E+05</totfact>
</mgrwt>
</event>
<event>
 7    1  0.3056193E-009  0.9650625E+02  0.7818608E-02  0.1287819E+00
          2   -1    0    0  501    0  0.00000000000E+00  0.00000000000E+00  0.15886440459E+02  0.15886440664E+02  0.25500000000E-02 0. -1.
         -2   -1    0    0    0  501 -0.00000000000E+00 -0.00000000000E+00 -0.14656299063E+03  0.14656299065E+03  0.25500000000E-02 0.  1.
         23    2    1    2    0    0  0.00000000000E+00  0.00000000000E+00 -0.13067655017E+03  0.16244943131E+03  0.96506253529E+02 0.  0.
    9000005    2    3    3    0    0 -0.36885543222E+02  0.94060742676E+01 -0.11480857926E+03  0.12120855314E+03  0.78412977385E+01 0.  0.
         22    1    3    3    0    0  0.36885543222E+02 -0.94060742676E+01 -0.15867970907E+02  0.41240878174E+02  0.00000000000E+00 0. -1.
         22    1    4    4    0    0 -0.25885484501E+02  0.86746621992E+01 -0.71963247821E+02  0.76967636764E+02  0.00000000000E+00 0.  1.
         22    1    4    4    0    0 -0.11000058720E+02  0.73141206842E+00 -0.42845331439E+02  0.44240916374E+02  0.00000000000E+00 0.  1.
<mgrwt>
<rscale>  0 0.96506254E+02</rscale>
<asrwt>0</asrwt>
<pdfrwt beam="1">  1        2 0.24440679E-02 0.96506254E+02</pdfrwt>
<pdfrwt beam="2">  1       -2 0.22548152E-01 0.96506254E+02</pdfrwt>
<totfact> 0.61007460E+04</totfact>
</mgrwt>
</event>
<event>
 7    1  0.3056193E-009  0.8822453E+02  0.7818608E-02  0.1307209E+00
         -2   -1    0    0    0  501 -0.00000000000E+00  0.00000000000E+00  0.27502836942E+03  0.27502836943E+03  0.25500000000E-02 0.  1.
          2   -1    0    0  501    0  0.00000000000E+00 -0.00000000000E+00 -0.70752407251E+01  0.70752411846E+01  0.25500000000E-02 0. -1.
         23    2    1    2    0    0  0.71054273576E-14 -0.35527136788E-14  0.26795312869E+03  0.28210361061E+03  0.88224531426E+02 0.  0.
    9000005    2    3    3    0    0 -0.30037027620E+02  0.18885911258E+02  0.21711558094E+03  0.22010879685E+03  0.70573572092E+01 0.  0.
         22    1    3    3    0    0  0.30037027620E+02 -0.18885911258E+02  0.50837547749E+02  0.61994813763E+02  0.00000000000E+00 0.  1.
         22    1    4    4    0    0 -0.10793643850E+02  0.34906432538E+01  0.58431317362E+02  0.59522316710E+02  0.00000000000E+00 0.  1.
         22    1    4    4    0    0 -0.19243383770E+02  0.15395268004E+02  0.15868426358E+03  0.16058648014E+03  0.00000000000E+00 0.  1.
<mgrwt>
<rscale>  0 0.88224531E+02</rscale>
<asrwt>0</asrwt>
<pdfrwt beam="2">  1        2 0.10884987E-02 0.88224531E+02</pdfrwt>
<pdfrwt beam="1">  1       -2 0.42312054E-01 0.88224531E+02</pdfrwt>
<totfact> 0.58199694E+04</totfact>
</mgrwt>
</event>
<event>
 7    1  0.3056193E-009  0.8695985E+02  0.7818608E-02  0.1310385E+00
          2   -1    0    0  501    0  0.00000000000E+00  0.00000000000E+00  0.11521851643E+02  0.11521851925E+02  0.25500000000E-02 0. -1.
         -2   -1    0    0    0  501 -0.00000000000E+00 -0.00000000000E+00 -0.16407986288E+03  0.16407986290E+03  0.25500000000E-02 0.  1.
         23    2    1    2    0    0  0.00000000000E+00  0.00000000000E+00 -0.15255801124E+03  0.17560171483E+03  0.86959849684E+02 0.  0.
    9000005    2    3    3    0    0 -0.39676716989E+02 -0.13251701770E+02 -0.97982119027E+02  0.10683851623E+03  0.80077106579E+01 0.  0.
         22    1    3    3    0    0  0.39676716989E+02  0.13251701770E+02 -0.54575892212E+02  0.68763198600E+02  0.00000000000E+00 0. -1.
         22    1    4    4    0    0 -0.27856486415E+02 -0.12443163074E+02 -0.65316416498E+02  0.72090570859E+02  0.00000000000E+00 0.  1.
         22    1    4    4    0    0 -0.11820230574E+02 -0.80853869614E+00 -0.32665702529E+02  0.34747945369E+02  0.00000000000E+00 0.  1.
<mgrwt>
<rscale>  0 0.86959850E+02</rscale>
<asrwt>0</asrwt>
<pdfrwt beam="1">  1        2 0.17725927E-02 0.86959850E+02</pdfrwt>
<pdfrwt beam="2">  1       -2 0.25243054E-01 0.86959850E+02</pdfrwt>
<totfact> 0.76173952E+04</totfact>
</mgrwt>
</event>
<event>
 7    1  0.3056193E-009  0.9103209E+02  0.7818608E-02  0.1300371E+00
         -2   -1    0    0    0  501 -0.00000000000E+00  0.00000000000E+00  0.17673318312E+03  0.17673318314E+03  0.25500000000E-02 0.  1.
          2   -1    0    0  501    0  0.00000000000E+00 -0.00000000000E+00 -0.11722248967E+02  0.11722249244E+02  0.25500000000E-02 0. -1.
         23    2    1    2    0    0  0.00000000000E+00 -0.35527136788E-14  0.16501093415E+03  0.18845543238E+03  0.91032091069E+02 0.  0.
    9000005    2    3    3    0    0 -0.32796595779E+02  0.27905719930E+02  0.11230174174E+03  0.12039219073E+03  0.53153072355E+01 0.  0.
         22    1    3    3    0    0  0.32796595779E+02 -0.27905719930E+02  0.52709192409E+02  0.68063241650E+02  0.00000000000E+00 0.  1.
         22    1    4    4    0    0 -0.47838272556E+01  0.65675258586E+01  0.18884361868E+02  0.20558125456E+02  0.00000000000E+00 0.  1.
         22    1    4    4    0    0 -0.28012768524E+02  0.21338194071E+02  0.93417379875E+02  0.99834065275E+02  0.00000000000E+00 0.  1.
<mgrwt>
<rscale>  0 0.91032091E+02</rscale>
<asrwt>0</asrwt>
<pdfrwt beam="2">  1        2 0.18034229E-02 0.91032091E+02</pdfrwt>
<pdfrwt beam="1">  1       -2 0.27189722E-01 0.91032091E+02</pdfrwt>
<totfact> 0.65882980E+04</totfact>
</mgrwt>
</event>
<event>
 7    1  0.3056193E-009  0.9473848E+02  0.7818608E-02  0.1291766E+00
          2   -1    0    0  501    0  0.00000000000E+00  0.00000000000E+00  0.11966277399E+03  0.11966277402E+03  0.25500000000E-02 0. -1.
         -2   -1    0    0    0  501 -0.00000000000E+00 -0.00000000000E+00 -0.18751401148E+02  0.18751401321E+02  0.25500000000E-02 0.  1.
         23    2    1    2    0    0  0.00000000000E+00 -0.88817841970E-15  0.10091137284E+03  0.13841417534E+03  0.94738475636E+02 0.  0.
    9000005    2    3    3    0    0 -0.45516931493E+02 -0.68753367744E+01  0.47656056117E+02  0.68021064399E+02  0.15385194475E+02 0.  0.
         22    1    3    3    0    0  0.45516931493E+02  0.68753367744E+01  0.53255316725E+02  0.70393110940E+02  0.00000000000E+00 0.  1.
         22    1    4    4    0    0 -0.16829932034E+02  0.32844769173E+01  0.23894046694E+02  0.29410200073E+02  0.00000000000E+00 0. -1.
         22    1    4    4    0    0 -0.28686999459E+02 -0.10159813692E+02  0.23762009423E+02  0.38610864326E+02  0.00000000000E+00 0. -1.
<mgrwt>
<rscale>  0 0.94738476E+02</rscale>
<asrwt>0</asrwt>
<pdfrwt beam="1">  1        2 0.18409658E-01 0.94738476E+02</pdfrwt>
<pdfrwt beam="2">  1       -2 0.28848310E-02 0.94738476E+02</pdfrwt>
<totfact> 0.11679851E+05</totfact>
</mgrwt>
</event>
<event>
 7    1  0.3056193E-009  0.8404405E+02  0.7818608E-02  0.1317952E+00
          2   -1    0    0  501    0  0.00000000000E+00  0.00000000000E+00  0.12447943580E+02  0.12447943842E+02  0.25500000000E-02 0. -1.
         -2   -1    0    0    0  501 -0.00000000000E+00 -0.00000000000E+00 -0.14185882052E+03  0.14185882055E+03  0.25500000000E-02 0.  1.
         23    2    1    2    0    0 -0.35527136788E-14  0.00000000000E+00 -0.12941087694E+03  0.15430676439E+03  0.84044050739E+02 0.  0.
    9000005    2    3    3    0    0 -0.26761159593E+02  0.23792563464E+02 -0.10186576990E+03  0.10912957256E+03  0.15823488609E+02 0.  0.
         22    1    3    3    0    0  0.26761159593E+02 -0.23792563464E+02 -0.27545107042E+02  0.45177191822E+02  0.00000000000E+00 0. -1.
         22    1    4    4    0    0 -0.53157340661E+01  0.11943544315E+02 -0.51315023908E+02  0.52954102373E+02  0.00000000000E+00 0.  1.
         22    1    4    4    0    0 -0.21445425527E+02  0.11849019149E+02 -0.50550745992E+02  0.56175470192E+02  0.00000000000E+00 0.  1.
<mgrwt>
<rscale>  0 0.84044051E+02</rscale>
<asrwt>0</asrwt>
<pdfrwt beam="1">  1        2 0.19150684E-02 0.84044051E+02</pdfrwt>
<pdfrwt beam="2">  1       -2 0.21824433E-01 0.84044051E+02</pdfrwt>
<totfact> 0.87533252E+04</totfact>
</mgrwt>
</event>
<event>
 7    1  0.3056193E-009  0.9001902E+02  0.7818608E-02  0.1302806E+00
         -2   -1    0    0    0  501 -0.00000000000E+00  0.00000000000E+00  0.63758336218E+02  0.63758336269E+02  0.25500000000E-02 0.  1.
          2   -1    0    0  501    0  0.00000000000E+00 -0.00000000000E+00 -0.31773979654E+02  0.31773979756E+02  0.25500000000E-02 0. -1.
         23    2    1    2    0    0 -0.35527136788E-14  0.00000000000E+00  0.31984356564E+02  0.95532316025E+02  0.90019022103E+02 0.  0.
    9000005    2    3    3    0    0  0.26074677980E+02 -0.16270381703E+02 -0.18176240187E+02  0.36704604707E+02  0.84993027259E+01 0.  0.
         22    1    3    3    0    0 -0.26074677980E+02  0.16270381703E+02  0.50160596751E+02  0.58827711319E+02  0.00000000000E+00 0.  1.
         22    1    4    4    0    0  0.82043537184E+01 -0.89717635726E+01 -0.99971167048E+01  0.15739958829E+02  0.00000000000E+00 0. -1.
         22    1    4    4    0    0  0.17870324262E+02 -0.72986181302E+01 -0.81791234821E+01  0.20964645878E+02  0.00000000000E+00 0. -1.
<mgrwt>
<rscale>  0 0.90019022E+02</rscale>
<asrwt>0</asrwt>
<pdfrwt beam="2">  1        2 0.48883046E-02 0.90019022E+02</pdfrwt>
<pdfrwt beam="1">  1       -2 0.98089748E-02 0.90019022E+02</pdfrwt>
<totfact> 0.93272747E+04</totfact>
</mgrwt>
</event>
<event>
 7    1  0.3056193E-009  0.9115236E+02  0.7818608E-02  0.1300085E+00
         -2   -1    0    0    0  501 -0.00000000000E+00  0.00000000000E+00  0.22776151443E+02  0.22776151586E+02  0.25500000000E-02 0.  1.
          2   -1    0    0  501    0  0.00000000000E+00 -0.00000000000E+00 -0.91200146635E+02  0.91200146671E+02  0.25500000000E-02 0. -1.
         23    2    1    2    0    0  0.00000000000E+00  0.00000000000E+00 -0.68423995192E+02  0.11397629826E+03  0.91152363909E+02 0.  0.
    9000005    2    3    3    0    0 -0.22463713668E+02  0.15492738112E+02 -0.79566120026E+02  0.84501049118E+02  0.80632797288E+01 0.  0.
         22    1    3    3    0    0  0.22463713668E+02 -0.15492738112E+02  0.11142124834E+02  0.29475249139E+02  0.00000000000E+00 0.  1.
         22    1    4    4    0    0 -0.18190528406E+02  0.91557595193E+01 -0.50620505800E+02  0.54563347253E+02  0.00000000000E+00 0. -1.
         22    1    4    4    0    0 -0.42731852622E+01  0.63369785930E+01 -0.28945614227E+02  0.29937701865E+02  0.00000000000E+00 0. -1.
<mgrwt>
<rscale>  0 0.91152364E+02</rscale>
<asrwt>0</asrwt>
<pdfrwt beam="2">  1        2 0.14030792E-01 0.91152364E+02</pdfrwt>
<pdfrwt beam="1">  1       -2 0.35040234E-02 0.91152364E+02</pdfrwt>
<totfact> 0.11941435E+05</totfact>
</mgrwt>
</event>
<event>
 7    1  0.3056193E-009  0.9055951E+02  0.7818608E-02  0.1301502E+00
         -2   -1    0    0    0  501 -0.00000000000E+00  0.00000000000E+00  0.20642287116E+02  0.20642287274E+02  0.25500000000E-02 0.  1.
          2   -1    0    0  501    0  0.00000000000E+00 -0.00000000000E+00 -0.99323120695E+02  0.99323120728E+02  0.25500000000E-02 0. -1.
         23    2    1    2    0    0  0.00000000000E+00 -0.17763568394E-14 -0.78680833579E+02  0.11996540800E+03  0.90559513826E+02 0.  0.
    9000005    2    3    3    0    0  0.15127791361E+02  0.13558110638E+02 -0.92691033643E+02  0.95288330757E+02  0.86928605842E+01 0.  0.
         22    1    3    3    0    0 -0.15127791361E+02 -0.13558110638E+02  0.14010200064E+02  0.24677077245E+02  0.00000000000E+00 0.  1.
         22    1    4    4    0    0  0.15889759076E+02  0.11402011558E+02 -0.77681290400E+02  0.80105388016E+02  0.00000000000E+00 0.  1.
         22    1    4    4    0    0 -0.76196771548E+00  0.21560990805E+01 -0.15009743243E+02  0.15182942740E+02  0.00000000000E+00 0.  1.
<mgrwt>
<rscale>  0 0.90559514E+02</rscale>
<asrwt>0</asrwt>
<pdfrwt beam="2">  1        2 0.15280480E-01 0.90559514E+02</pdfrwt>
<pdfrwt beam="1">  1       -2 0.31757366E-02 0.90559514E+02</pdfrwt>
<totfact> 0.12473246E+05</totfact>
</mgrwt>
</event>
<event>
 7    1  0.3056193E-009  0.1082643E+03  0.7818608E-02  0.1263818E+00
         -2   -1    0    0    0  501 -0.00000000000E+00  0.00000000000E+00  0.41636816287E+02  0.41636816365E+02  0.25500000000E-02 0.  1.
          2   -1    0    0  501    0  0.00000000000E+00 -0.00000000000E+00 -0.70377350597E+02  0.70377350643E+02  0.25500000000E-02 0. -1.
         23    2    1    2    0    0 -0.17763568394E-14  0.00000000000E+00 -0.28740534309E+02  0.11201416701E+03  0.10826428450E+03 0.  0.
    9000005    2    3    3    0    0  0.14123440113E+02  0.50441931086E+02 -0.48936503335E+01  0.54459550793E+02  0.14072486870E+02 0.  0.
         22    1    3    3    0    0 -0.14123440113E+02 -0.50441931086E+02 -0.23846883976E+02  0.57554616215E+02  0.00000000000E+00 0.  1.
         22    1    4    4    0    0 -0.23403113160E+01  0.28551990951E+01 -0.15198438841E+01  0.39923857981E+01  0.00000000000E+00 0. -1.
         22    1    4    4    0    0  0.16463751429E+02  0.47586731991E+02 -0.33738064494E+01  0.50467164995E+02  0.00000000000E+00 0. -1.
<mgrwt>
<rscale>  0 0.10826428E+03</rscale>
<asrwt>0</asrwt>
<pdfrwt beam="2">  1        2 0.10827285E-01 0.10826428E+03</pdfrwt>
<pdfrwt beam="1">  1       -2 0.64056641E-02 0.10826428E+03</pdfrwt>
<totfact> 0.68008278E+04</totfact>
</mgrwt>
</event>
<event>
 7    1  0.3056193E-009  0.9115590E+02  0.7818608E-02  0.1300076E+00
         -2   -1    0    0    0  501 -0.00000000000E+00  0.00000000000E+00  0.20924217699E+01  0.20924233237E+01  0.25500000000E-02 0.  1.
          2   -1    0    0  501    0  0.00000000000E+00 -0.00000000000E+00 -0.99279648536E+03  0.99279648536E+03  0.25500000000E-02 0. -1.
         23    2    1    2    0    0  0.35527136788E-14  0.00000000000E+00 -0.99070406359E+03  0.99488890868E+03  0.91155904989E+02 0.  0.
    9000005    2    3    3    0    0  0.29674824256E+02 -0.12337409159E+02 -0.84747237298E+03  0.84809611577E+03  0.49791312979E+01 0.  0.
         22    1    3    3    0    0 -0.29674824256E+02  0.12337409159E+02 -0.14323169061E+03  0.14679279292E+03  0.00000000000E+00 0.  1.
         22    1    4    4    0    0  0.12228395449E+02 -0.58131575247E+01 -0.29650834924E+03  0.29681733040E+03  0.00000000000E+00 0. -1.
         22    1    4    4    0    0  0.17446428806E+02 -0.65242516346E+01 -0.55096402374E+03  0.55127878536E+03  0.00000000000E+00 0. -1.
<mgrwt>
<rscale>  0 0.91155905E+02</rscale>
<asrwt>0</asrwt>
<pdfrwt beam="2">  1        2 0.15273754E+00 0.91155905E+02</pdfrwt>
<pdfrwt beam="1">  1       -2 0.32191195E-03 0.91155905E+02</pdfrwt>
<totfact> 0.25008180E+05</totfact>
</mgrwt>
</event>
<event>
 7    1  0.3056193E-009  0.9045040E+02  0.7818608E-02  0.1301765E+00
         -2   -1    0    0    0  501 -0.00000000000E+00  0.00000000000E+00  0.97212727434E+01  0.97212730778E+01  0.25500000000E-02 0.  1.
          2   -1    0    0  501    0  0.00000000000E+00 -0.00000000000E+00 -0.21039620025E+03  0.21039620026E+03  0.25500000000E-02 0. -1.
         23    2    1    2    0    0  0.00000000000E+00  0.00000000000E+00 -0.20067492750E+03  0.22011747334E+03  0.90450403765E+02 0.  0.
    9000005    2    3    3    0    0  0.29724268160E+02  0.29165576217E+01 -0.23921498827E+02  0.40858406694E+02  0.14322460175E+02 0.  0.
         22    1    3    3    0    0 -0.29724268160E+02 -0.29165576217E+01 -0.17675342868E+03  0.17925906665E+03  0.00000000000E+00 0. -1.
         22    1    4    4    0    0  0.29412008590E+02  0.57624836828E+01 -0.20115446941E+02  0.36095756996E+02  0.00000000000E+00 0. -1.
         22    1    4    4    0    0  0.31225956954E+00 -0.28459260610E+01 -0.38060518866E+01  0.47626496981E+01  0.00000000000E+00 0. -1.
<mgrwt>
<rscale>  0 0.90450404E+02</rscale>
<asrwt>0</asrwt>
<pdfrwt beam="2">  1        2 0.32368643E-01 0.90450404E+02</pdfrwt>
<pdfrwt beam="1">  1       -2 0.14955806E-02 0.90450404E+02</pdfrwt>
<totfact> 0.16097316E+05</totfact>
</mgrwt>
</event>
<event>
 7    1  0.3056193E-009  0.8744423E+02  0.7818608E-02  0.1309162E+00
         -2   -1    0    0    0  501 -0.00000000000E+00  0.00000000000E+00  0.40273028706E+01  0.40273036779E+01  0.25500000000E-02 0.  1.
          2   -1    0    0  501    0  0.00000000000E+00 -0.00000000000E+00 -0.47466586035E+03  0.47466586036E+03  0.25500000000E-02 0. -1.
         23    2    1    2    0    0  0.00000000000E+00  0.00000000000E+00 -0.47063855748E+03  0.47869316403E+03  0.87444230841E+02 0.  0.
    9000005    2    3    3    0    0 -0.34061476190E+02  0.22989140628E+02 -0.31301246503E+03  0.31579850553E+03  0.79503513521E+01 0.  0.
         22    1    3    3    0    0  0.34061476190E+02 -0.22989140628E+02 -0.15762609245E+03  0.16289465850E+03  0.00000000000E+00 0. -1.
         22    1    4    4    0    0 -0.14968759894E+02  0.71822222419E+01 -0.14928880754E+03  0.15020917464E+03  0.00000000000E+00 0.  1.
         22    1    4    4    0    0 -0.19092716296E+02  0.15806918386E+02 -0.16372365748E+03  0.16558933089E+03  0.00000000000E+00 0.  1.
<mgrwt>
<rscale>  0 0.87444231E+02</rscale>
<asrwt>0</asrwt>
<pdfrwt beam="2">  1        2 0.73025473E-01 0.87444231E+02</pdfrwt>
<pdfrwt beam="1">  1       -2 0.61958549E-03 0.87444231E+02</pdfrwt>
<totfact> 0.23656422E+05</totfact>
</mgrwt>
</event>
<event>
 7    1  0.3056193E-009  0.9182598E+02  0.7818608E-02  0.1298489E+00
          2   -1    0    0  501    0  0.00000000000E+00  0.00000000000E+00  0.86301978526E+01  0.86301982293E+01  0.25500000000E-02 0. -1.
         -2   -1    0    0    0  501 -0.00000000000E+00 -0.00000000000E+00 -0.24425887321E+03  0.24425887323E+03  0.25500000000E-02 0.  1.
         23    2    1    2    0    0 -0.44408920985E-15  0.00000000000E+00 -0.23562867536E+03  0.25288907146E+03  0.91825975680E+02 0.  0.
    9000005    2    3    3    0    0 -0.31773604134E+01 -0.32173645020E+02 -0.20751365779E+03  0.21004408031E+03  0.33702302654E+01 0.  0.
         22    1    3    3    0    0  0.31773604134E+01  0.32173645020E+02 -0.28115017571E+02  0.42844991143E+02  0.00000000000E+00 0. -1.
         22    1    4    4    0    0  0.44501439070E+00 -0.61911043291E+01 -0.34752295185E+02  0.35302263826E+02  0.00000000000E+00 0.  1.
         22    1    4    4    0    0 -0.36223748041E+01 -0.25982540691E+02 -0.17276136261E+03  0.17474181649E+03  0.00000000000E+00 0.  1.
<mgrwt>
<rscale>  0 0.91825976E+02</rscale>
<asrwt>0</asrwt>
<pdfrwt beam="1">  1        2 0.13277230E-02 0.91825976E+02</pdfrwt>
<pdfrwt beam="2">  1       -2 0.37578283E-01 0.91825976E+02</pdfrwt>
<totfact> 0.55801386E+04</totfact>
</mgrwt>
</event>
<event>
 7    1  0.3056193E-009  0.1043545E+03  0.7818608E-02  0.1271397E+00
         -2   -1    0    0    0  501 -0.00000000000E+00  0.00000000000E+00  0.90339848588E+02  0.90339848624E+02  0.25500000000E-02 0.  1.
          2   -1    0    0  501    0  0.00000000000E+00 -0.00000000000E+00 -0.30135837311E+02  0.30135837419E+02  0.25500000000E-02 0. -1.
         23    2    1    2    0    0  0.35527136788E-14  0.00000000000E+00  0.60204011276E+02  0.12047568604E+03  0.10435453011E+03 0.  0.
    9000005    2    3    3    0    0 -0.26030611444E+02  0.41086781545E+02  0.12297173443E+02  0.52205769820E+02  0.14439722223E+02 0.  0.
         22    1    3    3    0    0  0.26030611444E+02 -0.41086781545E+02  0.47906837833E+02  0.68269916223E+02  0.00000000000E+00 0. -1.
         22    1    4    4    0    0 -0.21976679150E+02  0.29714523011E+02  0.14910660064E+02  0.39852918184E+02  0.00000000000E+00 0. -1.
         22    1    4    4    0    0 -0.40539322945E+01  0.11372258534E+02 -0.26134866212E+01  0.12352851636E+02  0.00000000000E+00 0. -1.
<mgrwt>
<rscale>  0 0.10435453E+03</rscale>
<asrwt>0</asrwt>
<pdfrwt beam="2">  1        2 0.46362827E-02 0.10435453E+03</pdfrwt>
<pdfrwt beam="1">  1       -2 0.13898438E-01 0.10435453E+03</pdfrwt>
<totfact> 0.58909969E+04</totfact>
</mgrwt>
</event>
<event>
 7    1  0.3056193E-009  0.9033077E+02  0.7818608E-02  0.1302053E+00
         -2   -1    0    0    0  501 -0.00000000000E+00  0.00000000000E+00  0.30051521019E+02  0.30051521127E+02  0.25500000000E-02 0.  1.
          2   -1    0    0  501    0  0.00000000000E+00 -0.00000000000E+00 -0.67880490754E+02  0.67880490802E+02  0.25500000000E-02 0. -1.
         23    2    1    2    0    0  0.35527136788E-14  0.00000000000E+00 -0.37828969735E+02  0.97932011929E+02  0.90330770002E+02 0.  0.
    9000005    2    3    3    0    0 -0.21336956676E+02  0.25424686886E+02  0.12353749109E+02  0.37765694990E+02  0.13113053711E+02 0.  0.
         22    1    3    3    0    0  0.21336956676E+02 -0.25424686886E+02 -0.50182718843E+02  0.60166316939E+02  0.00000000000E+00 0. -1.
         22    1    4    4    0    0 -0.85544069760E+01  0.17513654371E+02  0.21770765016E+01  0.19612384613E+02  0.00000000000E+00 0.  1.
         22    1    4    4    0    0 -0.12782549700E+02  0.79110325151E+01  0.10176672607E+02  0.18153310377E+02  0.00000000000E+00 0.  1.
<mgrwt>
<rscale>  0 0.90330770E+02</rscale>
<asrwt>0</asrwt>
<pdfrwt beam="2">  1        2 0.10443152E-01 0.90330770E+02</pdfrwt>
<pdfrwt beam="1">  1       -2 0.46233110E-02 0.90330770E+02</pdfrwt>
<totfact> 0.11258328E+05</totfact>
</mgrwt>
</event>
<event>
 7    1  0.3056193E-009  0.9106660E+02  0.7818608E-02  0.1300289E+00
         -2   -1    0    0    0  501 -0.00000000000E+00  0.00000000000E+00  0.31673889013E+03  0.31673889014E+03  0.25500000000E-02 0.  1.
          2   -1    0    0  501    0  0.00000000000E+00 -0.00000000000E+00 -0.65457107252E+01  0.65457112219E+01  0.25500000000E-02 0. -1.
         23    2    1    2    0    0  0.00000000000E+00  0.00000000000E+00  0.31019317940E+03  0.32328460136E+03  0.91066596119E+02 0.  0.
    9000005    2    3    3    0    0  0.18402288912E+02 -0.26935152484E+02  0.26777646105E+03  0.26977455864E+03  0.31516215284E+01 0.  0.
         22    1    3    3    0    0 -0.18402288912E+02  0.26935152484E+02  0.42416718352E+02  0.53510042724E+02  0.00000000000E+00 0. -1.
         22    1    4    4    0    0  0.76222589633E+01 -0.12845642113E+02  0.13273972415E+03  0.13357748209E+03  0.00000000000E+00 0. -1.
         22    1    4    4    0    0  0.10780029949E+02 -0.14089510370E+02  0.13503673690E+03  0.13619707655E+03  0.00000000000E+00 0. -1.
<mgrwt>
<rscale>  0 0.91066596E+02</rscale>
<asrwt>0</asrwt>
<pdfrwt beam="2">  1        2 0.10070323E-02 0.91066596E+02</pdfrwt>
<pdfrwt beam="1">  1       -2 0.48729068E-01 0.91066596E+02</pdfrwt>
<totfact> 0.49595134E+04</totfact>
</mgrwt>
</event>
<event>
 7    1  0.3056193E-009  0.8937197E+02  0.7818608E-02  0.1304380E+00
          2   -1    0    0  501    0  0.00000000000E+00  0.00000000000E+00  0.13011838003E+03  0.13011838006E+03  0.25500000000E-02 0.  1.
         -2   -1    0    0    0  501 -0.00000000000E+00 -0.00000000000E+00 -0.15346311538E+02  0.15346311750E+02  0.25500000000E-02 0. -1.
         23    2    1    2    0    0  0.00000000000E+00 -0.44408920985E-15  0.11477206850E+03  0.14546469181E+03  0.89371969076E+02 0.  0.
    9000005    2    3    3    0    0  0.16352774172E+02 -0.21783515933E+01  0.12492509342E+03  0.12609351854E+03  0.45976092652E+01 0.  0.
         22    1    3    3    0    0 -0.16352774172E+02  0.21783515933E+01 -0.10153024928E+02  0.19371173274E+02  0.00000000000E+00 0. -1.
         22    1    4    4    0    0  0.14985368769E+02 -0.27367593711E+01  0.11964074551E+03  0.12060662965E+03  0.00000000000E+00 0.  1.
         22    1    4    4    0    0  0.13674054037E+01  0.55840777778E+00  0.52843479106E+01  0.54868888839E+01  0.00000000000E+00 0.  1.
<mgrwt>
<rscale>  0 0.89371969E+02</rscale>
<asrwt>0</asrwt>
<pdfrwt beam="1">  1        2 0.20018212E-01 0.89371969E+02</pdfrwt>
<pdfrwt beam="2">  1       -2 0.23609711E-02 0.89371969E+02</pdfrwt>
<totfact> 0.14077380E+05</totfact>
</mgrwt>
</event>
<event>
 7    1  0.3056193E-009  0.9277542E+02  0.7818608E-02  0.1296266E+00
          2   -1    0    0  501    0  0.00000000000E+00  0.00000000000E+00  0.16275652987E+03  0.16275652989E+03  0.25500000000E-02 0. -1.
         -2   -1    0    0    0  501 -0.00000000000E+00 -0.00000000000E+00 -0.13221094414E+02  0.13221094660E+02  0.25500000000E-02 0.  1.
         23    2    1    2    0    0  0.44408920985E-15  0.00000000000E+00  0.14953543545E+03  0.17597762455E+03  0.92775416382E+02 0.  0.
    9000005    2    3    3    0    0  0.30474080001E+01 -0.24023231642E+02  0.31756561105E+01  0.27628080013E+02  0.12916023361E+02 0.  0.
         22    1    3    3    0    0 -0.30474080001E+01  0.24023231642E+02  0.14635977934E+03  0.14834954453E+03  0.00000000000E+00 0. -1.
         22    1    4    4    0    0 -0.29084074148E+01 -0.17701782978E+02  0.52637163367E+01  0.18695418262E+02  0.00000000000E+00 0.  1.
         22    1    4    4    0    0  0.59558154148E+01 -0.63214486634E+01 -0.20880602262E+01  0.89326617516E+01  0.00000000000E+00 0.  1.
<mgrwt>
<rscale>  0 0.92775416E+02</rscale>
<asrwt>0</asrwt>
<pdfrwt beam="1">  1        2 0.25039465E-01 0.92775416E+02</pdfrwt>
<pdfrwt beam="2">  1       -2 0.20340146E-02 0.92775416E+02</pdfrwt>
<totfact> 0.13716142E+05</totfact>
</mgrwt>
</event>
<event>
 7    1  0.3056193E-009  0.9043578E+02  0.7818608E-02  0.1301800E+00
          2   -1    0    0  501    0  0.00000000000E+00  0.00000000000E+00  0.15389548654E+02  0.15389548866E+02  0.25500000000E-02 0. -1.
         -2   -1    0    0    0  501 -0.00000000000E+00 -0.00000000000E+00 -0.13286012702E+03  0.13286012705E+03  0.25500000000E-02 0.  1.
         23    2    1    2    0    0  0.00000000000E+00  0.00000000000E+00 -0.11747057837E+03  0.14824967591E+03  0.90435776251E+02 0.  0.
    9000005    2    3    3    0    0  0.47914281583E+00  0.10261969134E+02 -0.13045265892E+03  0.13169455574E+03  0.14833145449E+02 0.  0.
         22    1    3    3    0    0 -0.47914281583E+00 -0.10261969134E+02  0.12982080554E+02  0.16555120170E+02  0.00000000000E+00 0. -1.
         22    1    4    4    0    0 -0.67286420779E+01  0.78998389593E+01 -0.81442786424E+02  0.82101215218E+02  0.00000000000E+00 0. -1.
         22    1    4    4    0    0  0.72077848937E+01  0.23621301742E+01 -0.49009872500E+02  0.49593340526E+02  0.00000000000E+00 0. -1.
<mgrwt>
<rscale>  0 0.90435776E+02</rscale>
<asrwt>0</asrwt>
<pdfrwt beam="1">  1        2 0.23676230E-02 0.90435776E+02</pdfrwt>
<pdfrwt beam="2">  1       -2 0.20440019E-01 0.90435776E+02</pdfrwt>
<totfact> 0.74421753E+04</totfact>
</mgrwt>
</event>
<event>
 7    1  0.3056193E-009  0.9060789E+02  0.7818608E-02  0.1301386E+00
         -2   -1    0    0    0  501 -0.00000000000E+00  0.00000000000E+00  0.27435121140E+01  0.27435132991E+01  0.25500000000E-02 0.  1.
          2   -1    0    0  501    0  0.00000000000E+00 -0.00000000000E+00 -0.74810938002E+03  0.74810938002E+03  0.25500000000E-02 0. -1.
         23    2    1    2    0    0  0.00000000000E+00  0.00000000000E+00 -0.74536586790E+03  0.75085289332E+03  0.90607893546E+02 0.  0.
    9000005    2    3    3    0    0 -0.17013247895E+02  0.33079914090E+02 -0.58212417554E+03  0.58342654699E+03  0.11586572577E+02 0.  0.
         22    1    3    3    0    0  0.17013247895E+02 -0.33079914090E+02 -0.16324169237E+03  0.16742634633E+03  0.00000000000E+00 0.  1.
         22    1    4    4    0    0  0.12504467320E+01  0.67928014272E+01 -0.11451488898E+03  0.11472299493E+03  0.00000000000E+00 0.  1.
         22    1    4    4    0    0 -0.18263694627E+02  0.26287112663E+02 -0.46760928656E+03  0.46870355206E+03  0.00000000000E+00 0.  1.
<mgrwt>
<rscale>  0 0.90607894E+02</rscale>
<asrwt>0</asrwt>
<pdfrwt beam="2">  1        2 0.11509359E+00 0.90607894E+02</pdfrwt>
<pdfrwt beam="1">  1       -2 0.42207947E-03 0.90607894E+02</pdfrwt>
<totfact> 0.24463594E+05</totfact>
</mgrwt>
</event>
<event>
 7    1  0.3056193E-009  0.9209487E+02  0.7818608E-02  0.1297857E+00
          2   -1    0    0  501    0  0.00000000000E+00  0.00000000000E+00  0.13831774584E+03  0.13831774586E+03  0.25500000000E-02 0. -1.
         -2   -1    0    0    0  501 -0.00000000000E+00 -0.00000000000E+00 -0.15329675878E+02  0.15329676090E+02  0.25500000000E-02 0.  1.
         23    2    1    2    0    0  0.00000000000E+00  0.00000000000E+00  0.12298806996E+03  0.15364742195E+03  0.92094869128E+02 0.  0.
    9000005    2    3    3    0    0  0.37486427997E+02 -0.12836435534E+02  0.10023872265E+03  0.10795782615E+03  0.60896918979E+01 0.  0.
         22    1    3    3    0    0 -0.37486427997E+02  0.12836435534E+02  0.22749347305E+02  0.45689595796E+02  0.00000000000E+00 0.  1.
         22    1    4    4    0    0  0.29663505543E+02 -0.84646310498E+01  0.82620276399E+02  0.88191176498E+02  0.00000000000E+00 0.  1.
         22    1    4    4    0    0  0.78229224549E+01 -0.43718044840E+01  0.17618446253E+02  0.19766649655E+02  0.00000000000E+00 0.  1.
<mgrwt>
<rscale>  0 0.92094869E+02</rscale>
<asrwt>0</asrwt>
<pdfrwt beam="1">  1        2 0.21279652E-01 0.92094869E+02</pdfrwt>
<pdfrwt beam="2">  1       -2 0.23584118E-02 0.92094869E+02</pdfrwt>
<totfact> 0.13237911E+05</totfact>
</mgrwt>
</event>
<event>
 7    1  0.3056193E-009  0.9117452E+02  0.7818608E-02  0.1300032E+00
         -2   -1    0    0    0  501 -0.00000000000E+00  0.00000000000E+00  0.28781315156E+01  0.28781326453E+01  0.25500000000E-02 0.  1.
          2   -1    0    0  501    0  0.00000000000E+00 -0.00000000000E+00 -0.72206489089E+03  0.72206489089E+03  0.25500000000E-02 0. -1.
         23    2    1    2    0    0  0.00000000000E+00  0.00000000000E+00 -0.71918675937E+03  0.72494302354E+03  0.91174516832E+02 0.  0.
    9000005    2    3    3    0    0  0.14084953665E+02 -0.30598345129E+02 -0.59939565276E+03  0.60050607618E+03  0.14062515309E+02 0.  0.
         22    1    3    3    0    0 -0.14084953665E+02  0.30598345129E+02 -0.11979110662E+03  0.12443694736E+03  0.00000000000E+00 0.  1.
         22    1    4    4    0    0  0.59252240896E+01 -0.30734205301E+01 -0.18312759313E+03  0.18324920070E+03  0.00000000000E+00 0.  1.
         22    1    4    4    0    0  0.81597295751E+01 -0.27524924599E+02 -0.41626805963E+03  0.41725687547E+03  0.00000000000E+00 0.  1.
<mgrwt>
<rscale>  0 0.91174517E+02</rscale>
<asrwt>0</asrwt>
<pdfrwt beam="2">  1        2 0.11108676E+00 0.91174517E+02</pdfrwt>
<pdfrwt beam="1">  1       -2 0.44279013E-03 0.91174517E+02</pdfrwt>
<totfact> 0.23883519E+05</totfact>
</mgrwt>
</event>
<event>
 6    1  0.3056193E-009  0.1504046E+03  0.7818608E-02  0.1199977E+00
          2   -1    0    0  501    0  0.00000000000E+00  0.00000000000E+00  0.10204456196E+03  0.10204456199E+03  0.25500000000E-02 0. -1.
         -2   -1    0    0    0  501 -0.00000000000E+00 -0.00000000000E+00 -0.55420720809E+02  0.55420720868E+02  0.25500000000E-02 0.  1.
    9000005    2    1    2    0    0  0.14746559816E+02  0.34513075631E+02 -0.44552299087E+02  0.58866591364E+02  0.84708210327E+01 0.  0.
         22    1    1    2    0    0 -0.14746559816E+02 -0.34513075631E+02  0.91176140237E+02  0.98598691495E+02  0.00000000000E+00 0. -1.
         22    1    3    3    0    0  0.10313959027E+02  0.24227647137E+02 -0.24864375681E+02  0.36215933160E+02  0.00000000000E+00 0. -1.
         22    1    3    3    0    0  0.44326007887E+01  0.10285428494E+02 -0.19687923406E+02  0.22650658204E+02  0.00000000000E+00 0. -1.
<mgrwt>
<rscale>  0 0.15040456E+03</rscale>
<asrwt>0</asrwt>
<pdfrwt beam="1">  1        2 0.15699163E-01 0.15040456E+03</pdfrwt>
<pdfrwt beam="2">  1       -2 0.85262648E-02 0.15040456E+03</pdfrwt>
<totfact> 0.29358678E+04</totfact>
</mgrwt>
</event>
<event>
 7    1  0.3056193E-009  0.7200275E+02  0.7818608E-02  0.1353412E+00
          2   -1    0    0  501    0  0.00000000000E+00  0.00000000000E+00  0.51140023902E+03  0.51140023903E+03  0.25500000000E-02 0. -1.
         -2   -1    0    0    0  501 -0.00000000000E+00 -0.00000000000E+00 -0.25344116026E+01  0.25344128854E+01  0.25500000000E-02 0.  1.
         23    2    1    2    0    0  0.00000000000E+00  0.00000000000E+00  0.50886582742E+03  0.51393465192E+03  0.72002750798E+02 0.  0.
    9000005    2    3    3    0    0 -0.25975307721E+02  0.18067304136E+02  0.36212394131E+03  0.36382027809E+03  0.15175697304E+02 0.  0.
         22    1    3    3    0    0  0.25975307721E+02 -0.18067304136E+02  0.14674188611E+03  0.15011437383E+03  0.00000000000E+00 0.  1.
         22    1    4    4    0    0 -0.11196062803E+02  0.60014356305E+01  0.22710525603E+03  0.22746025228E+03  0.00000000000E+00 0.  1.
         22    1    4    4    0    0 -0.14779244918E+02  0.12065868506E+02  0.13501868528E+03  0.13636002581E+03  0.00000000000E+00 0.  1.
<mgrwt>
<rscale>  0 0.72002751E+02</rscale>
<asrwt>0</asrwt>
<pdfrwt beam="1">  1        2 0.78677023E-01 0.72002751E+02</pdfrwt>
<pdfrwt beam="2">  1       -2 0.38990926E-03 0.72002751E+02</pdfrwt>
<totfact> 0.40228181E+05</totfact>
</mgrwt>
</event>
<event>
 7    1  0.3056193E-009  0.9166431E+02  0.7818608E-02  0.1298871E+00
         -2   -1    0    0    0  501 -0.00000000000E+00  0.00000000000E+00  0.56569785233E+01  0.56569790980E+01  0.25500000000E-02 0.  1.
          2   -1    0    0  501    0  0.00000000000E+00 -0.00000000000E+00 -0.37132652551E+03  0.37132652552E+03  0.25500000000E-02 0. -1.
         23    2    1    2    0    0  0.00000000000E+00  0.00000000000E+00 -0.36566954698E+03  0.37698350461E+03  0.91664306901E+02 0.  0.
    9000005    2    3    3    0    0  0.15249422130E+02 -0.34684688117E+02 -0.28474130657E+03  0.28762494285E+03  0.14660273316E+02 0.  0.
         22    1    3    3    0    0 -0.15249422130E+02  0.34684688117E+02 -0.80928240412E+02  0.89358561768E+02  0.00000000000E+00 0.  1.
         22    1    4    4    0    0  0.42010384009E+01 -0.26397338274E+02 -0.17869781784E+03  0.18068585527E+03  0.00000000000E+00 0. -1.
         22    1    4    4    0    0  0.11048383729E+02 -0.82873498427E+01 -0.10604348873E+03  0.10693908758E+03  0.00000000000E+00 0. -1.
<mgrwt>
<rscale>  0 0.91664307E+02</rscale>
<asrwt>0</asrwt>
<pdfrwt beam="2">  1        2 0.57127139E-01 0.91664307E+02</pdfrwt>
<pdfrwt beam="1">  1       -2 0.87030472E-03 0.91664307E+02</pdfrwt>
<totfact> 0.19159959E+05</totfact>
</mgrwt>
</event>
<event>
 7    1  0.3056193E-009  0.9914267E+02  0.7818608E-02  0.1282109E+00
          2   -1    0    0  501    0  0.00000000000E+00  0.00000000000E+00  0.86022369822E+02  0.86022369859E+02  0.25500000000E-02 0.  1.
         -2   -1    0    0    0  501 -0.00000000000E+00 -0.00000000000E+00 -0.28566026497E+02  0.28566026611E+02  0.25500000000E-02 0. -1.
         23    2    1    2    0    0  0.35527136788E-14  0.00000000000E+00  0.57456343324E+02  0.11458839647E+03  0.99142671022E+02 0.  0.
    9000005    2    3    3    0    0  0.30142760789E+02 -0.37033884063E+02  0.39231469240E+02  0.63478313002E+02  0.14501498063E+02 0.  0.
         22    1    3    3    0    0 -0.30142760789E+02  0.37033884063E+02  0.18224874084E+02  0.51110083468E+02  0.00000000000E+00 0. -1.
         22    1    4    4    0    0  0.14209340891E+02 -0.78802602786E+01  0.16919603837E+02  0.23457980830E+02  0.00000000000E+00 0. -1.
         22    1    4    4    0    0  0.15933419898E+02 -0.29153623784E+02  0.22311865404E+02  0.40020332172E+02  0.00000000000E+00 0. -1.
<mgrwt>
<rscale>  0 0.99142671E+02</rscale>
<asrwt>0</asrwt>
<pdfrwt beam="1">  1        2 0.13234210E-01 0.99142671E+02</pdfrwt>
<pdfrwt beam="2">  1       -2 0.43947734E-02 0.99142671E+02</pdfrwt>
<totfact> 0.92842298E+04</totfact>
</mgrwt>
</event>
<event>
 7    1  0.3056193E-009  0.8228646E+02  0.7818608E-02  0.1322685E+00
          2   -1    0    0  501    0  0.00000000000E+00  0.00000000000E+00  0.96246973514E+02  0.96246973548E+02  0.25500000000E-02 0. -1.
         -2   -1    0    0    0  501 -0.00000000000E+00 -0.00000000000E+00 -0.17587725015E+02  0.17587725200E+02  0.25500000000E-02 0.  1.
         23    2    1    2    0    0  0.00000000000E+00  0.00000000000E+00  0.78659248499E+02  0.11383469875E+03  0.82286458574E+02 0.  0.
    9000005    2    3    3    0    0  0.28249996532E+02 -0.16665309322E+02  0.72129161563E+02  0.80391659499E+02  0.13579695515E+02 0.  0.
         22    1    3    3    0    0 -0.28249996532E+02  0.16665309322E+02  0.65300869357E+01  0.33443039250E+02  0.00000000000E+00 0.  1.
         22    1    4    4    0    0  0.26914244529E+02 -0.18716312580E+02  0.64080715669E+02  0.71979268097E+02  0.00000000000E+00 0.  1.
         22    1    4    4    0    0  0.13357520028E+01  0.20510032581E+01  0.80484458943E+01  0.84123914014E+01  0.00000000000E+00 0.  1.
<mgrwt>
<rscale>  0 0.82286459E+02</rscale>
<asrwt>0</asrwt>
<pdfrwt beam="1">  1        2 0.14807226E-01 0.82286459E+02</pdfrwt>
<pdfrwt beam="2">  1       -2 0.27058039E-02 0.82286459E+02</pdfrwt>
<totfact> 0.16053644E+05</totfact>
</mgrwt>
</event>
<event>
 6    1  0.3056193E-009  0.1378606E+03  0.7818608E-02  0.1216237E+00
         -2   -1    0    0    0  501 -0.00000000000E+00  0.00000000000E+00  0.65892063017E+01  0.65892067951E+01  0.25500000000E-02 0.  1.
          2   -1    0    0  501    0  0.00000000000E+00 -0.00000000000E+00 -0.72108642472E+03  0.72108642473E+03  0.25500000000E-02 0. -1.
    9000005    2    1    2    0    0  0.59456300939E+01  0.49339172666E+02 -0.60723046897E+03  0.60945608993E+03  0.15433036984E+02 0.  0.
         22    1    1    2    0    0 -0.59456300939E+01 -0.49339172666E+02 -0.10726674945E+03  0.11821954159E+03  0.00000000000E+00 0.  1.
         22    1    3    3    0    0  0.48609455962E+01  0.31239362151E+01 -0.61118047061E+02  0.61390581086E+02  0.00000000000E+00 0.  1.
         22    1    3    3    0    0  0.10846844977E+01  0.46215236451E+02 -0.54611242191E+03  0.54806550884E+03  0.00000000000E+00 0.  1.
<mgrwt>
<rscale>  0 0.13786062E+03</rscale>
<asrwt>0</asrwt>
<pdfrwt beam="2">  1        2 0.11093631E+00 0.13786062E+03</pdfrwt>
<pdfrwt beam="1">  1       -2 0.10137247E-02 0.13786062E+03</pdfrwt>
<totfact> 0.78431883E+04</totfact>
</mgrwt>
</event>
<event>
 7    1  0.3056193E-009  0.7001822E+02  0.7818608E-02  0.1360031E+00
          2   -1    0    0  501    0  0.00000000000E+00  0.00000000000E+00  0.23766781598E+03  0.23766781599E+03  0.25500000000E-02 0. -1.
         -2   -1    0    0    0  501 -0.00000000000E+00 -0.00000000000E+00 -0.51569358050E+01  0.51569364354E+01  0.25500000000E-02 0.  1.
         23    2    1    2    0    0  0.00000000000E+00  0.00000000000E+00  0.23251088017E+03  0.24282475243E+03  0.70018219004E+02 0.  0.
    9000005    2    3    3    0    0  0.19375170193E+02 -0.27892512450E+02  0.13216286671E+03  0.13688555630E+03  0.10827867515E+02 0.  0.
         22    1    3    3    0    0 -0.19375170193E+02  0.27892512450E+02  0.10034801346E+03  0.10593919613E+03  0.00000000000E+00 0. -1.
         22    1    4    4    0    0  0.13505892056E+02 -0.18917503991E+02  0.68767866303E+02  0.72589947743E+02  0.00000000000E+00 0.  1.
         22    1    4    4    0    0  0.58692781372E+01 -0.89750084588E+01  0.63395000412E+02  0.64295608558E+02  0.00000000000E+00 0.  1.
<mgrwt>
<rscale>  0 0.70018219E+02</rscale>
<asrwt>0</asrwt>
<pdfrwt beam="1">  1        2 0.36564278E-01 0.70018219E+02</pdfrwt>
<pdfrwt beam="2">  1       -2 0.79337483E-03 0.70018219E+02</pdfrwt>
<totfact> 0.33077447E+05</totfact>
</mgrwt>
</event>
<event>
 7    1  0.3056193E-009  0.9163145E+02  0.7818608E-02  0.1298948E+00
         -2   -1    0    0    0  501 -0.00000000000E+00  0.00000000000E+00  0.10788537925E+02  0.10788538226E+02  0.25500000000E-02 0.  1.
          2   -1    0    0  501    0  0.00000000000E+00 -0.00000000000E+00 -0.19456580294E+03  0.19456580296E+03  0.25500000000E-02 0. -1.
         23    2    1    2    0    0 -0.17763568394E-14  0.00000000000E+00 -0.18377726502E+03  0.20535434118E+03  0.91631448238E+02 0.  0.
    9000005    2    3    3    0    0 -0.15363921403E+02 -0.30693688774E+02 -0.15983119018E+03  0.16350261348E+03  0.29904264185E+01 0.  0.
         22    1    3    3    0    0  0.15363921403E+02  0.30693688774E+02 -0.23946074836E+02  0.41851727700E+02  0.00000000000E+00 0.  1.
         22    1    4    4    0    0 -0.64803062093E+01 -0.97837615646E+01 -0.54181183891E+02  0.55437505777E+02  0.00000000000E+00 0.  1.
         22    1    4    4    0    0 -0.88836151935E+01 -0.20909927209E+02 -0.10565000629E+03  0.10806510771E+03  0.00000000000E+00 0.  1.
<mgrwt>
<rscale>  0 0.91631448E+02</rscale>
<asrwt>0</asrwt>
<pdfrwt beam="2">  1        2 0.29933198E-01 0.91631448E+02</pdfrwt>
<pdfrwt beam="1">  1       -2 0.16597752E-02 0.91631448E+02</pdfrwt>
<totfact> 0.15110897E+05</totfact>
</mgrwt>
</event>
<event>
 7    1  0.3056193E-009  0.9050933E+02  0.7818608E-02  0.1301623E+00
         -2   -1    0    0    0  501 -0.00000000000E+00  0.00000000000E+00  0.47464449513E+01  0.47464456363E+01  0.25500000000E-02 0.  1.
          2   -1    0    0  501    0  0.00000000000E+00 -0.00000000000E+00 -0.43147761656E+03  0.43147761657E+03  0.25500000000E-02 0. -1.
         23    2    1    2    0    0  0.00000000000E+00  0.00000000000E+00 -0.42673117161E+03  0.43622406220E+03  0.90509334453E+02 0.  0.
    9000005    2    3    3    0    0  0.16297421134E+02 -0.27664128671E+01 -0.41607132910E+03  0.41655451167E+03  0.11360075733E+02 0.  0.
         22    1    3    3    0    0 -0.16297421134E+02  0.27664128671E+01 -0.10659842509E+02  0.19669550531E+02  0.00000000000E+00 0.  1.
         22    1    4    4    0    0  0.10929147234E+02 -0.54277493762E+01 -0.34982567839E+03  0.35003844358E+03  0.00000000000E+00 0. -1.
         22    1    4    4    0    0  0.53682738999E+01  0.26613365091E+01 -0.66245650709E+02  0.66516068093E+02  0.00000000000E+00 0. -1.
<mgrwt>
<rscale>  0 0.90509334E+02</rscale>
<asrwt>0</asrwt>
<pdfrwt beam="2">  1        2 0.66381141E-01 0.90509334E+02</pdfrwt>
<pdfrwt beam="1">  1       -2 0.73022269E-03 0.90509334E+02</pdfrwt>
<totfact> 0.20907039E+05</totfact>
</mgrwt>
</event>
<event>
 7    1  0.3056193E-009  0.9685002E+02  0.7818608E-02  0.1287063E+00
          2   -1    0    0  501    0  0.00000000000E+00  0.00000000000E+00  0.20864370552E+03  0.20864370553E+03  0.25500000000E-02 0. -1.
         -2   -1    0    0    0  501 -0.00000000000E+00 -0.00000000000E+00 -0.11239166453E+02  0.11239166743E+02  0.25500000000E-02 0.  1.
         23    2    1    2    0    0  0.00000000000E+00  0.00000000000E+00  0.19740453907E+03  0.21988287228E+03  0.96850015370E+02 0.  0.
    9000005    2    3    3    0    0  0.44729905962E+01  0.34005259094E+02  0.17620594548E+03  0.17956233581E+03  0.42109296571E+01 0.  0.
         22    1    3    3    0    0 -0.44729905962E+01 -0.34005259094E+02  0.21198593587E+02  0.40320536467E+02  0.00000000000E+00 0.  1.
         22    1    4    4    0    0 -0.68573510928E+00  0.40551716963E+01  0.24396976578E+02  0.24741202806E+02  0.00000000000E+00 0. -1.
         22    1    4    4    0    0  0.51587257055E+01  0.29950087398E+02  0.15180896890E+03  0.15482113300E+03  0.00000000000E+00 0. -1.
<mgrwt>
<rscale>  0 0.96850015E+02</rscale>
<asrwt>0</asrwt>
<pdfrwt beam="1">  1        2 0.32099034E-01 0.96850015E+02</pdfrwt>
<pdfrwt beam="2">  1       -2 0.17291024E-02 0.96850015E+02</pdfrwt>
<totfact> 0.13344207E+05</totfact>
</mgrwt>
</event>
<event>
 7    1  0.3056193E-009  0.9757620E+02  0.7818608E-02  0.1285477E+00
         -2   -1    0    0    0  501 -0.00000000000E+00  0.00000000000E+00  0.73325641768E+01  0.73325646202E+01  0.25500000000E-02 0.  1.
          2   -1    0    0  501    0  0.00000000000E+00 -0.00000000000E+00 -0.32461751079E+03  0.32461751080E+03  0.25500000000E-02 0. -1.
         23    2    1    2    0    0  0.00000000000E+00  0.00000000000E+00 -0.31728494662E+03  0.33195007542E+03  0.97576202141E+02 0.  0.
    9000005    2    3    3    0    0 -0.41828493374E+02  0.23229190571E+02 -0.16956273550E+03  0.17667267910E+03  0.13133777710E+02 0.  0.
         22    1    3    3    0    0  0.41828493374E+02 -0.23229190571E+02 -0.14772221111E+03  0.15527739632E+03  0.00000000000E+00 0.  1.
         22    1    4    4    0    0 -0.37938162315E+02  0.24515001719E+02 -0.14860482829E+03  0.15531801074E+03  0.00000000000E+00 0.  1.
         22    1    4    4    0    0 -0.38903310592E+01 -0.12858111485E+01 -0.20957907214E+02  0.21354668362E+02  0.00000000000E+00 0.  1.
<mgrwt>
<rscale>  0 0.97576202E+02</rscale>
<asrwt>0</asrwt>
<pdfrwt beam="2">  1        2 0.49941144E-01 0.97576202E+02</pdfrwt>
<pdfrwt beam="1">  1       -2 0.11280871E-02 0.97576202E+02</pdfrwt>
<totfact> 0.15429446E+05</totfact>
</mgrwt>
</event>
<event>
 7    1  0.3056193E-009  0.8860669E+02  0.7818608E-02  0.1306261E+00
         -2   -1    0    0    0  501 -0.00000000000E+00  0.00000000000E+00  0.99291008716E+01  0.99291011990E+01  0.25500000000E-02 0. -1.
          2   -1    0    0  501    0  0.00000000000E+00 -0.00000000000E+00 -0.19768015793E+03  0.19768015794E+03  0.25500000000E-02 0.  1.
         23    2    1    2    0    0  0.00000000000E+00 -0.88817841970E-15 -0.18775105706E+03  0.20760925914E+03  0.88606687424E+02 0.  0.
    9000005    2    3    3    0    0 -0.41743328927E+02  0.50066055176E+01 -0.71549062238E+02  0.84035494903E+02  0.13233460916E+02 0.  0.
         22    1    3    3    0    0  0.41743328927E+02 -0.50066055176E+01 -0.11620199482E+03  0.12357376424E+03  0.00000000000E+00 0.  1.
         22    1    4    4    0    0 -0.72123329367E+01  0.22541510181E+01 -0.24304717974E+02  0.25452274142E+02  0.00000000000E+00 0. -1.
         22    1    4    4    0    0 -0.34530995990E+02  0.27524544995E+01 -0.47244344264E+02  0.58583220762E+02  0.00000000000E+00 0. -1.
<mgrwt>
<rscale>  0 0.88606687E+02</rscale>
<asrwt>0</asrwt>
<pdfrwt beam="2">  1        2 0.30412329E-01 0.88606687E+02</pdfrwt>
<pdfrwt beam="1">  1       -2 0.15275542E-02 0.88606687E+02</pdfrwt>
<totfact> 0.16632850E+05</totfact>
</mgrwt>
</event>
<event>
 7    1  0.3056193E-009  0.9326641E+02  0.7818608E-02  0.1295129E+00
         -2   -1    0    0    0  501 -0.00000000000E+00  0.00000000000E+00  0.63450530295E+01  0.63450535419E+01  0.25500000000E-02 0.  1.
          2   -1    0    0  501    0  0.00000000000E+00 -0.00000000000E+00 -0.34273250756E+03  0.34273250757E+03  0.25500000000E-02 0. -1.
         23    2    1    2    0    0  0.35527136788E-14  0.35527136788E-14 -0.33638745453E+03  0.34907756111E+03  0.93266414673E+02 0.  0.
    9000005    2    3    3    0    0  0.29553534788E+02  0.28312960180E+02 -0.24870365639E+03  0.25231246622E+03  0.11534156960E+02 0.  0.
         22    1    3    3    0    0 -0.29553534788E+02 -0.28312960180E+02 -0.87683798143E+02  0.96765094892E+02  0.00000000000E+00 0.  1.
         22    1    4    4    0    0  0.19715928764E+02  0.11237777610E+02 -0.14256376828E+03  0.14435869741E+03  0.00000000000E+00 0. -1.
         22    1    4    4    0    0  0.98376060239E+01  0.17075182570E+02 -0.10613988811E+03  0.10795376881E+03  0.00000000000E+00 0. -1.
<mgrwt>
<rscale>  0 0.93266415E+02</rscale>
<asrwt>0</asrwt>
<pdfrwt beam="2">  1        2 0.52728064E-01 0.93266415E+02</pdfrwt>
<pdfrwt beam="1">  1       -2 0.97616231E-03 0.93266415E+02</pdfrwt>
<totfact> 0.17767369E+05</totfact>
</mgrwt>
</event>
<event>
 7    1  0.3056193E-009  0.8730429E+02  0.7818608E-02  0.1309514E+00
         -2   -1    0    0    0  501 -0.00000000000E+00  0.00000000000E+00  0.22989651128E+01  0.22989665270E+01  0.25500000000E-02 0.  1.
          2   -1    0    0  501    0  0.00000000000E+00 -0.00000000000E+00 -0.82885520781E+03  0.82885520782E+03  0.25500000000E-02 0. -1.
         23    2    1    2    0    0  0.00000000000E+00  0.71054273576E-14 -0.82655624270E+03  0.83115417434E+03  0.87304290746E+02 0.  0.
    9000005    2    3    3    0    0 -0.33463802573E+01 -0.33550172153E+02 -0.66976346576E+03  0.67077715849E+03  0.14902482277E+02 0.  0.
         22    1    3    3    0    0  0.33463802573E+01  0.33550172153E+02 -0.15679277694E+03  0.16037701585E+03  0.00000000000E+00 0.  1.
         22    1    4    4    0    0 -0.72733818504E+01 -0.15024045970E+02 -0.22929136880E+03  0.22989814233E+03  0.00000000000E+00 0.  1.
         22    1    4    4    0    0  0.39270015930E+01 -0.18526126183E+02 -0.44047209696E+03  0.44087901616E+03  0.00000000000E+00 0.  1.
<mgrwt>
<rscale>  0 0.87304291E+02</rscale>
<asrwt>0</asrwt>
<pdfrwt beam="2">  1        2 0.12751595E+00 0.87304291E+02</pdfrwt>
<pdfrwt beam="1">  1       -2 0.35368771E-03 0.87304291E+02</pdfrwt>
<totfact> 0.27481729E+05</totfact>
</mgrwt>
</event>
<event>
 7    1  0.3056193E-009  0.8920998E+02  0.7818608E-02  0.1304776E+00
          2   -1    0    0  501    0  0.00000000000E+00  0.00000000000E+00  0.84140544026E+02  0.84140544065E+02  0.25500000000E-02 0. -1.
         -2   -1    0    0    0  501 -0.00000000000E+00 -0.00000000000E+00 -0.23646212578E+02  0.23646212716E+02  0.25500000000E-02 0.  1.
         23    2    1    2    0    0  0.17763568394E-14  0.00000000000E+00  0.60494331448E+02  0.10778675678E+03  0.89209981504E+02 0.  0.
    9000005    2    3    3    0    0 -0.15341991052E+02 -0.23769408907E+02  0.71197010252E+02  0.77539297006E+02  0.11956873428E+02 0.  0.
         22    1    3    3    0    0  0.15341991052E+02  0.23769408907E+02 -0.10702678804E+02  0.30247459775E+02  0.00000000000E+00 0.  1.
         22    1    4    4    0    0 -0.38701273782E+01 -0.11876765545E+02  0.43786645898E+02  0.45533567889E+02  0.00000000000E+00 0.  1.
         22    1    4    4    0    0 -0.11471863674E+02 -0.11892643363E+02  0.27410364354E+02  0.32005729117E+02  0.00000000000E+00 0.  1.
<mgrwt>
<rscale>  0 0.89209982E+02</rscale>
<asrwt>0</asrwt>
<pdfrwt beam="1">  1        2 0.12944699E-01 0.89209982E+02</pdfrwt>
<pdfrwt beam="2">  1       -2 0.36378788E-02 0.89209982E+02</pdfrwt>
<totfact> 0.12378291E+05</totfact>
</mgrwt>
</event>
<event>
 7    1  0.3056193E-009  0.9043671E+02  0.7818608E-02  0.1301798E+00
          2   -1    0    0  501    0  0.00000000000E+00  0.00000000000E+00  0.29761140096E+02  0.29761140205E+02  0.25500000000E-02 0.  1.
         -2   -1    0    0    0  501 -0.00000000000E+00 -0.00000000000E+00 -0.68703665738E+02  0.68703665785E+02  0.25500000000E-02 0. -1.
         23    2    1    2    0    0  0.00000000000E+00  0.00000000000E+00 -0.38942525642E+02  0.98464805991E+02  0.90436705576E+02 0.  0.
    9000005    2    3    3    0    0 -0.79125899010E+01  0.42309249964E+02 -0.29856172821E+02  0.54473403205E+02  0.14942519528E+02 0.  0.
         22    1    3    3    0    0  0.79125899010E+01 -0.42309249964E+02 -0.90863528213E+01  0.43991402785E+02  0.00000000000E+00 0. -1.
         22    1    4    4    0    0 -0.47809880891E+01  0.97702162263E+01 -0.10943507849E+01  0.10932180746E+02  0.00000000000E+00 0. -1.
         22    1    4    4    0    0 -0.31316018119E+01  0.32539033737E+02 -0.28761822036E+02  0.43541222460E+02  0.00000000000E+00 0. -1.
<mgrwt>
<rscale>  0 0.90436706E+02</rscale>
<asrwt>0</asrwt>
<pdfrwt beam="1">  1        2 0.45786370E-02 0.90436706E+02</pdfrwt>
<pdfrwt beam="2">  1       -2 0.10569795E-01 0.90436706E+02</pdfrwt>
<totfact> 0.90436749E+04</totfact>
</mgrwt>
</event>
<event>
 7    1  0.3056193E-009  0.9229735E+02  0.7818608E-02  0.1297382E+00
          2   -1    0    0  501    0  0.00000000000E+00  0.00000000000E+00  0.10193658493E+02  0.10193658812E+02  0.25500000000E-02 0. -1.
         -2   -1    0    0    0  501 -0.00000000000E+00 -0.00000000000E+00 -0.20892402395E+03  0.20892402397E+03  0.25500000000E-02 0.  1.
         23    2    1    2    0    0 -0.35527136788E-14  0.35527136788E-14 -0.19873036546E+03  0.21911768278E+03  0.92297349645E+02 0.  0.
    9000005    2    3    3    0    0 -0.27337031082E+02  0.21605016463E+02 -0.27617853927E+02  0.44493567586E+02  0.16857331551E+01 0.  0.
         22    1    3    3    0    0  0.27337031082E+02 -0.21605016463E+02 -0.17111251153E+03  0.17462411520E+03  0.00000000000E+00 0.  1.
         22    1    4    4    0    0 -0.41402976731E+01  0.28704318612E+01 -0.33675572814E+01  0.60598585738E+01  0.00000000000E+00 0. -1.
         22    1    4    4    0    0 -0.23196733409E+02  0.18734584602E+02 -0.24250296646E+02  0.38433709012E+02  0.00000000000E+00 0. -1.
<mgrwt>
<rscale>  0 0.92297350E+02</rscale>
<asrwt>0</asrwt>
<pdfrwt beam="1">  1        2 0.15682553E-02 0.92297350E+02</pdfrwt>
<pdfrwt beam="2">  1       -2 0.32142154E-01 0.92297350E+02</pdfrwt>
<totfact> 0.59255023E+04</totfact>
</mgrwt>
</event>
<event>
 7    1  0.3056193E-009  0.9125403E+02  0.7818608E-02  0.1299843E+00
         -2   -1    0    0    0  501 -0.00000000000E+00  0.00000000000E+00  0.32675174283E+02  0.32675174382E+02  0.25500000000E-02 0.  1.
          2   -1    0    0  501    0  0.00000000000E+00 -0.00000000000E+00 -0.63712732194E+02  0.63712732245E+02  0.25500000000E-02 0. -1.
         23    2    1    2    0    0  0.00000000000E+00 -0.35527136788E-14 -0.31037557911E+02  0.96387906627E+02  0.91254033023E+02 0.  0.
    9000005    2    3    3    0    0 -0.16375331603E+02  0.28635669742E+02 -0.48034810042E+02  0.59279152314E+02  0.10886774387E+02 0.  0.
         22    1    3    3    0    0  0.16375331603E+02 -0.28635669742E+02  0.16997252131E+02  0.37108754314E+02  0.00000000000E+00 0.  1.
         22    1    4    4    0    0  0.16095441291E+01  0.22059103038E+01 -0.45726790101E+01  0.53259802761E+01  0.00000000000E+00 0. -1.
         22    1    4    4    0    0 -0.17984875732E+02  0.26429759439E+02 -0.43462131032E+02  0.53953172038E+02  0.00000000000E+00 0. -1.
<mgrwt>
<rscale>  0 0.91254033E+02</rscale>
<asrwt>0</asrwt>
<pdfrwt beam="2">  1        2 0.98019588E-02 0.91254033E+02</pdfrwt>
<pdfrwt beam="1">  1       -2 0.50269499E-02 0.91254033E+02</pdfrwt>
<totfact> 0.10754532E+05</totfact>
</mgrwt>
</event>
<event>
 7    1  0.3056193E-009  0.9396918E+02  0.7818608E-02  0.1293515E+00
          2   -1    0    0  501    0  0.00000000000E+00  0.00000000000E+00  0.55754812582E+02  0.55754812640E+02  0.25500000000E-02 0. -1.
         -2   -1    0    0    0  501 -0.00000000000E+00 -0.00000000000E+00 -0.39593923051E+02  0.39593923133E+02  0.25500000000E-02 0.  1.
         23    2    1    2    0    0  0.00000000000E+00  0.00000000000E+00  0.16160889530E+02  0.95348735773E+02  0.93969181454E+02 0.  0.
    9000005    2    3    3    0    0  0.31376023293E+02 -0.18720608488E+02  0.36670205998E+02  0.53449474660E+02  0.13312637367E+02 0.  0.
         22    1    3    3    0    0 -0.31376023293E+02  0.18720608488E+02 -0.20509316468E+02  0.41899261113E+02  0.00000000000E+00 0.  1.
         22    1    4    4    0    0  0.74763251128E-01 -0.44926559219E+01  0.38614290347E+01  0.59245405701E+01  0.00000000000E+00 0.  1.
         22    1    4    4    0    0  0.31301260042E+02 -0.14227952566E+02  0.32808776963E+02  0.47524934090E+02  0.00000000000E+00 0.  1.
<mgrwt>
<rscale>  0 0.93969181E+02</rscale>
<asrwt>0</asrwt>
<pdfrwt beam="1">  1        2 0.85776635E-02 0.93969181E+02</pdfrwt>
<pdfrwt beam="2">  1       -2 0.60913728E-02 0.93969181E+02</pdfrwt>
<totfact> 0.95465891E+04</totfact>
</mgrwt>
</event>
<event>
 7    1  0.3056193E-009  0.9083165E+02  0.7818608E-02  0.1300850E+00
         -2   -1    0    0    0  501 -0.00000000000E+00  0.00000000000E+00  0.16027753088E+02  0.16027753291E+02  0.25500000000E-02 0.  1.
          2   -1    0    0  501    0  0.00000000000E+00 -0.00000000000E+00 -0.12868909438E+03  0.12868909440E+03  0.25500000000E-02 0. -1.
         23    2    1    2    0    0 -0.17763568394E-14 -0.71054273576E-14 -0.11266134129E+03  0.14471684769E+03  0.90831647486E+02 0.  0.
    9000005    2    3    3    0    0  0.11215475314E+02  0.35434087701E+02 -0.95830313295E+02  0.10391678690E+03  0.15293403629E+02 0.  0.
         22    1    3    3    0    0 -0.11215475314E+02 -0.35434087701E+02 -0.16831027994E+02  0.40800060797E+02  0.00000000000E+00 0.  1.
         22    1    4    4    0    0  0.61793801191E+01  0.34460809923E+02 -0.85235227383E+02  0.92145407624E+02  0.00000000000E+00 0. -1.
         22    1    4    4    0    0  0.50360951949E+01  0.97327777816E+00 -0.10595085912E+02  0.11771379271E+02  0.00000000000E+00 0. -1.
<mgrwt>
<rscale>  0 0.90831647E+02</rscale>
<asrwt>0</asrwt>
<pdfrwt beam="2">  1        2 0.19798322E-01 0.90831647E+02</pdfrwt>
<pdfrwt beam="1">  1       -2 0.24658083E-02 0.90831647E+02</pdfrwt>
<totfact> 0.13421961E+05</totfact>
</mgrwt>
</event>
<event>
 7    1  0.3056193E-009  0.8861707E+02  0.7818608E-02  0.1306236E+00
          2   -1    0    0  501    0  0.00000000000E+00  0.00000000000E+00  0.51891343712E+03  0.51891343713E+03  0.25500000000E-02 0.  1.
         -2   -1    0    0    0  501 -0.00000000000E+00 -0.00000000000E+00 -0.37833785966E+01  0.37833794560E+01  0.25500000000E-02 0. -1.
         23    2    1    2    0    0  0.00000000000E+00 -0.88817841970E-15  0.51513005853E+03  0.52269681659E+03  0.88617068734E+02 0.  0.
    9000005    2    3    3    0    0  0.39146356441E+02  0.56940642596E+01  0.37414143409E+03  0.37626371988E+03  0.52644661976E+01 0.  0.
         22    1    3    3    0    0 -0.39146356441E+02 -0.56940642596E+01  0.14098862444E+03  0.14643309671E+03  0.00000000000E+00 0. -1.
         22    1    4    4    0    0  0.32639606881E+02  0.28391414432E+01  0.31357111238E+03  0.31527804742E+03  0.00000000000E+00 0.  1.
         22    1    4    4    0    0  0.65067495601E+01  0.28549228164E+01  0.60570321703E+02  0.60985672459E+02  0.00000000000E+00 0.  1.
<mgrwt>
<rscale>  0 0.88617069E+02</rscale>
<asrwt>0</asrwt>
<pdfrwt beam="1">  1        2 0.79832900E-01 0.88617069E+02</pdfrwt>
<pdfrwt beam="2">  1       -2 0.58205785E-03 0.88617069E+02</pdfrwt>
<totfact> 0.23511432E+05</totfact>
</mgrwt>
</event>
<event>
 7    1  0.3056193E-009  0.9102379E+02  0.7818608E-02  0.1300391E+00
         -2   -1    0    0    0  501 -0.00000000000E+00  0.00000000000E+00  0.24811376566E+02  0.24811376697E+02  0.25500000000E-02 0.  1.
          2   -1    0    0  501    0  0.00000000000E+00 -0.00000000000E+00 -0.83483179253E+02  0.83483179292E+02  0.25500000000E-02 0. -1.
         23    2    1    2    0    0  0.00000000000E+00  0.00000000000E+00 -0.58671802687E+02  0.10829455599E+03  0.91023790441E+02 0.  0.
    9000005    2    3    3    0    0 -0.39284829953E+02  0.85337689566E+01 -0.51275964319E+01  0.41338562227E+02  0.81523864477E+01 0.  0.
         22    1    3    3    0    0  0.39284829953E+02 -0.85337689566E+01 -0.53544206255E+02  0.66955993761E+02  0.00000000000E+00 0.  1.
         22    1    4    4    0    0 -0.29347402003E+02  0.75490471058E+01 -0.71845206770E+01  0.31142823473E+02  0.00000000000E+00 0. -1.
         22    1    4    4    0    0 -0.99374279500E+01  0.98472185080E+00  0.20569242451E+01  0.10195738754E+02  0.00000000000E+00 0. -1.
<mgrwt>
<rscale>  0 0.91023790E+02</rscale>
<asrwt>0</asrwt>
<pdfrwt beam="2">  1        2 0.12843566E-01 0.91023790E+02</pdfrwt>
<pdfrwt beam="1">  1       -2 0.38171349E-02 0.91023790E+02</pdfrwt>
<totfact> 0.11681595E+05</totfact>
</mgrwt>
</event>
<event>
 7    1  0.3056193E-009  0.9332053E+02  0.7818608E-02  0.1295004E+00
          2   -1    0    0  501    0  0.00000000000E+00  0.00000000000E+00  0.31520550388E+02  0.31520550492E+02  0.25500000000E-02 0. -1.
         -2   -1    0    0    0  501 -0.00000000000E+00 -0.00000000000E+00 -0.69071773686E+02  0.69071773733E+02  0.25500000000E-02 0.  1.
         23    2    1    2    0    0  0.17763568394E-14 -0.17763568394E-14 -0.37551223297E+02  0.10059232422E+03  0.93320530012E+02 0.  0.
    9000005    2    3    3    0    0 -0.91560795208E+01  0.13115584449E+02  0.28269415028E+02  0.32856006217E+02  0.49502495727E+01 0.  0.
         22    1    3    3    0    0  0.91560795208E+01 -0.13115584449E+02 -0.65820638326E+02  0.67736318008E+02  0.00000000000E+00 0.  1.
         22    1    4    4    0    0 -0.23817010429E+01  0.15431140017E+01  0.23957886462E+01  0.37139606779E+01  0.00000000000E+00 0.  1.
         22    1    4    4    0    0 -0.67743784778E+01  0.11572470447E+02  0.25873626382E+02  0.29142045539E+02  0.00000000000E+00 0.  1.
<mgrwt>
<rscale>  0 0.93320530E+02</rscale>
<asrwt>0</asrwt>
<pdfrwt beam="1">  1        2 0.48493155E-02 0.93320530E+02</pdfrwt>
<pdfrwt beam="2">  1       -2 0.10626427E-01 0.93320530E+02</pdfrwt>
<totfact> 0.83666943E+04</totfact>
</mgrwt>
</event>
<event>
 7    1  0.3056193E-009  0.9372123E+02  0.7818608E-02  0.1294082E+00
         -2   -1    0    0    0  501 -0.00000000000E+00  0.00000000000E+00  0.41793407960E+01  0.41793415739E+01  0.25500000000E-02 0.  1.
          2   -1    0    0  501    0  0.00000000000E+00 -0.00000000000E+00 -0.52542188223E+03  0.52542188223E+03  0.25500000000E-02 0. -1.
         23    2    1    2    0    0  0.00000000000E+00 -0.71054273576E-14 -0.52124254143E+03  0.52960122381E+03  0.93721231642E+02 0.  0.
    9000005    2    3    3    0    0  0.10276368233E+02  0.43552050237E+02 -0.33786644466E+03  0.34084429628E+03  0.43260898157E+01 0.  0.
         22    1    3    3    0    0 -0.10276368233E+02 -0.43552050237E+02 -0.18337609677E+03  0.18875692753E+03  0.00000000000E+00 0.  1.
         22    1    4    4    0    0  0.91326184186E+01  0.35700245418E+02 -0.28857942534E+03  0.29092266493E+03  0.00000000000E+00 0.  1.
         22    1    4    4    0    0  0.11437498146E+01  0.78518048186E+01 -0.49287019318E+02  0.49921631342E+02  0.00000000000E+00 0.  1.
<mgrwt>
<rscale>  0 0.93721232E+02</rscale>
<asrwt>0</asrwt>
<pdfrwt beam="2">  1        2 0.80834084E-01 0.93721232E+02</pdfrwt>
<pdfrwt beam="1">  1       -2 0.64297598E-03 0.93721232E+02</pdfrwt>
<totfact> 0.20354529E+05</totfact>
</mgrwt>
</event>
<event>
 7    1  0.3056193E-009  0.9059313E+02  0.7818608E-02  0.1301422E+00
          2   -1    0    0  501    0  0.00000000000E+00  0.00000000000E+00  0.16632937598E+03  0.16632937600E+03  0.25500000000E-02 0. -1.
         -2   -1    0    0    0  501 -0.00000000000E+00 -0.00000000000E+00 -0.12335635607E+02  0.12335635870E+02  0.25500000000E-02 0.  1.
         23    2    1    2    0    0  0.00000000000E+00  0.00000000000E+00  0.15399374038E+03  0.17866501187E+03  0.90593125526E+02 0.  0.
    9000005    2    3    3    0    0 -0.42243465307E+02  0.63552784996E+01  0.55717443745E+02  0.71505642682E+02  0.13554463172E+02 0.  0.
         22    1    3    3    0    0  0.42243465307E+02 -0.63552784996E+01  0.98276296632E+02  0.10715936919E+03  0.00000000000E+00 0. -1.
         22    1    4    4    0    0 -0.30637894891E+02  0.55752844260E+01  0.49044155742E+02  0.58095555874E+02  0.00000000000E+00 0. -1.
         22    1    4    4    0    0 -0.11605570416E+02  0.77999407363E+00  0.66732880028E+01  0.13410086808E+02  0.00000000000E+00 0. -1.
<mgrwt>
<rscale>  0 0.90593126E+02</rscale>
<asrwt>0</asrwt>
<pdfrwt beam="1">  1        2 0.25589133E-01 0.90593126E+02</pdfrwt>
<pdfrwt beam="2">  1       -2 0.18977902E-02 0.90593126E+02</pdfrwt>
<totfact> 0.14740843E+05</totfact>
</mgrwt>
</event>
<event>
 7    1  0.3056193E-009  0.9262180E+02  0.7818608E-02  0.1296624E+00
          2   -1    0    0  501    0  0.00000000000E+00  0.00000000000E+00  0.76828173517E+02  0.76828173559E+02  0.25500000000E-02 0.  1.
         -2   -1    0    0    0  501 -0.00000000000E+00 -0.00000000000E+00 -0.27915536445E+02  0.27915536561E+02  0.25500000000E-02 0. -1.
         23    2    1    2    0    0 -0.35527136788E-14  0.00000000000E+00  0.48912637072E+02  0.10474371012E+03  0.92621804909E+02 0.  0.
    9000005    2    3    3    0    0  0.31071128263E+02 -0.74342873937E+01 -0.12898004666E+02  0.35164696958E+02  0.70366005436E+01 0.  0.
         22    1    3    3    0    0 -0.31071128263E+02  0.74342873937E+01  0.61810641738E+02  0.69579013162E+02  0.00000000000E+00 0.  1.
         22    1    4    4    0    0  0.28504280409E+02 -0.87553096242E+01 -0.11983351623E+02  0.32136430485E+02  0.00000000000E+00 0. -1.
         22    1    4    4    0    0  0.25668478549E+01  0.13210222304E+01 -0.91465304263E+00  0.30282664730E+01  0.00000000000E+00 0. -1.
<mgrwt>
<rscale>  0 0.92621805E+02</rscale>
<asrwt>0</asrwt>
<pdfrwt beam="1">  1        2 0.11819719E-01 0.92621805E+02</pdfrwt>
<pdfrwt beam="2">  1       -2 0.42946980E-02 0.92621805E+02</pdfrwt>
<totfact> 0.10866635E+05</totfact>
</mgrwt>
</event>
<event>
 7    1  0.3056193E-009  0.9067633E+02  0.7818608E-02  0.1301222E+00
          2   -1    0    0  501    0  0.00000000000E+00  0.00000000000E+00  0.20713124777E+03  0.20713124779E+03  0.25500000000E-02 0. -1.
         -2   -1    0    0    0  501 -0.00000000000E+00 -0.00000000000E+00 -0.99238963704E+01  0.99238966980E+01  0.25500000000E-02 0.  1.
         23    2    1    2    0    0  0.00000000000E+00 -0.71054273576E-14  0.19720735140E+03  0.21705514449E+03  0.90676327126E+02 0.  0.
    9000005    2    3    3    0    0  0.70915614668E+01 -0.43084290436E+02  0.85534026374E+02  0.97149023503E+02  0.14673676206E+02 0.  0.
         22    1    3    3    0    0 -0.70915614668E+01  0.43084290436E+02  0.11167332503E+03  0.11990612098E+03  0.00000000000E+00 0. -1.
         22    1    4    4    0    0 -0.22645788765E+01 -0.17420343022E+01  0.11398860833E+02  0.11751469240E+02  0.00000000000E+00 0.  1.
         22    1    4    4    0    0  0.93561403433E+01 -0.41342256134E+02  0.74135165541E+02  0.85397554263E+02  0.00000000000E+00 0.  1.
<mgrwt>
<rscale>  0 0.90676327E+02</rscale>
<asrwt>0</asrwt>
<pdfrwt beam="1">  1        2 0.31866346E-01 0.90676327E+02</pdfrwt>
<pdfrwt beam="2">  1       -2 0.15267533E-02 0.90676327E+02</pdfrwt>
<totfact> 0.15899227E+05</totfact>
</mgrwt>
</event>
<event>
 7    1  0.3056193E-009  0.9216230E+02  0.7818608E-02  0.1297698E+00
         -2   -1    0    0    0  501 -0.00000000000E+00  0.00000000000E+00  0.21903557608E+02  0.21903557757E+02  0.25500000000E-02 0.  1.
          2   -1    0    0  501    0  0.00000000000E+00 -0.00000000000E+00 -0.96946456005E+02  0.96946456039E+02  0.25500000000E-02 0. -1.
         23    2    1    2    0    0  0.00000000000E+00  0.00000000000E+00 -0.75042898397E+02  0.11885001380E+03  0.92162298036E+02 0.  0.
    9000005    2    3    3    0    0  0.26533373758E+02 -0.37241892653E+02 -0.41672651934E+02  0.62241252632E+02  0.68106621322E+01 0.  0.
         22    1    3    3    0    0 -0.26533373758E+02  0.37241892653E+02 -0.33370246464E+02  0.56608761163E+02  0.00000000000E+00 0. -1.
         22    1    4    4    0    0  0.25683584283E+02 -0.33598481264E+02 -0.39730385024E+02  0.58025924715E+02  0.00000000000E+00 0. -1.
         22    1    4    4    0    0  0.84978947509E+00 -0.36434113891E+01 -0.19422669096E+01  0.42153279173E+01  0.00000000000E+00 0. -1.
<mgrwt>
<rscale>  0 0.92162298E+02</rscale>
<asrwt>0</asrwt>
<pdfrwt beam="2">  1        2 0.14914839E-01 0.92162298E+02</pdfrwt>
<pdfrwt beam="1">  1       -2 0.33697782E-02 0.92162298E+02</pdfrwt>
<totfact> 0.11797386E+05</totfact>
</mgrwt>
</event>
<event>
 7    1  0.3056193E-009  0.9155747E+02  0.7818608E-02  0.1299123E+00
         -2   -1    0    0    0  501 -0.00000000000E+00  0.00000000000E+00  0.52406276707E+02  0.52406276769E+02  0.25500000000E-02 0.  1.
          2   -1    0    0  501    0  0.00000000000E+00 -0.00000000000E+00 -0.39989346411E+02  0.39989346493E+02  0.25500000000E-02 0. -1.
         23    2    1    2    0    0  0.00000000000E+00  0.00000000000E+00  0.12416930296E+02  0.92395623262E+02  0.91557473971E+02 0.  0.
    9000005    2    3    3    0    0  0.97075446542E+01  0.36082913093E+02 -0.18152269609E+02  0.44118413077E+02  0.14856528531E+02 0.  0.
         22    1    3    3    0    0 -0.97075446542E+01 -0.36082913093E+02  0.30569199905E+02  0.48277210186E+02  0.00000000000E+00 0.  1.
         22    1    4    4    0    0  0.40160320052E+01  0.31438836613E+02 -0.10206147786E+02  0.33297063133E+02  0.00000000000E+00 0. -1.
         22    1    4    4    0    0  0.56915126490E+01  0.46440764797E+01 -0.79461218228E+01  0.10821349944E+02  0.00000000000E+00 0. -1.
<mgrwt>
<rscale>  0 0.91557474E+02</rscale>
<asrwt>0</asrwt>
<pdfrwt beam="2">  1        2 0.61522072E-02 0.91557474E+02</pdfrwt>
<pdfrwt beam="1">  1       -2 0.80625041E-02 0.91557474E+02</pdfrwt>
<totfact> 0.94236107E+04</totfact>
</mgrwt>
</event>
<event>
 7    1  0.3056193E-009  0.9522237E+02  0.7818608E-02  0.1290676E+00
         -2   -1    0    0    0  501 -0.00000000000E+00  0.00000000000E+00  0.10360583051E+03  0.10360583054E+03  0.25500000000E-02 0.  1.
          2   -1    0    0  501    0  0.00000000000E+00 -0.00000000000E+00 -0.21879320013E+02  0.21879320162E+02  0.25500000000E-02 0. -1.
         23    2    1    2    0    0  0.00000000000E+00  0.00000000000E+00  0.81726510496E+02  0.12548515070E+03  0.95222374098E+02 0.  0.
    9000005    2    3    3    0    0  0.38247383864E+02 -0.14684387168E+02  0.72711961893E+02  0.83535708686E+02  0.35625306059E+01 0.  0.
         22    1    3    3    0    0 -0.38247383864E+02  0.14684387168E+02  0.90145486024E+01  0.41949442016E+02  0.00000000000E+00 0. -1.
         22    1    4    4    0    0  0.22657050270E+02 -0.80055244198E+01  0.39272046174E+02  0.46040460021E+02  0.00000000000E+00 0.  1.
         22    1    4    4    0    0  0.15590333594E+02 -0.66788627486E+01  0.33439915719E+02  0.37495248665E+02  0.00000000000E+00 0.  1.
<mgrwt>
<rscale>  0 0.95222374E+02</rscale>
<asrwt>0</asrwt>
<pdfrwt beam="2">  1        2 0.33660493E-02 0.95222374E+02</pdfrwt>
<pdfrwt beam="1">  1       -2 0.15939358E-01 0.95222374E+02</pdfrwt>
<totfact> 0.70858631E+04</totfact>
</mgrwt>
</event>
<event>
 7    1  0.3056193E-009  0.9054621E+02  0.7818608E-02  0.1301534E+00
         -2   -1    0    0    0  501 -0.00000000000E+00  0.00000000000E+00  0.15535085574E+01  0.15535106502E+01  0.25500000000E-02 0.  1.
          2   -1    0    0  501    0  0.00000000000E+00 -0.00000000000E+00 -0.13193701437E+04  0.13193701437E+04  0.25500000000E-02 0. -1.
         23    2    1    2    0    0  0.00000000000E+00 -0.35527136788E-14 -0.13178166352E+04  0.13209236544E+04  0.90546213449E+02 0.  0.
    9000005    2    3    3    0    0 -0.18038688034E+02  0.24250687219E+02 -0.11488340664E+04  0.11492594513E+04  0.80052490191E+01 0.  0.
         22    1    3    3    0    0  0.18038688034E+02 -0.24250687219E+02 -0.16898256873E+03  0.17166420311E+03  0.00000000000E+00 0.  1.
         22    1    4    4    0    0 -0.34052772145E+01  0.55629197038E+01 -0.38922797258E+03  0.38928261793E+03  0.00000000000E+00 0. -1.
         22    1    4    4    0    0 -0.14633410820E+02  0.18687767515E+02 -0.75960609386E+03  0.75997683333E+03  0.00000000000E+00 0. -1.
<mgrwt>
<rscale>  0 0.90546213E+02</rscale>
<asrwt>0</asrwt>
<pdfrwt beam="2">  1        2 0.20297913E+00 0.90546213E+02</pdfrwt>
<pdfrwt beam="1">  1       -2 0.23900253E-03 0.90546213E+02</pdfrwt>
<totfact> 0.24947635E+05</totfact>
</mgrwt>
</event>
<event>
 7    1  0.3056193E-009  0.9094800E+02  0.7818608E-02  0.1300572E+00
          2   -1    0    0  501    0  0.00000000000E+00  0.00000000000E+00  0.13547287271E+03  0.13547287274E+03  0.25500000000E-02 0. -1.
         -2   -1    0    0    0  501 -0.00000000000E+00 -0.00000000000E+00 -0.15264196398E+02  0.15264196611E+02  0.25500000000E-02 0.  1.
         23    2    1    2    0    0  0.00000000000E+00  0.00000000000E+00  0.12020867632E+03  0.15073706935E+03  0.90947997307E+02 0.  0.
    9000005    2    3    3    0    0  0.21952139042E+02  0.15503958838E+02  0.12007659603E+03  0.12386167924E+03  0.14179475429E+02 0.  0.
         22    1    3    3    0    0 -0.21952139042E+02 -0.15503958838E+02  0.13208029033E+00  0.26875390106E+02  0.00000000000E+00 0.  1.
         22    1    4    4    0    0  0.72046645111E+01  0.13493833974E+02  0.53655445558E+02  0.55793347131E+02  0.00000000000E+00 0. -1.
         22    1    4    4    0    0  0.14747474530E+02  0.20101248648E+01  0.66421150468E+02  0.68068332112E+02  0.00000000000E+00 0. -1.
<mgrwt>
<rscale>  0 0.90947997E+02</rscale>
<asrwt>0</asrwt>
<pdfrwt beam="1">  1        2 0.20841980E-01 0.90947997E+02</pdfrwt>
<pdfrwt beam="2">  1       -2 0.23483379E-02 0.90947997E+02</pdfrwt>
<totfact> 0.13603384E+05</totfact>
</mgrwt>
</event>
<event>
 7    1  0.3056193E-009  0.8828247E+02  0.7818608E-02  0.1307065E+00
         -2   -1    0    0    0  501 -0.00000000000E+00  0.00000000000E+00  0.42859951134E+01  0.42859958720E+01  0.25500000000E-02 0.  1.
          2   -1    0    0  501    0  0.00000000000E+00 -0.00000000000E+00 -0.45460816425E+03  0.45460816425E+03  0.25500000000E-02 0. -1.
         23    2    1    2    0    0  0.00000000000E+00 -0.17763568394E-14 -0.45032216913E+03  0.45889416013E+03  0.88282468162E+02 0.  0.
    9000005    2    3    3    0    0  0.33073170449E+02 -0.10732785466E+02 -0.36597601132E+03  0.36766202969E+03  0.52820375685E+01 0.  0.
         22    1    3    3    0    0 -0.33073170449E+02  0.10732785466E+02 -0.84346157810E+02  0.91232130440E+02  0.00000000000E+00 0.  1.
         22    1    4    4    0    0  0.26947644821E+02 -0.94480324528E+01 -0.31798243016E+03  0.31926206598E+03  0.00000000000E+00 0. -1.
         22    1    4    4    0    0  0.61255256275E+01 -0.12847530134E+01 -0.47993581159E+02  0.48399963709E+02  0.00000000000E+00 0. -1.
<mgrwt>
<rscale>  0 0.88282468E+02</rscale>
<asrwt>0</asrwt>
<pdfrwt beam="2">  1        2 0.69939680E-01 0.88282468E+02</pdfrwt>
<pdfrwt beam="1">  1       -2 0.65938428E-03 0.88282468E+02</pdfrwt>
<totfact> 0.22735751E+05</totfact>
</mgrwt>
</event>
<event>
 7    1  0.3056193E-009  0.9858486E+02  0.7818608E-02  0.1283300E+00
         -2   -1    0    0    0  501 -0.00000000000E+00  0.00000000000E+00  0.12387798169E+03  0.12387798171E+03  0.25500000000E-02 0. -1.
          2   -1    0    0  501    0  0.00000000000E+00 -0.00000000000E+00 -0.19614009269E+02  0.19614009434E+02  0.25500000000E-02 0.  1.
         23    2    1    2    0    0 -0.35527136788E-14  0.00000000000E+00  0.10426397242E+03  0.14349199115E+03  0.98584864858E+02 0.  0.
    9000005    2    3    3    0    0  0.27623410773E+02 -0.25563300574E+02  0.98247722272E+02  0.10537729025E+03  0.59349144188E+01 0.  0.
         22    1    3    3    0    0 -0.27623410773E+02  0.25563300574E+02  0.60162501459E+01  0.38114700901E+02  0.00000000000E+00 0.  1.
         22    1    4    4    0    0  0.10136115367E+02 -0.12727523774E+02  0.46608812186E+02  0.49367115264E+02  0.00000000000E+00 0.  1.
         22    1    4    4    0    0  0.17487295406E+02 -0.12835776799E+02  0.51638910087E+02  0.56010174983E+02  0.00000000000E+00 0.  1.
<mgrwt>
<rscale>  0 0.98584865E+02</rscale>
<asrwt>0</asrwt>
<pdfrwt beam="2">  1        2 0.30175399E-02 0.98584865E+02</pdfrwt>
<pdfrwt beam="1">  1       -2 0.19058151E-01 0.98584865E+02</pdfrwt>
<totfact> 0.61329406E+04</totfact>
</mgrwt>
</event>
<event>
 7    1  0.3056193E-009  0.9254125E+02  0.7818608E-02  0.1296812E+00
         -2   -1    0    0    0  501 -0.00000000000E+00  0.00000000000E+00  0.20844467329E+02  0.20844467485E+02  0.25500000000E-02 0. -1.
          2   -1    0    0  501    0  0.00000000000E+00 -0.00000000000E+00 -0.10271170926E+03  0.10271170929E+03  0.25500000000E-02 0.  1.
         23    2    1    2    0    0  0.00000000000E+00  0.00000000000E+00 -0.81867241931E+02  0.12355617678E+03  0.92541253061E+02 0.  0.
    9000005    2    3    3    0    0  0.12053902594E+02  0.33716446986E+02 -0.79065737722E+02  0.87640389286E+02  0.12138846223E+02 0.  0.
         22    1    3    3    0    0 -0.12053902594E+02 -0.33716446986E+02 -0.28015042087E+01  0.35915787489E+02  0.00000000000E+00 0. -1.
         22    1    4    4    0    0  0.61887128844E+01  0.29096218246E+02 -0.56210055027E+02  0.63596071966E+02  0.00000000000E+00 0.  1.
         22    1    4    4    0    0  0.58651897096E+01  0.46202287401E+01 -0.22855682695E+02  0.24044317320E+02  0.00000000000E+00 0.  1.
<mgrwt>
<rscale>  0 0.92541253E+02</rscale>
<asrwt>0</asrwt>
<pdfrwt beam="2">  1        2 0.15801801E-01 0.92541253E+02</pdfrwt>
<pdfrwt beam="1">  1       -2 0.32068412E-02 0.92541253E+02</pdfrwt>
<totfact> 0.11872336E+05</totfact>
</mgrwt>
</event>
<event>
 7    1  0.3056193E-009  0.9068844E+02  0.7818608E-02  0.1301193E+00
          2   -1    0    0  501    0  0.00000000000E+00  0.00000000000E+00  0.12052401319E+03  0.12052401322E+03  0.25500000000E-02 0. -1.
         -2   -1    0    0    0  501 -0.00000000000E+00 -0.00000000000E+00 -0.17059657766E+02  0.17059657957E+02  0.25500000000E-02 0.  1.
         23    2    1    2    0    0  0.00000000000E+00  0.00000000000E+00  0.10346435543E+03  0.13758367118E+03  0.90688443203E+02 0.  0.
    9000005    2    3    3    0    0 -0.84799086158E+01 -0.43011192601E+02  0.68024581200E+02  0.81211256501E+02  0.67862357680E+01 0.  0.
         22    1    3    3    0    0  0.84799086158E+01  0.43011192601E+02  0.35439774226E+02  0.56372414676E+02  0.00000000000E+00 0. -1.
         22    1    4    4    0    0 -0.45812635449E+01 -0.29924107332E+02  0.51876566679E+02  0.60063452663E+02  0.00000000000E+00 0.  1.
         22    1    4    4    0    0 -0.38986450710E+01 -0.13087085269E+02  0.16148014520E+02  0.21147803838E+02  0.00000000000E+00 0.  1.
<mgrwt>
<rscale>  0 0.90688443E+02</rscale>
<asrwt>0</asrwt>
<pdfrwt beam="1">  1        2 0.18542155E-01 0.90688443E+02</pdfrwt>
<pdfrwt beam="2">  1       -2 0.26245628E-02 0.90688443E+02</pdfrwt>
<totfact> 0.13196750E+05</totfact>
</mgrwt>
</event>
<event>
 7    1  0.3056193E-009  0.9236519E+02  0.7818608E-02  0.1297223E+00
         -2   -1    0    0    0  501 -0.00000000000E+00  0.00000000000E+00  0.57476611731E+02  0.57476611788E+02  0.25500000000E-02 0.  1.
          2   -1    0    0  501    0  0.00000000000E+00 -0.00000000000E+00 -0.37107822521E+02  0.37107822609E+02  0.25500000000E-02 0. -1.
         23    2    1    2    0    0  0.35527136788E-14  0.44408920985E-15  0.20368789210E+02  0.94584434397E+02  0.92365186387E+02 0.  0.
    9000005    2    3    3    0    0 -0.20366801696E+02 -0.28817468087E+01 -0.30826309123E+02  0.39411531905E+02  0.13412547744E+02 0.  0.
         22    1    3    3    0    0  0.20366801696E+02  0.28817468087E+01  0.51195098333E+02  0.55172902491E+02  0.00000000000E+00 0.  1.
         22    1    4    4    0    0 -0.20435626785E+02 -0.58031368609E+01 -0.29060400489E+02  0.35997195948E+02  0.00000000000E+00 0.  1.
         22    1    4    4    0    0  0.68825088219E-01  0.29213900522E+01 -0.17659086338E+01  0.34143359578E+01  0.00000000000E+00 0.  1.
<mgrwt>
<rscale>  0 0.92365186E+02</rscale>
<asrwt>0</asrwt>
<pdfrwt beam="2">  1        2 0.57088958E-02 0.92365186E+02</pdfrwt>
<pdfrwt beam="1">  1       -2 0.88425557E-02 0.92365186E+02</pdfrwt>
<totfact> 0.90079327E+04</totfact>
</mgrwt>
</event>
<event>
 7    1  0.3056193E-009  0.9045436E+02  0.7818608E-02  0.1301755E+00
         -2   -1    0    0    0  501 -0.00000000000E+00  0.00000000000E+00  0.10534548004E+03  0.10534548007E+03  0.25500000000E-02 0.  1.
          2   -1    0    0  501    0  0.00000000000E+00 -0.00000000000E+00 -0.19417042098E+02  0.19417042265E+02  0.25500000000E-02 0. -1.
         23    2    1    2    0    0  0.00000000000E+00  0.00000000000E+00  0.85928437939E+02  0.12476252233E+03  0.90454356071E+02 0.  0.
    9000005    2    3    3    0    0 -0.38301297787E+02  0.81785145623E+01  0.71864580035E+02  0.83149187790E+02  0.14676241137E+02 0.  0.
         22    1    3    3    0    0  0.38301297787E+02 -0.81785145623E+01  0.14063857904E+02  0.41613334543E+02  0.00000000000E+00 0. -1.
         22    1    4    4    0    0 -0.22142978068E+02  0.79930545452E+01  0.29079084290E+02  0.37413814853E+02  0.00000000000E+00 0. -1.
         22    1    4    4    0    0 -0.16158319719E+02  0.18546001715E+00  0.42785495745E+02  0.45735372937E+02  0.00000000000E+00 0. -1.
<mgrwt>
<rscale>  0 0.90454356E+02</rscale>
<asrwt>0</asrwt>
<pdfrwt beam="2">  1        2 0.29872372E-02 0.90454356E+02</pdfrwt>
<pdfrwt beam="1">  1       -2 0.16206997E-01 0.90454356E+02</pdfrwt>
<totfact> 0.80136866E+04</totfact>
</mgrwt>
</event>
<event>
 7    1  0.3056193E-009  0.9589807E+02  0.7818608E-02  0.1289166E+00
         -2   -1    0    0    0  501 -0.00000000000E+00  0.00000000000E+00  0.16181346808E+02  0.16181347009E+02  0.25500000000E-02 0.  1.
          2   -1    0    0  501    0  0.00000000000E+00 -0.00000000000E+00 -0.14208395205E+03  0.14208395207E+03  0.25500000000E-02 0. -1.
         23    2    1    2    0    0  0.00000000000E+00  0.00000000000E+00 -0.12590260524E+03  0.15826529908E+03  0.95898065082E+02 0.  0.
    9000005    2    3    3    0    0 -0.16487671761E+02  0.43940360199E+02 -0.54940277719E+02  0.73187390656E+02  0.11634494434E+02 0.  0.
         22    1    3    3    0    0  0.16487671761E+02 -0.43940360199E+02 -0.70962327518E+02  0.85077908421E+02  0.00000000000E+00 0. -1.
         22    1    4    4    0    0 -0.10939403270E+02  0.17203717743E+02 -0.17633827116E+02  0.26955339116E+02  0.00000000000E+00 0. -1.
         22    1    4    4    0    0 -0.55482684903E+01  0.26736642456E+02 -0.37306450603E+02  0.46232051540E+02  0.00000000000E+00 0. -1.
<mgrwt>
<rscale>  0 0.95898065E+02</rscale>
<asrwt>0</asrwt>
<pdfrwt beam="2">  1        2 0.21859069E-01 0.95898065E+02</pdfrwt>
<pdfrwt beam="1">  1       -2 0.24894381E-02 0.95898065E+02</pdfrwt>
<totfact> 0.11959908E+05</totfact>
</mgrwt>
</event>
<event>
 7    1  0.3111937E-009  0.9180116E+02  0.7818608E-02  0.1298548E+00
          2   -1    0    0  501    0  0.00000000000E+00  0.00000000000E+00  0.55017191075E+03  0.55017191075E+03  0.25500000000E-02 0. -1.
         -2   -1    0    0    0  501 -0.00000000000E+00 -0.00000000000E+00 -0.38294634321E+01  0.38294642811E+01  0.25500000000E-02 0.  1.
         23    2    1    2    0    0  0.00000000000E+00  0.00000000000E+00  0.54634244731E+03  0.55400137503E+03  0.91801164489E+02 0.  0.
    9000005    2    3    3    0    0  0.13719058151E+02  0.17163238551E+02  0.51554346544E+03  0.51616796918E+03  0.12708986296E+02 0.  0.
         22    1    3    3    0    0 -0.13719058151E+02 -0.17163238551E+02  0.30798981871E+02  0.37833405852E+02  0.00000000000E+00 0.  1.
         22    1    4    4    0    0  0.13372602104E+02  0.70690985307E+01  0.28039966744E+03  0.28080735770E+03  0.00000000000E+00 0. -1.
         22    1    4    4    0    0  0.34645604714E+00  0.10094140020E+02  0.23514379801E+03  0.23536061148E+03  0.00000000000E+00 0. -1.
<mgrwt>
<rscale>  0 0.91801164E+02</rscale>
<asrwt>0</asrwt>
<pdfrwt beam="1">  1        2 0.84641762E-01 0.91801164E+02</pdfrwt>
<pdfrwt beam="2">  1       -2 0.58914878E-03 0.91801164E+02</pdfrwt>
<totfact> 0.21812288E+05</totfact>
</mgrwt>
</event>
<event>
 6    1  0.3056193E-009  0.1487980E+03  0.7818608E-02  0.1201958E+00
         -2   -1    0    0    0  501 -0.00000000000E+00  0.00000000000E+00  0.15893247453E+02  0.15893247658E+02  0.25500000000E-02 0.  1.
          2   -1    0    0  501    0  0.00000000000E+00 -0.00000000000E+00 -0.34827432035E+03  0.34827432036E+03  0.25500000000E-02 0. -1.
    9000005    2    1    2    0    0 -0.58574219728E+02 -0.39297220734E+02 -0.10887210817E+03  0.12979293610E+03  0.42260559917E+01 0.  0.
         22    1    1    2    0    0  0.58574219728E+02  0.39297220734E+02 -0.22350896473E+03  0.23437463192E+03  0.00000000000E+00 0. -1.
         22    1    3    3    0    0 -0.22662602541E+02 -0.15491104253E+02 -0.38653210333E+02  0.47409266330E+02  0.00000000000E+00 0.  1.
         22    1    3    3    0    0 -0.35911617186E+02 -0.23806116482E+02 -0.70218897836E+02  0.82383669766E+02  0.00000000000E+00 0.  1.
<mgrwt>
<rscale>  0 0.14879798E+03</rscale>
<asrwt>0</asrwt>
<pdfrwt beam="2">  1        2 0.53580659E-01 0.14879798E+03</pdfrwt>
<pdfrwt beam="1">  1       -2 0.24451153E-02 0.14879798E+03</pdfrwt>
<totfact> 0.49702862E+04</totfact>
</mgrwt>
</event>
<event>
 7    1  0.3056193E-009  0.9055501E+02  0.7818608E-02  0.1301513E+00
         -2   -1    0    0    0  501 -0.00000000000E+00  0.00000000000E+00  0.24074683836E+01  0.24074697341E+01  0.25500000000E-02 0.  1.
          2   -1    0    0  501    0  0.00000000000E+00 -0.00000000000E+00 -0.85153840035E+03  0.85153840035E+03  0.25500000000E-02 0. -1.
         23    2    1    2    0    0  0.88817841970E-15  0.00000000000E+00 -0.84913093196E+03  0.85394587009E+03  0.90555007691E+02 0.  0.
    9000005    2    3    3    0    0 -0.42520484392E+01 -0.19431342350E+02 -0.80716474216E+03  0.80750431469E+03  0.12354766903E+02 0.  0.
         22    1    3    3    0    0  0.42520484392E+01  0.19431342350E+02 -0.41966189802E+02  0.46441555400E+02  0.00000000000E+00 0.  1.
         22    1    4    4    0    0 -0.75071741883E+01 -0.16432213535E+02 -0.53812579273E+03  0.53842895920E+03  0.00000000000E+00 0. -1.
         22    1    4    4    0    0  0.32551257490E+01 -0.29991288146E+01 -0.26903894943E+03  0.26907535548E+03  0.00000000000E+00 0. -1.
<mgrwt>
<rscale>  0 0.90555008E+02</rscale>
<asrwt>0</asrwt>
<pdfrwt beam="2">  1        2 0.13100567E+00 0.90555008E+02</pdfrwt>
<pdfrwt beam="1">  1       -2 0.37038054E-03 0.90555008E+02</pdfrwt>
<totfact> 0.25066328E+05</totfact>
</mgrwt>
</event>
<event>
 7    1  0.3056193E-009  0.9140921E+02  0.7818608E-02  0.1299475E+00
         -2   -1    0    0    0  501 -0.00000000000E+00  0.00000000000E+00  0.15911567946E+03  0.15911567948E+03  0.25500000000E-02 0.  1.
          2   -1    0    0  501    0  0.00000000000E+00 -0.00000000000E+00 -0.13128252386E+02  0.13128252634E+02  0.25500000000E-02 0. -1.
         23    2    1    2    0    0  0.00000000000E+00  0.00000000000E+00  0.14598742708E+03  0.17224393212E+03  0.91409207888E+02 0.  0.
    9000005    2    3    3    0    0 -0.35125460220E+02  0.19335704691E+02  0.11095309907E+03  0.11899854198E+03  0.15569051663E+02 0.  0.
         22    1    3    3    0    0  0.35125460220E+02 -0.19335704691E+02  0.35034328008E+02  0.53245390134E+02  0.00000000000E+00 0. -1.
         22    1    4    4    0    0 -0.10050156840E+02  0.78160260678E+01  0.18082466924E+02  0.22114961588E+02  0.00000000000E+00 0.  1.
         22    1    4    4    0    0 -0.25075303380E+02  0.11519678623E+02  0.92870632146E+02  0.96883580396E+02  0.00000000000E+00 0.  1.
<mgrwt>
<rscale>  0 0.91409208E+02</rscale>
<asrwt>0</asrwt>
<pdfrwt beam="2">  1        2 0.20197311E-02 0.91409208E+02</pdfrwt>
<pdfrwt beam="1">  1       -2 0.24479336E-01 0.91409208E+02</pdfrwt>
<totfact> 0.67907329E+04</totfact>
</mgrwt>
</event>
<event>
 7    1  0.3056193E-009  0.7495213E+02  0.7818608E-02  0.1344019E+00
          2   -1    0    0  501    0  0.00000000000E+00  0.00000000000E+00  0.48548515248E+03  0.48548515249E+03  0.25500000000E-02 0.  1.
         -2   -1    0    0    0  501 -0.00000000000E+00 -0.00000000000E+00 -0.28928898308E+01  0.28928909547E+01  0.25500000000E-02 0. -1.
         23    2    1    2    0    0  0.00000000000E+00  0.00000000000E+00  0.48259226265E+03  0.48837804345E+03  0.74952127033E+02 0.  0.
    9000005    2    3    3    0    0 -0.13113177107E+02  0.28580652260E+02  0.36394041964E+03  0.36563005385E+03  0.15617238514E+02 0.  0.
         22    1    3    3    0    0  0.13113177107E+02 -0.28580652260E+02  0.11865184302E+03  0.12274798959E+03  0.00000000000E+00 0. -1.
         22    1    4    4    0    0 -0.90902244434E+01  0.63659007067E+01  0.76002933542E+02  0.76808871749E+02  0.00000000000E+00 0. -1.
         22    1    4    4    0    0 -0.40229526632E+01  0.22214751553E+02  0.28793748609E+03  0.28882118211E+03  0.00000000000E+00 0. -1.
<mgrwt>
<rscale>  0 0.74952127E+02</rscale>
<asrwt>0</asrwt>
<pdfrwt beam="1">  1        2 0.74690035E-01 0.74952127E+02</pdfrwt>
<pdfrwt beam="2">  1       -2 0.44505999E-03 0.74952127E+02</pdfrwt>
<totfact> 0.35664562E+05</totfact>
</mgrwt>
</event>
<event>
 7    1  0.3056193E-009  0.9245876E+02  0.7818608E-02  0.1297004E+00
         -2   -1    0    0    0  501 -0.00000000000E+00  0.00000000000E+00  0.11635697715E+02  0.11635697994E+02  0.25500000000E-02 0.  1.
          2   -1    0    0  501    0  0.00000000000E+00 -0.00000000000E+00 -0.18367232106E+03  0.18367232108E+03  0.25500000000E-02 0. -1.
         23    2    1    2    0    0  0.00000000000E+00  0.00000000000E+00 -0.17203662334E+03  0.19530801907E+03  0.92458761303E+02 0.  0.
    9000005    2    3    3    0    0 -0.51179350662E+01 -0.20742409347E+02 -0.17235764059E+03  0.17394113215E+03  0.95875115192E+01 0.  0.
         22    1    3    3    0    0  0.51179350662E+01  0.20742409347E+02  0.32101724601E+00  0.21366886926E+02  0.00000000000E+00 0.  1.
         22    1    4    4    0    0 -0.31525669622E+01 -0.70431064915E+00 -0.20078168119E+02  0.20336360711E+02  0.00000000000E+00 0.  1.
         22    1    4    4    0    0 -0.19653681040E+01 -0.20038098697E+02 -0.15227947247E+03  0.15360477143E+03  0.00000000000E+00 0.  1.
<mgrwt>
<rscale>  0 0.92458761E+02</rscale>
<asrwt>0</asrwt>
<pdfrwt beam="2">  1        2 0.28257278E-01 0.92458761E+02</pdfrwt>
<pdfrwt beam="1">  1       -2 0.17901075E-02 0.92458761E+02</pdfrwt>
<totfact> 0.14446510E+05</totfact>
</mgrwt>
</event>
<event>
 7    1  0.3056193E-009  0.9432038E+02  0.7818608E-02  0.1292714E+00
         -2   -1    0    0    0  501 -0.00000000000E+00  0.00000000000E+00  0.54397520265E+02  0.54397520325E+02  0.25500000000E-02 0.  1.
          2   -1    0    0  501    0  0.00000000000E+00 -0.00000000000E+00 -0.40885751653E+02  0.40885751733E+02  0.25500000000E-02 0. -1.
         23    2    1    2    0    0  0.00000000000E+00  0.00000000000E+00  0.13511768612E+02  0.95283272057E+02  0.94320379786E+02 0.  0.
    9000005    2    3    3    0    0 -0.20133699327E+02  0.19532952552E+02  0.44431827078E+02  0.53534594239E+02  0.10240285095E+02 0.  0.
         22    1    3    3    0    0  0.20133699327E+02 -0.19532952552E+02 -0.30920058466E+02  0.41748677818E+02  0.00000000000E+00 0. -1.
         22    1    4    4    0    0  0.22869982087E+00  0.42186192727E+01  0.45503251527E+01  0.62092279046E+01  0.00000000000E+00 0.  1.
         22    1    4    4    0    0 -0.20362399148E+02  0.15314333280E+02  0.39881501926E+02  0.47325366335E+02  0.00000000000E+00 0.  1.
<mgrwt>
<rscale>  0 0.94320380E+02</rscale>
<asrwt>0</asrwt>
<pdfrwt beam="2">  1        2 0.62901156E-02 0.94320380E+02</pdfrwt>
<pdfrwt beam="1">  1       -2 0.83688493E-02 0.94320380E+02</pdfrwt>
<totfact> 0.86934247E+04</totfact>
</mgrwt>
</event>
<event>
 7    1  0.3056193E-009  0.9119779E+02  0.7818608E-02  0.1299977E+00
         -2   -1    0    0    0  501 -0.00000000000E+00  0.00000000000E+00  0.11093731785E+02  0.11093732079E+02  0.25500000000E-02 0. -1.
          2   -1    0    0  501    0  0.00000000000E+00 -0.00000000000E+00 -0.18742649260E+03  0.18742649262E+03  0.25500000000E-02 0.  1.
         23    2    1    2    0    0 -0.17763568394E-14  0.00000000000E+00 -0.17633276082E+03  0.19852022470E+03  0.91197790965E+02 0.  0.
    9000005    2    3    3    0    0  0.15888531635E+02 -0.36421720853E+02 -0.43471880817E+02  0.59844341352E+02  0.10609127328E+02 0.  0.
         22    1    3    3    0    0 -0.15888531635E+02  0.36421720853E+02 -0.13286088000E+03  0.13867588335E+03  0.00000000000E+00 0.  1.
         22    1    4    4    0    0  0.60922004471E+01 -0.47371612204E+01 -0.57972270021E+01  0.96521211985E+01  0.00000000000E+00 0.  1.
         22    1    4    4    0    0  0.97963311880E+01 -0.31684559633E+02 -0.37674653815E+02  0.50192220153E+02  0.00000000000E+00 0.  1.
<mgrwt>
<rscale>  0 0.91197791E+02</rscale>
<asrwt>0</asrwt>
<pdfrwt beam="2">  1        2 0.28834843E-01 0.91197791E+02</pdfrwt>
<pdfrwt beam="1">  1       -2 0.17067281E-02 0.91197791E+02</pdfrwt>
<totfact> 0.15101483E+05</totfact>
</mgrwt>
</event>
<event>
 7    1  0.3056193E-009  0.9129166E+02  0.7818608E-02  0.1299754E+00
         -2   -1    0    0    0  501 -0.00000000000E+00  0.00000000000E+00  0.26092123589E+02  0.26092123713E+02  0.25500000000E-02 0.  1.
          2   -1    0    0  501    0  0.00000000000E+00 -0.00000000000E+00 -0.79853277967E+02  0.79853278008E+02  0.25500000000E-02 0. -1.
         23    2    1    2    0    0 -0.35527136788E-14  0.00000000000E+00 -0.53761154379E+02  0.10594540172E+03  0.91291655838E+02 0.  0.
    9000005    2    3    3    0    0 -0.22238718696E+02  0.34671074412E+02 -0.55469920004E+01  0.42532079273E+02  0.90313142403E+01 0.  0.
         22    1    3    3    0    0  0.22238718696E+02 -0.34671074412E+02 -0.48214162378E+02  0.63413322448E+02  0.00000000000E+00 0. -1.
         22    1    4    4    0    0 -0.75701330726E+00  0.32513977491E+01  0.17628597289E+01  0.37752259395E+01  0.00000000000E+00 0.  1.
         22    1    4    4    0    0 -0.21481705388E+02  0.31419676663E+02 -0.73098517294E+01  0.38756853333E+02  0.00000000000E+00 0.  1.
<mgrwt>
<rscale>  0 0.91291656E+02</rscale>
<asrwt>0</asrwt>
<pdfrwt beam="2">  1        2 0.12285120E-01 0.91291656E+02</pdfrwt>
<pdfrwt beam="1">  1       -2 0.40141729E-02 0.91291656E+02</pdfrwt>
<totfact> 0.11439415E+05</totfact>
</mgrwt>
</event>
<event>
 7    1  0.3056193E-009  0.9373791E+02  0.7818608E-02  0.1294044E+00
         -2   -1    0    0    0  501 -0.00000000000E+00  0.00000000000E+00  0.35433953432E+01  0.35433962608E+01  0.25500000000E-02 0. -1.
          2   -1    0    0  501    0  0.00000000000E+00 -0.00000000000E+00 -0.61994176360E+03  0.61994176360E+03  0.25500000000E-02 0.  1.
         23    2    1    2    0    0  0.00000000000E+00  0.00000000000E+00 -0.61639836825E+03  0.62348515986E+03  0.93737912199E+02 0.  0.
    9000005    2    3    3    0    0 -0.26297918422E+01  0.17718347731E+02 -0.59580366653E+03  0.59619051954E+03  0.11843600883E+02 0.  0.
         22    1    3    3    0    0  0.26297918422E+01 -0.17718347731E+02 -0.20594701720E+02  0.27294640323E+02  0.00000000000E+00 0. -1.
         22    1    4    4    0    0  0.16633732385E+01 -0.11543478912E+01 -0.42059205881E+02  0.42107910526E+02  0.00000000000E+00 0.  1.
         22    1    4    4    0    0 -0.42931650806E+01  0.18872695623E+02 -0.55374446065E+03  0.55408260901E+03  0.00000000000E+00 0.  1.
<mgrwt>
<rscale>  0 0.93737912E+02</rscale>
<asrwt>0</asrwt>
<pdfrwt beam="2">  1        2 0.95375570E-01 0.93737912E+02</pdfrwt>
<pdfrwt beam="1">  1       -2 0.54513831E-03 0.93737912E+02</pdfrwt>
<totfact> 0.21369006E+05</totfact>
</mgrwt>
</event>
<event>
 7    1  0.3056193E-009  0.9383962E+02  0.7818608E-02  0.1293811E+00
         -2   -1    0    0    0  501 -0.00000000000E+00  0.00000000000E+00  0.17864453569E+02  0.17864453751E+02  0.25500000000E-02 0.  1.
          2   -1    0    0  501    0  0.00000000000E+00 -0.00000000000E+00 -0.12323179040E+03  0.12323179043E+03  0.25500000000E-02 0. -1.
         23    2    1    2    0    0  0.00000000000E+00  0.00000000000E+00 -0.10536733684E+03  0.14109624418E+03  0.93839620898E+02 0.  0.
    9000005    2    3    3    0    0  0.34932586952E+02 -0.85534435503E+01 -0.96556168444E+02  0.10406809656E+03  0.14616019622E+02 0.  0.
         22    1    3    3    0    0 -0.34932586952E+02  0.85534435503E+01 -0.88111683920E+01  0.37028147620E+02  0.00000000000E+00 0.  1.
         22    1    4    4    0    0  0.28755717327E+02 -0.20414321711E+01 -0.62149518764E+02  0.68510009538E+02  0.00000000000E+00 0.  1.
         22    1    4    4    0    0  0.61768696254E+01 -0.65120113792E+01 -0.34406649679E+02  0.35558087023E+02  0.00000000000E+00 0.  1.
<mgrwt>
<rscale>  0 0.93839621E+02</rscale>
<asrwt>0</asrwt>
<pdfrwt beam="2">  1        2 0.18958736E-01 0.93839621E+02</pdfrwt>
<pdfrwt beam="1">  1       -2 0.27483776E-02 0.93839621E+02</pdfrwt>
<totfact> 0.12104842E+05</totfact>
</mgrwt>
</event>
<event>
 7    1  0.3056193E-009  0.9104291E+02  0.7818608E-02  0.1300346E+00
          2   -1    0    0  501    0  0.00000000000E+00  0.00000000000E+00  0.41051567866E+03  0.41051567867E+03  0.25500000000E-02 0. -1.
         -2   -1    0    0    0  501 -0.00000000000E+00 -0.00000000000E+00 -0.50478040163E+01  0.50478046604E+01  0.25500000000E-02 0.  1.
         23    2    1    2    0    0  0.00000000000E+00 -0.35527136788E-14  0.40546787465E+03  0.41556348333E+03  0.91042909158E+02 0.  0.
    9000005    2    3    3    0    0  0.32627063777E+02 -0.26090586163E+02  0.28458065653E+03  0.28766131963E+03  0.42000904088E+01 0.  0.
         22    1    3    3    0    0 -0.32627063777E+02  0.26090586163E+02  0.12088721811E+03  0.12790216370E+03  0.00000000000E+00 0.  1.
         22    1    4    4    0    0  0.23593666420E+02 -0.17082572612E+02  0.18846177194E+03  0.19069954081E+03  0.00000000000E+00 0. -1.
         22    1    4    4    0    0  0.90333973567E+01 -0.90080135515E+01  0.96118884597E+02  0.96961778821E+02  0.00000000000E+00 0. -1.
<mgrwt>
<rscale>  0 0.91042909E+02</rscale>
<asrwt>0</asrwt>
<pdfrwt beam="1">  1        2 0.63156274E-01 0.91042909E+02</pdfrwt>
<pdfrwt beam="2">  1       -2 0.77658510E-03 0.91042909E+02</pdfrwt>
<totfact> 0.20226616E+05</totfact>
</mgrwt>
</event>
<event>
 7    1  0.3056193E-009  0.9051899E+02  0.7818608E-02  0.1301600E+00
         -2   -1    0    0    0  501 -0.00000000000E+00  0.00000000000E+00  0.70621185311E+02  0.70621185357E+02  0.25500000000E-02 0. -1.
          2   -1    0    0  501    0  0.00000000000E+00 -0.00000000000E+00 -0.29005767189E+02  0.29005767301E+02  0.25500000000E-02 0.  1.
         23    2    1    2    0    0 -0.17763568394E-14 -0.88817841970E-15  0.41615418122E+02  0.99626952658E+02  0.90518985138E+02 0.  0.
    9000005    2    3    3    0    0  0.15008285743E+02  0.58065767454E+01 -0.24489647213E+02  0.31591339649E+02  0.11802751619E+02 0.  0.
         22    1    3    3    0    0 -0.15008285743E+02 -0.58065767454E+01  0.66105065335E+02  0.68035613009E+02  0.00000000000E+00 0. -1.
         22    1    4    4    0    0  0.63305735740E+01  0.53590172255E+01 -0.37453640590E+01  0.91007131222E+01  0.00000000000E+00 0.  1.
         22    1    4    4    0    0  0.86777121688E+01  0.44755951995E+00 -0.20744283154E+02  0.22490626527E+02  0.00000000000E+00 0.  1.
<mgrwt>
<rscale>  0 0.90518985E+02</rscale>
<asrwt>0</asrwt>
<pdfrwt beam="2">  1        2 0.44624258E-02 0.90518985E+02</pdfrwt>
<pdfrwt beam="1">  1       -2 0.10864798E-01 0.90518985E+02</pdfrwt>
<totfact> 0.89578585E+04</totfact>
</mgrwt>
</event>
<event>
 7    1  0.3056193E-009  0.8453400E+02  0.7818608E-02  0.1316656E+00
          2   -1    0    0  501    0  0.00000000000E+00  0.00000000000E+00  0.20014237898E+03  0.20014237900E+03  0.25500000000E-02 0. -1.
         -2   -1    0    0    0  501 -0.00000000000E+00 -0.00000000000E+00 -0.89261418977E+01  0.89261422619E+01  0.25500000000E-02 0.  1.
         23    2    1    2    0    0  0.00000000000E+00  0.00000000000E+00  0.19121623708E+03  0.20906852126E+03  0.84534000598E+02 0.  0.
    9000005    2    3    3    0    0 -0.37623758981E+02 -0.21118604881E+01  0.52088776481E+02  0.64928112323E+02  0.90781022208E+01 0.  0.
         22    1    3    3    0    0  0.37623758981E+02  0.21118604881E+01  0.13912746060E+03  0.14414040893E+03  0.00000000000E+00 0. -1.
         22    1    4    4    0    0 -0.17041254769E+02 -0.39420567436E+01  0.29645359963E+02  0.34420801019E+02  0.00000000000E+00 0. -1.
         22    1    4    4    0    0 -0.20582504212E+02  0.18301962554E+01  0.22443416519E+02  0.30507311304E+02  0.00000000000E+00 0. -1.
<mgrwt>
<rscale>  0 0.84534001E+02</rscale>
<asrwt>0</asrwt>
<pdfrwt beam="1">  1        2 0.30791135E-01 0.84534001E+02</pdfrwt>
<pdfrwt beam="2">  1       -2 0.13732527E-02 0.84534001E+02</pdfrwt>
<totfact> 0.18947238E+05</totfact>
</mgrwt>
</event>
<event>
 7    1  0.3056193E-009  0.9215215E+02  0.7818608E-02  0.1297722E+00
         -2   -1    0    0    0  501 -0.00000000000E+00  0.00000000000E+00  0.12330160131E+02  0.12330160395E+02  0.25500000000E-02 0.  1.
          2   -1    0    0  501    0  0.00000000000E+00 -0.00000000000E+00 -0.17217980046E+03  0.17217980048E+03  0.25500000000E-02 0. -1.
         23    2    1    2    0    0  0.00000000000E+00 -0.71054273576E-14 -0.15984964033E+03  0.18450996087E+03  0.92152146738E+02 0.  0.
    9000005    2    3    3    0    0  0.62610678501E+01 -0.42339577422E+02 -0.11145577326E+03  0.11990495212E+03  0.11089064957E+02 0.  0.
         22    1    3    3    0    0 -0.62610678501E+01  0.42339577422E+02 -0.48393867066E+02  0.64605008757E+02  0.00000000000E+00 0.  1.
         22    1    4    4    0    0  0.25096753215E+01 -0.34110765036E+02 -0.96998858548E+02  0.10285242496E+03  0.00000000000E+00 0.  1.
         22    1    4    4    0    0  0.37513925286E+01 -0.82288123863E+01 -0.14456914714E+02  0.17052527151E+02  0.00000000000E+00 0.  1.
<mgrwt>
<rscale>  0 0.92152147E+02</rscale>
<asrwt>0</asrwt>
<pdfrwt beam="2">  1        2 0.26489198E-01 0.92152147E+02</pdfrwt>
<pdfrwt beam="1">  1       -2 0.18969479E-02 0.92152147E+02</pdfrwt>
<totfact> 0.14246801E+05</totfact>
</mgrwt>
</event>
<event>
 7    1  0.3056193E-009  0.9049779E+02  0.7818608E-02  0.1301651E+00
          2   -1    0    0  501    0  0.00000000000E+00  0.00000000000E+00  0.73069984752E+02  0.73069984796E+02  0.25500000000E-02 0.  1.
         -2   -1    0    0    0  501 -0.00000000000E+00 -0.00000000000E+00 -0.28020568381E+02  0.28020568497E+02  0.25500000000E-02 0. -1.
         23    2    1    2    0    0 -0.71054273576E-14 -0.17763568394E-14  0.45049416371E+02  0.10109055329E+03  0.90497790303E+02 0.  0.
    9000005    2    3    3    0    0  0.38903038941E+02  0.15678470453E+02  0.37954203463E+02  0.58551125455E+02  0.15114623944E+02 0.  0.
         22    1    3    3    0    0 -0.38903038941E+02 -0.15678470453E+02  0.70952129078E+01  0.42539427838E+02  0.00000000000E+00 0.  1.
         22    1    4    4    0    0  0.37709304059E+02  0.13199415121E+02  0.38779795437E+02  0.55678440228E+02  0.00000000000E+00 0.  1.
         22    1    4    4    0    0  0.11937348822E+01  0.24790553315E+01 -0.82559197384E+00  0.28726852268E+01  0.00000000000E+00 0.  1.
<mgrwt>
<rscale>  0 0.90497790E+02</rscale>
<asrwt>0</asrwt>
<pdfrwt beam="1">  1        2 0.11241536E-01 0.90497790E+02</pdfrwt>
<pdfrwt beam="2">  1       -2 0.43108567E-02 0.90497790E+02</pdfrwt>
<totfact> 0.11430745E+05</totfact>
</mgrwt>
</event>
<event>
 7    1  0.3056193E-009  0.9120597E+02  0.7818608E-02  0.1299957E+00
          2   -1    0    0  501    0  0.00000000000E+00  0.00000000000E+00  0.78073488049E+03  0.78073488050E+03  0.25500000000E-02 0. -1.
         -2   -1    0    0    0  501 -0.00000000000E+00 -0.00000000000E+00 -0.26636850238E+01  0.26636862443E+01  0.25500000000E-02 0.  1.
         23    2    1    2    0    0  0.00000000000E+00  0.00000000000E+00  0.77807119547E+03  0.78339856674E+03  0.91205971042E+02 0.  0.
    9000005    2    3    3    0    0  0.10832190627E+01 -0.38998894222E+02  0.59135115362E+03  0.59264621121E+03  0.33552429614E+01 0.  0.
         22    1    3    3    0    0 -0.10832190627E+01  0.38998894222E+02  0.18672004185E+03  0.19075235553E+03  0.00000000000E+00 0. -1.
         22    1    4    4    0    0  0.16323562855E+01 -0.37832519704E+02  0.57264126719E+03  0.57389196284E+03  0.00000000000E+00 0. -1.
         22    1    4    4    0    0 -0.54913722272E+00 -0.11663745175E+01  0.18709886439E+02  0.18754248366E+02  0.00000000000E+00 0. -1.
<mgrwt>
<rscale>  0 0.91205971E+02</rscale>
<asrwt>0</asrwt>
<pdfrwt beam="1">  1        2 0.12011300E+00 0.91205971E+02</pdfrwt>
<pdfrwt beam="2">  1       -2 0.40979798E-03 0.91205971E+02</pdfrwt>
<totfact> 0.24245971E+05</totfact>
</mgrwt>
</event>
<event>
 7    1  0.3056193E-009  0.9058470E+02  0.7818608E-02  0.1301442E+00
          2   -1    0    0  501    0  0.00000000000E+00  0.00000000000E+00  0.12667798018E+03  0.12667798021E+03  0.25500000000E-02 0. -1.
         -2   -1    0    0    0  501 -0.00000000000E+00 -0.00000000000E+00 -0.16193791589E+02  0.16193791789E+02  0.25500000000E-02 0.  1.
         23    2    1    2    0    0  0.00000000000E+00  0.00000000000E+00  0.11048418859E+03  0.14287177200E+03  0.90584696856E+02 0.  0.
    9000005    2    3    3    0    0  0.12730086642E+02  0.38764793333E+02  0.83332961017E+02  0.93862043708E+02  0.14175208963E+02 0.  0.
         22    1    3    3    0    0 -0.12730086642E+02 -0.38764793333E+02  0.27151227577E+02  0.49009728289E+02  0.00000000000E+00 0.  1.
         22    1    4    4    0    0  0.70533527464E+01  0.59959250973E+01  0.11986503292E+02  0.15145202670E+02  0.00000000000E+00 0. -1.
         22    1    4    4    0    0  0.56767338956E+01  0.32768868236E+02  0.71346457725E+02  0.78716841038E+02  0.00000000000E+00 0. -1.
<mgrwt>
<rscale>  0 0.90584697E+02</rscale>
<asrwt>0</asrwt>
<pdfrwt beam="1">  1        2 0.19488920E-01 0.90584697E+02</pdfrwt>
<pdfrwt beam="2">  1       -2 0.24913526E-02 0.90584697E+02</pdfrwt>
<totfact> 0.13452593E+05</totfact>
</mgrwt>
</event>
<event>
 7    1  0.3056193E-009  0.9678402E+02  0.7818608E-02  0.1287208E+00
         -2   -1    0    0    0  501 -0.00000000000E+00  0.00000000000E+00  0.70718437115E+01  0.70718441712E+01  0.25500000000E-02 0.  1.
          2   -1    0    0  501    0  0.00000000000E+00 -0.00000000000E+00 -0.33114228980E+03  0.33114228981E+03  0.25500000000E-02 0. -1.
         23    2    1    2    0    0  0.00000000000E+00  0.00000000000E+00 -0.32407044609E+03  0.33821413398E+03  0.96784019325E+02 0.  0.
    9000005    2    3    3    0    0 -0.10205711302E+02  0.34909639574E+02 -0.27102923001E+03  0.27390075994E+03  0.15554526471E+02 0.  0.
         22    1    3    3    0    0  0.10205711302E+02 -0.34909639574E+02 -0.53041216079E+02  0.64313374048E+02  0.00000000000E+00 0. -1.
         22    1    4    4    0    0 -0.13624722370E+02  0.30610027239E+02 -0.21392755808E+03  0.21653546345E+03  0.00000000000E+00 0.  1.
         22    1    4    4    0    0  0.34190110676E+01  0.42996123352E+01 -0.57101671936E+02  0.57365296485E+02  0.00000000000E+00 0.  1.
<mgrwt>
<rscale>  0 0.96784019E+02</rscale>
<asrwt>0</asrwt>
<pdfrwt beam="2">  1        2 0.50944956E-01 0.96784019E+02</pdfrwt>
<pdfrwt beam="1">  1       -2 0.10879762E-02 0.96784019E+02</pdfrwt>
<totfact> 0.15888075E+05</totfact>
</mgrwt>
</event>
<event>
 7    1  0.3056193E-009  0.8831283E+02  0.7818608E-02  0.1306990E+00
         -2   -1    0    0    0  501 -0.00000000000E+00  0.00000000000E+00  0.63382516091E+02  0.63382516142E+02  0.25500000000E-02 0.  1.
          2   -1    0    0  501    0  0.00000000000E+00 -0.00000000000E+00 -0.30762252857E+02  0.30762252963E+02  0.25500000000E-02 0. -1.
         23    2    1    2    0    0  0.00000000000E+00  0.00000000000E+00  0.32620263234E+02  0.94144769105E+02  0.88312830191E+02 0.  0.
    9000005    2    3    3    0    0 -0.16126875426E+02  0.15103367545E+02  0.56494534388E+02  0.61615264877E+02  0.10799103108E+02 0.  0.
         22    1    3    3    0    0  0.16126875426E+02 -0.15103367545E+02 -0.23874271153E+02  0.32529504228E+02  0.00000000000E+00 0. -1.
         22    1    4    4    0    0 -0.12689260718E+02  0.46191138816E+01  0.29018749817E+02  0.32006896001E+02  0.00000000000E+00 0.  1.
         22    1    4    4    0    0 -0.34376147081E+01  0.10484253664E+02  0.27475784570E+02  0.29608368876E+02  0.00000000000E+00 0.  1.
<mgrwt>
<rscale>  0 0.88312830E+02</rscale>
<asrwt>0</asrwt>
<pdfrwt beam="2">  1        2 0.47326543E-02 0.88312830E+02</pdfrwt>
<pdfrwt beam="1">  1       -2 0.97511563E-02 0.88312830E+02</pdfrwt>
<totfact> 0.97842609E+04</totfact>
</mgrwt>
</event>
<event>
 7    1  0.3056193E-009  0.9000730E+02  0.7818608E-02  0.1302834E+00
         -2   -1    0    0    0  501 -0.00000000000E+00  0.00000000000E+00  0.67629109980E+01  0.67629114787E+01  0.25500000000E-02 0.  1.
          2   -1    0    0  501    0  0.00000000000E+00 -0.00000000000E+00 -0.29947581085E+03  0.29947581087E+03  0.25500000000E-02 0. -1.
         23    2    1    2    0    0 -0.88817841970E-15  0.00000000000E+00 -0.29271289986E+03  0.30623872234E+03  0.90007295929E+02 0.  0.
    9000005    2    3    3    0    0  0.49327662377E+01 -0.39445868382E+02 -0.21296886496E+03  0.21713530032E+03  0.14549655895E+02 0.  0.
         22    1    3    3    0    0 -0.49327662377E+01  0.39445868382E+02 -0.79744034897E+02  0.89103422026E+02  0.00000000000E+00 0.  1.
         22    1    4    4    0    0 -0.26771589413E+01 -0.26809150900E+02 -0.11870130595E+03  0.12172057257E+03  0.00000000000E+00 0. -1.
         22    1    4    4    0    0  0.76099251789E+01 -0.12636717482E+02 -0.94267559012E+02  0.95414727752E+02  0.00000000000E+00 0. -1.
<mgrwt>
<rscale>  0 0.90007296E+02</rscale>
<asrwt>0</asrwt>
<pdfrwt beam="2">  1        2 0.46073191E-01 0.90007296E+02</pdfrwt>
<pdfrwt beam="1">  1       -2 0.10404481E-02 0.90007296E+02</pdfrwt>
<totfact> 0.18582805E+05</totfact>
</mgrwt>
</event>
<event>
 7    1  0.3056193E-009  0.8274662E+02  0.7818608E-02  0.1321433E+00
          2   -1    0    0  501    0  0.00000000000E+00  0.00000000000E+00  0.62091448799E+03  0.62091448800E+03  0.25500000000E-02 0. -1.
         -2   -1    0    0    0  501 -0.00000000000E+00 -0.00000000000E+00 -0.27568216728E+01  0.27568228521E+01  0.25500000000E-02 0.  1.
         23    2    1    2    0    0  0.35527136788E-14 -0.88817841970E-15  0.61815766632E+03  0.62367131085E+03  0.82746622574E+02 0.  0.
    9000005    2    3    3    0    0 -0.25585085119E+02 -0.62180750282E+01  0.54777250137E+03  0.54852257511E+03  0.11359626564E+02 0.  0.
         22    1    3    3    0    0  0.25585085119E+02  0.62180750282E+01  0.70385164952E+02  0.75148735738E+02  0.00000000000E+00 0.  1.
         22    1    4    4    0    0 -0.14193899894E+02  0.23339198412E+01  0.29094720287E+03  0.29130257265E+03  0.00000000000E+00 0. -1.
         22    1    4    4    0    0 -0.11391185225E+02 -0.85519948693E+01  0.25682529850E+03  0.25722000247E+03  0.00000000000E+00 0. -1.
<mgrwt>
<rscale>  0 0.82746623E+02</rscale>
<asrwt>0</asrwt>
<pdfrwt beam="1">  1        2 0.95525314E-01 0.82746623E+02</pdfrwt>
<pdfrwt beam="2">  1       -2 0.42412646E-03 0.82746623E+02</pdfrwt>
<totfact> 0.29680582E+05</totfact>
</mgrwt>
</event>
<event>
 7    1  0.3056193E-009  0.9028808E+02  0.7818608E-02  0.1302156E+00
         -2   -1    0    0    0  501 -0.00000000000E+00  0.00000000000E+00  0.53380842205E+01  0.53380848296E+01  0.25500000000E-02 0.  1.
          2   -1    0    0  501    0  0.00000000000E+00 -0.00000000000E+00 -0.38178197878E+03  0.38178197879E+03  0.25500000000E-02 0. -1.
         23    2    1    2    0    0  0.00000000000E+00  0.00000000000E+00 -0.37644389456E+03  0.38712006362E+03  0.90288082849E+02 0.  0.
    9000005    2    3    3    0    0 -0.32130576170E+02  0.26890076560E+02 -0.12432059704E+03  0.13153914239E+03  0.95647786480E+01 0.  0.
         22    1    3    3    0    0  0.32130576170E+02 -0.26890076560E+02 -0.25212329752E+03  0.25558092122E+03  0.00000000000E+00 0. -1.
         22    1    4    4    0    0 -0.14737652055E+02  0.68252192710E+01 -0.53155217710E+02  0.55581104486E+02  0.00000000000E+00 0. -1.
         22    1    4    4    0    0 -0.17392924115E+02  0.20064857289E+02 -0.71165379330E+02  0.75958037906E+02  0.00000000000E+00 0. -1.
<mgrwt>
<rscale>  0 0.90288083E+02</rscale>
<asrwt>0</asrwt>
<pdfrwt beam="2">  1        2 0.58735668E-01 0.90288083E+02</pdfrwt>
<pdfrwt beam="1">  1       -2 0.82124407E-03 0.90288083E+02</pdfrwt>
<totfact> 0.20147597E+05</totfact>
</mgrwt>
</event>
<event>
 7    1  0.3056193E-009  0.9275045E+02  0.7818608E-02  0.1296325E+00
          2   -1    0    0  501    0  0.00000000000E+00  0.00000000000E+00  0.34499404643E+02  0.34499404737E+02  0.25500000000E-02 0.  1.
         -2   -1    0    0    0  501 -0.00000000000E+00 -0.00000000000E+00 -0.62339084353E+02  0.62339084406E+02  0.25500000000E-02 0. -1.
         23    2    1    2    0    0 -0.88817841970E-15  0.71054273576E-14 -0.27839679711E+02  0.96838489143E+02  0.92750445891E+02 0.  0.
    9000005    2    3    3    0    0 -0.66618281199E+01 -0.42907144490E+02  0.28291704348E+01  0.43678528915E+02  0.37956133364E+01 0.  0.
         22    1    3    3    0    0  0.66618281199E+01  0.42907144490E+02 -0.30668850145E+02  0.53159960228E+02  0.00000000000E+00 0. -1.
         22    1    4    4    0    0  0.21513391265E+00 -0.79849478249E+01  0.23627986002E+00  0.79913392206E+01  0.00000000000E+00 0.  1.
         22    1    4    4    0    0 -0.68769620326E+01 -0.34922196665E+02  0.25928905748E+01  0.35687189694E+02  0.00000000000E+00 0.  1.
<mgrwt>
<rscale>  0 0.92750446E+02</rscale>
<asrwt>0</asrwt>
<pdfrwt beam="1">  1        2 0.53076007E-02 0.92750446E+02</pdfrwt>
<pdfrwt beam="2">  1       -2 0.95906284E-02 0.92750446E+02</pdfrwt>
<totfact> 0.87287335E+04</totfact>
</mgrwt>
</event>
<event>
 7    1  0.3056193E-009  0.9058461E+02  0.7818608E-02  0.1301442E+00
          2   -1    0    0  501    0  0.00000000000E+00  0.00000000000E+00  0.51353742236E+03  0.51353742237E+03  0.25500000000E-02 0. -1.
         -2   -1    0    0    0  501 -0.00000000000E+00 -0.00000000000E+00 -0.39946313598E+01  0.39946321737E+01  0.25500000000E-02 0.  1.
         23    2    1    2    0    0  0.71054273576E-14  0.35527136788E-14  0.50954279100E+03  0.51753205454E+03  0.90584610261E+02 0.  0.
    9000005    2    3    3    0    0  0.36136881087E+02  0.25771058536E+02  0.26425217602E+03  0.26825809395E+03  0.12773832769E+02 0.  0.
         22    1    3    3    0    0 -0.36136881087E+02 -0.25771058536E+02  0.24529061498E+03  0.24927396060E+03  0.00000000000E+00 0. -1.
         22    1    4    4    0    0  0.27210743112E+02  0.15260260088E+02  0.15250685357E+03  0.15566515494E+03  0.00000000000E+00 0.  1.
         22    1    4    4    0    0  0.89261379747E+01  0.10510798448E+02  0.11174532245E+03  0.11259293900E+03  0.00000000000E+00 0.  1.
<mgrwt>
<rscale>  0 0.90584610E+02</rscale>
<asrwt>0</asrwt>
<pdfrwt beam="1">  1        2 0.79005768E-01 0.90584610E+02</pdfrwt>
<pdfrwt beam="2">  1       -2 0.61455865E-03 0.90584610E+02</pdfrwt>
<totfact> 0.22113863E+05</totfact>
</mgrwt>
</event>
<event>
 7    1  0.3056193E-009  0.9020512E+02  0.7818608E-02  0.1302356E+00
          2   -1    0    0  501    0  0.00000000000E+00  0.00000000000E+00  0.71645685713E+03  0.71645685714E+03  0.25500000000E-02 0. -1.
         -2   -1    0    0    0  501 -0.00000000000E+00 -0.00000000000E+00 -0.28393061921E+01  0.28393073372E+01  0.25500000000E-02 0.  1.
         23    2    1    2    0    0  0.00000000000E+00  0.00000000000E+00  0.71361755094E+03  0.71929616447E+03  0.90205117466E+02 0.  0.
    9000005    2    3    3    0    0 -0.49675448533E+01 -0.20782650245E+02  0.67253695864E+03  0.67299054800E+03  0.12398464032E+02 0.  0.
         22    1    3    3    0    0  0.49675448533E+01  0.20782650245E+02  0.41080592298E+02  0.46305616470E+02  0.00000000000E+00 0.  1.
         22    1    4    4    0    0 -0.44921136999E+01 -0.15816516499E+01  0.79403108457E+02  0.79545800267E+02  0.00000000000E+00 0. -1.
         22    1    4    4    0    0 -0.47543115339E+00 -0.19200998595E+02  0.59313385018E+03  0.59344474774E+03  0.00000000000E+00 0. -1.
<mgrwt>
<rscale>  0 0.90205117E+02</rscale>
<asrwt>0</asrwt>
<pdfrwt beam="1">  1        2 0.11022427E+00 0.90205117E+02</pdfrwt>
<pdfrwt beam="2">  1       -2 0.43681589E-03 0.90205117E+02</pdfrwt>
<totfact> 0.24523320E+05</totfact>
</mgrwt>
</event>
<event>
 7    1  0.3056193E-009  0.9257113E+02  0.7818608E-02  0.1296742E+00
          2   -1    0    0  501    0  0.00000000000E+00  0.00000000000E+00  0.29774406611E+03  0.29774406612E+03  0.25500000000E-02 0.  1.
         -2   -1    0    0    0  501 -0.00000000000E+00 -0.00000000000E+00 -0.71952849583E+01  0.71952854101E+01  0.25500000000E-02 0. -1.
         23    2    1    2    0    0  0.00000000000E+00  0.00000000000E+00  0.29054878115E+03  0.30493935153E+03  0.92571128779E+02 0.  0.
    9000005    2    3    3    0    0  0.10439653033E+02 -0.25758291019E+02  0.26691573324E+03  0.26845652180E+03  0.72401335984E+01 0.  0.
         22    1    3    3    0    0 -0.10439653033E+02  0.25758291019E+02  0.23633047915E+02  0.36482829734E+02  0.00000000000E+00 0. -1.
         22    1    4    4    0    0  0.81208393791E+01 -0.22483395882E+02  0.20056864307E+03  0.20198819694E+03  0.00000000000E+00 0. -1.
         22    1    4    4    0    0  0.23188136535E+01 -0.32748951367E+01  0.66347090172E+02  0.66468324856E+02  0.00000000000E+00 0. -1.
<mgrwt>
<rscale>  0 0.92571129E+02</rscale>
<asrwt>0</asrwt>
<pdfrwt beam="1">  1        2 0.45806797E-01 0.92571129E+02</pdfrwt>
<pdfrwt beam="2">  1       -2 0.11069665E-02 0.92571129E+02</pdfrwt>
<totfact> 0.17203481E+05</totfact>
</mgrwt>
</event>
<event>
 7    1  0.3056193E-009  0.8538360E+02  0.7818608E-02  0.1314432E+00
         -2   -1    0    0    0  501 -0.00000000000E+00  0.00000000000E+00  0.98517087215E+02  0.98517087248E+02  0.25500000000E-02 0.  1.
          2   -1    0    0  501    0  0.00000000000E+00 -0.00000000000E+00 -0.18500242216E+02  0.18500242392E+02  0.25500000000E-02 0. -1.
         23    2    1    2    0    0  0.00000000000E+00  0.00000000000E+00  0.80016844999E+02  0.11701732964E+03  0.85383604705E+02 0.  0.
    9000005    2    3    3    0    0 -0.35248372242E+02 -0.21466320395E+02  0.37307922125E+02  0.57626229717E+02  0.15021672380E+02 0.  0.
         22    1    3    3    0    0  0.35248372242E+02  0.21466320395E+02  0.42708922874E+02  0.59391099923E+02  0.00000000000E+00 0. -1.
         22    1    4    4    0    0 -0.28603135686E+02 -0.12641964478E+02  0.33772546911E+02  0.46027639107E+02  0.00000000000E+00 0. -1.
         22    1    4    4    0    0 -0.66452365560E+01 -0.88243559163E+01  0.35353752142E+01  0.11598590610E+02  0.00000000000E+00 0. -1.
<mgrwt>
<rscale>  0 0.85383605E+02</rscale>
<asrwt>0</asrwt>
<pdfrwt beam="2">  1        2 0.28461912E-02 0.85383605E+02</pdfrwt>
<pdfrwt beam="1">  1       -2 0.15156475E-01 0.85383605E+02</pdfrwt>
<totfact> 0.94370632E+04</totfact>
</mgrwt>
</event>
<event>
 7    1  0.3056193E-009  0.8512868E+02  0.7818608E-02  0.1315096E+00
          2   -1    0    0  501    0  0.00000000000E+00  0.00000000000E+00  0.21694026377E+03  0.21694026378E+03  0.25500000000E-02 0. -1.
         -2   -1    0    0    0  501 -0.00000000000E+00 -0.00000000000E+00 -0.83512527330E+01  0.83512531223E+01  0.25500000000E-02 0.  1.
         23    2    1    2    0    0  0.17763568394E-14 -0.22204460493E-15  0.20858901104E+03  0.22529151691E+03  0.85128679450E+02 0.  0.
    9000005    2    3    3    0    0 -0.14550627889E+02 -0.10298267405E+01  0.20990422453E+03  0.21064531939E+03  0.99441335017E+01 0.  0.
         22    1    3    3    0    0  0.14550627889E+02  0.10298267405E+01 -0.13152134945E+01  0.14646197514E+02  0.00000000000E+00 0.  1.
         22    1    4    4    0    0 -0.86281262700E+01  0.35035352211E+01  0.14813978657E+03  0.14843219222E+03  0.00000000000E+00 0. -1.
         22    1    4    4    0    0 -0.59225016190E+01 -0.45333619615E+01  0.61764437963E+02  0.62213127175E+02  0.00000000000E+00 0. -1.
<mgrwt>
<rscale>  0 0.85128679E+02</rscale>
<asrwt>0</asrwt>
<pdfrwt beam="1">  1        2 0.33375420E-01 0.85128679E+02</pdfrwt>
<pdfrwt beam="2">  1       -2 0.12848083E-02 0.85128679E+02</pdfrwt>
<totfact> 0.19142480E+05</totfact>
</mgrwt>
</event>
<event>
 7    1  0.3056193E-009  0.9311100E+02  0.7818608E-02  0.1295488E+00
          2   -1    0    0  501    0  0.00000000000E+00  0.00000000000E+00  0.36131992487E+03  0.36131992488E+03  0.25500000000E-02 0. -1.
         -2   -1    0    0    0  501 -0.00000000000E+00 -0.00000000000E+00 -0.59986027241E+01  0.59986032661E+01  0.25500000000E-02 0.  1.
         23    2    1    2    0    0  0.00000000000E+00  0.00000000000E+00  0.35532132215E+03  0.36731852815E+03  0.93111004437E+02 0.  0.
    9000005    2    3    3    0    0 -0.29844531782E+02  0.12172966831E+02  0.30944799745E+03  0.31125393042E+03  0.90591877059E+01 0.  0.
         22    1    3    3    0    0  0.29844531782E+02 -0.12172966831E+02  0.45873324701E+02  0.56064597723E+02  0.00000000000E+00 0.  1.
         22    1    4    4    0    0 -0.17952669480E+02  0.59154506722E+01  0.21885256592E+03  0.21966733146E+03  0.00000000000E+00 0. -1.
         22    1    4    4    0    0 -0.11891862302E+02  0.62575161584E+01  0.90595431522E+02  0.91586598965E+02  0.00000000000E+00 0. -1.
<mgrwt>
<rscale>  0 0.93111004E+02</rscale>
<asrwt>0</asrwt>
<pdfrwt beam="1">  1        2 0.55587696E-01 0.93111004E+02</pdfrwt>
<pdfrwt beam="2">  1       -2 0.92286174E-03 0.93111004E+02</pdfrwt>
<totfact> 0.18195597E+05</totfact>
</mgrwt>
</event>
<event>
 7    1  0.3056193E-009  0.9343771E+02  0.7818608E-02  0.1294734E+00
         -2   -1    0    0    0  501 -0.00000000000E+00  0.00000000000E+00  0.81129229066E+01  0.81129233073E+01  0.25500000000E-02 0.  1.
          2   -1    0    0  501    0  0.00000000000E+00 -0.00000000000E+00 -0.26903389679E+03  0.26903389681E+03  0.25500000000E-02 0. -1.
         23    2    1    2    0    0  0.00000000000E+00  0.00000000000E+00 -0.26092097389E+03  0.27714682011E+03  0.93437708045E+02 0.  0.
    9000005    2    3    3    0    0 -0.35986878990E+02  0.15793408013E+01 -0.21766573027E+03  0.22085680432E+03  0.10090000361E+02 0.  0.
         22    1    3    3    0    0  0.35986878990E+02 -0.15793408013E+01 -0.43255243622E+02  0.56290015789E+02  0.00000000000E+00 0.  1.
         22    1    4    4    0    0 -0.23885618893E+02  0.42087705282E+01 -0.12150647903E+03  0.12390343411E+03  0.00000000000E+00 0.  1.
         22    1    4    4    0    0 -0.12101260097E+02 -0.26294297269E+01 -0.96159251238E+02  0.96953370211E+02  0.00000000000E+00 0.  1.
<mgrwt>
<rscale>  0 0.93437708E+02</rscale>
<asrwt>0</asrwt>
<pdfrwt beam="2">  1        2 0.41389823E-01 0.93437708E+02</pdfrwt>
<pdfrwt beam="1">  1       -2 0.12481422E-02 0.93437708E+02</pdfrwt>
<totfact> 0.16154788E+05</totfact>
</mgrwt>
</event>
<event>
 7    1  0.3056193E-009  0.8578057E+02  0.7818608E-02  0.1313404E+00
         -2   -1    0    0    0  501 -0.00000000000E+00  0.00000000000E+00  0.84348940595E+01  0.84348944450E+01  0.25500000000E-02 0.  1.
          2   -1    0    0  501    0  0.00000000000E+00 -0.00000000000E+00 -0.21809121875E+03  0.21809121876E+03  0.25500000000E-02 0. -1.
         23    2    1    2    0    0  0.00000000000E+00  0.00000000000E+00 -0.20965632469E+03  0.22652611321E+03  0.85780565883E+02 0.  0.
    9000005    2    3    3    0    0  0.10689316601E+02 -0.18656954033E+02 -0.20227520055E+03  0.20379234061E+03  0.12398302644E+02 0.  0.
         22    1    3    3    0    0 -0.10689316601E+02  0.18656954033E+02 -0.73811241372E+01  0.22733772602E+02  0.00000000000E+00 0.  1.
         22    1    4    4    0    0 -0.20777246449E+01 -0.60689038601E+01 -0.72725792707E+02  0.73008146523E+02  0.00000000000E+00 0.  1.
         22    1    4    4    0    0  0.12767041246E+02 -0.12588050173E+02 -0.12954940784E+03  0.13078419408E+03  0.00000000000E+00 0.  1.
<mgrwt>
<rscale>  0 0.85780566E+02</rscale>
<asrwt>0</asrwt>
<pdfrwt beam="2">  1        2 0.33552491E-01 0.85780566E+02</pdfrwt>
<pdfrwt beam="1">  1       -2 0.12976762E-02 0.85780566E+02</pdfrwt>
<totfact> 0.18793161E+05</totfact>
</mgrwt>
</event>
<event>
 7    1  0.3056193E-009  0.1046903E+03  0.7818608E-02  0.1270731E+00
         -2   -1    0    0    0  501 -0.00000000000E+00  0.00000000000E+00  0.25484171971E+01  0.25484184729E+01  0.25500000000E-02 0.  1.
          2   -1    0    0  501    0  0.00000000000E+00 -0.00000000000E+00 -0.10751818203E+04  0.10751818203E+04  0.25500000000E-02 0. -1.
         23    2    1    2    0    0  0.00000000000E+00  0.00000000000E+00 -0.10726334031E+04  0.10777302388E+04  0.10469025800E+03 0.  0.
    9000005    2    3    3    0    0 -0.17931511761E+02 -0.26866919809E+02 -0.95891886097E+03  0.95951700946E+03  0.10204852547E+02 0.  0.
         22    1    3    3    0    0  0.17931511761E+02  0.26866919809E+02 -0.11371454215E+03  0.11821322933E+03  0.00000000000E+00 0.  1.
         22    1    4    4    0    0  0.13129241707E+01 -0.21263957857E+01 -0.82496190636E+02  0.82534034182E+02  0.00000000000E+00 0. -1.
         22    1    4    4    0    0 -0.19244435932E+02 -0.24740524024E+02 -0.87642267033E+03  0.87698297527E+03  0.00000000000E+00 0. -1.
<mgrwt>
<rscale>  0 0.10469026E+03</rscale>
<asrwt>0</asrwt>
<pdfrwt beam="2">  1        2 0.16541223E+00 0.10469026E+03</pdfrwt>
<pdfrwt beam="1">  1       -2 0.39206514E-03 0.10469026E+03</pdfrwt>
<totfact> 0.17353386E+05</totfact>
</mgrwt>
</event>
<event>
 7    1  0.3056193E-009  0.8831430E+02  0.7818608E-02  0.1306986E+00
          2   -1    0    0  501    0  0.00000000000E+00  0.00000000000E+00  0.15875776777E+02  0.15875776982E+02  0.25500000000E-02 0. -1.
         -2   -1    0    0    0  501 -0.00000000000E+00 -0.00000000000E+00 -0.12281942043E+03  0.12281942045E+03  0.25500000000E-02 0.  1.
         23    2    1    2    0    0 -0.35527136788E-14 -0.17763568394E-14 -0.10694364365E+03  0.13869519743E+03  0.88314295979E+02 0.  0.
    9000005    2    3    3    0    0  0.19079634409E+02  0.12685331069E+02  0.52087834572E+01  0.24226350234E+02  0.59020798883E+01 0.  0.
         22    1    3    3    0    0 -0.19079634409E+02 -0.12685331069E+02 -0.11215242711E+03  0.11446884720E+03  0.00000000000E+00 0.  1.
         22    1    4    4    0    0  0.17224584928E+01  0.87107331958E+00 -0.12010415300E+01  0.22733527540E+01  0.00000000000E+00 0. -1.
         22    1    4    4    0    0  0.17357175916E+02  0.11814257750E+02  0.64098249872E+01  0.21952997480E+02  0.00000000000E+00 0. -1.
<mgrwt>
<rscale>  0 0.88314296E+02</rscale>
<asrwt>0</asrwt>
<pdfrwt beam="1">  1        2 0.24424273E-02 0.88314296E+02</pdfrwt>
<pdfrwt beam="2">  1       -2 0.18895295E-01 0.88314296E+02</pdfrwt>
<totfact> 0.81088103E+04</totfact>
</mgrwt>
</event>
<event>
 7    1  0.3056193E-009  0.9382153E+02  0.7818608E-02  0.1293853E+00
         -2   -1    0    0    0  501 -0.00000000000E+00  0.00000000000E+00  0.18023560850E+02  0.18023561031E+02  0.25500000000E-02 0. -1.
          2   -1    0    0  501    0  0.00000000000E+00 -0.00000000000E+00 -0.12209683772E+03  0.12209683775E+03  0.25500000000E-02 0.  1.
         23    2    1    2    0    0  0.00000000000E+00  0.00000000000E+00 -0.10407327687E+03  0.14012039878E+03  0.93821528422E+02 0.  0.
    9000005    2    3    3    0    0 -0.12716075604E+02 -0.40678269834E+02 -0.28363985971E+02  0.53239348232E+02  0.14611375178E+02 0.  0.
         22    1    3    3    0    0  0.12716075604E+02  0.40678269834E+02 -0.75709290904E+02  0.86881050550E+02  0.00000000000E+00 0.  1.
         22    1    4    4    0    0  0.15913438966E+01 -0.18450052011E+02 -0.13451645272E+02  0.22888502685E+02  0.00000000000E+00 0.  1.
         22    1    4    4    0    0 -0.14307419501E+02 -0.22228217822E+02 -0.14912340699E+02  0.30350845547E+02  0.00000000000E+00 0.  1.
<mgrwt>
<rscale>  0 0.93821528E+02</rscale>
<asrwt>0</asrwt>
<pdfrwt beam="2">  1        2 0.18784128E-01 0.93821528E+02</pdfrwt>
<pdfrwt beam="1">  1       -2 0.27728556E-02 0.93821528E+02</pdfrwt>
<totfact> 0.12074802E+05</totfact>
</mgrwt>
</event>
<event>
 7    1  0.3056193E-009  0.9373235E+02  0.7818608E-02  0.1294057E+00
          2   -1    0    0  501    0  0.00000000000E+00  0.00000000000E+00  0.15016582348E+04  0.15016582348E+04  0.25500000000E-02 0.  1.
         -2   -1    0    0    0  501 -0.00000000000E+00 -0.00000000000E+00 -0.14626740009E+01  0.14626762237E+01  0.25500000000E-02 0. -1.
         23    2    1    2    0    0  0.00000000000E+00  0.35527136788E-14  0.15001955608E+04  0.15031209110E+04  0.93732345119E+02 0.  0.
    9000005    2    3    3    0    0 -0.17128171586E+02  0.19728220312E+02  0.13698255700E+04  0.13701588433E+04  0.15185086673E+02 0.  0.
         22    1    3    3    0    0  0.17128171586E+02 -0.19728220312E+02  0.13036999080E+03  0.13296206767E+03  0.00000000000E+00 0. -1.
         22    1    4    4    0    0 -0.19928934252E+02  0.16714290567E+02  0.12168631501E+04  0.12171410995E+04  0.00000000000E+00 0. -1.
         22    1    4    4    0    0  0.28007626662E+01  0.30139297448E+01  0.15296241986E+03  0.15301774385E+03  0.00000000000E+00 0. -1.
<mgrwt>
<rscale>  0 0.93732345E+02</rscale>
<asrwt>0</asrwt>
<pdfrwt beam="1">  1        2 0.23102460E+00 0.93732345E+02</pdfrwt>
<pdfrwt beam="2">  1       -2 0.22502669E-03 0.93732345E+02</pdfrwt>
<totfact> 0.21927976E+05</totfact>
</mgrwt>
</event>
<event>
 7    1  0.3056193E-009  0.9159879E+02  0.7818608E-02  0.1299026E+00
          2   -1    0    0  501    0  0.00000000000E+00  0.00000000000E+00  0.28502861946E+01  0.28502873353E+01  0.25500000000E-02 0. -1.
         -2   -1    0    0    0  501 -0.00000000000E+00 -0.00000000000E+00 -0.73592054817E+03  0.73592054818E+03  0.25500000000E-02 0.  1.
         23    2    1    2    0    0  0.00000000000E+00  0.00000000000E+00 -0.73307026198E+03  0.73877083551E+03  0.91598790424E+02 0.  0.
    9000005    2    3    3    0    0 -0.62773080777E+01 -0.36265701456E+02 -0.57948168260E+03  0.58083395757E+03  0.14644456251E+02 0.  0.
         22    1    3    3    0    0  0.62773080777E+01  0.36265701456E+02 -0.15358857938E+03  0.15793687795E+03  0.00000000000E+00 0. -1.
         22    1    4    4    0    0 -0.20453338717E+01  0.81351162217E+00 -0.24381054472E+02  0.24480216685E+02  0.00000000000E+00 0. -1.
         22    1    4    4    0    0 -0.42319742060E+01 -0.37079213078E+02 -0.55510062812E+03  0.55635374088E+03  0.00000000000E+00 0. -1.
<mgrwt>
<rscale>  0 0.91598790E+02</rscale>
<asrwt>0</asrwt>
<pdfrwt beam="1">  1        2 0.43850624E-03 0.91598790E+02</pdfrwt>
<pdfrwt beam="2">  1       -2 0.11321839E+00 0.91598790E+02</pdfrwt>
<totfact> 0.25601557E+04</totfact>
</mgrwt>
</event>
<event>
 7    1  0.3056193E-009  0.9231909E+02  0.7818608E-02  0.1297331E+00
         -2   -1    0    0    0  501 -0.00000000000E+00  0.00000000000E+00  0.20149907677E+03  0.20149907678E+03  0.25500000000E-02 0.  1.
          2   -1    0    0  501    0  0.00000000000E+00 -0.00000000000E+00 -0.10574260321E+02  0.10574260628E+02  0.25500000000E-02 0. -1.
         23    2    1    2    0    0  0.00000000000E+00  0.00000000000E+00  0.19092481645E+03  0.21207333741E+03  0.92319092857E+02 0.  0.
    9000005    2    3    3    0    0 -0.16340819604E+02 -0.38401653689E+02  0.14070572961E+03  0.14677658348E+03  0.18851315996E+01 0.  0.
         22    1    3    3    0    0  0.16340819604E+02  0.38401653689E+02  0.50219086833E+02  0.65296753929E+02  0.00000000000E+00 0. -1.
         22    1    4    4    0    0 -0.13969284333E+02 -0.34214205310E+02  0.12538449884E+03  0.13071734889E+03  0.00000000000E+00 0.  1.
         22    1    4    4    0    0 -0.23715352712E+01 -0.41874483790E+01  0.15321230770E+02  0.16059234595E+02  0.00000000000E+00 0.  1.
<mgrwt>
<rscale>  0 0.92319093E+02</rscale>
<asrwt>0</asrwt>
<pdfrwt beam="2">  1        2 0.16268094E-02 0.92319093E+02</pdfrwt>
<pdfrwt beam="1">  1       -2 0.30999856E-01 0.92319093E+02</pdfrwt>
<totfact> 0.60171397E+04</totfact>
</mgrwt>
</event>
<event>
 7    1  0.3056193E-009  0.8993426E+02  0.7818608E-02  0.1303011E+00
          2   -1    0    0  501    0  0.00000000000E+00  0.00000000000E+00  0.44664895919E+03  0.44664895920E+03  0.25500000000E-02 0.  1.
         -2   -1    0    0    0  501 -0.00000000000E+00 -0.00000000000E+00 -0.45271410015E+01  0.45271417197E+01  0.25500000000E-02 0. -1.
         23    2    1    2    0    0  0.00000000000E+00  0.00000000000E+00  0.44212181819E+03  0.45117610092E+03  0.89934264440E+02 0.  0.
    9000005    2    3    3    0    0 -0.15699189480E+02  0.12361210131E+02  0.42258911876E+03  0.42323347375E+03  0.12072528257E+02 0.  0.
         22    1    3    3    0    0  0.15699189480E+02 -0.12361210131E+02  0.19532699427E+02  0.27942627169E+02  0.00000000000E+00 0. -1.
         22    1    4    4    0    0 -0.86192995317E+01  0.76840180634E+01  0.34280036928E+03  0.34299479535E+03  0.00000000000E+00 0.  1.
         22    1    4    4    0    0 -0.70798899478E+01  0.46771920677E+01  0.79788749484E+02  0.80238678401E+02  0.00000000000E+00 0.  1.
<mgrwt>
<rscale>  0 0.89934264E+02</rscale>
<asrwt>0</asrwt>
<pdfrwt beam="1">  1        2 0.68715228E-01 0.89934264E+02</pdfrwt>
<pdfrwt beam="2">  1       -2 0.69648325E-03 0.89934264E+02</pdfrwt>
<totfact> 0.21518465E+05</totfact>
</mgrwt>
</event>
<event>
 7    1  0.3056193E-009  0.8989221E+02  0.7818608E-02  0.1303113E+00
         -2   -1    0    0    0  501 -0.00000000000E+00  0.00000000000E+00  0.26534779051E+02  0.26534779174E+02  0.25500000000E-02 0.  1.
          2   -1    0    0  501    0  0.00000000000E+00 -0.00000000000E+00 -0.76132244571E+02  0.76132244613E+02  0.25500000000E-02 0. -1.
         23    2    1    2    0    0  0.00000000000E+00 -0.35527136788E-14 -0.49597465519E+02  0.10266702379E+03  0.89892208714E+02 0.  0.
    9000005    2    3    3    0    0  0.14434926565E+02  0.24445370648E+02  0.13648979134E+02  0.33341299758E+02  0.10927231447E+02 0.  0.
         22    1    3    3    0    0 -0.14434926565E+02 -0.24445370648E+02 -0.63246444653E+02  0.69325724030E+02  0.00000000000E+00 0. -1.
         22    1    4    4    0    0  0.15563307861E+02  0.19587596011E+02  0.13321437119E+02  0.28343449966E+02  0.00000000000E+00 0. -1.
         22    1    4    4    0    0 -0.11283812956E+01  0.48577746366E+01  0.32754201438E+00  0.49978497916E+01  0.00000000000E+00 0. -1.
<mgrwt>
<rscale>  0 0.89892209E+02</rscale>
<asrwt>0</asrwt>
<pdfrwt beam="2">  1        2 0.11712653E-01 0.89892209E+02</pdfrwt>
<pdfrwt beam="1">  1       -2 0.40822737E-02 0.89892209E+02</pdfrwt>
<totfact> 0.11780665E+05</totfact>
</mgrwt>
</event>
<event>
 7    1  0.3056193E-009  0.8779040E+02  0.7818608E-02  0.1308293E+00
         -2   -1    0    0    0  501 -0.00000000000E+00  0.00000000000E+00  0.46710108436E+01  0.46710115396E+01  0.25500000000E-02 0.  1.
          2   -1    0    0  501    0  0.00000000000E+00 -0.00000000000E+00 -0.41249927433E+03  0.41249927434E+03  0.25500000000E-02 0. -1.
         23    2    1    2    0    0  0.44408920985E-15  0.00000000000E+00 -0.40782826348E+03  0.41717028587E+03  0.87790403352E+02 0.  0.
    9000005    2    3    3    0    0 -0.10686501592E+01 -0.29803263242E+02 -0.35443747280E+03  0.35601513039E+03  0.15214283612E+02 0.  0.
         22    1    3    3    0    0  0.10686501592E+01  0.29803263242E+02 -0.53390790683E+02  0.61155155488E+02  0.00000000000E+00 0.  1.
         22    1    4    4    0    0 -0.28547480388E+01 -0.22393663809E+02 -0.31738620599E+03  0.31818804113E+03  0.00000000000E+00 0.  1.
         22    1    4    4    0    0  0.17860978796E+01 -0.74095994324E+01 -0.37051266814E+02  0.37827089261E+02  0.00000000000E+00 0.  1.
<mgrwt>
<rscale>  0 0.87790403E+02</rscale>
<asrwt>0</asrwt>
<pdfrwt beam="2">  1        2 0.63461398E-01 0.87790403E+02</pdfrwt>
<pdfrwt beam="1">  1       -2 0.71861743E-03 0.87790403E+02</pdfrwt>
<totfact> 0.22309154E+05</totfact>
</mgrwt>
</event>
<event>
 7    1  0.3056193E-009  0.9120571E+02  0.7818608E-02  0.1299958E+00
         -2   -1    0    0    0  501 -0.00000000000E+00  0.00000000000E+00  0.19834107961E+01  0.19834124353E+01  0.25500000000E-02 0.  1.
          2   -1    0    0  501    0  0.00000000000E+00 -0.00000000000E+00 -0.10485066701E+04  0.10485066701E+04  0.25500000000E-02 0. -1.
         23    2    1    2    0    0  0.00000000000E+00  0.00000000000E+00 -0.10465232593E+04  0.10504900826E+04  0.91205708417E+02 0.  0.
    9000005    2    3    3    0    0  0.51372236452E+01 -0.18658949725E+02 -0.99836301012E+03  0.99858673898E+03  0.84986948793E+01 0.  0.
         22    1    3    3    0    0 -0.51372236452E+01  0.18658949725E+02 -0.48160249223E+02  0.51903343600E+02  0.00000000000E+00 0.  1.
         22    1    4    4    0    0  0.23846295678E+01 -0.88786280419E+00 -0.63789126927E+02  0.63839858025E+02  0.00000000000E+00 0. -1.
         22    1    4    4    0    0  0.27525940773E+01 -0.17771086921E+02 -0.93457388320E+03  0.93474688096E+03  0.00000000000E+00 0. -1.
<mgrwt>
<rscale>  0 0.91205708E+02</rscale>
<asrwt>0</asrwt>
<pdfrwt beam="2">  1        2 0.16130828E+00 0.91205708E+02</pdfrwt>
<pdfrwt beam="1">  1       -2 0.30514109E-03 0.91205708E+02</pdfrwt>
<totfact> 0.25011407E+05</totfact>
</mgrwt>
</event>
<event>
 7    1  0.3056193E-009  0.9408887E+02  0.7818608E-02  0.1293241E+00
          2   -1    0    0  501    0  0.00000000000E+00  0.00000000000E+00  0.21614424220E+02  0.21614424370E+02  0.25500000000E-02 0. -1.
         -2   -1    0    0    0  501 -0.00000000000E+00 -0.00000000000E+00 -0.10239361144E+03  0.10239361147E+03  0.25500000000E-02 0.  1.
         23    2    1    2    0    0  0.55511151231E-15  0.71054273576E-14 -0.80779187217E+02  0.12400803584E+03  0.94088872164E+02 0.  0.
    9000005    2    3    3    0    0  0.90272532985E+00  0.32176840758E+02  0.22338117322E+01  0.34972526132E+02  0.13487908473E+02 0.  0.
         22    1    3    3    0    0 -0.90272532985E+00 -0.32176840758E+02 -0.83012998949E+02  0.89035509707E+02  0.00000000000E+00 0.  1.
         22    1    4    4    0    0 -0.61922934848E+01  0.14668987563E+02 -0.21316314908E+00  0.15923854221E+02  0.00000000000E+00 0. -1.
         22    1    4    4    0    0  0.70950188147E+01  0.17507853195E+02  0.24469748813E+01  0.19048671911E+02  0.00000000000E+00 0. -1.
<mgrwt>
<rscale>  0 0.94088872E+02</rscale>
<asrwt>0</asrwt>
<pdfrwt beam="1">  1        2 0.33252961E-02 0.94088872E+02</pdfrwt>
<pdfrwt beam="2">  1       -2 0.15752863E-01 0.94088872E+02</pdfrwt>
<totfact> 0.73269005E+04</totfact>
</mgrwt>
</event>
<event>
 7    1  0.3056193E-009  0.9284504E+02  0.7818608E-02  0.1296105E+00
          2   -1    0    0  501    0  0.00000000000E+00  0.00000000000E+00  0.17434102326E+03  0.17434102328E+03  0.25500000000E-02 0. -1.
         -2   -1    0    0    0  501 -0.00000000000E+00 -0.00000000000E+00 -0.12361120806E+02  0.12361121069E+02  0.25500000000E-02 0.  1.
         23    2    1    2    0    0  0.00000000000E+00  0.00000000000E+00  0.16197990245E+03  0.18670214434E+03  0.92845042434E+02 0.  0.
    9000005    2    3    3    0    0 -0.18979859383E+02  0.22439759620E+02  0.14166995975E+02  0.35995697253E+02  0.15205544113E+02 0.  0.
         22    1    3    3    0    0  0.18979859383E+02 -0.22439759620E+02  0.14781290648E+03  0.15070644709E+03  0.00000000000E+00 0. -1.
         22    1    4    4    0    0 -0.15192822098E+01 -0.21331215290E+01 -0.15160647164E+00  0.26232442533E+01  0.00000000000E+00 0. -1.
         22    1    4    4    0    0 -0.17460577173E+02  0.24572881149E+02  0.14318602447E+02  0.33372452999E+02  0.00000000000E+00 0. -1.
<mgrwt>
<rscale>  0 0.92845042E+02</rscale>
<asrwt>0</asrwt>
<pdfrwt beam="1">  1        2 0.26821696E-01 0.92845042E+02</pdfrwt>
<pdfrwt beam="2">  1       -2 0.19017109E-02 0.92845042E+02</pdfrwt>
<totfact> 0.14022016E+05</totfact>
</mgrwt>
</event>
<event>
 7    1  0.3056193E-009  0.9191701E+02  0.7818608E-02  0.1298275E+00
         -2   -1    0    0    0  501 -0.00000000000E+00  0.00000000000E+00  0.69538789908E+02  0.69538789955E+02  0.25500000000E-02 0.  1.
          2   -1    0    0  501    0  0.00000000000E+00 -0.00000000000E+00 -0.30374187676E+02  0.30374187783E+02  0.25500000000E-02 0. -1.
         23    2    1    2    0    0  0.00000000000E+00 -0.17763568394E-14  0.39164602233E+02  0.99912977738E+02  0.91917011768E+02 0.  0.
    9000005    2    3    3    0    0  0.30358899409E+02  0.14883937403E+02  0.53199102934E+02  0.63304760410E+02  0.58441228310E+01 0.  0.
         22    1    3    3    0    0 -0.30358899409E+02 -0.14883937403E+02 -0.14034500702E+02  0.36608217327E+02  0.00000000000E+00 0. -1.
         22    1    4    4    0    0  0.17620028851E+02  0.11089702181E+02  0.35740102567E+02  0.41361840417E+02  0.00000000000E+00 0. -1.
         22    1    4    4    0    0  0.12738870558E+02  0.37942352220E+01  0.17459000367E+02  0.21942919994E+02  0.00000000000E+00 0. -1.
<mgrwt>
<rscale>  0 0.91917012E+02</rscale>
<asrwt>0</asrwt>
<pdfrwt beam="2">  1        2 0.46729520E-02 0.91917012E+02</pdfrwt>
<pdfrwt beam="1">  1       -2 0.10698275E-01 0.91917012E+02</pdfrwt>
<totfact> 0.86652898E+04</totfact>
</mgrwt>
</event>
<event>
 7    1  0.3056193E-009  0.9075574E+02  0.7818608E-02  0.1301032E+00
          2   -1    0    0  501    0  0.00000000000E+00  0.00000000000E+00  0.79563268211E+02  0.79563268252E+02  0.25500000000E-02 0. -1.
         -2   -1    0    0    0  501 -0.00000000000E+00 -0.00000000000E+00 -0.25880677643E+02  0.25880677768E+02  0.25500000000E-02 0.  1.
         23    2    1    2    0    0  0.00000000000E+00  0.17763568394E-14  0.53682590568E+02  0.10544394602E+03  0.90755744844E+02 0.  0.
    9000005    2    3    3    0    0 -0.41059517994E+02 -0.12193074193E+02  0.15586669942E+02  0.48121574781E+02  0.15433295283E+02 0.  0.
         22    1    3    3    0    0  0.41059517994E+02  0.12193074193E+02  0.38095920626E+02  0.57322371240E+02  0.00000000000E+00 0. -1.
         22    1    4    4    0    0 -0.13846674936E+02 -0.11981368603E+02  0.60005842328E+01  0.19268902707E+02  0.00000000000E+00 0.  1.
         22    1    4    4    0    0 -0.27212843058E+02 -0.21170558954E+00  0.95860857097E+01  0.28852672074E+02  0.00000000000E+00 0.  1.
<mgrwt>
<rscale>  0 0.90755745E+02</rscale>
<asrwt>0</asrwt>
<pdfrwt beam="1">  1        2 0.12240502E-01 0.90755745E+02</pdfrwt>
<pdfrwt beam="2">  1       -2 0.39816429E-02 0.90755745E+02</pdfrwt>
<totfact> 0.11616039E+05</totfact>
</mgrwt>
</event>
<event>
 7    1  0.3056193E-009  0.8988574E+02  0.7818608E-02  0.1303129E+00
          2   -1    0    0  501    0  0.00000000000E+00  0.00000000000E+00  0.16698847521E+03  0.16698847523E+03  0.25500000000E-02 0. -1.
         -2   -1    0    0    0  501 -0.00000000000E+00 -0.00000000000E+00 -0.12095815226E+02  0.12095815494E+02  0.25500000000E-02 0.  1.
         23    2    1    2    0    0  0.35527136788E-14  0.00000000000E+00  0.15489265999E+03  0.17908429072E+03  0.89885744515E+02 0.  0.
    9000005    2    3    3    0    0 -0.29356689858E+02 -0.14771325148E+02  0.20859531675E+02  0.41081077825E+02  0.13134976496E+02 0.  0.
         22    1    3    3    0    0  0.29356689858E+02  0.14771325148E+02  0.13403312831E+03  0.13800321290E+03  0.00000000000E+00 0. -1.
         22    1    4    4    0    0 -0.76517905529E+01  0.55313362225E+00  0.94324838496E+01  0.12158437689E+02  0.00000000000E+00 0. -1.
         22    1    4    4    0    0 -0.21704899305E+02 -0.15324458770E+02  0.11427047826E+02  0.28922640136E+02  0.00000000000E+00 0. -1.
<mgrwt>
<rscale>  0 0.89885745E+02</rscale>
<asrwt>0</asrwt>
<pdfrwt beam="1">  1        2 0.25690533E-01 0.89885745E+02</pdfrwt>
<pdfrwt beam="2">  1       -2 0.18608948E-02 0.89885745E+02</pdfrwt>
<totfact> 0.15076828E+05</totfact>
</mgrwt>
</event>
<event>
 7    1  0.3056193E-009  0.9145691E+02  0.7818608E-02  0.1299361E+00
         -2   -1    0    0    0  501 -0.00000000000E+00  0.00000000000E+00  0.36059569208E+01  0.36059578225E+01  0.25500000000E-02 0.  1.
          2   -1    0    0  501    0  0.00000000000E+00 -0.00000000000E+00 -0.57989914149E+03  0.57989914150E+03  0.25500000000E-02 0. -1.
         23    2    1    2    0    0  0.00000000000E+00  0.44408920985E-15 -0.57629318457E+03  0.58350509932E+03  0.91456909796E+02 0.  0.
    9000005    2    3    3    0    0  0.31546645084E+02 -0.22184695146E+01 -0.49696987247E+03  0.49811013305E+03  0.11599054813E+02 0.  0.
         22    1    3    3    0    0 -0.31546645084E+02  0.22184695146E+01 -0.79323312098E+02  0.85394966276E+02  0.00000000000E+00 0.  1.
         22    1    4    4    0    0  0.31084817293E+02 -0.28344046614E+01 -0.42828128941E+03  0.42941723600E+03  0.00000000000E+00 0. -1.
         22    1    4    4    0    0  0.46182779020E+00  0.61593514673E+00 -0.68688583069E+02  0.68692897050E+02  0.00000000000E+00 0. -1.
<mgrwt>
<rscale>  0 0.91456910E+02</rscale>
<asrwt>0</asrwt>
<pdfrwt beam="2">  1        2 0.89215179E-01 0.91456910E+02</pdfrwt>
<pdfrwt beam="1">  1       -2 0.55476313E-03 0.91456910E+02</pdfrwt>
<totfact> 0.22380183E+05</totfact>
</mgrwt>
</event>
<event>
 7    1  0.3056193E-009  0.8544834E+02  0.7818608E-02  0.1314264E+00
          2   -1    0    0  501    0  0.00000000000E+00  0.00000000000E+00  0.43143708862E+03  0.43143708862E+03  0.25500000000E-02 0. -1.
         -2   -1    0    0    0  501 -0.00000000000E+00 -0.00000000000E+00 -0.42308710660E+01  0.42308718344E+01  0.25500000000E-02 0.  1.
         23    2    1    2    0    0  0.00000000000E+00  0.00000000000E+00  0.42720621755E+03  0.43566796046E+03  0.85448343789E+02 0.  0.
    9000005    2    3    3    0    0 -0.35763014513E+02 -0.18949693798E+02  0.26595034403E+03  0.26941050695E+03  0.14640753514E+02 0.  0.
         22    1    3    3    0    0  0.35763014513E+02  0.18949693798E+02  0.16125587352E+03  0.16625745351E+03  0.00000000000E+00 0.  1.
         22    1    4    4    0    0 -0.34390793020E+02 -0.19393587581E+02  0.26423942511E+03  0.26717281236E+03  0.00000000000E+00 0. -1.
         22    1    4    4    0    0 -0.13722214933E+01  0.44389378234E+00  0.17109189238E+01  0.22376945905E+01  0.00000000000E+00 0. -1.
<mgrwt>
<rscale>  0 0.85448344E+02</rscale>
<asrwt>0</asrwt>
<pdfrwt beam="1">  1        2 0.66374931E-01 0.85448344E+02</pdfrwt>
<pdfrwt beam="2">  1       -2 0.65090335E-03 0.85448344E+02</pdfrwt>
<totfact> 0.24337275E+05</totfact>
</mgrwt>
</event>
<event>
 7    1  0.3056193E-009  0.9529139E+02  0.7818608E-02  0.1290521E+00
         -2   -1    0    0    0  501 -0.00000000000E+00  0.00000000000E+00  0.13805186818E+01  0.13805210369E+01  0.25500000000E-02 0.  1.
          2   -1    0    0  501    0  0.00000000000E+00 -0.00000000000E+00 -0.16443894643E+04  0.16443894643E+04  0.25500000000E-02 0. -1.
         23    2    1    2    0    0  0.00000000000E+00  0.00000000000E+00 -0.16430089456E+04  0.16457699854E+04  0.95291391327E+02 0.  0.
    9000005    2    3    3    0    0  0.10031035982E+02  0.11939218379E+02 -0.15986266152E+04  0.15987278991E+04  0.89818780339E+01 0.  0.
         22    1    3    3    0    0 -0.10031035982E+02 -0.11939218379E+02 -0.44382330489E+02  0.47042086242E+02  0.00000000000E+00 0.  1.
         22    1    4    4    0    0  0.31759825208E+01  0.88581821387E+01 -0.11484423544E+04  0.11484809078E+04  0.00000000000E+00 0. -1.
         22    1    4    4    0    0  0.68550534611E+01  0.30810362399E+01 -0.45018426073E+03  0.45024699128E+03  0.00000000000E+00 0. -1.
<mgrwt>
<rscale>  0 0.95291391E+02</rscale>
<asrwt>0</asrwt>
<pdfrwt beam="2">  1        2 0.25298143E+00 0.95291391E+02</pdfrwt>
<pdfrwt beam="1">  1       -2 0.21238899E-03 0.95291391E+02</pdfrwt>
<totfact> 0.20150273E+05</totfact>
</mgrwt>
</event>
<event>
 6    1  0.8808253E-009  0.4378889E+03  0.7818608E-02  0.1031397E+00
          2   -1    0    0  501    0  0.00000000000E+00  0.00000000000E+00  0.74590731897E+03  0.74590731898E+03  0.25500000000E-02 0. -1.
         -2   -1    0    0    0  501 -0.00000000000E+00 -0.00000000000E+00 -0.64266260156E+02  0.64266260206E+02  0.25500000000E-02 0.  1.
    9000005    2    1    2    0    0 -0.48736306710E+02 -0.17486356873E+03  0.11505021228E+03  0.21521334300E+03  0.11302052809E+02 0.  0.
         22    1    1    2    0    0  0.48736306710E+02  0.17486356873E+03  0.56659084654E+03  0.59496023619E+03  0.00000000000E+00 0. -1.
         22    1    3    3    0    0 -0.39529932677E+02 -0.12334758237E+03  0.83403057067E+02  0.15405619618E+03  0.00000000000E+00 0.  1.
         22    1    3    3    0    0 -0.92063740321E+01 -0.51515986363E+02  0.31647155209E+02  0.61157146816E+02  0.00000000000E+00 0.  1.
<mgrwt>
<rscale>  0 0.43788891E+03</rscale>
<asrwt>0</asrwt>
<pdfrwt beam="1">  1        2 0.11475497E+00 0.43788891E+03</pdfrwt>
<pdfrwt beam="2">  1       -2 0.98871170E-02 0.43788891E+03</pdfrwt>
<totfact> 0.26324922E+03</totfact>
</mgrwt>
</event>
<event>
 7    1  0.3056193E-009  0.9045540E+02  0.7818608E-02  0.1301753E+00
         -2   -1    0    0    0  501 -0.00000000000E+00  0.00000000000E+00  0.23905021340E+02  0.23905021476E+02  0.25500000000E-02 0.  1.
          2   -1    0    0  501    0  0.00000000000E+00 -0.00000000000E+00 -0.85569679975E+02  0.85569680013E+02  0.25500000000E-02 0. -1.
         23    2    1    2    0    0  0.00000000000E+00  0.00000000000E+00 -0.61664658635E+02  0.10947470149E+03  0.90455404159E+02 0.  0.
    9000005    2    3    3    0    0 -0.26971395206E+02 -0.26177777266E+02 -0.61064656050E+02  0.71883583056E+02  0.50621253037E+01 0.  0.
         22    1    3    3    0    0  0.26971395206E+02  0.26177777266E+02 -0.60000258533E+00  0.37591118433E+02  0.00000000000E+00 0.  1.
         22    1    4    4    0    0 -0.17454811836E+02 -0.13534553835E+02 -0.36525128040E+02  0.42684184214E+02  0.00000000000E+00 0. -1.
         22    1    4    4    0    0 -0.95165833700E+01 -0.12643223431E+02 -0.24539528010E+02  0.29199398842E+02  0.00000000000E+00 0. -1.
<mgrwt>
<rscale>  0 0.90455404E+02</rscale>
<asrwt>0</asrwt>
<pdfrwt beam="2">  1        2 0.13164566E-01 0.90455404E+02</pdfrwt>
<pdfrwt beam="1">  1       -2 0.36776956E-02 0.90455404E+02</pdfrwt>
<totfact> 0.11971264E+05</totfact>
</mgrwt>
</event>
<event>
 7    1  0.3056193E-009  0.9148881E+02  0.7818608E-02  0.1299286E+00
         -2   -1    0    0    0  501 -0.00000000000E+00  0.00000000000E+00  0.13915524857E+02  0.13915525091E+02  0.25500000000E-02 0. -1.
          2   -1    0    0  501    0  0.00000000000E+00 -0.00000000000E+00 -0.15037526013E+03  0.15037526015E+03  0.25500000000E-02 0.  1.
         23    2    1    2    0    0  0.00000000000E+00  0.00000000000E+00 -0.13645973527E+03  0.16429078524E+03  0.91488812238E+02 0.  0.
    9000005    2    3    3    0    0 -0.39584100717E+02 -0.22896859229E+02 -0.68385366689E+02  0.82282938969E+02  0.16602638831E+01 0.  0.
         22    1    3    3    0    0  0.39584100717E+02  0.22896859229E+02 -0.68074368581E+02  0.82007846270E+02  0.00000000000E+00 0.  1.
         22    1    4    4    0    0 -0.17210198231E+02 -0.92908673232E+01 -0.28186628431E+02  0.34307392222E+02  0.00000000000E+00 0.  1.
         22    1    4    4    0    0 -0.22373902485E+02 -0.13605991906E+02 -0.40198738258E+02  0.47975546747E+02  0.00000000000E+00 0.  1.
<mgrwt>
<rscale>  0 0.91488812E+02</rscale>
<asrwt>0</asrwt>
<pdfrwt beam="2">  1        2 0.23134654E-01 0.91488812E+02</pdfrwt>
<pdfrwt beam="1">  1       -2 0.21408501E-02 0.91488812E+02</pdfrwt>
<totfact> 0.13863598E+05</totfact>
</mgrwt>
</event>
<event>
 7    1  0.3056193E-009  0.9590888E+02  0.7818608E-02  0.1289142E+00
         -2   -1    0    0    0  501 -0.00000000000E+00  0.00000000000E+00  0.10260103085E+01  0.10260134773E+01  0.25500000000E-02 0.  1.
          2   -1    0    0  501    0  0.00000000000E+00 -0.00000000000E+00 -0.22413271567E+04  0.22413271567E+04  0.25500000000E-02 0. -1.
         23    2    1    2    0    0  0.00000000000E+00  0.88817841970E-15 -0.22403011464E+04  0.22423531702E+04  0.95908880130E+02 0.  0.
    9000005    2    3    3    0    0 -0.98709039845E+01  0.51920732487E+01 -0.22103702390E+04  0.22104117928E+04  0.77011716326E+01 0.  0.
         22    1    3    3    0    0  0.98709039845E+01 -0.51920732487E+01 -0.29930907462E+02  0.31941377422E+02  0.00000000000E+00 0.  1.
         22    1    4    4    0    0 -0.31014440731E+01  0.55827072633E+01 -0.13358968336E+04  0.13359120988E+04  0.00000000000E+00 0.  1.
         22    1    4    4    0    0 -0.67694599114E+01 -0.39063401463E+00 -0.87447340535E+03  0.87449969403E+03  0.00000000000E+00 0.  1.
<mgrwt>
<rscale>  0 0.95908880E+02</rscale>
<asrwt>0</asrwt>
<pdfrwt beam="2">  1        2 0.34481564E+00 0.95908880E+02</pdfrwt>
<pdfrwt beam="1">  1       -2 0.15784978E-03 0.95908880E+02</pdfrwt>
<totfact> 0.15203602E+05</totfact>
</mgrwt>
</event>
<event>
 7    1  0.3056193E-009  0.9397257E+02  0.7818608E-02  0.1293507E+00
          2   -1    0    0  501    0  0.00000000000E+00  0.00000000000E+00  0.20879486683E+03  0.20879486684E+03  0.25500000000E-02 0. -1.
         -2   -1    0    0    0  501 -0.00000000000E+00 -0.00000000000E+00 -0.10573589177E+02  0.10573589485E+02  0.25500000000E-02 0.  1.
         23    2    1    2    0    0  0.71054273576E-14  0.00000000000E+00  0.19822127765E+03  0.21936845633E+03  0.93972574288E+02 0.  0.
    9000005    2    3    3    0    0 -0.38396701960E+02  0.24471564905E+02  0.89670968583E+02  0.10165552667E+03  0.14825629343E+02 0.  0.
         22    1    3    3    0    0  0.38396701960E+02 -0.24471564905E+02  0.10855030907E+03  0.11771292966E+03  0.00000000000E+00 0.  1.
         22    1    4    4    0    0 -0.30018851516E+02  0.15478224546E+02  0.51783294136E+02  0.61824076483E+02  0.00000000000E+00 0.  1.
         22    1    4    4    0    0 -0.83778504433E+01  0.89933403591E+01  0.37887674447E+02  0.39831450186E+02  0.00000000000E+00 0.  1.
<mgrwt>
<rscale>  0 0.93972574E+02</rscale>
<asrwt>0</asrwt>
<pdfrwt beam="1">  1        2 0.32122287E-01 0.93972574E+02</pdfrwt>
<pdfrwt beam="2">  1       -2 0.16267061E-02 0.93972574E+02</pdfrwt>
<totfact> 0.14482625E+05</totfact>
</mgrwt>
</event>
<event>
 7    1  0.3056193E-009  0.9216767E+02  0.7818608E-02  0.1297686E+00
         -2   -1    0    0    0  501 -0.00000000000E+00  0.00000000000E+00  0.26717529514E+03  0.26717529515E+03  0.25500000000E-02 0. -1.
          2   -1    0    0  501    0  0.00000000000E+00 -0.00000000000E+00 -0.79487887700E+01  0.79487891790E+01  0.25500000000E-02 0.  1.
         23    2    1    2    0    0  0.00000000000E+00  0.00000000000E+00  0.25922650637E+03  0.27512408433E+03  0.92167674237E+02 0.  0.
    9000005    2    3    3    0    0  0.44857086209E+02 -0.11375563821E+01  0.12450302156E+03  0.13312454357E+03  0.14411436597E+02 0.  0.
         22    1    3    3    0    0 -0.44857086209E+02  0.11375563821E+01  0.13472348481E+03  0.14199954076E+03  0.00000000000E+00 0. -1.
         22    1    4    4    0    0  0.15968888280E+02 -0.44809303594E+01  0.30395436033E+02  0.34626097982E+02  0.00000000000E+00 0.  1.
         22    1    4    4    0    0  0.28888197929E+02  0.33433739773E+01  0.94107585527E+02  0.98498445586E+02  0.00000000000E+00 0.  1.
<mgrwt>
<rscale>  0 0.92167674E+02</rscale>
<asrwt>0</asrwt>
<pdfrwt beam="2">  1        2 0.12228908E-02 0.92167674E+02</pdfrwt>
<pdfrwt beam="1">  1       -2 0.41103885E-01 0.92167674E+02</pdfrwt>
<totfact> 0.52815503E+04</totfact>
</mgrwt>
</event>
<event>
 7    1  0.3056193E-009  0.8280452E+02  0.7818608E-02  0.1321276E+00
          2   -1    0    0  501    0  0.00000000000E+00  0.00000000000E+00  0.28252859197E+03  0.28252859198E+03  0.25500000000E-02 0. -1.
         -2   -1    0    0    0  501 -0.00000000000E+00 -0.00000000000E+00 -0.60671634966E+01  0.60671640325E+01  0.25500000000E-02 0.  1.
         23    2    1    2    0    0  0.00000000000E+00 -0.71054273576E-14  0.27646142848E+03  0.28859575602E+03  0.82804522557E+02 0.  0.
    9000005    2    3    3    0    0  0.45638156212E+01 -0.39231519411E+02  0.11505690169E+03  0.12242908729E+03  0.13814856500E+02 0.  0.
         22    1    3    3    0    0 -0.45638156212E+01  0.39231519411E+02  0.16140452679E+03  0.16616666873E+03  0.00000000000E+00 0.  1.
         22    1    4    4    0    0 -0.13471870248E+00  0.11575166148E+01  0.38001449948E+01  0.39748076462E+01  0.00000000000E+00 0.  1.
         22    1    4    4    0    0  0.46985343237E+01 -0.40389036026E+02  0.11125675669E+03  0.11845427964E+03  0.00000000000E+00 0.  1.
<mgrwt>
<rscale>  0 0.82804523E+02</rscale>
<asrwt>0</asrwt>
<pdfrwt beam="1">  1        2 0.43465938E-01 0.82804523E+02</pdfrwt>
<pdfrwt beam="2">  1       -2 0.93340980E-03 0.82804523E+02</pdfrwt>
<totfact> 0.22689734E+05</totfact>
</mgrwt>
</event>
<event>
 7    1  0.3056193E-009  0.9222732E+02  0.7818608E-02  0.1297546E+00
         -2   -1    0    0    0  501 -0.00000000000E+00  0.00000000000E+00  0.49862632157E+02  0.49862632222E+02  0.25500000000E-02 0. -1.
          2   -1    0    0  501    0  0.00000000000E+00 -0.00000000000E+00 -0.42646553419E+02  0.42646553496E+02  0.25500000000E-02 0.  1.
         23    2    1    2    0    0  0.00000000000E+00  0.00000000000E+00  0.72160787376E+01  0.92509185718E+02  0.92227315096E+02 0.  0.
    9000005    2    3    3    0    0  0.31801934968E+02  0.19244483873E+02  0.28698822206E+02  0.49576430226E+02  0.15889833564E+02 0.  0.
         22    1    3    3    0    0 -0.31801934968E+02 -0.19244483873E+02 -0.21482743468E+02  0.42932755492E+02  0.00000000000E+00 0.  1.
         22    1    4    4    0    0  0.11273096380E+02  0.15567650708E+02  0.10526357706E+02  0.21914348202E+02  0.00000000000E+00 0.  1.
         22    1    4    4    0    0  0.20528838588E+02  0.36768331642E+01  0.18172464500E+02  0.27662082023E+02  0.00000000000E+00 0.  1.
<mgrwt>
<rscale>  0 0.92227315E+02</rscale>
<asrwt>0</asrwt>
<pdfrwt beam="2">  1        2 0.65610082E-02 0.92227315E+02</pdfrwt>
<pdfrwt beam="1">  1       -2 0.76711742E-02 0.92227315E+02</pdfrwt>
<totfact> 0.93825784E+04</totfact>
</mgrwt>
</event>
<event>
 7    1  0.3056193E-009  0.9182064E+02  0.7818608E-02  0.1298502E+00
         -2   -1    0    0    0  501 -0.00000000000E+00  0.00000000000E+00  0.27732118197E+02  0.27732118315E+02  0.25500000000E-02 0.  1.
          2   -1    0    0  501    0  0.00000000000E+00 -0.00000000000E+00 -0.76004200029E+02  0.76004200071E+02  0.25500000000E-02 0. -1.
         23    2    1    2    0    0  0.88817841970E-15 -0.71054273576E-14 -0.48272081831E+02  0.10373631839E+03  0.91820639662E+02 0.  0.
    9000005    2    3    3    0    0  0.72341788647E+01 -0.43277405877E+02 -0.15463344326E+02  0.48948724352E+02  0.15218258597E+02 0.  0.
         22    1    3    3    0    0 -0.72341788647E+01  0.43277405877E+02 -0.32808737506E+02  0.54787594033E+02  0.00000000000E+00 0.  1.
         22    1    4    4    0    0 -0.14363166639E+01  0.14568501268E-01  0.10824454181E+01  0.17985844110E+01  0.00000000000E+00 0.  1.
         22    1    4    4    0    0  0.86704955287E+01 -0.43291974378E+02 -0.16545789744E+02  0.47150139941E+02  0.00000000000E+00 0.  1.
<mgrwt>
<rscale>  0 0.91820640E+02</rscale>
<asrwt>0</asrwt>
<pdfrwt beam="2">  1        2 0.11692954E-01 0.91820640E+02</pdfrwt>
<pdfrwt beam="1">  1       -2 0.42664798E-02 0.91820640E+02</pdfrwt>
<totfact> 0.11099469E+05</totfact>
</mgrwt>
</event>
<event>
 7    1  0.3056193E-009  0.9277181E+02  0.7818608E-02  0.1296275E+00
         -2   -1    0    0    0  501 -0.00000000000E+00  0.00000000000E+00  0.39484717367E+03  0.39484717368E+03  0.25500000000E-02 0.  1.
          2   -1    0    0  501    0  0.00000000000E+00 -0.00000000000E+00 -0.54493288610E+01  0.54493294577E+01  0.25500000000E-02 0. -1.
         23    2    1    2    0    0  0.71054273576E-14  0.00000000000E+00  0.38939784481E+03  0.40029650314E+03  0.92771810810E+02 0.  0.
    9000005    2    3    3    0    0 -0.44847166696E+02 -0.10807712322E+02  0.20909149058E+03  0.21418240807E+03  0.51746969060E+01 0.  0.
         22    1    3    3    0    0  0.44847166696E+02  0.10807712322E+02  0.18030635424E+03  0.18611409507E+03  0.00000000000E+00 0.  1.
         22    1    4    4    0    0 -0.10077767893E+02 -0.46593124086E+00  0.41261148541E+02  0.42476592101E+02  0.00000000000E+00 0.  1.
         22    1    4    4    0    0 -0.34769398803E+02 -0.10341781081E+02  0.16783034204E+03  0.17170581597E+03  0.00000000000E+00 0.  1.
<mgrwt>
<rscale>  0 0.92771811E+02</rscale>
<asrwt>0</asrwt>
<pdfrwt beam="2">  1        2 0.83835820E-03 0.92771811E+02</pdfrwt>
<pdfrwt beam="1">  1       -2 0.60745729E-01 0.92771811E+02</pdfrwt>
<totfact> 0.41177193E+04</totfact>
</mgrwt>
</event>
<event>
 7    1  0.3056193E-009  0.9148398E+02  0.7818608E-02  0.1299297E+00
         -2   -1    0    0    0  501 -0.00000000000E+00  0.00000000000E+00  0.15595780667E+02  0.15595780875E+02  0.25500000000E-02 0.  1.
          2   -1    0    0  501    0  0.00000000000E+00 -0.00000000000E+00 -0.13415999375E+03  0.13415999378E+03  0.25500000000E-02 0. -1.
         23    2    1    2    0    0  0.00000000000E+00  0.00000000000E+00 -0.11856421309E+03  0.14975577465E+03  0.91483984483E+02 0.  0.
    9000005    2    3    3    0    0 -0.10001314361E+02  0.39770186987E+02 -0.32121244240E+02  0.54078813346E+02  0.14527548296E+02 0.  0.
         22    1    3    3    0    0  0.10001314361E+02 -0.39770186987E+02 -0.86442968846E+02  0.95676961306E+02  0.00000000000E+00 0.  1.
         22    1    4    4    0    0 -0.10009391575E+01  0.30703063355E+02 -0.23225855368E+02  0.38511301408E+02  0.00000000000E+00 0. -1.
         22    1    4    4    0    0 -0.90003752030E+01  0.90671236318E+01 -0.88953888722E+01  0.15567511938E+02  0.00000000000E+00 0. -1.
<mgrwt>
<rscale>  0 0.91483984E+02</rscale>
<asrwt>0</asrwt>
<pdfrwt beam="2">  1        2 0.20639998E-01 0.91483984E+02</pdfrwt>
<pdfrwt beam="1">  1       -2 0.23993510E-02 0.91483984E+02</pdfrwt>
<totfact> 0.13344169E+05</totfact>
</mgrwt>
</event>
<event>
 7    1  0.3056193E-009  0.9129274E+02  0.7818608E-02  0.1299751E+00
          2   -1    0    0  501    0  0.00000000000E+00  0.00000000000E+00  0.27912565594E+03  0.27912565595E+03  0.25500000000E-02 0. -1.
         -2   -1    0    0    0  501 -0.00000000000E+00 -0.00000000000E+00 -0.74647064232E+01  0.74647068588E+01  0.25500000000E-02 0.  1.
         23    2    1    2    0    0 -0.35527136788E-14  0.00000000000E+00  0.27166094952E+03  0.28659036281E+03  0.91292741023E+02 0.  0.
    9000005    2    3    3    0    0  0.20816752655E+02 -0.38905022343E+02  0.17112000092E+03  0.17679318480E+03  0.51804943568E+01 0.  0.
         22    1    3    3    0    0 -0.20816752655E+02  0.38905022343E+02  0.10054094860E+03  0.10979717801E+03  0.00000000000E+00 0.  1.
         22    1    4    4    0    0  0.44760525602E+01 -0.53224952300E+01  0.32040391957E+02  0.32786441081E+02  0.00000000000E+00 0. -1.
         22    1    4    4    0    0  0.16340700095E+02 -0.33582527113E+02  0.13907960897E+03  0.14400674372E+03  0.00000000000E+00 0. -1.
<mgrwt>
<rscale>  0 0.91292741E+02</rscale>
<asrwt>0</asrwt>
<pdfrwt beam="1">  1        2 0.42942398E-01 0.91292741E+02</pdfrwt>
<pdfrwt beam="2">  1       -2 0.11484167E-02 0.91292741E+02</pdfrwt>
<totfact> 0.17429968E+05</totfact>
</mgrwt>
</event>
<event>
 7    1  0.3056193E-009  0.9152963E+02  0.7818608E-02  0.1299189E+00
         -2   -1    0    0    0  501 -0.00000000000E+00  0.00000000000E+00  0.19878507427E+02  0.19878507590E+02  0.25500000000E-02 0. -1.
          2   -1    0    0  501    0  0.00000000000E+00 -0.00000000000E+00 -0.10536095195E+03  0.10536095198E+03  0.25500000000E-02 0.  1.
         23    2    1    2    0    0 -0.88817841970E-15 -0.35527136788E-14 -0.85482444523E+02  0.12523945957E+03  0.91529634064E+02 0.  0.
    9000005    2    3    3    0    0  0.68598849525E+01  0.28613125436E+02 -0.90129550428E+02  0.95450794577E+02  0.11034009074E+02 0.  0.
         22    1    3    3    0    0 -0.68598849525E+01 -0.28613125436E+02  0.46471059052E+01  0.29788664994E+02  0.00000000000E+00 0. -1.
         22    1    4    4    0    0  0.31434912354E+01  0.76316879084E+00 -0.11763154868E+02  0.12199826892E+02  0.00000000000E+00 0. -1.
         22    1    4    4    0    0  0.37163937171E+01  0.27849956646E+02 -0.78366395560E+02  0.83250967685E+02  0.00000000000E+00 0. -1.
<mgrwt>
<rscale>  0 0.91529634E+02</rscale>
<asrwt>0</asrwt>
<pdfrwt beam="2">  1        2 0.16209377E-01 0.91529634E+02</pdfrwt>
<pdfrwt beam="1">  1       -2 0.30582320E-02 0.91529634E+02</pdfrwt>
<totfact> 0.12333991E+05</totfact>
</mgrwt>
</event>
<event>
 7    1  0.3056193E-009  0.9204592E+02  0.7818608E-02  0.1297972E+00
          2   -1    0    0  501    0  0.00000000000E+00  0.00000000000E+00  0.11003779454E+03  0.11003779457E+03  0.25500000000E-02 0. -1.
         -2   -1    0    0    0  501 -0.00000000000E+00 -0.00000000000E+00 -0.19248956692E+02  0.19248956861E+02  0.25500000000E-02 0.  1.
         23    2    1    2    0    0 -0.71054273576E-14  0.00000000000E+00  0.90788837847E+02  0.12928675143E+03  0.92045917983E+02 0.  0.
    9000005    2    3    3    0    0 -0.33269231777E+02  0.18952602191E+02  0.11638178646E+02  0.41361386688E+02  0.10453429758E+02 0.  0.
         22    1    3    3    0    0  0.33269231777E+02 -0.18952602191E+02  0.79150659201E+02  0.87925364741E+02  0.00000000000E+00 0. -1.
         22    1    4    4    0    0 -0.29245890087E+02  0.12221273981E+02  0.10745834868E+02  0.33468710637E+02  0.00000000000E+00 0. -1.
         22    1    4    4    0    0 -0.40233416903E+01  0.67313282102E+01  0.89234377776E+00  0.78926760511E+01  0.00000000000E+00 0. -1.
<mgrwt>
<rscale>  0 0.92045918E+02</rscale>
<asrwt>0</asrwt>
<pdfrwt beam="1">  1        2 0.16928892E-01 0.92045918E+02</pdfrwt>
<pdfrwt beam="2">  1       -2 0.29613780E-02 0.92045918E+02</pdfrwt>
<totfact> 0.12310121E+05</totfact>
</mgrwt>
</event>
<event>
 7    1  0.3056193E-009  0.9295688E+02  0.7818608E-02  0.1295845E+00
          2   -1    0    0  501    0  0.00000000000E+00  0.00000000000E+00  0.13279991860E+03  0.13279991862E+03  0.25500000000E-02 0. -1.
         -2   -1    0    0    0  501 -0.00000000000E+00 -0.00000000000E+00 -0.16266917919E+02  0.16266918119E+02  0.25500000000E-02 0.  1.
         23    2    1    2    0    0  0.00000000000E+00 -0.35527136788E-14  0.11653300068E+03  0.14906683674E+03  0.92956880158E+02 0.  0.
    9000005    2    3    3    0    0  0.11271650058E+02  0.20983749272E+02  0.12161848096E+03  0.12471052466E+03  0.13938874496E+02 0.  0.
         22    1    3    3    0    0 -0.11271650058E+02 -0.20983749272E+02 -0.50854802777E+01  0.24356312081E+02  0.00000000000E+00 0.  1.
         22    1    4    4    0    0  0.12146798057E+02  0.91030184550E+01  0.56071900663E+02  0.58090168634E+02  0.00000000000E+00 0.  1.
         22    1    4    4    0    0 -0.87514799862E+00  0.11880730817E+02  0.65546580294E+02  0.66620356025E+02  0.00000000000E+00 0.  1.
<mgrwt>
<rscale>  0 0.92956880E+02</rscale>
<asrwt>0</asrwt>
<pdfrwt beam="1">  1        2 0.20430757E-01 0.92956880E+02</pdfrwt>
<pdfrwt beam="2">  1       -2 0.25026028E-02 0.92956880E+02</pdfrwt>
<totfact> 0.12731642E+05</totfact>
</mgrwt>
</event>
<event>
 7    1  0.3056193E-009  0.9129808E+02  0.7818608E-02  0.1299738E+00
          2   -1    0    0  501    0  0.00000000000E+00  0.00000000000E+00  0.58952988254E+02  0.58952988310E+02  0.25500000000E-02 0. -1.
         -2   -1    0    0    0  501 -0.00000000000E+00 -0.00000000000E+00 -0.35347398405E+02  0.35347398497E+02  0.25500000000E-02 0.  1.
         23    2    1    2    0    0  0.71054273576E-14  0.00000000000E+00  0.23605589849E+02  0.94300386807E+02  0.91298078182E+02 0.  0.
    9000005    2    3    3    0    0 -0.44546322604E+02 -0.35687717525E+01  0.74067290840E+01  0.46766040493E+02  0.11622904902E+02 0.  0.
         22    1    3    3    0    0  0.44546322604E+02  0.35687717525E+01  0.16198860765E+02  0.47534346313E+02  0.00000000000E+00 0. -1.
         22    1    4    4    0    0 -0.40003967569E+02 -0.46910200489E+01  0.98821413665E+01  0.41472639274E+02  0.00000000000E+00 0. -1.
         22    1    4    4    0    0 -0.45423550345E+01  0.11222482964E+01 -0.24754122826E+01  0.52934012191E+01  0.00000000000E+00 0. -1.
<mgrwt>
<rscale>  0 0.91298078E+02</rscale>
<asrwt>0</asrwt>
<pdfrwt beam="1">  1        2 0.90696905E-02 0.91298078E+02</pdfrwt>
<pdfrwt beam="2">  1       -2 0.54380613E-02 0.91298078E+02</pdfrwt>
<totfact> 0.10517450E+05</totfact>
</mgrwt>
</event>
<event>
 7    1  0.3056193E-009  0.9151064E+02  0.7818608E-02  0.1299234E+00
          2   -1    0    0  501    0  0.00000000000E+00  0.00000000000E+00  0.11799519130E+03  0.11799519132E+03  0.25500000000E-02 0. -1.
         -2   -1    0    0    0  501 -0.00000000000E+00 -0.00000000000E+00 -0.17742664973E+02  0.17742665156E+02  0.25500000000E-02 0.  1.
         23    2    1    2    0    0  0.00000000000E+00  0.00000000000E+00  0.10025252632E+03  0.13573785648E+03  0.91510636799E+02 0.  0.
    9000005    2    3    3    0    0  0.35719743158E+02 -0.15642342609E+02  0.14853323785E+02  0.41857045193E+02  0.32875631253E+01 0.  0.
         22    1    3    3    0    0 -0.35719743158E+02  0.15642342609E+02  0.85399202538E+02  0.93880811285E+02  0.00000000000E+00 0. -1.
         22    1    4    4    0    0  0.35195896570E+02 -0.15808213489E+02  0.14668832877E+02  0.41277420063E+02  0.00000000000E+00 0. -1.
         22    1    4    4    0    0  0.52384658758E+00  0.16587088043E+00  0.18449090791E+00  0.57962513006E+00  0.00000000000E+00 0. -1.
<mgrwt>
<rscale>  0 0.91510637E+02</rscale>
<asrwt>0</asrwt>
<pdfrwt beam="1">  1        2 0.18153106E-01 0.91510637E+02</pdfrwt>
<pdfrwt beam="2">  1       -2 0.27296408E-02 0.91510637E+02</pdfrwt>
<totfact> 0.12788074E+05</totfact>
</mgrwt>
</event>
<event>
 7    1  0.3056193E-009  0.8901582E+02  0.7818608E-02  0.1305253E+00
          2   -1    0    0  501    0  0.00000000000E+00  0.00000000000E+00  0.14684777861E+03  0.14684777863E+03  0.25500000000E-02 0. -1.
         -2   -1    0    0    0  501 -0.00000000000E+00 -0.00000000000E+00 -0.13489845383E+02  0.13489845624E+02  0.25500000000E-02 0.  1.
         23    2    1    2    0    0  0.00000000000E+00  0.00000000000E+00  0.13335793323E+03  0.16033762426E+03  0.89015815435E+02 0.  0.
    9000005    2    3    3    0    0 -0.45074142832E+01 -0.42923031798E+02  0.86139144973E+02  0.96366400989E+02  0.19563998905E+01 0.  0.
         22    1    3    3    0    0  0.45074142832E+01  0.42923031798E+02  0.47218788253E+02  0.63971223267E+02  0.00000000000E+00 0. -1.
         22    1    4    4    0    0 -0.32758298792E+01 -0.28297044412E+02  0.54868358646E+02  0.61822249752E+02  0.00000000000E+00 0. -1.
         22    1    4    4    0    0 -0.12315844040E+01 -0.14625987386E+02  0.31270786327E+02  0.34544151237E+02  0.00000000000E+00 0. -1.
<mgrwt>
<rscale>  0 0.89015815E+02</rscale>
<asrwt>0</asrwt>
<pdfrwt beam="1">  1        2 0.22591967E-01 0.89015815E+02</pdfrwt>
<pdfrwt beam="2">  1       -2 0.20753607E-02 0.89015815E+02</pdfrwt>
<totfact> 0.14812764E+05</totfact>
</mgrwt>
</event>
<event>
 7    1  0.3056193E-009  0.8540069E+02  0.7818608E-02  0.1314388E+00
          2   -1    0    0  501    0  0.00000000000E+00  0.00000000000E+00  0.20820418578E+02  0.20820418734E+02  0.25500000000E-02 0. -1.
         -2   -1    0    0    0  501 -0.00000000000E+00 -0.00000000000E+00 -0.87573626154E+02  0.87573626191E+02  0.25500000000E-02 0.  1.
         23    2    1    2    0    0  0.00000000000E+00  0.00000000000E+00 -0.66753207576E+02  0.10839404492E+03  0.85400692348E+02 0.  0.
    9000005    2    3    3    0    0 -0.18017211954E+02  0.13828180823E+02  0.12333257700E+02  0.26110951270E+02  0.37194111434E+01 0.  0.
         22    1    3    3    0    0  0.18017211954E+02 -0.13828180823E+02 -0.79086465276E+02  0.82283093654E+02  0.00000000000E+00 0.  1.
         22    1    4    4    0    0 -0.19022451769E+01  0.20858742500E+01  0.29195979294E+01  0.40612141250E+01  0.00000000000E+00 0.  1.
         22    1    4    4    0    0 -0.16114966777E+02  0.11742306573E+02  0.94136597710E+01  0.22049737145E+02  0.00000000000E+00 0.  1.
<mgrwt>
<rscale>  0 0.85400692E+02</rscale>
<asrwt>0</asrwt>
<pdfrwt beam="1">  1        2 0.32031414E-02 0.85400692E+02</pdfrwt>
<pdfrwt beam="2">  1       -2 0.13472865E-01 0.85400692E+02</pdfrwt>
<totfact> 0.97507341E+04</totfact>
</mgrwt>
</event>
<event>
 7    1  0.3056193E-009  0.9228065E+02  0.7818608E-02  0.1297421E+00
          2   -1    0    0  501    0  0.00000000000E+00  0.00000000000E+00  0.86354143761E+02  0.86354143799E+02  0.25500000000E-02 0. -1.
         -2   -1    0    0    0  501 -0.00000000000E+00 -0.00000000000E+00 -0.24653471765E+02  0.24653471897E+02  0.25500000000E-02 0.  1.
         23    2    1    2    0    0  0.00000000000E+00  0.00000000000E+00  0.61700671996E+02  0.11100761570E+03  0.92280647037E+02 0.  0.
    9000005    2    3    3    0    0  0.18551868365E+02 -0.31555177781E+02 -0.71993415770E-01  0.39203971939E+02  0.14037277801E+02 0.  0.
         22    1    3    3    0    0 -0.18551868365E+02  0.31555177781E+02  0.61772665412E+02  0.71803643757E+02  0.00000000000E+00 0. -1.
         22    1    4    4    0    0  0.40567623741E+01  0.76530781100E-02  0.17632490779E+01  0.44233953972E+01  0.00000000000E+00 0. -1.
         22    1    4    4    0    0  0.14495105991E+02 -0.31562830859E+02 -0.18352424936E+01  0.34780576542E+02  0.00000000000E+00 0. -1.
<mgrwt>
<rscale>  0 0.92280647E+02</rscale>
<asrwt>0</asrwt>
<pdfrwt beam="1">  1        2 0.13285253E-01 0.92280647E+02</pdfrwt>
<pdfrwt beam="2">  1       -2 0.37928418E-02 0.92280647E+02</pdfrwt>
<totfact> 0.11356569E+05</totfact>
</mgrwt>
</event>
<event>
 7    1  0.3056193E-009  0.9837195E+02  0.7818608E-02  0.1283757E+00
         -2   -1    0    0    0  501 -0.00000000000E+00  0.00000000000E+00  0.81237178164E+02  0.81237178204E+02  0.25500000000E-02 0. -1.
          2   -1    0    0  501    0  0.00000000000E+00 -0.00000000000E+00 -0.29780209011E+02  0.29780209120E+02  0.25500000000E-02 0.  1.
         23    2    1    2    0    0  0.00000000000E+00  0.00000000000E+00  0.51456969153E+02  0.11101738732E+03  0.98371950341E+02 0.  0.
    9000005    2    3    3    0    0 -0.40342343077E+02  0.34356481607E+01  0.56884552077E+02  0.70166842902E+02  0.69444405505E+01 0.  0.
         22    1    3    3    0    0  0.40342343077E+02 -0.34356481607E+01 -0.54275829238E+01  0.40850544422E+02  0.00000000000E+00 0.  1.
         22    1    4    4    0    0 -0.20186050023E+00  0.27484008332E+00  0.23707016204E+01  0.23951014396E+01  0.00000000000E+00 0. -1.
         22    1    4    4    0    0 -0.40140482577E+02  0.31608080774E+01  0.54513850457E+02  0.67771741462E+02  0.00000000000E+00 0. -1.
<mgrwt>
<rscale>  0 0.98371950E+02</rscale>
<asrwt>0</asrwt>
<pdfrwt beam="2">  1        2 0.45815706E-02 0.98371950E+02</pdfrwt>
<pdfrwt beam="1">  1       -2 0.12498028E-01 0.98371950E+02</pdfrwt>
<totfact> 0.70296145E+04</totfact>
</mgrwt>
</event>
<event>
 7    1  0.3056193E-009  0.9170815E+02  0.7818608E-02  0.1298767E+00
         -2   -1    0    0    0  501 -0.00000000000E+00  0.00000000000E+00  0.52879511639E+01  0.52879517788E+01  0.25500000000E-02 0.  1.
          2   -1    0    0  501    0  0.00000000000E+00 -0.00000000000E+00 -0.39762017292E+03  0.39762017293E+03  0.25500000000E-02 0. -1.
         23    2    1    2    0    0  0.00000000000E+00  0.00000000000E+00 -0.39233222176E+03  0.40290812471E+03  0.91708149730E+02 0.  0.
    9000005    2    3    3    0    0 -0.28608388268E+02 -0.46792383032E+01 -0.35087956153E+03  0.35232494380E+03  0.13268917721E+02 0.  0.
         22    1    3    3    0    0  0.28608388268E+02  0.46792383032E+01 -0.41452660229E+02  0.50583180905E+02  0.00000000000E+00 0.  1.
         22    1    4    4    0    0 -0.20665918742E+02  0.10151677261E+01 -0.28165040773E+03  0.28240938890E+03  0.00000000000E+00 0. -1.
         22    1    4    4    0    0 -0.79424695254E+01 -0.56944060293E+01 -0.69229153795E+02  0.69915554903E+02  0.00000000000E+00 0. -1.
<mgrwt>
<rscale>  0 0.91708150E+02</rscale>
<asrwt>0</asrwt>
<pdfrwt beam="2">  1        2 0.61172311E-01 0.91708150E+02</pdfrwt>
<pdfrwt beam="1">  1       -2 0.81353131E-03 0.91708150E+02</pdfrwt>
<totfact> 0.19614709E+05</totfact>
</mgrwt>
</event>
<event>
 7    1  0.3056193E-009  0.9668037E+02  0.7818608E-02  0.1287436E+00
          2   -1    0    0  501    0  0.00000000000E+00  0.00000000000E+00  0.36396529133E+03  0.36396529134E+03  0.25500000000E-02 0. -1.
         -2   -1    0    0    0  501 -0.00000000000E+00 -0.00000000000E+00 -0.64203197486E+01  0.64203202550E+01  0.25500000000E-02 0.  1.
         23    2    1    2    0    0  0.00000000000E+00  0.00000000000E+00  0.35754497158E+03  0.37038561160E+03  0.96680373255E+02 0.  0.
    9000005    2    3    3    0    0 -0.43481682806E+02 -0.17118590583E+02  0.13513929492E+03  0.14312367484E+03  0.61688237674E+01 0.  0.
         22    1    3    3    0    0  0.43481682806E+02  0.17118590583E+02  0.22240567667E+03  0.22726193675E+03  0.00000000000E+00 0. -1.
         22    1    4    4    0    0 -0.25320076470E+02 -0.78624413622E+01  0.83438965166E+02  0.87549900997E+02  0.00000000000E+00 0. -1.
         22    1    4    4    0    0 -0.18161606337E+02 -0.92561492211E+01  0.51700329752E+02  0.55573773847E+02  0.00000000000E+00 0. -1.
<mgrwt>
<rscale>  0 0.96680373E+02</rscale>
<asrwt>0</asrwt>
<pdfrwt beam="1">  1        2 0.55994661E-01 0.96680373E+02</pdfrwt>
<pdfrwt beam="2">  1       -2 0.98774152E-03 0.96680373E+02</pdfrwt>
<totfact> 0.16499756E+05</totfact>
</mgrwt>
</event>
<event>
 7    1  0.3056193E-009  0.9052989E+02  0.7818608E-02  0.1301574E+00
         -2   -1    0    0    0  501 -0.00000000000E+00  0.00000000000E+00  0.20837244743E+01  0.20837260346E+01  0.25500000000E-02 0. -1.
          2   -1    0    0  501    0  0.00000000000E+00 -0.00000000000E+00 -0.98329431647E+03  0.98329431647E+03  0.25500000000E-02 0.  1.
         23    2    1    2    0    0  0.00000000000E+00  0.00000000000E+00 -0.98121059199E+03  0.98537804250E+03  0.90529889054E+02 0.  0.
    9000005    2    3    3    0    0  0.98085666783E+01  0.17533792814E+02 -0.93076438526E+03  0.93107830361E+03  0.13447107764E+02 0.  0.
         22    1    3    3    0    0 -0.98085666783E+01 -0.17533792814E+02 -0.50446206733E+02  0.54299738899E+02  0.00000000000E+00 0. -1.
         22    1    4    4    0    0  0.28288512815E+01  0.53774985438E+01 -0.93826760272E+02  0.94023299417E+02  0.00000000000E+00 0. -1.
         22    1    4    4    0    0  0.69797153968E+01  0.12156294271E+02 -0.83693762499E+03  0.83705500419E+03  0.00000000000E+00 0. -1.
<mgrwt>
<rscale>  0 0.90529889E+02</rscale>
<asrwt>0</asrwt>
<pdfrwt beam="2">  1        2 0.15127568E+00 0.90529889E+02</pdfrwt>
<pdfrwt beam="1">  1       -2 0.32057390E-03 0.90529889E+02</pdfrwt>
<totfact> 0.25453200E+05</totfact>
</mgrwt>
</event>
<event>
 7    1  0.3056193E-009  0.1060358E+03  0.7818608E-02  0.1268092E+00
          2   -1    0    0  501    0  0.00000000000E+00  0.00000000000E+00  0.19098376708E+04  0.19098376708E+04  0.25500000000E-02 0.  1.
         -2   -1    0    0    0  501 -0.00000000000E+00 -0.00000000000E+00 -0.14717973069E+01  0.14717995160E+01  0.25500000000E-02 0. -1.
         23    2    1    2    0    0 -0.35527136788E-14  0.00000000000E+00  0.19083658735E+04  0.19113094703E+04  0.10603576856E+03 0.  0.
    9000005    2    3    3    0    0 -0.19949522240E+02  0.16409566201E+02  0.17884191065E+04  0.17886127539E+04  0.50423929021E+01 0.  0.
         22    1    3    3    0    0  0.19949522240E+02 -0.16409566201E+02  0.11994676704E+03  0.12269671644E+03  0.00000000000E+00 0. -1.
         22    1    4    4    0    0 -0.67958546649E+01  0.65586521545E+01  0.81787568757E+03  0.81793021699E+03  0.00000000000E+00 0. -1.
         22    1    4    4    0    0 -0.13153667575E+02  0.98509140461E+01  0.97054341891E+03  0.97068253691E+03  0.00000000000E+00 0. -1.
<mgrwt>
<rscale>  0 0.10603577E+03</rscale>
<asrwt>0</asrwt>
<pdfrwt beam="1">  1        2 0.29382067E+00 0.10603577E+03</pdfrwt>
<pdfrwt beam="2">  1       -2 0.22643092E-03 0.10603577E+03</pdfrwt>
<totfact> 0.13714976E+05</totfact>
</mgrwt>
</event>
<event>
 7    1  0.3056193E-009  0.9914069E+02  0.7818608E-02  0.1282113E+00
          2   -1    0    0  501    0  0.00000000000E+00  0.00000000000E+00  0.50624369961E+03  0.50624369961E+03  0.25500000000E-02 0. -1.
         -2   -1    0    0    0  501 -0.00000000000E+00 -0.00000000000E+00 -0.48538258572E+01  0.48538265271E+01  0.25500000000E-02 0.  1.
         23    2    1    2    0    0  0.00000000000E+00  0.00000000000E+00  0.50138987375E+03  0.51109752614E+03  0.99140686542E+02 0.  0.
    9000005    2    3    3    0    0 -0.37885060314E+02 -0.22796018582E+02  0.36576262381E+03  0.36844519639E+03  0.38248536254E+01 0.  0.
         22    1    3    3    0    0  0.37885060314E+02  0.22796018582E+02  0.13562724994E+03  0.14265232975E+03  0.00000000000E+00 0. -1.
         22    1    4    4    0    0 -0.28271048204E+02 -0.18894646387E+02  0.27949318850E+03  0.28155408405E+03  0.00000000000E+00 0.  1.
         22    1    4    4    0    0 -0.96140121091E+01 -0.39013721948E+01  0.86269435315E+02  0.86891112339E+02  0.00000000000E+00 0.  1.
<mgrwt>
<rscale>  0 0.99140687E+02</rscale>
<asrwt>0</asrwt>
<pdfrwt beam="1">  1        2 0.77883625E-01 0.99140687E+02</pdfrwt>
<pdfrwt beam="2">  1       -2 0.74674270E-03 0.99140687E+02</pdfrwt>
<totfact> 0.17318115E+05</totfact>
</mgrwt>
</event>
<event>
 7    1  0.3056193E-009  0.9023786E+02  0.7818608E-02  0.1302277E+00
         -2   -1    0    0    0  501 -0.00000000000E+00  0.00000000000E+00  0.51052621081E+02  0.51052621145E+02  0.25500000000E-02 0.  1.
          2   -1    0    0  501    0  0.00000000000E+00 -0.00000000000E+00 -0.39874896957E+02  0.39874897039E+02  0.25500000000E-02 0. -1.
         23    2    1    2    0    0  0.00000000000E+00  0.00000000000E+00  0.11177724124E+02  0.90927518184E+02  0.90237863708E+02 0.  0.
    9000005    2    3    3    0    0  0.34133835759E+02  0.27852296588E+02  0.12885950028E+02  0.46839116029E+02  0.93266239007E+01 0.  0.
         22    1    3    3    0    0 -0.34133835759E+02 -0.27852296588E+02 -0.17082259042E+01  0.44088402155E+02  0.00000000000E+00 0. -1.
         22    1    4    4    0    0  0.99449443275E+01  0.87231364418E+01 -0.45965144442E+00  0.13236551912E+02  0.00000000000E+00 0. -1.
         22    1    4    4    0    0  0.24188891432E+02  0.19129160146E+02  0.13345601473E+02  0.33602564117E+02  0.00000000000E+00 0. -1.
<mgrwt>
<rscale>  0 0.90237864E+02</rscale>
<asrwt>0</asrwt>
<pdfrwt beam="2">  1        2 0.61345996E-02 0.90237864E+02</pdfrwt>
<pdfrwt beam="1">  1       -2 0.78542494E-02 0.90237864E+02</pdfrwt>
<totfact> 0.98207758E+04</totfact>
</mgrwt>
</event>
<event>
 7    1  0.3056193E-009  0.8692656E+02  0.7818608E-02  0.1310470E+00
          2   -1    0    0  501    0  0.00000000000E+00  0.00000000000E+00  0.62202622777E+02  0.62202622829E+02  0.25500000000E-02 0. -1.
         -2   -1    0    0    0  501 -0.00000000000E+00 -0.00000000000E+00 -0.30369405457E+02  0.30369405564E+02  0.25500000000E-02 0.  1.
         23    2    1    2    0    0  0.00000000000E+00  0.00000000000E+00  0.31833217320E+02  0.92572028394E+02  0.86926559325E+02 0.  0.
    9000005    2    3    3    0    0 -0.40434990370E+02 -0.90435073121E+01  0.32693657450E+01  0.42246417742E+02  0.75695170854E+01 0.  0.
         22    1    3    3    0    0  0.40434990370E+02  0.90435073121E+01  0.28563851575E+02  0.50325610652E+02  0.00000000000E+00 0. -1.
         22    1    4    4    0    0 -0.19539020787E+01 -0.21283430303E+01  0.10908257635E+01  0.30882807893E+01  0.00000000000E+00 0. -1.
         22    1    4    4    0    0 -0.38481088291E+02 -0.69151642819E+01  0.21785399815E+01  0.39158136952E+02  0.00000000000E+00 0. -1.
<mgrwt>
<rscale>  0 0.86926559E+02</rscale>
<asrwt>0</asrwt>
<pdfrwt beam="1">  1        2 0.95696342E-02 0.86926559E+02</pdfrwt>
<pdfrwt beam="2">  1       -2 0.46722163E-02 0.86926559E+02</pdfrwt>
<totfact> 0.12242655E+05</totfact>
</mgrwt>
</event>
<event>
 7    1  0.3056193E-009  0.9068903E+02  0.7818608E-02  0.1301192E+00
          2   -1    0    0  501    0  0.00000000000E+00  0.00000000000E+00  0.12532782125E+03  0.12532782127E+03  0.25500000000E-02 0. -1.
         -2   -1    0    0    0  501 -0.00000000000E+00 -0.00000000000E+00 -0.16405975309E+02  0.16405975507E+02  0.25500000000E-02 0.  1.
         23    2    1    2    0    0  0.88817841970E-15  0.00000000000E+00  0.10892184594E+03  0.14173379678E+03  0.90689032562E+02 0.  0.
    9000005    2    3    3    0    0 -0.59692059041E+01 -0.42496197224E+02  0.37980757307E+02  0.58823023934E+02  0.13268459655E+02 0.  0.
         22    1    3    3    0    0  0.59692059041E+01  0.42496197224E+02  0.70941088633E+02  0.82910772846E+02  0.00000000000E+00 0. -1.
         22    1    4    4    0    0  0.40324361805E+01 -0.77450567750E+01  0.66367659914E+01  0.10967821517E+02  0.00000000000E+00 0. -1.
         22    1    4    4    0    0 -0.10001642085E+02 -0.34751140449E+02  0.31343991315E+02  0.47855202418E+02  0.00000000000E+00 0. -1.
<mgrwt>
<rscale>  0 0.90689033E+02</rscale>
<asrwt>0</asrwt>
<pdfrwt beam="1">  1        2 0.19281204E-01 0.90689033E+02</pdfrwt>
<pdfrwt beam="2">  1       -2 0.25239961E-02 0.90689033E+02</pdfrwt>
<totfact> 0.13363871E+05</totfact>
</mgrwt>
</event>
<event>
 7    1  0.3056193E-009  0.8837141E+02  0.7818608E-02  0.1306844E+00
         -2   -1    0    0    0  501 -0.00000000000E+00  0.00000000000E+00  0.23430539880E+01  0.23430553756E+01  0.25500000000E-02 0.  1.
          2   -1    0    0  501    0  0.00000000000E+00 -0.00000000000E+00 -0.83326117726E+03  0.83326117727E+03  0.25500000000E-02 0. -1.
         23    2    1    2    0    0  0.00000000000E+00  0.00000000000E+00 -0.83091812327E+03  0.83560423264E+03  0.88371409535E+02 0.  0.
    9000005    2    3    3    0    0 -0.14329906711E+02  0.53675918389E+01 -0.80659072177E+03  0.80686436952E+03  0.14400037561E+02 0.  0.
         22    1    3    3    0    0  0.14329906711E+02 -0.53675918389E+01 -0.24327401505E+02  0.28739863125E+02  0.00000000000E+00 0.  1.
         22    1    4    4    0    0 -0.15632759696E+02  0.11456606318E+01 -0.70954842617E+03  0.70972154032E+03  0.00000000000E+00 0. -1.
         22    1    4    4    0    0  0.13028529849E+01  0.42219312071E+01 -0.97042295597E+02  0.97142829193E+02  0.00000000000E+00 0. -1.
<mgrwt>
<rscale>  0 0.88371410E+02</rscale>
<asrwt>0</asrwt>
<pdfrwt beam="2">  1        2 0.12819379E+00 0.88371410E+02</pdfrwt>
<pdfrwt beam="1">  1       -2 0.36047062E-03 0.88371410E+02</pdfrwt>
<totfact> 0.26641302E+05</totfact>
</mgrwt>
</event>
<event>
 7    1  0.3496429E-009  0.9186975E+02  0.7818608E-02  0.1298386E+00
          2   -1    0    0  501    0  0.00000000000E+00  0.00000000000E+00  0.50962609656E+03  0.50962609656E+03  0.25500000000E-02 0.  1.
         -2   -1    0    0    0  501 -0.00000000000E+00 -0.00000000000E+00 -0.41403149523E+01  0.41403157376E+01  0.25500000000E-02 0. -1.
         23    2    1    2    0    0  0.17763568394E-14 -0.88817841970E-15  0.50548578160E+03  0.51376641230E+03  0.91869750213E+02 0.  0.
    9000005    2    3    3    0    0  0.14257744207E+02 -0.55900166057E+01  0.49431999844E+03  0.49481367453E+03  0.15930476498E+02 0.  0.
         22    1    3    3    0    0 -0.14257744207E+02  0.55900166057E+01  0.11165783159E+02  0.18952737773E+02  0.00000000000E+00 0. -1.
         22    1    4    4    0    0  0.46825176674E+01 -0.62932006447E+01  0.38302742292E+03  0.38310773558E+03  0.00000000000E+00 0.  1.
         22    1    4    4    0    0  0.95752265397E+01  0.70318403893E+00  0.11129257552E+03  0.11170593895E+03  0.00000000000E+00 0.  1.
<mgrwt>
<rscale>  0 0.91869750E+02</rscale>
<asrwt>0</asrwt>
<pdfrwt beam="1">  1        2 0.78403966E-01 0.91869750E+02</pdfrwt>
<pdfrwt beam="2">  1       -2 0.63697199E-03 0.91869750E+02</pdfrwt>
<totfact> 0.21252487E+05</totfact>
</mgrwt>
</event>
<event>
 7    1  0.3056193E-009  0.8955977E+02  0.7818608E-02  0.1303921E+00
          2   -1    0    0  501    0  0.00000000000E+00  0.00000000000E+00  0.25690801047E+03  0.25690801049E+03  0.25500000000E-02 0.  1.
         -2   -1    0    0    0  501 -0.00000000000E+00 -0.00000000000E+00 -0.78052762729E+01  0.78052766895E+01  0.25500000000E-02 0. -1.
         23    2    1    2    0    0  0.35527136788E-14  0.00000000000E+00  0.24910273420E+03  0.26471328718E+03  0.89559768988E+02 0.  0.
    9000005    2    3    3    0    0 -0.28338243039E+02 -0.24367120282E+02  0.53789010439E+02  0.65855892898E+02  0.68504318085E+01 0.  0.
         22    1    3    3    0    0  0.28338243039E+02  0.24367120282E+02  0.19531372376E+03  0.19885739428E+03  0.00000000000E+00 0.  1.
         22    1    4    4    0    0 -0.18548798841E+02 -0.19141754387E+02  0.34427333207E+02  0.43539705685E+02  0.00000000000E+00 0.  1.
         22    1    4    4    0    0 -0.97894441983E+01 -0.52253658955E+01  0.19361677232E+02  0.22316187212E+02  0.00000000000E+00 0.  1.
<mgrwt>
<rscale>  0 0.89559769E+02</rscale>
<asrwt>0</asrwt>
<pdfrwt beam="1">  1        2 0.39524312E-01 0.89559769E+02</pdfrwt>
<pdfrwt beam="2">  1       -2 0.12008117E-02 0.89559769E+02</pdfrwt>
<totfact> 0.17786953E+05</totfact>
</mgrwt>
</event>
<event>
 7    1  0.3056193E-009  0.8863189E+02  0.7818608E-02  0.1306199E+00
         -2   -1    0    0    0  501 -0.00000000000E+00  0.00000000000E+00  0.91910709357E+01  0.91910712894E+01  0.25500000000E-02 0.  1.
          2   -1    0    0  501    0  0.00000000000E+00 -0.00000000000E+00 -0.21367508903E+03  0.21367508905E+03  0.25500000000E-02 0. -1.
         23    2    1    2    0    0  0.35527136788E-14  0.71054273576E-14 -0.20448401810E+03  0.22286616034E+03  0.88631889106E+02 0.  0.
    9000005    2    3    3    0    0  0.20102971936E+02 -0.36539471652E+02 -0.13108032574E+03  0.13844244020E+03  0.15652315637E+02 0.  0.
         22    1    3    3    0    0 -0.20102971936E+02  0.36539471652E+02 -0.73403692364E+02  0.84423720138E+02  0.00000000000E+00 0.  1.
         22    1    4    4    0    0  0.18912105398E+02 -0.38126058281E+02 -0.12552457626E+03  0.13254313750E+03  0.00000000000E+00 0.  1.
         22    1    4    4    0    0  0.11908665376E+01  0.15865866286E+01 -0.55557494705E+01  0.58993027062E+01  0.00000000000E+00 0.  1.
<mgrwt>
<rscale>  0 0.88631889E+02</rscale>
<asrwt>0</asrwt>
<pdfrwt beam="2">  1        2 0.32873087E-01 0.88631889E+02</pdfrwt>
<pdfrwt beam="1">  1       -2 0.14140111E-02 0.88631889E+02</pdfrwt>
<totfact> 0.17093864E+05</totfact>
</mgrwt>
</event>
<event>
 7    1  0.3056193E-009  0.9065328E+02  0.7818608E-02  0.1301277E+00
         -2   -1    0    0    0  501 -0.00000000000E+00  0.00000000000E+00  0.56197075608E+02  0.56197075666E+02  0.25500000000E-02 0.  1.
          2   -1    0    0  501    0  0.00000000000E+00 -0.00000000000E+00 -0.36558916071E+02  0.36558916160E+02  0.25500000000E-02 0. -1.
         23    2    1    2    0    0  0.00000000000E+00  0.00000000000E+00  0.19638159537E+02  0.92755991826E+02  0.90653277434E+02 0.  0.
    9000005    2    3    3    0    0  0.89062368073E+01  0.35576553615E+02  0.35465939397E+02  0.52811895434E+02  0.13647388792E+02 0.  0.
         22    1    3    3    0    0 -0.89062368073E+01 -0.35576553615E+02 -0.15827779860E+02  0.39944096391E+02  0.00000000000E+00 0.  1.
         22    1    4    4    0    0  0.21723584149E+01  0.13183749225E+02  0.22245948286E+02  0.25950194601E+02  0.00000000000E+00 0.  1.
         22    1    4    4    0    0  0.67338783924E+01  0.22392804391E+02  0.13219991111E+02  0.26861700833E+02  0.00000000000E+00 0.  1.
<mgrwt>
<rscale>  0 0.90653277E+02</rscale>
<asrwt>0</asrwt>
<pdfrwt beam="2">  1        2 0.56244487E-02 0.90653277E+02</pdfrwt>
<pdfrwt beam="1">  1       -2 0.86457038E-02 0.90653277E+02</pdfrwt>
<totfact> 0.94766638E+04</totfact>
</mgrwt>
</event>
<event>
 7    1  0.3056193E-009  0.1021123E+03  0.7818608E-02  0.1275916E+00
          2   -1    0    0  501    0  0.00000000000E+00  0.00000000000E+00  0.17848348387E+02  0.17848348569E+02  0.25500000000E-02 0. -1.
         -2   -1    0    0    0  501 -0.00000000000E+00 -0.00000000000E+00 -0.14604871763E+03  0.14604871765E+03  0.25500000000E-02 0.  1.
         23    2    1    2    0    0  0.17763568394E-14  0.00000000000E+00 -0.12820036924E+03  0.16389706622E+03  0.10211226000E+03 0.  0.
    9000005    2    3    3    0    0  0.12166275328E+02  0.22485989593E+02 -0.13474428002E+03  0.13750652337E+03  0.99189207152E+01 0.  0.
         22    1    3    3    0    0 -0.12166275328E+02 -0.22485989593E+02  0.65439107824E+01  0.26390542845E+02  0.00000000000E+00 0. -1.
         22    1    4    4    0    0  0.10183107120E+02  0.85676397453E+01 -0.61132504778E+02  0.62564233088E+02  0.00000000000E+00 0. -1.
         22    1    4    4    0    0  0.19831682075E+01  0.13918349848E+02 -0.73611775242E+02  0.74942290283E+02  0.00000000000E+00 0. -1.
<mgrwt>
<rscale>  0 0.10211226E+03</rscale>
<asrwt>0</asrwt>
<pdfrwt beam="1">  1        2 0.27458999E-02 0.10211226E+03</pdfrwt>
<pdfrwt beam="2">  1       -2 0.22469033E-01 0.10211226E+03</pdfrwt>
<totfact> 0.52952867E+04</totfact>
</mgrwt>
</event>
<event>
 7    1  0.3056193E-009  0.1044273E+03  0.7818608E-02  0.1271252E+00
          2   -1    0    0  501    0  0.00000000000E+00  0.00000000000E+00  0.34323581202E+03  0.34323581203E+03  0.25500000000E-02 0. -1.
         -2   -1    0    0    0  501 -0.00000000000E+00 -0.00000000000E+00 -0.79428410906E+01  0.79428414999E+01  0.25500000000E-02 0.  1.
         23    2    1    2    0    0  0.00000000000E+00  0.00000000000E+00  0.33529297093E+03  0.35117865353E+03  0.10442734479E+03 0.  0.
    9000005    2    3    3    0    0  0.35249221306E+02 -0.49860837411E+01  0.29574100279E+03  0.29796468151E+03  0.72692548929E+01 0.  0.
         22    1    3    3    0    0 -0.35249221306E+02  0.49860837411E+01  0.39551968146E+02  0.53213972018E+02  0.00000000000E+00 0.  1.
         22    1    4    4    0    0 -0.23361523253E+00 -0.40461301039E+00  0.69982483850E+01  0.70138269313E+01  0.00000000000E+00 0.  1.
         22    1    4    4    0    0  0.35482836539E+02 -0.45814707307E+01  0.28874275440E+03  0.29095085458E+03  0.00000000000E+00 0.  1.
<mgrwt>
<rscale>  0 0.10442734E+03</rscale>
<asrwt>0</asrwt>
<pdfrwt beam="1">  1        2 0.52805497E-01 0.10442734E+03</pdfrwt>
<pdfrwt beam="2">  1       -2 0.12219759E-02 0.10442734E+03</pdfrwt>
<totfact> 0.13123103E+05</totfact>
</mgrwt>
</event>
<event>
 7    1  0.3056193E-009  0.8681183E+02  0.7818608E-02  0.1310761E+00
         -2   -1    0    0    0  501 -0.00000000000E+00  0.00000000000E+00  0.36870688854E+01  0.36870697672E+01  0.25500000000E-02 0.  1.
          2   -1    0    0  501    0  0.00000000000E+00 -0.00000000000E+00 -0.51099487321E+03  0.51099487322E+03  0.25500000000E-02 0. -1.
         23    2    1    2    0    0  0.00000000000E+00  0.00000000000E+00 -0.50730780432E+03  0.51468194298E+03  0.86811831594E+02 0.  0.
    9000005    2    3    3    0    0 -0.33493505887E+01 -0.38153439347E+02 -0.37267473630E+03  0.37470706635E+03  0.72127256634E+01 0.  0.
         22    1    3    3    0    0  0.33493505887E+01  0.38153439347E+02 -0.13463306802E+03  0.13997487663E+03  0.00000000000E+00 0.  1.
         22    1    4    4    0    0 -0.25068104508E+01 -0.98381186747E+01 -0.12681745776E+03  0.12722319077E+03  0.00000000000E+00 0. -1.
         22    1    4    4    0    0 -0.84254013785E+00 -0.28315320672E+02 -0.24585727854E+03  0.24748387558E+03  0.00000000000E+00 0. -1.
<mgrwt>
<rscale>  0 0.86811832E+02</rscale>
<asrwt>0</asrwt>
<pdfrwt beam="2">  1        2 0.78614540E-01 0.86811832E+02</pdfrwt>
<pdfrwt beam="1">  1       -2 0.56724184E-03 0.86811832E+02</pdfrwt>
<totfact> 0.24700231E+05</totfact>
</mgrwt>
</event>
<event>
 7    1  0.3056193E-009  0.7901595E+02  0.7818608E-02  0.1331867E+00
          2   -1    0    0  501    0  0.00000000000E+00  0.00000000000E+00  0.76706983768E+03  0.76706983768E+03  0.25500000000E-02 0. -1.
         -2   -1    0    0    0  501 -0.00000000000E+00 -0.00000000000E+00 -0.20348596826E+01  0.20348612804E+01  0.25500000000E-02 0.  1.
         23    2    1    2    0    0 -0.35527136788E-14  0.00000000000E+00  0.76503497800E+03  0.76910469896E+03  0.79015950352E+02 0.  0.
    9000005    2    3    3    0    0 -0.16145815032E+02  0.10291953956E+02  0.71667501556E+03  0.71709222329E+03  0.15217329276E+02 0.  0.
         22    1    3    3    0    0  0.16145815032E+02 -0.10291953956E+02  0.48359962438E+02  0.52012475679E+02  0.00000000000E+00 0.  1.
         22    1    4    4    0    0 -0.18618285306E+02  0.91297186224E+01  0.54312602489E+03  0.54352173022E+03  0.00000000000E+00 0.  1.
         22    1    4    4    0    0  0.24724702743E+01  0.11622353331E+01  0.17354899067E+03  0.17357049306E+03  0.00000000000E+00 0.  1.
<mgrwt>
<rscale>  0 0.79015950E+02</rscale>
<asrwt>0</asrwt>
<pdfrwt beam="1">  1        2 0.11801085E+00 0.79015950E+02</pdfrwt>
<pdfrwt beam="2">  1       -2 0.31305517E-03 0.79015950E+02</pdfrwt>
<totfact> 0.35173849E+05</totfact>
</mgrwt>
</event>
<event>
 7    1  0.3056193E-009  0.9046962E+02  0.7818608E-02  0.1301718E+00
          2   -1    0    0  501    0  0.00000000000E+00  0.00000000000E+00  0.59535656355E+02  0.59535656409E+02  0.25500000000E-02 0.  1.
         -2   -1    0    0    0  501 -0.00000000000E+00 -0.00000000000E+00 -0.34369122186E+02  0.34369122280E+02  0.25500000000E-02 0. -1.
         23    2    1    2    0    0  0.00000000000E+00  0.00000000000E+00  0.25166534169E+02  0.93904778689E+02  0.90469624840E+02 0.  0.
    9000005    2    3    3    0    0 -0.37939522285E+02 -0.23031133068E+02  0.16190490906E+02  0.48623327804E+02  0.11500242146E+02 0.  0.
         22    1    3    3    0    0  0.37939522285E+02  0.23031133068E+02  0.89760432632E+01  0.45281450885E+02  0.00000000000E+00 0.  1.
         22    1    4    4    0    0 -0.39193925300E+01 -0.72277860430E+01  0.16127269138E+01  0.83787479367E+01  0.00000000000E+00 0. -1.
         22    1    4    4    0    0 -0.34020129755E+02 -0.15803347025E+02  0.14577763992E+02  0.40244579868E+02  0.00000000000E+00 0. -1.
<mgrwt>
<rscale>  0 0.90469625E+02</rscale>
<asrwt>0</asrwt>
<pdfrwt beam="1">  1        2 0.91593317E-02 0.90469625E+02</pdfrwt>
<pdfrwt beam="2">  1       -2 0.52875573E-02 0.90469625E+02</pdfrwt>
<totfact> 0.10819712E+05</totfact>
</mgrwt>
</event>
<event>
 7    1  0.3056193E-009  0.9618602E+02  0.7818608E-02  0.1288527E+00
          2   -1    0    0  501    0  0.00000000000E+00  0.00000000000E+00  0.13055117892E+04  0.13055117892E+04  0.25500000000E-02 0. -1.
         -2   -1    0    0    0  501 -0.00000000000E+00 -0.00000000000E+00 -0.17716703680E+01  0.17716722031E+01  0.25500000000E-02 0.  1.
         23    2    1    2    0    0  0.88817841970E-15 -0.35527136788E-14  0.13037401188E+04  0.13072834614E+04  0.96186022957E+02 0.  0.
    9000005    2    3    3    0    0 -0.47785438029E+01  0.31815362403E+02  0.11351683610E+04  0.11356690992E+04  0.10101651865E+02 0.  0.
         22    1    3    3    0    0  0.47785438029E+01 -0.31815362403E+02  0.16857175786E+03  0.17161436220E+03  0.00000000000E+00 0.  1.
         22    1    4    4    0    0 -0.63571912246E+01  0.31106643872E+02  0.11001107549E+04  0.11005688121E+04  0.00000000000E+00 0.  1.
         22    1    4    4    0    0  0.15786474217E+01  0.70871853047E+00  0.35057606067E+02  0.35100287075E+02  0.00000000000E+00 0.  1.
<mgrwt>
<rscale>  0 0.96186023E+02</rscale>
<asrwt>0</asrwt>
<pdfrwt beam="1">  1        2 0.20084782E+00 0.96186023E+02</pdfrwt>
<pdfrwt beam="2">  1       -2 0.27256502E-03 0.96186023E+02</pdfrwt>
<totfact> 0.21316566E+05</totfact>
</mgrwt>
</event>
<event>
 7    1  0.3056193E-009  0.9056703E+02  0.7818608E-02  0.1301484E+00
          2   -1    0    0  501    0  0.00000000000E+00  0.00000000000E+00  0.13773589643E+03  0.13773589646E+03  0.25500000000E-02 0. -1.
         -2   -1    0    0    0  501 -0.00000000000E+00 -0.00000000000E+00 -0.14887890415E+02  0.14887890633E+02  0.25500000000E-02 0.  1.
         23    2    1    2    0    0  0.00000000000E+00  0.00000000000E+00  0.12284800602E+03  0.15262378709E+03  0.90567034858E+02 0.  0.
    9000005    2    3    3    0    0 -0.20305740820E+02 -0.33929402568E+02  0.98355147706E+02  0.10611112669E+03  0.47232043195E+01 0.  0.
         22    1    3    3    0    0  0.20305740820E+02  0.33929402568E+02  0.24492858313E+02  0.46512660397E+02  0.00000000000E+00 0.  1.
         22    1    4    4    0    0 -0.10287991824E+02 -0.14951147441E+02  0.50581780846E+02  0.53739149036E+02  0.00000000000E+00 0. -1.
         22    1    4    4    0    0 -0.10017748996E+02 -0.18978255127E+02  0.47773366860E+02  0.52371977657E+02  0.00000000000E+00 0. -1.
<mgrwt>
<rscale>  0 0.90567035E+02</rscale>
<asrwt>0</asrwt>
<pdfrwt beam="1">  1        2 0.21190138E-01 0.90567035E+02</pdfrwt>
<pdfrwt beam="2">  1       -2 0.22904447E-02 0.90567035E+02</pdfrwt>
<totfact> 0.13835356E+05</totfact>
</mgrwt>
</event>
<event>
 7    1  0.3056193E-009  0.9044829E+02  0.7818608E-02  0.1301770E+00
         -2   -1    0    0    0  501 -0.00000000000E+00  0.00000000000E+00  0.17771990299E+03  0.17771990301E+03  0.25500000000E-02 0. -1.
          2   -1    0    0  501    0  0.00000000000E+00 -0.00000000000E+00 -0.11508126015E+02  0.11508126298E+02  0.25500000000E-02 0.  1.
         23    2    1    2    0    0  0.00000000000E+00  0.00000000000E+00  0.16621177697E+03  0.18922802930E+03  0.90448285058E+02 0.  0.
    9000005    2    3    3    0    0 -0.36520691970E+02  0.57655537955E+01  0.13493860137E+03  0.14080268403E+03  0.15810349073E+02 0.  0.
         22    1    3    3    0    0  0.36520691970E+02 -0.57655537955E+01  0.31273175599E+02  0.48425345271E+02  0.00000000000E+00 0.  1.
         22    1    4    4    0    0 -0.24375740376E+02  0.80886397934E+01  0.11010850793E+03  0.11306408064E+03  0.00000000000E+00 0. -1.
         22    1    4    4    0    0 -0.12144951594E+02 -0.23230859979E+01  0.24830093448E+02  0.27738603397E+02  0.00000000000E+00 0. -1.
<mgrwt>
<rscale>  0 0.90448285E+02</rscale>
<asrwt>0</asrwt>
<pdfrwt beam="2">  1        2 0.17704811E-02 0.90448285E+02</pdfrwt>
<pdfrwt beam="1">  1       -2 0.27341521E-01 0.90448285E+02</pdfrwt>
<totfact> 0.66819851E+04</totfact>
</mgrwt>
</event>
<event>
 7    1  0.3056193E-009  0.8953747E+02  0.7818608E-02  0.1303976E+00
          2   -1    0    0  501    0  0.00000000000E+00  0.00000000000E+00  0.39639697943E+03  0.39639697944E+03  0.25500000000E-02 0. -1.
         -2   -1    0    0    0  501 -0.00000000000E+00 -0.00000000000E+00 -0.50561422528E+01  0.50561428958E+01  0.25500000000E-02 0.  1.
         23    2    1    2    0    0  0.00000000000E+00 -0.17763568394E-14  0.39134083718E+03  0.40145312234E+03  0.89537470308E+02 0.  0.
    9000005    2    3    3    0    0  0.20459408519E+02  0.15549843419E+02  0.35892016715E+03  0.36008302598E+03  0.13255722739E+02 0.  0.
         22    1    3    3    0    0 -0.20459408519E+02 -0.15549843419E+02  0.32420670031E+02  0.41370096357E+02  0.00000000000E+00 0.  1.
         22    1    4    4    0    0  0.11333862022E+02  0.15892579477E+02  0.22071772816E+03  0.22157920940E+03  0.00000000000E+00 0.  1.
         22    1    4    4    0    0  0.91255464969E+01 -0.34273605753E+00  0.13820243898E+03  0.13850381658E+03  0.00000000000E+00 0.  1.
<mgrwt>
<rscale>  0 0.89537470E+02</rscale>
<asrwt>0</asrwt>
<pdfrwt beam="1">  1        2 0.60984176E-01 0.89537470E+02</pdfrwt>
<pdfrwt beam="2">  1       -2 0.77786776E-03 0.89537470E+02</pdfrwt>
<totfact> 0.20878587E+05</totfact>
</mgrwt>
</event>
<event>
 7    1  0.3056193E-009  0.9153233E+02  0.7818608E-02  0.1299183E+00
          2   -1    0    0  501    0  0.00000000000E+00  0.00000000000E+00  0.16190988265E+03  0.16190988267E+03  0.25500000000E-02 0. -1.
         -2   -1    0    0    0  501 -0.00000000000E+00 -0.00000000000E+00 -0.12936468199E+02  0.12936468450E+02  0.25500000000E-02 0.  1.
         23    2    1    2    0    0  0.00000000000E+00 -0.17763568394E-14  0.14897341445E+03  0.17484635112E+03  0.91532334653E+02 0.  0.
    9000005    2    3    3    0    0 -0.28124467116E+02  0.11085132316E+02  0.10713765771E+02  0.33320394977E+02  0.90331686254E+01 0.  0.
         22    1    3    3    0    0  0.28124467116E+02 -0.11085132316E+02  0.13825964868E+03  0.14152595615E+03  0.00000000000E+00 0. -1.
         22    1    4    4    0    0 -0.89139536960E+01 -0.13967888640E+00  0.76469865098E+00  0.89477843466E+01  0.00000000000E+00 0.  1.
         22    1    4    4    0    0 -0.19210513420E+02  0.11224811203E+02  0.99490671198E+01  0.24372610631E+02  0.00000000000E+00 0.  1.
<mgrwt>
<rscale>  0 0.91532335E+02</rscale>
<asrwt>0</asrwt>
<pdfrwt beam="1">  1        2 0.24909213E-01 0.91532335E+02</pdfrwt>
<pdfrwt beam="2">  1       -2 0.19902259E-02 0.91532335E+02</pdfrwt>
<totfact> 0.14201767E+05</totfact>
</mgrwt>
</event>
<event>
 7    1  0.3056193E-009  0.9195601E+02  0.7818608E-02  0.1298183E+00
         -2   -1    0    0    0  501 -0.00000000000E+00  0.00000000000E+00  0.13827731403E+03  0.13827731405E+03  0.25500000000E-02 0.  1.
          2   -1    0    0  501    0  0.00000000000E+00 -0.00000000000E+00 -0.15287952296E+02  0.15287952508E+02  0.25500000000E-02 0. -1.
         23    2    1    2    0    0  0.00000000000E+00 -0.35527136788E-14  0.12298936173E+03  0.15356526656E+03  0.91956011191E+02 0.  0.
    9000005    2    3    3    0    0  0.19418358793E+02  0.28857120866E+02  0.16593304854E+02  0.41628110074E+02  0.15740257286E+02 0.  0.
         22    1    3    3    0    0 -0.19418358793E+02 -0.28857120866E+02  0.10639605688E+03  0.11193715648E+03  0.00000000000E+00 0.  1.
         22    1    4    4    0    0  0.13936002462E+02  0.24295516689E+02  0.56607807930E+01  0.28574966929E+02  0.00000000000E+00 0. -1.
         22    1    4    4    0    0  0.54823563313E+01  0.45616041776E+01  0.10932524061E+02  0.13053143145E+02  0.00000000000E+00 0. -1.
<mgrwt>
<rscale>  0 0.91956011E+02</rscale>
<asrwt>0</asrwt>
<pdfrwt beam="2">  1        2 0.23519928E-02 0.91956011E+02</pdfrwt>
<pdfrwt beam="1">  1       -2 0.21273432E-01 0.91956011E+02</pdfrwt>
<totfact> 0.70380662E+04</totfact>
</mgrwt>
</event>
<event>
 7    1  0.3056193E-009  0.9109214E+02  0.7818608E-02  0.1300228E+00
          2   -1    0    0  501    0  0.00000000000E+00  0.00000000000E+00  0.10570362396E+03  0.10570362399E+03  0.25500000000E-02 0.  1.
         -2   -1    0    0    0  501 -0.00000000000E+00 -0.00000000000E+00 -0.19625102603E+02  0.19625102768E+02  0.25500000000E-02 0. -1.
         23    2    1    2    0    0  0.00000000000E+00  0.17763568394E-14  0.86078521357E+02  0.12532872676E+03  0.91092139682E+02 0.  0.
    9000005    2    3    3    0    0 -0.37762168124E+02 -0.11457469957E+02  0.13650625173E+02  0.42848092032E+02  0.96106432662E+01 0.  0.
         22    1    3    3    0    0  0.37762168124E+02  0.11457469957E+02  0.72427896184E+02  0.82480634726E+02  0.00000000000E+00 0.  1.
         22    1    4    4    0    0 -0.12127642112E+02 -0.59100426019E+01  0.48136843332E+00  0.13499630451E+02  0.00000000000E+00 0. -1.
         22    1    4    4    0    0 -0.25634526011E+02 -0.55474273553E+01  0.13169256740E+02  0.29348461581E+02  0.00000000000E+00 0. -1.
<mgrwt>
<rscale>  0 0.91092140E+02</rscale>
<asrwt>0</asrwt>
<pdfrwt beam="1">  1        2 0.16262096E-01 0.91092140E+02</pdfrwt>
<pdfrwt beam="2">  1       -2 0.30192465E-02 0.91092140E+02</pdfrwt>
<totfact> 0.12510159E+05</totfact>
</mgrwt>
</event>
<event>
 6    1  0.3056193E-009  0.1425166E+03  0.7818608E-02  0.1209982E+00
          2   -1    0    0  501    0  0.00000000000E+00  0.00000000000E+00  0.90166095973E+03  0.90166095973E+03  0.25500000000E-02 0.  1.
         -2   -1    0    0    0  501 -0.00000000000E+00 -0.00000000000E+00 -0.56315448257E+01  0.56315454031E+01  0.25500000000E-02 0. -1.
    9000005    2    1    2    0    0  0.42714943513E+02 -0.43351305998E+01  0.80980539581E+03  0.81097043485E+03  0.67012947078E+01 0.  0.
         22    1    1    2    0    0 -0.42714943513E+02  0.43351305998E+01  0.86224019088E+02  0.96322070287E+02  0.00000000000E+00 0. -1.
         22    1    3    3    0    0  0.13833221193E+02 -0.44502530953E+01  0.25472908511E+03  0.25514323343E+03  0.00000000000E+00 0. -1.
         22    1    3    3    0    0  0.28881722320E+02  0.11512249550E+00  0.55507631070E+03  0.55582720142E+03  0.00000000000E+00 0. -1.
<mgrwt>
<rscale>  0 0.14251659E+03</rscale>
<asrwt>0</asrwt>
<pdfrwt beam="1">  1        2 0.13871700E+00 0.14251659E+03</pdfrwt>
<pdfrwt beam="2">  1       -2 0.86639200E-03 0.14251659E+03</pdfrwt>
<totfact> 0.74509281E+04</totfact>
</mgrwt>
</event>
<event>
 7    1  0.3056193E-009  0.9070677E+02  0.7818608E-02  0.1301149E+00
         -2   -1    0    0    0  501 -0.00000000000E+00  0.00000000000E+00  0.16342405174E+03  0.16342405176E+03  0.25500000000E-02 0. -1.
          2   -1    0    0  501    0  0.00000000000E+00 -0.00000000000E+00 -0.12586456236E+02  0.12586456494E+02  0.25500000000E-02 0.  1.
         23    2    1    2    0    0  0.00000000000E+00  0.22204460493E-15  0.15083759550E+03  0.17601050825E+03  0.90706773717E+02 0.  0.
    9000005    2    3    3    0    0  0.29080743253E+02  0.38142310983E+00  0.10376904804E+02  0.32570483352E+02  0.10359590762E+02 0.  0.
         22    1    3    3    0    0 -0.29080743253E+02 -0.38142310983E+00  0.14046069070E+03  0.14344002490E+03  0.00000000000E+00 0. -1.
         22    1    4    4    0    0  0.25585673574E+02  0.37742721181E+01  0.75657633405E+01  0.26946476526E+02  0.00000000000E+00 0.  1.
         22    1    4    4    0    0  0.34950696794E+01 -0.33928490083E+01  0.28111414633E+01  0.56240068264E+01  0.00000000000E+00 0.  1.
<mgrwt>
<rscale>  0 0.90706774E+02</rscale>
<asrwt>0</asrwt>
<pdfrwt beam="2">  1        2 0.19363779E-02 0.90706774E+02</pdfrwt>
<pdfrwt beam="1">  1       -2 0.25142161E-01 0.90706774E+02</pdfrwt>
<totfact> 0.68551516E+04</totfact>
</mgrwt>
</event>
<event>
 7    1  0.3056193E-009  0.9097999E+02  0.7818608E-02  0.1300496E+00
         -2   -1    0    0    0  501 -0.00000000000E+00  0.00000000000E+00  0.14204308842E+02  0.14204309071E+02  0.25500000000E-02 0.  1.
          2   -1    0    0  501    0  0.00000000000E+00 -0.00000000000E+00 -0.14568392168E+03  0.14568392170E+03  0.25500000000E-02 0. -1.
         23    2    1    2    0    0  0.00000000000E+00  0.00000000000E+00 -0.13147961284E+03  0.15988823077E+03  0.90979985424E+02 0.  0.
    9000005    2    3    3    0    0  0.43679277423E+01  0.97611924893E+01 -0.14320573438E+03  0.14401808275E+03  0.10907159531E+02 0.  0.
         22    1    3    3    0    0 -0.43679277423E+01 -0.97611924893E+01  0.11726121545E+02  0.15870148017E+02  0.00000000000E+00 0.  1.
         22    1    4    4    0    0 -0.26743676848E+01 -0.59746512383E+00 -0.27647583766E+02  0.27783054101E+02  0.00000000000E+00 0. -1.
         22    1    4    4    0    0  0.70422954271E+01  0.10358657613E+02 -0.11555815061E+03  0.11623502865E+03  0.00000000000E+00 0. -1.
<mgrwt>
<rscale>  0 0.90979985E+02</rscale>
<asrwt>0</asrwt>
<pdfrwt beam="2">  1        2 0.22412910E-01 0.90979985E+02</pdfrwt>
<pdfrwt beam="1">  1       -2 0.21852784E-02 0.90979985E+02</pdfrwt>
<totfact> 0.13924831E+05</totfact>
</mgrwt>
</event>
<event>
 7    1  0.3056193E-009  0.9229050E+02  0.7818608E-02  0.1297398E+00
          2   -1    0    0  501    0  0.00000000000E+00  0.00000000000E+00  0.65036573410E+02  0.65036573460E+02  0.25500000000E-02 0. -1.
         -2   -1    0    0    0  501 -0.00000000000E+00 -0.00000000000E+00 -0.32741330224E+02  0.32741330323E+02  0.25500000000E-02 0.  1.
         23    2    1    2    0    0  0.35527136788E-14  0.00000000000E+00  0.32295243186E+02  0.97777903783E+02  0.92290496454E+02 0.  0.
    9000005    2    3    3    0    0  0.25195481046E+02  0.37704630581E+02  0.25182592076E+02  0.51875384917E+02  0.66421697569E+00 0.  0.
         22    1    3    3    0    0 -0.25195481046E+02 -0.37704630581E+02  0.71126511096E+01  0.45902518866E+02  0.00000000000E+00 0.  1.
         22    1    4    4    0    0  0.15690183737E+02  0.22935602570E+02  0.15298898842E+02  0.31721917292E+02  0.00000000000E+00 0. -1.
         22    1    4    4    0    0  0.95052973092E+01  0.14769028012E+02  0.98836932344E+01  0.20153467625E+02  0.00000000000E+00 0. -1.
<mgrwt>
<rscale>  0 0.92290496E+02</rscale>
<asrwt>0</asrwt>
<pdfrwt beam="1">  1        2 0.10005627E-01 0.92290496E+02</pdfrwt>
<pdfrwt beam="2">  1       -2 0.50371277E-02 0.92290496E+02</pdfrwt>
<totfact> 0.10476565E+05</totfact>
</mgrwt>
</event>
<event>
 7    1  0.3056193E-009  0.9073336E+02  0.7818608E-02  0.1301085E+00
          2   -1    0    0  501    0  0.00000000000E+00  0.00000000000E+00  0.46441540146E+03  0.46441540147E+03  0.25500000000E-02 0. -1.
         -2   -1    0    0    0  501 -0.00000000000E+00 -0.00000000000E+00 -0.44316692446E+01  0.44316699782E+01  0.25500000000E-02 0.  1.
         23    2    1    2    0    0  0.35527136788E-14  0.00000000000E+00  0.45998373222E+03  0.46884707145E+03  0.90733359355E+02 0.  0.
    9000005    2    3    3    0    0  0.18983902389E+02 -0.24720595505E+02  0.40004171461E+03  0.40128567813E+03  0.50324599058E+01 0.  0.
         22    1    3    3    0    0 -0.18983902389E+02  0.24720595505E+02  0.59942017608E+02  0.67561393317E+02  0.00000000000E+00 0.  1.
         22    1    4    4    0    0  0.16761424311E+02 -0.22841856084E+02  0.37655882317E+03  0.37762314950E+03  0.00000000000E+00 0.  1.
         22    1    4    4    0    0  0.22224780781E+01 -0.18787394211E+01  0.23482891442E+02  0.23662528628E+02  0.00000000000E+00 0.  1.
<mgrwt>
<rscale>  0 0.90733359E+02</rscale>
<asrwt>0</asrwt>
<pdfrwt beam="1">  1        2 0.71448469E-01 0.90733359E+02</pdfrwt>
<pdfrwt beam="2">  1       -2 0.68179585E-03 0.90733359E+02</pdfrwt>
<totfact> 0.21301759E+05</totfact>
</mgrwt>
</event>
<event>
 7    1  0.3056193E-009  0.9658608E+02  0.7818608E-02  0.1287643E+00
          2   -1    0    0  501    0  0.00000000000E+00  0.00000000000E+00  0.71560719012E+02  0.71560719057E+02  0.25500000000E-02 0. -1.
         -2   -1    0    0    0  501 -0.00000000000E+00 -0.00000000000E+00 -0.32590750802E+02  0.32590750902E+02  0.25500000000E-02 0.  1.
         23    2    1    2    0    0  0.00000000000E+00  0.71054273576E-14  0.38969968209E+02  0.10415146996E+03  0.96586077011E+02 0.  0.
    9000005    2    3    3    0    0  0.34787278078E+02  0.32684284777E+02  0.25763902838E+02  0.54625543919E+02  0.64617467874E+01 0.  0.
         22    1    3    3    0    0 -0.34787278078E+02 -0.32684284777E+02  0.13206065371E+02  0.49525926040E+02  0.00000000000E+00 0. -1.
         22    1    4    4    0    0  0.93446470741E+01  0.91996378550E+01  0.39206187939E+01  0.13686746046E+02  0.00000000000E+00 0. -1.
         22    1    4    4    0    0  0.25442631004E+02  0.23484646922E+02  0.21843284044E+02  0.40938797873E+02  0.00000000000E+00 0. -1.
<mgrwt>
<rscale>  0 0.96586077E+02</rscale>
<asrwt>0</asrwt>
<pdfrwt beam="1">  1        2 0.11009341E-01 0.96586077E+02</pdfrwt>
<pdfrwt beam="2">  1       -2 0.50139617E-02 0.96586077E+02</pdfrwt>
<totfact> 0.94655301E+04</totfact>
</mgrwt>
</event>
<event>
 7    1  0.3056193E-009  0.9081744E+02  0.7818608E-02  0.1300884E+00
          2   -1    0    0  501    0  0.00000000000E+00  0.00000000000E+00  0.20757649658E+02  0.20757649814E+02  0.25500000000E-02 0. -1.
         -2   -1    0    0    0  501 -0.00000000000E+00 -0.00000000000E+00 -0.99334556386E+02  0.99334556419E+02  0.25500000000E-02 0.  1.
         23    2    1    2    0    0  0.00000000000E+00 -0.17763568394E-14 -0.78576906728E+02  0.12009220623E+03  0.90817441755E+02 0.  0.
    9000005    2    3    3    0    0  0.32748123276E+02 -0.15886044706E+02 -0.34484993489E+01  0.36611168926E+02  0.19182147522E+01 0.  0.
         22    1    3    3    0    0 -0.32748123276E+02  0.15886044706E+02 -0.75128407379E+02  0.83481037307E+02  0.00000000000E+00 0.  1.
         22    1    4    4    0    0  0.31548156117E+02 -0.15024598271E+02 -0.35907522300E+01  0.35127171950E+02  0.00000000000E+00 0. -1.
         22    1    4    4    0    0  0.11999671592E+01 -0.86144643498E+00  0.14225288108E+00  0.14839969763E+01  0.00000000000E+00 0. -1.
<mgrwt>
<rscale>  0 0.90817442E+02</rscale>
<asrwt>0</asrwt>
<pdfrwt beam="1">  1        2 0.31934846E-02 0.90817442E+02</pdfrwt>
<pdfrwt beam="2">  1       -2 0.15282239E-01 0.90817442E+02</pdfrwt>
<totfact> 0.80754543E+04</totfact>
</mgrwt>
</event>
